#INFO: **** input file is /home/ltkoanh/Al_B2LYP_6311_Gd_Cluster/Cluster/Al13-neutral-doublet/input.py ****
import numpy
from pyscf import gto, scf, dft, mp, cc
from pyscf.mp import uobmp2_mom_conv, dfuobmp2_mom_conv, uhf_mom
from pyscf.mp import  mp2, ump2
from pyscf.tools import molden
import os
from functools import reduce


mol = gto.Mole()
geom = os.environ.get('geom_txt')
mol.atom = geom
mol.basis = os.environ.get('basis', 'cc-pvdz')
mol.unit = 'A'
mol.charge = int(os.environ.get('charge', 0))
mol.spin = int(os.environ.get('spin', 0))
mol.verbose = 4
mol.build()

#################### Ground state using density fitting
### Hartree-Fock
a  = scf.UHF(mol).density_fit()
a.kernel()

### Ground state OBMP2 calculation
ob = dfuobmp2_mom_conv.DFUOBMP2(a)
ob.second_order = True
ob.thresh = 10e-6
ob.css = 1
ob.cos = 1
e_obmp2g = ob.kernel()

### Ground state O2BMP2 calculation
ob = dfuobmp2_mom_conv.DFUOBMP2(a)
ob.second_order = True
ob.thresh = 10e-6
ob.css = 0                             
ob.cos = 1.2                             
e_o2bmp2g = ob.kernel()  

#################### Ground state NOT using density fitting
### Hartree-Fock
a  = scf.UHF(mol)
a.kernel()

### Ground state OBMP2 calculation
ob = uobmp2_mom_conv.UOBMP2(a)
ob.second_order = True
ob.thresh = 10e-6
ob.css = 1
ob.cos = 1
#e_obmp2g = ob.kernel()

### Ground state O2BMP2 calculation
ob = uobmp2_mom_conv.UOBMP2(a)
ob.second_order = True
ob.thresh = 10e-6
ob.css = 0
ob.cos = 1.2   ## the cos can be vary ...                        	 
#e_o2bmp2g = ob.kernel()


## Results from density-fitting approximate with non-using density fitting 
## check results between df and non-df with small molecules before running the important molecules
#INFO: ******************** input file end ********************


System: uname_result(system='Linux', node='comphys', release='3.10.0-1160.119.1.el7.x86_64', version='#1 SMP Tue Jun 4 14:43:51 UTC 2024', machine='x86_64', processor='x86_64')  Threads 8
Python 3.7.9 (default, Dec  4 2023, 13:00:18) 
[GCC 4.8.5 20150623 (Red Hat 4.8.5-44)]
numpy 1.21.6  scipy 1.7.3
Date: Tue May 27 18:28:06 2025
PySCF version 1.7.0
PySCF path  /share/installs/pyscf/pyscf
GIT HEAD      ref: refs/heads/ob-mp2
GIT ob-mp2 branch  f0fc63383ab6c719c0c91f5e07a6895c637b700d

[CONFIG] conf_file None
[INPUT] verbose = 4
[INPUT] num. atoms = 13
[INPUT] num. electrons = 169
[INPUT] charge = 0
[INPUT] spin (= nelec alpha-beta = 2S) = 1
[INPUT] symmetry False subgroup None
[INPUT] Mole.unit = A
[INPUT]  1 Al    -1.510364000000   2.322337000000  -0.479028000000 AA   -2.854174308403   4.388580898944  -0.905231725998 Bohr
[INPUT]  2 Al     0.883748000000   2.001798000000  -1.643181000000 AA    1.670041683132   3.782849976702  -3.105162063089 Bohr
[INPUT]  3 Al    -2.224062000000   0.009098000000  -1.613682000000 AA   -4.202868064052   0.017192728281  -3.049417032140 Bohr
[INPUT]  4 Al    -2.456641000000  -0.248728000000   1.154147000000 AA   -4.642378676378  -0.470027799511   2.181021737488 Bohr
[INPUT]  5 Al     2.566727000000   0.019352000000  -0.901408000000 AA    4.850411066527   0.036569979963  -1.703414246492 Bohr
[INPUT]  6 Al     0.289851000000  -0.643468000000  -2.438105000000 AA    0.547739006931  -1.215978289922  -4.607350712933 Bohr
[INPUT]  7 Al    -1.348727000000  -2.298583000000  -0.584310000000 AA   -2.548724646806  -4.343692344581  -1.104185871845 Bohr
[INPUT]  8 Al     1.306450000000  -2.328959000000  -0.459540000000 AA    2.468832695438  -4.401094665341  -0.868404743283 Bohr
[INPUT]  9 Al    -0.785425000000   1.690127000000   2.130003000000 AA   -1.484238141387   3.193877145733   4.025122314502 Bohr
[INPUT] 10 Al     1.657973000000   1.951788000000   1.019445000000 AA    3.133114891924   3.688344773213   1.926471849057 Bohr
[INPUT] 11 Al     2.000568000000  -0.671867000000   1.746405000000 AA    3.780525613569  -1.269644622133   3.300227152571 Bohr
[INPUT] 12 Al    -0.355506000000  -1.868379000000   1.971735000000 AA   -0.671808975640  -3.530724606889   3.726039140219 Bohr
[INPUT] 13 Al    -0.024591000000   0.065485000000   0.097520000000 AA   -0.046470255129   0.123748715267   0.184286091668 Bohr

nuclear repulsion = 2007.07971573826
number of shells = 65
number of NR pGTOs = 702
number of NR cGTOs = 117
basis = sto-6g
ecp = {}
CPU time:         1.42


******** <class 'pyscf.df.df_jk.density_fit.<locals>.DFHF'> ********
method = DFHF-UHF
initial guess = minao
damping factor = 0
level_shift factor = 0
DIIS = <class 'pyscf.scf.diis.CDIIS'>
diis_start_cycle = 1
diis_space = 8
SCF conv_tol = 1e-09
SCF conv_tol_grad = None
SCF max_cycles = 50
direct_scf = True
direct_scf_tol = 1e-13
chkfile to save SCF result = /home/ltkoanh/Al_B2LYP_6311_Gd_Cluster/Cluster/Al13-neutral-doublet/tmpd0_mo_ck
max_memory 4000 MB (current use 60 MB)
number electrons alpha = 85  beta = 84
Set gradient conv threshold to 3.16228e-05
******** <class 'pyscf.df.df.DF'> ********
auxbasis = None
max_memory = 4000
_cderi_to_save = /home/ltkoanh/Al_B2LYP_6311_Gd_Cluster/Cluster/Al13-neutral-doublet/tmp5m74qevf
Even tempered Gaussians are generated as DF auxbasis for  Al
init E= -3134.4397256505
  alpha nocc = 85  HOMO = -0.240356226835036  LUMO = -0.176429434288391
  beta  nocc = 84  HOMO = -0.278112724204692  LUMO = -0.240356226835036

WARN: system HOMO -0.240356226835036 >= system LUMO -0.240356226835036

cycle= 1 E= -3131.75381881727  delta_E= 2.69  |g|= 0.301  |ddm|= 4.07
  alpha nocc = 85  HOMO = 0.0724259767714594  LUMO = 0.247449660883755
  beta  nocc = 84  HOMO = 0.0747465878145406  LUMO = 0.249866609250126
cycle= 2 E= -3131.79864259744  delta_E= -0.0448  |g|= 0.224  |ddm|= 0.908
  alpha nocc = 85  HOMO = 0.024288044902077  LUMO = 0.227907121163713
  beta  nocc = 84  HOMO = 0.0243528500608198  LUMO = 0.224016621068688
cycle= 3 E= -3131.83864109241  delta_E= -0.04  |g|= 0.0569  |ddm|= 0.408
  alpha nocc = 85  HOMO = 0.0176876609228644  LUMO = 0.222885054558473
  beta  nocc = 84  HOMO = 0.0204199487758984  LUMO = 0.222763585280072
cycle= 4 E= -3131.84227349267  delta_E= -0.00363  |g|= 0.0404  |ddm|= 0.165
  alpha nocc = 85  HOMO = 0.015324123444958  LUMO = 0.223355983952221
  beta  nocc = 84  HOMO = 0.0178408199420451  LUMO = 0.224652024580593
cycle= 5 E= -3131.84548593233  delta_E= -0.00321  |g|= 0.0165  |ddm|= 0.127
  alpha nocc = 85  HOMO = 0.0145299784236771  LUMO = 0.223656444597835
  beta  nocc = 84  HOMO = 0.0169141227104641  LUMO = 0.225474496358327
cycle= 6 E= -3131.84714062701  delta_E= -0.00165  |g|= 0.0156  |ddm|= 0.123
  alpha nocc = 85  HOMO = 0.013790727154951  LUMO = 0.223733763613323
  beta  nocc = 84  HOMO = 0.0166820444387073  LUMO = 0.225840175075139
cycle= 7 E= -3131.84795333924  delta_E= -0.000813  |g|= 0.0106  |ddm|= 0.0668
  alpha nocc = 85  HOMO = 0.013728388287729  LUMO = 0.223707335550385
  beta  nocc = 84  HOMO = 0.0168242722534674  LUMO = 0.226148243765763
cycle= 8 E= -3131.84905998338  delta_E= -0.00111  |g|= 0.00989  |ddm|= 0.105
  alpha nocc = 85  HOMO = 0.0137075114365423  LUMO = 0.223710095981809
  beta  nocc = 84  HOMO = 0.0167984550051246  LUMO = 0.226205881539847
cycle= 9 E= -3131.84943015577  delta_E= -0.00037  |g|= 0.0095  |ddm|= 0.0353
  alpha nocc = 85  HOMO = 0.0136312290240196  LUMO = 0.223658443756321
  beta  nocc = 84  HOMO = 0.0167616896080643  LUMO = 0.226250447257198
cycle= 10 E= -3131.84980884655  delta_E= -0.000379  |g|= 0.00953  |ddm|= 0.0359
  alpha nocc = 85  HOMO = 0.0136868140970025  LUMO = 0.223731190508782
  beta  nocc = 84  HOMO = 0.0167706378385575  LUMO = 0.226209643804996
cycle= 11 E= -3131.8494312646  delta_E= 0.000378  |g|= 0.00941  |ddm|= 0.0361
  alpha nocc = 85  HOMO = 0.0136631102263983  LUMO = 0.223912383067072
  beta  nocc = 84  HOMO = 0.0165256319322252  LUMO = 0.225949358675529
cycle= 12 E= -3131.84823898952  delta_E= 0.00119  |g|= 0.00873  |ddm|= 0.126
  alpha nocc = 85  HOMO = 0.0138897487426228  LUMO = 0.224404118375472
  beta  nocc = 84  HOMO = 0.0166619464843285  LUMO = 0.225797856157386
cycle= 13 E= -3131.84744628183  delta_E= 0.000793  |g|= 0.00787  |ddm|= 0.146
  alpha nocc = 85  HOMO = 0.0137000802357091  LUMO = 0.224431956985555
  beta  nocc = 84  HOMO = 0.0163356348593518  LUMO = 0.225537034848313
cycle= 14 E= -3131.84746245401  delta_E= -1.62e-05  |g|= 0.00727  |ddm|= 0.076
  alpha nocc = 85  HOMO = 0.0135859202635137  LUMO = 0.224464922212005
  beta  nocc = 84  HOMO = 0.0164275848413087  LUMO = 0.225642597670329
cycle= 15 E= -3131.84778799141  delta_E= -0.000326  |g|= 0.00711  |ddm|= 0.054
  alpha nocc = 85  HOMO = 0.0135185868304271  LUMO = 0.224551946291561
  beta  nocc = 84  HOMO = 0.0164713945295012  LUMO = 0.225767265272688
cycle= 16 E= -3131.84805381039  delta_E= -0.000266  |g|= 0.00708  |ddm|= 0.036
  alpha nocc = 85  HOMO = 0.0134159132126488  LUMO = 0.22455853412869
  beta  nocc = 84  HOMO = 0.0164268922010728  LUMO = 0.225816997356448
cycle= 17 E= -3131.84823463343  delta_E= -0.000181  |g|= 0.00709  |ddm|= 0.0234
  alpha nocc = 85  HOMO = 0.0134242242235825  LUMO = 0.224563006748734
  beta  nocc = 84  HOMO = 0.0164282341725473  LUMO = 0.225806886953265
cycle= 18 E= -3131.84817821944  delta_E= 5.64e-05  |g|= 0.00707  |ddm|= 0.00734
  alpha nocc = 85  HOMO = 0.0133801031133114  LUMO = 0.22471155984491
  beta  nocc = 84  HOMO = 0.0164648108481485  LUMO = 0.225790460412178
cycle= 19 E= -3131.84775211029  delta_E= 0.000426  |g|= 0.00699  |ddm|= 0.0599
  alpha nocc = 85  HOMO = 0.0134045031030101  LUMO = 0.224775093209094
  beta  nocc = 84  HOMO = 0.0165199388406588  LUMO = 0.225720658071395
cycle= 20 E= -3131.84732415201  delta_E= 0.000428  |g|= 0.00678  |ddm|= 0.0717
  alpha nocc = 85  HOMO = 0.0132638043628596  LUMO = 0.224902311427722
  beta  nocc = 84  HOMO = 0.0166171297949853  LUMO = 0.22576110334663
cycle= 21 E= -3131.84715702625  delta_E= 0.000167  |g|= 0.0066  |ddm|= 0.0519
  alpha nocc = 85  HOMO = 0.0130976113578668  LUMO = 0.224891069553454
  beta  nocc = 84  HOMO = 0.016562159680709  LUMO = 0.225738868256967
cycle= 22 E= -3131.84713780065  delta_E= 1.92e-05  |g|= 0.00647  |ddm|= 0.0253
  alpha nocc = 85  HOMO = 0.012960792146999  LUMO = 0.224993662200148
  beta  nocc = 84  HOMO = 0.0165579035051846  LUMO = 0.225859448374345
cycle= 23 E= -3131.84722406032  delta_E= -8.63e-05  |g|= 0.00643  |ddm|= 0.028
  alpha nocc = 85  HOMO = 0.0128904970112641  LUMO = 0.225031535448864
  beta  nocc = 84  HOMO = 0.0165303106006736  LUMO = 0.225903843122007
cycle= 24 E= -3131.84731862791  delta_E= -9.46e-05  |g|= 0.00643  |ddm|= 0.0151
  alpha nocc = 85  HOMO = 0.0128912583131748  LUMO = 0.225019115245634
  beta  nocc = 84  HOMO = 0.0165297115660583  LUMO = 0.225890786986233
cycle= 25 E= -3131.84731634665  delta_E= 2.28e-06  |g|= 0.00643  |ddm|= 0.00398
  alpha nocc = 85  HOMO = 0.0128994642819516  LUMO = 0.225035997314718
  beta  nocc = 84  HOMO = 0.0165345780163021  LUMO = 0.225899263708346
cycle= 26 E= -3131.8472725692  delta_E= 4.38e-05  |g|= 0.00642  |ddm|= 0.00663
  alpha nocc = 85  HOMO = 0.0127676473697922  LUMO = 0.225142119780948
  beta  nocc = 84  HOMO = 0.0166407930803537  LUMO = 0.225831177958705
cycle= 27 E= -3131.84672412282  delta_E= 0.000548  |g|= 0.00614  |ddm|= 0.0895
  alpha nocc = 85  HOMO = 0.0124673107457328  LUMO = 0.225489190323921
  beta  nocc = 84  HOMO = 0.0170003377079536  LUMO = 0.22574898460377
cycle= 28 E= -3131.84600467009  delta_E= 0.000719  |g|= 0.00569  |ddm|= 0.142
  alpha nocc = 85  HOMO = 0.012118926792642  LUMO = 0.225721295969174
  beta  nocc = 84  HOMO = 0.0174080148099203  LUMO = 0.225534719149731
cycle= 29 E= -3131.84569331718  delta_E= 0.000311  |g|= 0.00571  |ddm|= 0.113
  alpha nocc = 85  HOMO = 0.0119687187050651  LUMO = 0.225771754989884
  beta  nocc = 84  HOMO = 0.017734720289333  LUMO = 0.225256814314106
cycle= 30 E= -3131.84563353339  delta_E= 5.98e-05  |g|= 0.00521  |ddm|= 0.0657
  alpha nocc = 85  HOMO = 0.0119357600756379  LUMO = 0.225763285173305
  beta  nocc = 84  HOMO = 0.0177558334049393  LUMO = 0.225231974842474
cycle= 31 E= -3131.84565300827  delta_E= -1.95e-05  |g|= 0.00513  |ddm|= 0.0139
  alpha nocc = 85  HOMO = 0.0118909708922424  LUMO = 0.225779564926452
  beta  nocc = 84  HOMO = 0.0178689099192432  LUMO = 0.225301259167366
cycle= 32 E= -3131.84574832101  delta_E= -9.53e-05  |g|= 0.00517  |ddm|= 0.0256
  alpha nocc = 85  HOMO = 0.011886292336328  LUMO = 0.225810328725813
  beta  nocc = 84  HOMO = 0.0176497997885346  LUMO = 0.225238051522611
cycle= 33 E= -3131.84555055453  delta_E= 0.000198  |g|= 0.00511  |ddm|= 0.0518
  alpha nocc = 85  HOMO = 0.0120353628151244  LUMO = 0.225629843784237
  beta  nocc = 84  HOMO = 0.0176517567487391  LUMO = 0.225061191600688
cycle= 34 E= -3131.84554773089  delta_E= 2.82e-06  |g|= 0.00512  |ddm|= 0.0222
  alpha nocc = 85  HOMO = 0.0121056930588346  LUMO = 0.22554186016247
  beta  nocc = 84  HOMO = 0.0176978868631414  LUMO = 0.22501024706538
cycle= 35 E= -3131.84559784549  delta_E= -5.01e-05  |g|= 0.00514  |ddm|= 0.0107
  alpha nocc = 85  HOMO = 0.0119865121093314  LUMO = 0.225644760477591
  beta  nocc = 84  HOMO = 0.0176933017974288  LUMO = 0.225050036875776
cycle= 36 E= -3131.84554048112  delta_E= 5.74e-05  |g|= 0.00512  |ddm|= 0.0171
  alpha nocc = 85  HOMO = 0.0119243800060559  LUMO = 0.225813032118341
  beta  nocc = 84  HOMO = 0.0177805097096881  LUMO = 0.225058379454841
cycle= 37 E= -3131.84537736269  delta_E= 0.000163  |g|= 0.00508  |ddm|= 0.0433
  alpha nocc = 85  HOMO = 0.0118585755202808  LUMO = 0.225922550744533
  beta  nocc = 84  HOMO = 0.0177790164201778  LUMO = 0.22504511120414
cycle= 38 E= -3131.84522834462  delta_E= 0.000149  |g|= 0.00505  |ddm|= 0.038
  alpha nocc = 85  HOMO = 0.0118733898319032  LUMO = 0.225897437338289
  beta  nocc = 84  HOMO = 0.0177881739538514  LUMO = 0.22500546554208
cycle= 39 E= -3131.84522506598  delta_E= 3.28e-06  |g|= 0.00508  |ddm|= 0.01
  alpha nocc = 85  HOMO = 0.0118350772286297  LUMO = 0.225875968063959
  beta  nocc = 84  HOMO = 0.0177996658256978  LUMO = 0.225030484189482
cycle= 40 E= -3131.84531581701  delta_E= -9.08e-05  |g|= 0.00512  |ddm|= 0.0184
  alpha nocc = 85  HOMO = 0.0118149059775066  LUMO = 0.225913060045825
  beta  nocc = 84  HOMO = 0.0177662526607005  LUMO = 0.224991378226322
cycle= 41 E= -3131.84524560508  delta_E= 7.02e-05  |g|= 0.0051  |ddm|= 0.0176
  alpha nocc = 85  HOMO = 0.0117887338556181  LUMO = 0.22632709185143
  beta  nocc = 84  HOMO = 0.017569875087311  LUMO = 0.224870394630618
cycle= 42 E= -3131.84463684433  delta_E= 0.000609  |g|= 0.00486  |ddm|= 0.132
  alpha nocc = 85  HOMO = 0.0117162661269938  LUMO = 0.226803787073286
  beta  nocc = 84  HOMO = 0.0173314197700897  LUMO = 0.224840568894203
cycle= 43 E= -3131.84419438344  delta_E= 0.000442  |g|= 0.00482  |ddm|= 0.111
  alpha nocc = 85  HOMO = 0.011863608780618  LUMO = 0.226648854944276
  beta  nocc = 84  HOMO = 0.0173686543198793  LUMO = 0.224621934369791
cycle= 44 E= -3131.84414629199  delta_E= 4.81e-05  |g|= 0.00473  |ddm|= 0.021
  alpha nocc = 85  HOMO = 0.0119700201705297  LUMO = 0.226808580689587
  beta  nocc = 84  HOMO = 0.0172120071454144  LUMO = 0.224604001931328
cycle= 45 E= -3131.84398803704  delta_E= 0.000158  |g|= 0.00469  |ddm|= 0.0408
  alpha nocc = 85  HOMO = 0.0122459896660707  LUMO = 0.226724148999109
  beta  nocc = 84  HOMO = 0.017246420493769  LUMO = 0.224351227712748
cycle= 46 E= -3131.84389488018  delta_E= 9.32e-05  |g|= 0.00448  |ddm|= 0.0379
  alpha nocc = 85  HOMO = 0.0123969493380402  LUMO = 0.22666321337127
  beta  nocc = 84  HOMO = 0.0171567093370483  LUMO = 0.224315108270049
cycle= 47 E= -3131.84404933906  delta_E= -0.000154  |g|= 0.00419  |ddm|= 0.0761
  alpha nocc = 85  HOMO = 0.0125970114594735  LUMO = 0.226880670763948
  beta  nocc = 84  HOMO = 0.0168181082768171  LUMO = 0.224576430941716
cycle= 48 E= -3131.84395714213  delta_E= 9.22e-05  |g|= 0.00408  |ddm|= 0.0412
  alpha nocc = 85  HOMO = 0.0125137085613508  LUMO = 0.226950230279429
  beta  nocc = 84  HOMO = 0.0166493892703709  LUMO = 0.224714884564954
cycle= 49 E= -3131.8441525018  delta_E= -0.000195  |g|= 0.00406  |ddm|= 0.0578
  alpha nocc = 85  HOMO = 0.0126503746259101  LUMO = 0.226753066428647
  beta  nocc = 84  HOMO = 0.0169194051932167  LUMO = 0.224518722316539
cycle= 50 E= -3131.84429053048  delta_E= -0.000138  |g|= 0.00397  |ddm|= 0.0344
SCF not converged.
SCF energy = -3131.84429053048 after 50 cycles  <S^2> = 1.1465936  2S+1 = 2.3635512
shift = 0
thresh = 1e-05 
eri1 (1469, 6903)
eri1 (1469, 6903)
    CPU time for making amplitude: integral transform      1.41 sec, wall time      0.10 sec
shape (1469, 3744)
1st memory: 625.2 MiB
eri1 (1469, 6903)
eri1 (1469, 6903)
2nd memory: 452.3 MiB

========================
iter = 0  energy = -3132.683602 energy diff = 3132.683602
multiplicity <S^2> : Reference = 1.1465936 Response = 1.1463629 Projector = 1.1461322
eri1 (1469, 6903)
eri1 (1469, 6903)
    CPU time for making amplitude: integral transform      1.58 sec, wall time      0.12 sec
shape (1469, 3744)
1st memory: 619.0 MiB
eri1 (1469, 6903)
eri1 (1469, 6903)
2nd memory: 484.7 MiB

========================
iter = 1  energy = -3132.695238 energy diff = 0.011637
multiplicity <S^2> : Reference = 0.97159404 Response = 0.97161984 Projector = 0.97164563
eri1 (1469, 6903)
eri1 (1469, 6903)
    CPU time for making amplitude: integral transform      1.49 sec, wall time      0.11 sec
shape (1469, 3744)
1st memory: 626.6 MiB
eri1 (1469, 6903)
eri1 (1469, 6903)
2nd memory: 485.5 MiB

========================
iter = 2  energy = -3132.707081 energy diff = 0.011843
multiplicity <S^2> : Reference = 0.89401584 Response = 0.89404741 Projector = 0.89407898
eri1 (1469, 6903)
eri1 (1469, 6903)
    CPU time for making amplitude: integral transform      1.25 sec, wall time      0.08 sec
shape (1469, 3744)
1st memory: 625.8 MiB
eri1 (1469, 6903)
eri1 (1469, 6903)
2nd memory: 489.8 MiB

========================
iter = 3  energy = -3132.714526 energy diff = 0.007445
multiplicity <S^2> : Reference = 0.83415557 Response = 0.83405406 Projector = 0.83395256
eri1 (1469, 6903)
eri1 (1469, 6903)
    CPU time for making amplitude: integral transform      1.24 sec, wall time      0.08 sec
shape (1469, 3744)
1st memory: 653.7 MiB
eri1 (1469, 6903)
eri1 (1469, 6903)
2nd memory: 493.4 MiB

========================
iter = 4  energy = -3132.720261 energy diff = 0.005735
multiplicity <S^2> : Reference = 0.78438769 Response = 0.78440802 Projector = 0.78442836
eri1 (1469, 6903)
eri1 (1469, 6903)
    CPU time for making amplitude: integral transform      1.44 sec, wall time      0.10 sec
shape (1469, 3744)
1st memory: 633.8 MiB
eri1 (1469, 6903)
eri1 (1469, 6903)
2nd memory: 545.6 MiB

========================
iter = 5  energy = -3132.722268 energy diff = 0.002006
multiplicity <S^2> : Reference = 0.77216003 Response = 0.77219092 Projector = 0.7722218
eri1 (1469, 6903)
eri1 (1469, 6903)
    CPU time for making amplitude: integral transform      1.39 sec, wall time      0.10 sec
shape (1469, 3744)
1st memory: 638.4 MiB
eri1 (1469, 6903)
eri1 (1469, 6903)
2nd memory: 494.1 MiB

========================
iter = 6  energy = -3132.723089 energy diff = 0.000821
multiplicity <S^2> : Reference = 0.76864078 Response = 0.76866283 Projector = 0.76868488
eri1 (1469, 6903)
eri1 (1469, 6903)
    CPU time for making amplitude: integral transform      1.37 sec, wall time      0.10 sec
shape (1469, 3744)
1st memory: 627.2 MiB
eri1 (1469, 6903)
eri1 (1469, 6903)
2nd memory: 488.4 MiB

========================
iter = 7  energy = -3132.723454 energy diff = 0.000365
multiplicity <S^2> : Reference = 0.77057042 Response = 0.77058584 Projector = 0.77060125
eri1 (1469, 6903)
eri1 (1469, 6903)
    CPU time for making amplitude: integral transform      1.20 sec, wall time      0.08 sec
shape (1469, 3744)
1st memory: 671.3 MiB
eri1 (1469, 6903)
eri1 (1469, 6903)
2nd memory: 490.9 MiB

========================
iter = 8  energy = -3132.723551 energy diff = 0.000097
multiplicity <S^2> : Reference = 0.77406988 Response = 0.77414874 Projector = 0.77422759
eri1 (1469, 6903)
eri1 (1469, 6903)
    CPU time for making amplitude: integral transform      1.44 sec, wall time      0.10 sec
shape (1469, 3744)
1st memory: 626.6 MiB
eri1 (1469, 6903)
eri1 (1469, 6903)
2nd memory: 486.6 MiB

========================
iter = 9  energy = -3132.723559 energy diff = 0.000008
multiplicity <S^2> : Reference = 0.77633073 Response = 0.776285 Projector = 0.77623927

UOB-MP2 has converged
UOB-MP2 energy =  -3132.723558841648
shift = 0
thresh = 1e-05 
eri1 (1469, 6903)
eri1 (1469, 6903)
    CPU time for making amplitude: integral transform      1.37 sec, wall time      0.10 sec
shape (1469, 3744)
1st memory: 616.1 MiB
eri1 (1469, 6903)
eri1 (1469, 6903)
2nd memory: 481.9 MiB

========================
iter = 0  energy = -3132.396394 energy diff = 3132.396394
multiplicity <S^2> : Reference = 1.1465936 Response = 1.1463629 Projector = 1.1461322
eri1 (1469, 6903)
eri1 (1469, 6903)
    CPU time for making amplitude: integral transform      1.38 sec, wall time      0.10 sec
shape (1469, 3744)
1st memory: 626.6 MiB
eri1 (1469, 6903)
eri1 (1469, 6903)
2nd memory: 485.2 MiB

========================
iter = 1  energy = -3132.431881 energy diff = 0.035487
multiplicity <S^2> : Reference = 0.99015078 Response = 0.99007824 Projector = 0.99000571
eri1 (1469, 6903)
eri1 (1469, 6903)
    CPU time for making amplitude: integral transform      1.29 sec, wall time      0.09 sec
shape (1469, 3744)
1st memory: 626.7 MiB
eri1 (1469, 6903)
eri1 (1469, 6903)
2nd memory: 490.6 MiB

========================
iter = 2  energy = -3132.438901 energy diff = 0.007020
multiplicity <S^2> : Reference = 0.91006479 Response = 0.91001231 Projector = 0.90995982
eri1 (1469, 6903)
eri1 (1469, 6903)
    CPU time for making amplitude: integral transform      1.46 sec, wall time      0.11 sec
shape (1469, 3744)
1st memory: 626.2 MiB
eri1 (1469, 6903)
eri1 (1469, 6903)
2nd memory: 486.1 MiB

========================
iter = 3  energy = -3132.443417 energy diff = 0.004516
multiplicity <S^2> : Reference = 0.84819356 Response = 0.84822861 Projector = 0.84826366
eri1 (1469, 6903)
eri1 (1469, 6903)
    CPU time for making amplitude: integral transform      1.30 sec, wall time      0.09 sec
shape (1469, 3744)
1st memory: 626.7 MiB
eri1 (1469, 6903)
eri1 (1469, 6903)
2nd memory: 486.2 MiB

========================
iter = 4  energy = -3132.447560 energy diff = 0.004143
multiplicity <S^2> : Reference = 0.79116035 Response = 0.7911696 Projector = 0.79117886
eri1 (1469, 6903)
eri1 (1469, 6903)
    CPU time for making amplitude: integral transform      1.44 sec, wall time      0.10 sec
shape (1469, 3744)
1st memory: 626.3 MiB
eri1 (1469, 6903)
eri1 (1469, 6903)
2nd memory: 488.3 MiB

========================
iter = 5  energy = -3132.448861 energy diff = 0.001301
multiplicity <S^2> : Reference = 0.77619778 Response = 0.77619555 Projector = 0.77619333
eri1 (1469, 6903)
eri1 (1469, 6903)
    CPU time for making amplitude: integral transform      1.20 sec, wall time      0.08 sec
shape (1469, 3744)
1st memory: 626.6 MiB
eri1 (1469, 6903)
eri1 (1469, 6903)
2nd memory: 487.6 MiB

========================
iter = 6  energy = -3132.449491 energy diff = 0.000631
multiplicity <S^2> : Reference = 0.77322875 Response = 0.77330334 Projector = 0.77337793
eri1 (1469, 6903)
eri1 (1469, 6903)
    CPU time for making amplitude: integral transform      1.45 sec, wall time      0.11 sec
shape (1469, 3744)
1st memory: 625.7 MiB
eri1 (1469, 6903)
eri1 (1469, 6903)
2nd memory: 486.7 MiB

========================
iter = 7  energy = -3132.449692 energy diff = 0.000201
multiplicity <S^2> : Reference = 0.77635925 Response = 0.77633896 Projector = 0.77631867
eri1 (1469, 6903)
eri1 (1469, 6903)
    CPU time for making amplitude: integral transform      1.34 sec, wall time      0.09 sec
shape (1469, 3744)
1st memory: 625.8 MiB
eri1 (1469, 6903)
eri1 (1469, 6903)
2nd memory: 492.5 MiB

========================
iter = 8  energy = -3132.449733 energy diff = 0.000041
multiplicity <S^2> : Reference = 0.78292658 Response = 0.78294721 Projector = 0.78296784
eri1 (1469, 6903)
eri1 (1469, 6903)
    CPU time for making amplitude: integral transform      1.53 sec, wall time      0.12 sec
shape (1469, 3744)
1st memory: 626.5 MiB
eri1 (1469, 6903)
eri1 (1469, 6903)
2nd memory: 488.9 MiB

========================
iter = 9  energy = -3132.449666 energy diff = 0.000068
multiplicity <S^2> : Reference = 0.79007053 Response = 0.79007684 Projector = 0.79008315
eri1 (1469, 6903)
eri1 (1469, 6903)
    CPU time for making amplitude: integral transform      1.31 sec, wall time      0.09 sec
shape (1469, 3744)
1st memory: 626.1 MiB
eri1 (1469, 6903)
eri1 (1469, 6903)
2nd memory: 486.6 MiB

========================
iter = 10  energy = -3132.449647 energy diff = 0.000018
multiplicity <S^2> : Reference = 0.79137547 Response = 0.79137836 Projector = 0.79138125
eri1 (1469, 6903)
eri1 (1469, 6903)
    CPU time for making amplitude: integral transform      1.53 sec, wall time      0.12 sec
shape (1469, 3744)
1st memory: 626.3 MiB
eri1 (1469, 6903)
eri1 (1469, 6903)
2nd memory: 489.7 MiB

========================
iter = 11  energy = -3132.449650 energy diff = 0.000003
multiplicity <S^2> : Reference = 0.79121457 Response = 0.79122144 Projector = 0.79122831

UOB-MP2 has converged
UOB-MP2 energy =  -3132.449650121588


******** <class 'pyscf.scf.uhf.UHF'> ********
method = UHF
initial guess = minao
damping factor = 0
level_shift factor = 0
DIIS = <class 'pyscf.scf.diis.CDIIS'>
diis_start_cycle = 1
diis_space = 8
SCF conv_tol = 1e-09
SCF conv_tol_grad = None
SCF max_cycles = 50
direct_scf = True
direct_scf_tol = 1e-13
chkfile to save SCF result = /home/ltkoanh/Al_B2LYP_6311_Gd_Cluster/Cluster/Al13-neutral-doublet/tmpunmf5f8p
max_memory 4000 MB (current use 219 MB)
number electrons alpha = 85  beta = 84
Set gradient conv threshold to 3.16228e-05
init E= -3134.44183800645
  alpha nocc = 85  HOMO = -0.240590956658105  LUMO = -0.176591658172705
  beta  nocc = 84  HOMO = -0.278330334225904  LUMO = -0.240590956658105

WARN: system HOMO -0.240590956658105 >= system LUMO -0.240590956658105

cycle= 1 E= -3131.75805176811  delta_E= 2.68  |g|= 0.302  |ddm|= 4.07
  alpha nocc = 85  HOMO = 0.0724406460781627  LUMO = 0.247359125360111
  beta  nocc = 84  HOMO = 0.0747582765401784  LUMO = 0.249781360109392
cycle= 2 E= -3131.80295468572  delta_E= -0.0449  |g|= 0.224  |ddm|= 0.91
  alpha nocc = 85  HOMO = 0.0241161908054067  LUMO = 0.227801828094265
  beta  nocc = 84  HOMO = 0.0242163295838166  LUMO = 0.223862693147106
cycle= 3 E= -3131.84307078628  delta_E= -0.0401  |g|= 0.0567  |ddm|= 0.408
  alpha nocc = 85  HOMO = 0.0175307145622755  LUMO = 0.222796002344117
  beta  nocc = 84  HOMO = 0.020295932450803  LUMO = 0.222660604205709
cycle= 4 E= -3131.84669117456  delta_E= -0.00362  |g|= 0.0404  |ddm|= 0.165
  alpha nocc = 85  HOMO = 0.0151763487734502  LUMO = 0.223275743128386
  beta  nocc = 84  HOMO = 0.0177277315870631  LUMO = 0.224566005046706
cycle= 5 E= -3131.84990206226  delta_E= -0.00321  |g|= 0.0165  |ddm|= 0.127
  alpha nocc = 85  HOMO = 0.0143701325468782  LUMO = 0.223581640788613
  beta  nocc = 84  HOMO = 0.0167984872067171  LUMO = 0.225403889259975
cycle= 6 E= -3131.85156687028  delta_E= -0.00166  |g|= 0.0155  |ddm|= 0.123
  alpha nocc = 85  HOMO = 0.0136392460241456  LUMO = 0.223660328985851
  beta  nocc = 84  HOMO = 0.0165790984379936  LUMO = 0.225772396649968
cycle= 7 E= -3131.85237088139  delta_E= -0.000804  |g|= 0.0106  |ddm|= 0.0663
  alpha nocc = 85  HOMO = 0.0135839814628804  LUMO = 0.223637288697935
  beta  nocc = 84  HOMO = 0.0167248257799015  LUMO = 0.226082278947453
cycle= 8 E= -3131.85347983487  delta_E= -0.00111  |g|= 0.00987  |ddm|= 0.105
  alpha nocc = 85  HOMO = 0.0135612457386929  LUMO = 0.223639666049653
  beta  nocc = 84  HOMO = 0.0166982675551894  LUMO = 0.226139402732582
cycle= 9 E= -3131.85384948081  delta_E= -0.00037  |g|= 0.0095  |ddm|= 0.0353
  alpha nocc = 85  HOMO = 0.0134868265663508  LUMO = 0.223589142516896
  beta  nocc = 84  HOMO = 0.0166622120540934  LUMO = 0.226183226669447
cycle= 10 E= -3131.85422295742  delta_E= -0.000373  |g|= 0.00953  |ddm|= 0.0354
  alpha nocc = 85  HOMO = 0.0135416295498598  LUMO = 0.223661286758573
  beta  nocc = 84  HOMO = 0.0166708558262942  LUMO = 0.226142609623901
cycle= 11 E= -3131.85384564756  delta_E= 0.000377  |g|= 0.00941  |ddm|= 0.036
  alpha nocc = 85  HOMO = 0.0135171850247844  LUMO = 0.223841681861667
  beta  nocc = 84  HOMO = 0.0164244473046297  LUMO = 0.225883272164576
cycle= 12 E= -3131.85265201264  delta_E= 0.00119  |g|= 0.00874  |ddm|= 0.126
  alpha nocc = 85  HOMO = 0.0137458748551593  LUMO = 0.22433496689571
  beta  nocc = 84  HOMO = 0.0165637963551295  LUMO = 0.225734613778046
cycle= 13 E= -3131.8518545934  delta_E= 0.000797  |g|= 0.00788  |ddm|= 0.146
  alpha nocc = 85  HOMO = 0.0135590653501306  LUMO = 0.224365066352318
  beta  nocc = 84  HOMO = 0.0162368416124021  LUMO = 0.22547469017424
cycle= 14 E= -3131.85186904625  delta_E= -1.45e-05  |g|= 0.00728  |ddm|= 0.0763
  alpha nocc = 85  HOMO = 0.0134451485087784  LUMO = 0.224398195215257
  beta  nocc = 84  HOMO = 0.0163299612959403  LUMO = 0.225580989740264
cycle= 15 E= -3131.85219435712  delta_E= -0.000325  |g|= 0.00712  |ddm|= 0.0539
  alpha nocc = 85  HOMO = 0.0133787749413414  LUMO = 0.224485394351193
  beta  nocc = 84  HOMO = 0.0163757359496742  LUMO = 0.225705386774027
cycle= 16 E= -3131.85245833783  delta_E= -0.000264  |g|= 0.00709  |ddm|= 0.0357
  alpha nocc = 85  HOMO = 0.0132791950722861  LUMO = 0.224491905508285
  beta  nocc = 84  HOMO = 0.0163326871058471  LUMO = 0.225754218550437
cycle= 17 E= -3131.85263588763  delta_E= -0.000178  |g|= 0.0071  |ddm|= 0.023
  alpha nocc = 85  HOMO = 0.0132889326152998  LUMO = 0.224497205694247
  beta  nocc = 84  HOMO = 0.0163339434311553  LUMO = 0.225742761802723
cycle= 18 E= -3131.85257134111  delta_E= 6.45e-05  |g|= 0.00708  |ddm|= 0.00839
  alpha nocc = 85  HOMO = 0.0132402384267166  LUMO = 0.224641418936817
  beta  nocc = 84  HOMO = 0.0163639958647808  LUMO = 0.2257309924186
cycle= 19 E= -3131.85217975562  delta_E= 0.000392  |g|= 0.00702  |ddm|= 0.055
  alpha nocc = 85  HOMO = 0.0132676457915279  LUMO = 0.224699591409837
  beta  nocc = 84  HOMO = 0.0164187768433588  LUMO = 0.225655548949269
cycle= 20 E= -3131.85174319367  delta_E= 0.000437  |g|= 0.00682  |ddm|= 0.0713
  alpha nocc = 85  HOMO = 0.0131431635333599  LUMO = 0.224837030546402
  beta  nocc = 84  HOMO = 0.0165167886965028  LUMO = 0.225695792342534
cycle= 21 E= -3131.85155051699  delta_E= 0.000193  |g|= 0.00661  |ddm|= 0.0546
  alpha nocc = 85  HOMO = 0.012956883933563  LUMO = 0.22482431260627
  beta  nocc = 84  HOMO = 0.0164668251104632  LUMO = 0.225672917904991
cycle= 22 E= -3131.85153278928  delta_E= 1.77e-05  |g|= 0.00647  |ddm|= 0.0276
  alpha nocc = 85  HOMO = 0.012820823645877  LUMO = 0.224930007643309
  beta  nocc = 84  HOMO = 0.0164627799028036  LUMO = 0.225795977270482
cycle= 23 E= -3131.85161576296  delta_E= -8.3e-05  |g|= 0.00643  |ddm|= 0.0278
  alpha nocc = 85  HOMO = 0.0127445717421534  LUMO = 0.224969758679935
  beta  nocc = 84  HOMO = 0.0164326797907316  LUMO = 0.225843109172186
cycle= 24 E= -3131.85171653328  delta_E= -0.000101  |g|= 0.00644  |ddm|= 0.0161
  alpha nocc = 85  HOMO = 0.012743177692854  LUMO = 0.224956589172891
  beta  nocc = 84  HOMO = 0.0164305802378988  LUMO = 0.225829439232464
cycle= 25 E= -3131.85171788109  delta_E= -1.35e-06  |g|= 0.00643  |ddm|= 0.00399
  alpha nocc = 85  HOMO = 0.0127526778319553  LUMO = 0.224975536584865
  beta  nocc = 84  HOMO = 0.0164349647457902  LUMO = 0.22583845756191
cycle= 26 E= -3131.85166914708  delta_E= 4.87e-05  |g|= 0.00642  |ddm|= 0.00736
  alpha nocc = 85  HOMO = 0.0126342324790178  LUMO = 0.225210631316143
  beta  nocc = 84  HOMO = 0.016573417160982  LUMO = 0.22581198686686
cycle= 27 E= -3131.85092088421  delta_E= 0.000748  |g|= 0.00605  |ddm|= 0.123
  alpha nocc = 85  HOMO = 0.0122868939314521  LUMO = 0.225758103288696
  beta  nocc = 84  HOMO = 0.016878364325558  LUMO = 0.22578702162741
cycle= 28 E= -3131.85006162225  delta_E= 0.000859  |g|= 0.00559  |ddm|= 0.178
  alpha nocc = 85  HOMO = 0.0119875105135017  LUMO = 0.226086850482283
  beta  nocc = 84  HOMO = 0.0174628686445844  LUMO = 0.225479381372222
cycle= 29 E= -3131.84967389624  delta_E= 0.000388  |g|= 0.00539  |ddm|= 0.151
  alpha nocc = 85  HOMO = 0.011737284648008  LUMO = 0.226370640352016
  beta  nocc = 84  HOMO = 0.0175636835907365  LUMO = 0.225435193824182
cycle= 30 E= -3131.84951429253  delta_E= 0.00016  |g|= 0.00507  |ddm|= 0.0646
  alpha nocc = 85  HOMO = 0.0116152123162187  LUMO = 0.226438926521715
  beta  nocc = 84  HOMO = 0.0175962779116333  LUMO = 0.225405179158993
cycle= 31 E= -3131.84946534825  delta_E= 4.89e-05  |g|= 0.00495  |ddm|= 0.0293
  alpha nocc = 85  HOMO = 0.0116062699921008  LUMO = 0.226412000736056
  beta  nocc = 84  HOMO = 0.0177949525641659  LUMO = 0.225373314224121
cycle= 32 E= -3131.84953733795  delta_E= -7.2e-05  |g|= 0.00497  |ddm|= 0.022
  alpha nocc = 85  HOMO = 0.0115341984949042  LUMO = 0.226466045464802
  beta  nocc = 84  HOMO = 0.0176443751809211  LUMO = 0.225390098477972
cycle= 33 E= -3131.849452786  delta_E= 8.46e-05  |g|= 0.00494  |ddm|= 0.0212
  alpha nocc = 85  HOMO = 0.0117770523367143  LUMO = 0.226120861178584
  beta  nocc = 84  HOMO = 0.0177608651414951  LUMO = 0.225038122352631
cycle= 34 E= -3131.84944361327  delta_E= 9.17e-06  |g|= 0.00492  |ddm|= 0.03
  alpha nocc = 85  HOMO = 0.0116727316531099  LUMO = 0.22634742324503
  beta  nocc = 84  HOMO = 0.0176124627680698  LUMO = 0.225266803575588
cycle= 35 E= -3131.8494205173  delta_E= 2.31e-05  |g|= 0.00494  |ddm|= 0.00629
  alpha nocc = 85  HOMO = 0.0117824024069267  LUMO = 0.226201510858951
  beta  nocc = 84  HOMO = 0.0177251393372747  LUMO = 0.225139319869634
cycle= 36 E= -3131.84943237915  delta_E= -1.19e-05  |g|= 0.00489  |ddm|= 0.0087
  alpha nocc = 85  HOMO = 0.0117578486939636  LUMO = 0.226241644286
  beta  nocc = 84  HOMO = 0.0177001308645802  LUMO = 0.225071647935678
cycle= 37 E= -3131.84931121701  delta_E= 0.000121  |g|= 0.00469  |ddm|= 0.037
  alpha nocc = 85  HOMO = 0.0117061708710366  LUMO = 0.226231093317408
  beta  nocc = 84  HOMO = 0.0177047902100002  LUMO = 0.225007628884755
cycle= 38 E= -3131.84933674221  delta_E= -2.55e-05  |g|= 0.00456  |ddm|= 0.0358
  alpha nocc = 85  HOMO = 0.0117100510031372  LUMO = 0.226222756410057
  beta  nocc = 84  HOMO = 0.0177955665354613  LUMO = 0.224857241677607
cycle= 39 E= -3131.84933683242  delta_E= -9.02e-08  |g|= 0.00454  |ddm|= 0.024
  alpha nocc = 85  HOMO = 0.0117078704021216  LUMO = 0.226237854222923
  beta  nocc = 84  HOMO = 0.0177971105897797  LUMO = 0.224830427810364
cycle= 40 E= -3131.84933894294  delta_E= -2.11e-06  |g|= 0.00453  |ddm|= 0.00655
  alpha nocc = 85  HOMO = 0.0117225178431515  LUMO = 0.226192594453834
  beta  nocc = 84  HOMO = 0.0178111109115755  LUMO = 0.224832120514225
cycle= 41 E= -3131.84938708841  delta_E= -4.81e-05  |g|= 0.00454  |ddm|= 0.0121
  alpha nocc = 85  HOMO = 0.011699623555104  LUMO = 0.226220148313715
  beta  nocc = 84  HOMO = 0.0177998981959799  LUMO = 0.224824605537721
cycle= 42 E= -3131.84936410156  delta_E= 2.3e-05  |g|= 0.00454  |ddm|= 0.00646
  alpha nocc = 85  HOMO = 0.0116701223184284  LUMO = 0.226316940334895
  beta  nocc = 84  HOMO = 0.0178089729541274  LUMO = 0.224822818326912
cycle= 43 E= -3131.84928260287  delta_E= 8.15e-05  |g|= 0.00452  |ddm|= 0.0202
  alpha nocc = 85  HOMO = 0.0115816910285655  LUMO = 0.226446169254839
  beta  nocc = 84  HOMO = 0.0178198713508795  LUMO = 0.224802477508949
cycle= 44 E= -3131.84920538518  delta_E= 7.72e-05  |g|= 0.00451  |ddm|= 0.0296
  alpha nocc = 85  HOMO = 0.0115263414841026  LUMO = 0.226551069546339
  beta  nocc = 84  HOMO = 0.017851444199274  LUMO = 0.22481418443485
cycle= 45 E= -3131.84917189596  delta_E= 3.35e-05  |g|= 0.0045  |ddm|= 0.02
  alpha nocc = 85  HOMO = 0.0115273331493984  LUMO = 0.22652891186037
  beta  nocc = 84  HOMO = 0.0178455508558972  LUMO = 0.224815810952358
cycle= 46 E= -3131.84917858707  delta_E= -6.69e-06  |g|= 0.00449  |ddm|= 0.00398
  alpha nocc = 85  HOMO = 0.0115291577787713  LUMO = 0.226531366750768
  beta  nocc = 84  HOMO = 0.0178417957309977  LUMO = 0.224815418698051
cycle= 47 E= -3131.84917346923  delta_E= 5.12e-06  |g|= 0.0045  |ddm|= 0.00316
  alpha nocc = 85  HOMO = 0.0115194538271769  LUMO = 0.226511487140171
  beta  nocc = 84  HOMO = 0.0178488776924151  LUMO = 0.224777075163349
cycle= 48 E= -3131.84921472929  delta_E= -4.13e-05  |g|= 0.00453  |ddm|= 0.0118
  alpha nocc = 85  HOMO = 0.0115204619825398  LUMO = 0.226507713811376
  beta  nocc = 84  HOMO = 0.0178465755500381  LUMO = 0.224781211094184
cycle= 49 E= -3131.84921422917  delta_E= 5e-07  |g|= 0.00453  |ddm|= 0.00147
  alpha nocc = 85  HOMO = 0.0115702521898526  LUMO = 0.226580151763093
  beta  nocc = 84  HOMO = 0.0177941412820769  LUMO = 0.224945840526052
cycle= 50 E= -3131.84913343683  delta_E= 8.08e-05  |g|= 0.00443  |ddm|= 0.0372
SCF not converged.
SCF energy = -3131.84913343683 after 50 cycles  <S^2> = 1.1754026  2S+1 = 2.3878045
