#INFO: **** input file is /home/ltkoanh/Al_B2LYP_6311_Gd_Cluster/Cluster/Al13-neutral-doublet/input.py ****
import numpy
from pyscf import gto, scf, dft, mp, cc
from pyscf.mp import uobmp2_mom_conv, dfuobmp2_mom_conv, uhf_mom
from pyscf.mp import  mp2, ump2
from pyscf.tools import molden
import os
from functools import reduce


mol = gto.Mole()
geom = os.environ.get('geom_txt')
mol.atom = geom
mol.basis = os.environ.get('basis', 'cc-pvdz')
mol.unit = 'A'
mol.charge = int(os.environ.get('charge', 0))
mol.spin = int(os.environ.get('spin', 0))
mol.verbose = 4
mol.build()

#################### Ground state using density fitting
### Hartree-Fock
a  = scf.UHF(mol).density_fit()
a.kernel()

### Ground state OBMP2 calculation
ob = dfuobmp2_mom_conv.DFUOBMP2(a)
ob.second_order = True
ob.thresh = 10e-6
ob.css = 1
ob.cos = 1
e_obmp2g = ob.kernel()

### Ground state O2BMP2 calculation
ob = dfuobmp2_mom_conv.DFUOBMP2(a)
ob.second_order = True
ob.thresh = 10e-6
ob.css = 0                             
ob.cos = 1.2                             
e_o2bmp2g = ob.kernel()  

#################### Ground state NOT using density fitting
### Hartree-Fock
a  = scf.UHF(mol)
a.kernel()

### Ground state OBMP2 calculation
ob = uobmp2_mom_conv.UOBMP2(a)
ob.second_order = True
ob.thresh = 10e-6
ob.css = 1
ob.cos = 1
#e_obmp2g = ob.kernel()

### Ground state O2BMP2 calculation
ob = uobmp2_mom_conv.UOBMP2(a)
ob.second_order = True
ob.thresh = 10e-6
ob.css = 0
ob.cos = 1.2   ## the cos can be vary ...                        	 
#e_o2bmp2g = ob.kernel()


## Results from density-fitting approximate with non-using density fitting 
## check results between df and non-df with small molecules before running the important molecules
#INFO: ******************** input file end ********************


System: uname_result(system='Linux', node='comphys', release='3.10.0-1160.119.1.el7.x86_64', version='#1 SMP Tue Jun 4 14:43:51 UTC 2024', machine='x86_64', processor='x86_64')  Threads 8
Python 3.7.9 (default, Dec  4 2023, 13:00:18) 
[GCC 4.8.5 20150623 (Red Hat 4.8.5-44)]
numpy 1.21.6  scipy 1.7.3
Date: Sun May 25 18:15:28 2025
PySCF version 1.7.0
PySCF path  /share/installs/pyscf/pyscf
GIT HEAD      ref: refs/heads/ob-mp2
GIT ob-mp2 branch  f0fc63383ab6c719c0c91f5e07a6895c637b700d

[CONFIG] conf_file None
[INPUT] verbose = 4
[INPUT] num. atoms = 13
[INPUT] num. electrons = 91
[INPUT] charge = 0
[INPUT] spin (= nelec alpha-beta = 2S) = 1
[INPUT] symmetry False subgroup None
[INPUT] Mole.unit = A
[INPUT]  1 H     -1.510364000000   2.322337000000  -0.479028000000 AA   -2.854174308403   4.388580898944  -0.905231725998 Bohr
[INPUT]  2 He     0.883748000000   2.001798000000  -1.643181000000 AA    1.670041683132   3.782849976702  -3.105162063089 Bohr
[INPUT]  3 Li    -2.224062000000   0.009098000000  -1.613682000000 AA   -4.202868064052   0.017192728281  -3.049417032140 Bohr
[INPUT]  4 Be    -2.456641000000  -0.248728000000   1.154147000000 AA   -4.642378676378  -0.470027799511   2.181021737488 Bohr
[INPUT]  5 B      2.566727000000   0.019352000000  -0.901408000000 AA    4.850411066527   0.036569979963  -1.703414246492 Bohr
[INPUT]  6 C      0.289851000000  -0.643468000000  -2.438105000000 AA    0.547739006931  -1.215978289922  -4.607350712933 Bohr
[INPUT]  7 N     -1.348727000000  -2.298583000000  -0.584310000000 AA   -2.548724646806  -4.343692344581  -1.104185871845 Bohr
[INPUT]  8 O      1.306450000000  -2.328959000000  -0.459540000000 AA    2.468832695438  -4.401094665341  -0.868404743283 Bohr
[INPUT]  9 F     -0.785425000000   1.690127000000   2.130003000000 AA   -1.484238141387   3.193877145733   4.025122314502 Bohr
[INPUT] 10 Ne     1.657973000000   1.951788000000   1.019445000000 AA    3.133114891924   3.688344773213   1.926471849057 Bohr
[INPUT] 11 Na     2.000568000000  -0.671867000000   1.746405000000 AA    3.780525613569  -1.269644622133   3.300227152571 Bohr
[INPUT] 12 Mg    -0.355506000000  -1.868379000000   1.971735000000 AA   -0.671808975640  -3.530724606889   3.726039140219 Bohr
[INPUT] 13 Al    -0.024591000000   0.065485000000   0.097520000000 AA   -0.046470255129   0.123748715267   0.184286091668 Bohr

nuclear repulsion = 599.042101916911
number of shells = 41
number of NR pGTOs = 414
number of NR cGTOs = 69
basis = sto-6g
ecp = {}
CPU time:         1.49


******** <class 'pyscf.df.df_jk.density_fit.<locals>.DFHF'> ********
method = DFHF-UHF
initial guess = minao
damping factor = 0
level_shift factor = 0
DIIS = <class 'pyscf.scf.diis.CDIIS'>
diis_start_cycle = 1
diis_space = 8
SCF conv_tol = 1e-09
SCF conv_tol_grad = None
SCF max_cycles = 50
direct_scf = True
direct_scf_tol = 1e-13
chkfile to save SCF result = /home/ltkoanh/Al_B2LYP_6311_Gd_Cluster/Cluster/Al13-neutral-doublet/tmpin6m17qd
max_memory 4000 MB (current use 60 MB)
number electrons alpha = 46  beta = 45
Set gradient conv threshold to 3.16228e-05
******** <class 'pyscf.df.df.DF'> ********
auxbasis = None
max_memory = 4000
_cderi_to_save = /home/ltkoanh/Al_B2LYP_6311_Gd_Cluster/Cluster/Al13-neutral-doublet/tmpgqxkafzy
Even tempered Gaussians are generated as DF auxbasis for  Be Na F H Al N Ne Li C O B Mg He
init E= -1039.65383335814
  alpha nocc = 46  HOMO = -0.266400236116467  LUMO = -0.179718643232475
  beta  nocc = 45  HOMO = -0.296257390623547  LUMO = -0.266400236116469

WARN: system HOMO -0.266400236116469 >= system LUMO -0.266400236116469

cycle= 1 E= -1038.60126397678  delta_E= 1.05  |g|= 1.05  |ddm|= 2.65
  alpha nocc = 46  HOMO = 0.11548838156226  LUMO = 0.127758188394504
  beta  nocc = 45  HOMO = 0.115405354764281  LUMO = 0.128334123837389
cycle= 2 E= -1018.98192448175  delta_E= 19.6  |g|= 2.89  |ddm|=  5.8
  alpha nocc = 46  HOMO = 0.0761103751072685  LUMO = 0.0902522533370783
  beta  nocc = 45  HOMO = 0.0782795254948526  LUMO = 0.0938371084942402
cycle= 3 E= -1036.55151663796  delta_E= -17.6  |g|= 1.73  |ddm|= 4.42
  alpha nocc = 46  HOMO = 0.0578843655599354  LUMO = 0.0613665893975215
  beta  nocc = 45  HOMO = 0.0528915073760637  LUMO = 0.0606122007428756
cycle= 4 E= -1039.82890822817  delta_E= -3.28  |g|= 1.29  |ddm|= 3.31
  alpha nocc = 46  HOMO = 0.027650374083961  LUMO = 0.0450591702727467
  beta  nocc = 45  HOMO = 0.020809392279283  LUMO = 0.0523369238953408
cycle= 5 E= -1040.0056217104  delta_E= -0.177  |g|= 1.23  |ddm|=  2.3
  alpha nocc = 46  HOMO = -0.0242070388217841  LUMO = 0.0635972195530204
  beta  nocc = 45  HOMO = 0.000520782393144974  LUMO = 0.0759331556298394
cycle= 6 E= -1039.15252476333  delta_E= 0.853  |g|= 1.51  |ddm|= 0.66
  alpha nocc = 46  HOMO = -0.0143030948638183  LUMO = 0.0343856427583394
  beta  nocc = 45  HOMO = 0.0398628348469038  LUMO = 0.0527542801011933
cycle= 7 E= -1039.2020819116  delta_E= -0.0496  |g|= 1.48  |ddm|= 0.93
  alpha nocc = 46  HOMO = -0.02118945537754  LUMO = 0.0400086314591755
  beta  nocc = 45  HOMO = 0.0367225712966871  LUMO = 0.0559133567607853
cycle= 8 E= -1039.19739200165  delta_E= 0.00469  |g|= 1.49  |ddm|= 0.115
  alpha nocc = 46  HOMO = -0.014130287098172  LUMO = 0.042732387442
  beta  nocc = 45  HOMO = -0.00515392012457507  LUMO = 0.0702632076992881
cycle= 9 E= -1039.42615120251  delta_E= -0.229  |g|= 1.45  |ddm|= 0.867
  alpha nocc = 46  HOMO = -0.069874862873656  LUMO = -0.0181915168373558
  beta  nocc = 45  HOMO = -0.0729327065636453  LUMO = 0.0114441178884789
cycle= 10 E= -1040.50572187632  delta_E= -1.08  |g|= 0.806  |ddm|= 2.41
  alpha nocc = 46  HOMO = -0.0275508548313725  LUMO = 0.0882197780835165
  beta  nocc = 45  HOMO = -0.0154480774144786  LUMO = 0.0971611233773302
cycle= 11 E= -1040.90259304229  delta_E= -0.397  |g|= 0.633  |ddm|= 1.71
  alpha nocc = 46  HOMO = -0.0376312303305441  LUMO = 0.0976046498290671
  beta  nocc = 45  HOMO = -0.0278336917274391  LUMO = 0.0993011243729849
cycle= 12 E= -1041.15364858581  delta_E= -0.251  |g|= 0.36  |ddm|= 0.534
  alpha nocc = 46  HOMO = -0.0849276256097725  LUMO = 0.0989716990720348
  beta  nocc = 45  HOMO = -0.0288882786608041  LUMO = 0.100518248133666
cycle= 13 E= -1041.31741833193  delta_E= -0.164  |g|= 0.222  |ddm|= 0.638
  alpha nocc = 46  HOMO = -0.103481227235265  LUMO = 0.10956126394859
  beta  nocc = 45  HOMO = -0.0362793515594896  LUMO = 0.113622215814352
cycle= 14 E= -1041.40664112133  delta_E= -0.0892  |g|= 0.146  |ddm|= 0.414
  alpha nocc = 46  HOMO = -0.105856301209924  LUMO = 0.103686544663796
  beta  nocc = 45  HOMO = -0.0442116847903981  LUMO = 0.105831458041975
cycle= 15 E= -1041.4912882705  delta_E= -0.0846  |g|= 0.11  |ddm|= 0.566
  alpha nocc = 46  HOMO = -0.119157928748808  LUMO = 0.118143203481787
  beta  nocc = 45  HOMO = -0.0454891354290129  LUMO = 0.113750891460376
cycle= 16 E= -1041.54089926131  delta_E= -0.0496  |g|= 0.111  |ddm|= 0.384
  alpha nocc = 46  HOMO = -0.116732959824053  LUMO = 0.117662966074152
  beta  nocc = 45  HOMO = -0.0459071202199096  LUMO = 0.113929356618736
cycle= 17 E= -1041.53521985317  delta_E= 0.00568  |g|= 0.11  |ddm|= 0.0483
  alpha nocc = 46  HOMO = -0.118364251765605  LUMO = 0.115844758242047
  beta  nocc = 45  HOMO = -0.0485237442494617  LUMO = 0.11608217904029
cycle= 18 E= -1041.53024213941  delta_E= 0.00498  |g|= 0.105  |ddm|= 0.105
  alpha nocc = 46  HOMO = -0.0862119859307001  LUMO = 0.12523672713134
  beta  nocc = 45  HOMO = -0.0605637910996527  LUMO = 0.118066984513059
cycle= 19 E= -1041.51748576039  delta_E= 0.0128  |g|= 0.0906  |ddm|= 0.57
  alpha nocc = 46  HOMO = -0.0794565763866522  LUMO = 0.116817351201209
  beta  nocc = 45  HOMO = -0.0532084842778964  LUMO = 0.110813491474168
cycle= 20 E= -1041.55332082109  delta_E= -0.0358  |g|= 0.0877  |ddm|= 0.339
  alpha nocc = 46  HOMO = -0.0814285993422463  LUMO = 0.117474210792374
  beta  nocc = 45  HOMO = -0.0498614707361226  LUMO = 0.111172508270637
cycle= 21 E= -1041.56079630091  delta_E= -0.00748  |g|= 0.0884  |ddm|= 0.0816
  alpha nocc = 46  HOMO = -0.0797470926873835  LUMO = 0.121699825037994
  beta  nocc = 45  HOMO = -0.0498787740044332  LUMO = 0.112583506644427
cycle= 22 E= -1041.56537041313  delta_E= -0.00457  |g|= 0.0899  |ddm|= 0.046
  alpha nocc = 46  HOMO = -0.0875728437541832  LUMO = 0.120184290221676
  beta  nocc = 45  HOMO = -0.0565494288530778  LUMO = 0.11407935320437
cycle= 23 E= -1041.54712533402  delta_E= 0.0182  |g|= 0.0828  |ddm|= 0.205
  alpha nocc = 46  HOMO = -0.107083724742184  LUMO = 0.0959198207994023
  beta  nocc = 45  HOMO = -0.0623249301385091  LUMO = 0.113488520097459
cycle= 24 E= -1041.53338010732  delta_E= 0.0137  |g|= 0.0675  |ddm|= 0.425
  alpha nocc = 46  HOMO = -0.111004486267779  LUMO = 0.0917045671580012
  beta  nocc = 45  HOMO = -0.0577298844363712  LUMO = 0.109462536315284
cycle= 25 E= -1041.54740126273  delta_E= -0.014  |g|= 0.0646  |ddm|= 0.336
  alpha nocc = 46  HOMO = -0.11147260880964  LUMO = 0.0924642493101537
  beta  nocc = 45  HOMO = -0.0546134479105002  LUMO = 0.111101491757514
cycle= 26 E= -1041.55475037148  delta_E= -0.00735  |g|= 0.0654  |ddm|= 0.123
  alpha nocc = 46  HOMO = -0.10944051117614  LUMO = 0.0937626164356574
  beta  nocc = 45  HOMO = -0.050286912489716  LUMO = 0.10722768266042
cycle= 27 E= -1041.56481844398  delta_E= -0.0101  |g|= 0.0668  |ddm|= 0.16
  alpha nocc = 46  HOMO = -0.104617152829014  LUMO = 0.0961102849037735
  beta  nocc = 45  HOMO = -0.0521731156309024  LUMO = 0.10977647817528
cycle= 28 E= -1041.56412716339  delta_E= 0.000691  |g|= 0.0673  |ddm|= 0.0451
  alpha nocc = 46  HOMO = -0.108128690427633  LUMO = 0.0925416935715021
  beta  nocc = 45  HOMO = -0.0526106510819286  LUMO = 0.11076151931155
cycle= 29 E= -1041.55875371372  delta_E= 0.00537  |g|= 0.0664  |ddm|= 0.115
  alpha nocc = 46  HOMO = -0.113837955389482  LUMO = 0.0908348207864259
  beta  nocc = 45  HOMO = -0.0513455962284709  LUMO = 0.113047519140706
cycle= 30 E= -1041.56058598157  delta_E= -0.00183  |g|= 0.0626  |ddm|= 0.173
  alpha nocc = 46  HOMO = -0.111230241038355  LUMO = 0.0932288401212639
  beta  nocc = 45  HOMO = -0.042569556436254  LUMO = 0.105646082257737
cycle= 31 E= -1041.5842483438  delta_E= -0.0237  |g|= 0.0509  |ddm|= 0.35
  alpha nocc = 46  HOMO = -0.0948053823974777  LUMO = 0.10712363382848
  beta  nocc = 45  HOMO = -0.0435781113710323  LUMO = 0.112933433920782
cycle= 32 E= -1041.60860587787  delta_E= -0.0244  |g|= 0.0364  |ddm|= 0.541
  alpha nocc = 46  HOMO = -0.0943401451153259  LUMO = 0.107650660912979
  beta  nocc = 45  HOMO = -0.0231600943209092  LUMO = 0.104462836160177
cycle= 33 E= -1041.60925935456  delta_E= -0.000653  |g|= 0.0433  |ddm|= 0.258
  alpha nocc = 46  HOMO = -0.0895437443027377  LUMO = 0.11157537701663
  beta  nocc = 45  HOMO = -0.0235211072842827  LUMO = 0.107695369737478
cycle= 34 E= -1041.6135590044  delta_E= -0.0043  |g|= 0.0401  |ddm|= 0.122
  alpha nocc = 46  HOMO = -0.0898457339568631  LUMO = 0.110561334315096
  beta  nocc = 45  HOMO = -0.0234311709777563  LUMO = 0.107448653524158
cycle= 35 E= -1041.612212993  delta_E= 0.00135  |g|= 0.0409  |ddm|= 0.0331
  alpha nocc = 46  HOMO = -0.0857848672414964  LUMO = 0.119724797995581
  beta  nocc = 45  HOMO = -0.0323112155985726  LUMO = 0.114970878585822
cycle= 36 E= -1041.62199118011  delta_E= -0.00978  |g|= 0.0333  |ddm|= 0.233
  alpha nocc = 46  HOMO = -0.0884227271432648  LUMO = 0.123881535332485
  beta  nocc = 45  HOMO = -0.0295052092649288  LUMO = 0.113067561751562
cycle= 37 E= -1041.62731408959  delta_E= -0.00532  |g|= 0.0367  |ddm|= 0.149
  alpha nocc = 46  HOMO = -0.0901075687574312  LUMO = 0.119520649001832
  beta  nocc = 45  HOMO = -0.0322119740295757  LUMO = 0.112187116003232
cycle= 38 E= -1041.62114742203  delta_E= 0.00617  |g|= 0.0344  |ddm|= 0.171
  alpha nocc = 46  HOMO = -0.083802985628522  LUMO = 0.118037683028636
  beta  nocc = 45  HOMO = -0.042498149424341  LUMO = 0.113135344416743
cycle= 39 E= -1041.61937917596  delta_E= 0.00177  |g|= 0.0298  |ddm|= 0.199
  alpha nocc = 46  HOMO = -0.0805761014752852  LUMO = 0.123874793751332
  beta  nocc = 45  HOMO = -0.042968708894242  LUMO = 0.116890282169759
cycle= 40 E= -1041.62378733355  delta_E= -0.00441  |g|= 0.0283  |ddm|= 0.132
  alpha nocc = 46  HOMO = -0.0781056049248398  LUMO = 0.126890489079807
  beta  nocc = 45  HOMO = -0.045372216861725  LUMO = 0.116985491903904
cycle= 41 E= -1041.62846982002  delta_E= -0.00468  |g|= 0.028  |ddm|= 0.163
  alpha nocc = 46  HOMO = -0.0755119746905293  LUMO = 0.128806711888383
  beta  nocc = 45  HOMO = -0.0448920411667308  LUMO = 0.116934556657028
cycle= 42 E= -1041.63006608419  delta_E= -0.0016  |g|= 0.0277  |ddm|= 0.071
  alpha nocc = 46  HOMO = -0.0744044258951166  LUMO = 0.131262828769503
  beta  nocc = 45  HOMO = -0.0449686802361507  LUMO = 0.117294547856553
cycle= 43 E= -1041.63142709455  delta_E= -0.00136  |g|= 0.0273  |ddm|= 0.0467
  alpha nocc = 46  HOMO = -0.0758066355017879  LUMO = 0.133463834468592
  beta  nocc = 45  HOMO = -0.0434806673799959  LUMO = 0.117627184031786
cycle= 44 E= -1041.63379844012  delta_E= -0.00237  |g|= 0.0266  |ddm|= 0.0931
  alpha nocc = 46  HOMO = -0.0753806501519513  LUMO = 0.139447285155947
  beta  nocc = 45  HOMO = -0.0429286233843382  LUMO = 0.117046486679542
cycle= 45 E= -1041.63981278544  delta_E= -0.00601  |g|= 0.0253  |ddm|= 0.211
  alpha nocc = 46  HOMO = -0.0800010487799351  LUMO = 0.141994608565419
  beta  nocc = 45  HOMO = -0.0408546710689338  LUMO = 0.118681479941748
cycle= 46 E= -1041.6443703742  delta_E= -0.00456  |g|= 0.025  |ddm|= 0.174
  alpha nocc = 46  HOMO = -0.0817888063013641  LUMO = 0.141253622103334
  beta  nocc = 45  HOMO = -0.0402966789475785  LUMO = 0.117493233783552
cycle= 47 E= -1041.64557738299  delta_E= -0.00121  |g|= 0.026  |ddm|= 0.0587
  alpha nocc = 46  HOMO = -0.0749594318977201  LUMO = 0.140668568808075
  beta  nocc = 45  HOMO = -0.0416602914969886  LUMO = 0.118765448811022
cycle= 48 E= -1041.64239522781  delta_E= 0.00318  |g|= 0.0223  |ddm|= 0.216
  alpha nocc = 46  HOMO = -0.0727013885809872  LUMO = 0.143349246651072
  beta  nocc = 45  HOMO = -0.0370750055748576  LUMO = 0.121451346868722
cycle= 49 E= -1041.64407428774  delta_E= -0.00168  |g|= 0.0197  |ddm|= 0.182
  alpha nocc = 46  HOMO = -0.070721508343478  LUMO = 0.146182668075039
  beta  nocc = 45  HOMO = -0.0342610018208356  LUMO = 0.122050325676821
cycle= 50 E= -1041.64673079907  delta_E= -0.00266  |g|= 0.0194  |ddm|= 0.126
SCF not converged.
SCF energy = -1041.64673079907 after 50 cycles  <S^2> = 5.2668659  2S+1 = 4.6976019
shift = 0
thresh = 1e-05 
eri1 (1031, 2415)
eri1 (1031, 2415)
    CPU time for making amplitude: integral transform      0.28 sec, wall time      0.02 sec
shape (1031, 1587)
1st memory: 230.4 MiB
eri1 (1031, 2415)
eri1 (1031, 2415)
2nd memory: 208.4 MiB

========================
iter = 0  energy = -1041.917271 energy diff = 1041.917271
multiplicity <S^2> : Reference = 5.2668659 Response = 5.2657945 Projector = 5.264723
eri1 (1031, 2415)
eri1 (1031, 2415)
    CPU time for making amplitude: integral transform      0.32 sec, wall time      0.02 sec
shape (1031, 1587)
1st memory: 239.7 MiB
eri1 (1031, 2415)
eri1 (1031, 2415)
2nd memory: 208.1 MiB

========================
iter = 1  energy = -1041.940551 energy diff = 0.023280
multiplicity <S^2> : Reference = 5.1615995 Response = 5.1616117 Projector = 5.1616239
eri1 (1031, 2415)
eri1 (1031, 2415)
    CPU time for making amplitude: integral transform      0.34 sec, wall time      0.02 sec
shape (1031, 1587)
1st memory: 239.9 MiB
eri1 (1031, 2415)
eri1 (1031, 2415)
2nd memory: 208.3 MiB

========================
iter = 2  energy = -1041.948571 energy diff = 0.008020
multiplicity <S^2> : Reference = 5.053013 Response = 5.0530203 Projector = 5.0530276
eri1 (1031, 2415)
eri1 (1031, 2415)
    CPU time for making amplitude: integral transform      0.37 sec, wall time      0.02 sec
shape (1031, 1587)
1st memory: 240.0 MiB
eri1 (1031, 2415)
eri1 (1031, 2415)
2nd memory: 207.1 MiB

========================
iter = 3  energy = -1041.958488 energy diff = 0.009917
multiplicity <S^2> : Reference = 4.9646644 Response = 4.9644048 Projector = 4.9641453
eri1 (1031, 2415)
eri1 (1031, 2415)
    CPU time for making amplitude: integral transform      0.36 sec, wall time      0.02 sec
shape (1031, 1587)
1st memory: 240.1 MiB
eri1 (1031, 2415)
eri1 (1031, 2415)
2nd memory: 208.4 MiB

========================
iter = 4  energy = -1041.964227 energy diff = 0.005739
multiplicity <S^2> : Reference = 4.8898735 Response = 4.8896144 Projector = 4.8893553
eri1 (1031, 2415)
eri1 (1031, 2415)
    CPU time for making amplitude: integral transform      0.32 sec, wall time      0.02 sec
shape (1031, 1587)
1st memory: 240.0 MiB
eri1 (1031, 2415)
eri1 (1031, 2415)
2nd memory: 208.4 MiB

========================
iter = 5  energy = -1041.970323 energy diff = 0.006096
multiplicity <S^2> : Reference = 4.8157438 Response = 4.8154215 Projector = 4.8150993
eri1 (1031, 2415)
eri1 (1031, 2415)
    CPU time for making amplitude: integral transform      0.39 sec, wall time      0.03 sec
shape (1031, 1587)
1st memory: 239.8 MiB
eri1 (1031, 2415)
eri1 (1031, 2415)
2nd memory: 208.4 MiB

========================
iter = 6  energy = -1041.973330 energy diff = 0.003007
multiplicity <S^2> : Reference = 4.7890529 Response = 4.7889215 Projector = 4.78879
eri1 (1031, 2415)
eri1 (1031, 2415)
    CPU time for making amplitude: integral transform      0.33 sec, wall time      0.02 sec
shape (1031, 1587)
1st memory: 240.0 MiB
eri1 (1031, 2415)
eri1 (1031, 2415)
2nd memory: 206.9 MiB

========================
iter = 7  energy = -1041.972038 energy diff = 0.001293
multiplicity <S^2> : Reference = 4.7980139 Response = 4.7978734 Projector = 4.797733
eri1 (1031, 2415)
eri1 (1031, 2415)
    CPU time for making amplitude: integral transform      0.28 sec, wall time      0.02 sec
shape (1031, 1587)
1st memory: 239.8 MiB
eri1 (1031, 2415)
eri1 (1031, 2415)
2nd memory: 208.1 MiB

========================
iter = 8  energy = -1041.963615 energy diff = 0.008422
multiplicity <S^2> : Reference = 4.853324 Response = 4.8531545 Projector = 4.852985
eri1 (1031, 2415)
eri1 (1031, 2415)
    CPU time for making amplitude: integral transform      0.34 sec, wall time      0.02 sec
shape (1031, 1587)
1st memory: 239.7 MiB
eri1 (1031, 2415)
eri1 (1031, 2415)
2nd memory: 207.7 MiB

========================
iter = 9  energy = -1041.968725 energy diff = 0.005110
multiplicity <S^2> : Reference = 4.8140579 Response = 4.8141202 Projector = 4.8141825
eri1 (1031, 2415)
eri1 (1031, 2415)
    CPU time for making amplitude: integral transform      0.33 sec, wall time      0.02 sec
shape (1031, 1587)
1st memory: 239.9 MiB
eri1 (1031, 2415)
eri1 (1031, 2415)
2nd memory: 208.4 MiB

========================
iter = 10  energy = -1041.960997 energy diff = 0.007728
multiplicity <S^2> : Reference = 4.8840568 Response = 4.88472 Projector = 4.8853831
eri1 (1031, 2415)
eri1 (1031, 2415)
    CPU time for making amplitude: integral transform      0.32 sec, wall time      0.02 sec
shape (1031, 1587)
1st memory: 239.8 MiB
eri1 (1031, 2415)
eri1 (1031, 2415)
2nd memory: 208.0 MiB

========================
iter = 11  energy = -1041.963733 energy diff = 0.002737
multiplicity <S^2> : Reference = 4.8630922 Response = 4.8634132 Projector = 4.8637342
eri1 (1031, 2415)
eri1 (1031, 2415)
    CPU time for making amplitude: integral transform      0.30 sec, wall time      0.02 sec
shape (1031, 1587)
1st memory: 239.8 MiB
eri1 (1031, 2415)
eri1 (1031, 2415)
2nd memory: 206.4 MiB

========================
iter = 12  energy = -1041.966500 energy diff = 0.002767
multiplicity <S^2> : Reference = 4.849246 Response = 4.8488728 Projector = 4.8484995
eri1 (1031, 2415)
eri1 (1031, 2415)
    CPU time for making amplitude: integral transform      0.43 sec, wall time      0.03 sec
shape (1031, 1587)
1st memory: 250.4 MiB
eri1 (1031, 2415)
eri1 (1031, 2415)
2nd memory: 200.9 MiB

========================
iter = 13  energy = -1041.965436 energy diff = 0.001064
multiplicity <S^2> : Reference = 4.8495941 Response = 4.8497726 Projector = 4.849951
eri1 (1031, 2415)
eri1 (1031, 2415)
    CPU time for making amplitude: integral transform      0.42 sec, wall time      0.03 sec
shape (1031, 1587)
1st memory: 257.5 MiB
eri1 (1031, 2415)
eri1 (1031, 2415)
2nd memory: 199.8 MiB

========================
iter = 14  energy = -1041.964493 energy diff = 0.000943
multiplicity <S^2> : Reference = 4.8500016 Response = 4.8506127 Projector = 4.8512239
eri1 (1031, 2415)
eri1 (1031, 2415)
    CPU time for making amplitude: integral transform      0.36 sec, wall time      0.02 sec
shape (1031, 1587)
1st memory: 245.1 MiB
eri1 (1031, 2415)
eri1 (1031, 2415)
2nd memory: 208.1 MiB

========================
iter = 15  energy = -1041.959273 energy diff = 0.005220
multiplicity <S^2> : Reference = 4.8965929 Response = 4.8962281 Projector = 4.8958632
eri1 (1031, 2415)
eri1 (1031, 2415)
    CPU time for making amplitude: integral transform      0.32 sec, wall time      0.02 sec
shape (1031, 1587)
1st memory: 252.8 MiB
eri1 (1031, 2415)
eri1 (1031, 2415)
2nd memory: 206.5 MiB

========================
iter = 16  energy = -1041.960948 energy diff = 0.001675
multiplicity <S^2> : Reference = 4.8843092 Response = 4.8839291 Projector = 4.883549
eri1 (1031, 2415)
eri1 (1031, 2415)
    CPU time for making amplitude: integral transform      0.29 sec, wall time      0.02 sec
shape (1031, 1587)
1st memory: 236.3 MiB
eri1 (1031, 2415)
eri1 (1031, 2415)
2nd memory: 200.2 MiB

========================
iter = 17  energy = -1041.960369 energy diff = 0.000579
multiplicity <S^2> : Reference = 4.888837 Response = 4.8885324 Projector = 4.8882277
eri1 (1031, 2415)
eri1 (1031, 2415)
    CPU time for making amplitude: integral transform      0.32 sec, wall time      0.02 sec
shape (1031, 1587)
1st memory: 252.6 MiB
eri1 (1031, 2415)
eri1 (1031, 2415)
2nd memory: 206.6 MiB

========================
iter = 18  energy = -1041.959914 energy diff = 0.000454
multiplicity <S^2> : Reference = 4.8908535 Response = 4.8903968 Projector = 4.8899401
eri1 (1031, 2415)
eri1 (1031, 2415)
    CPU time for making amplitude: integral transform      0.26 sec, wall time      0.02 sec
shape (1031, 1587)
1st memory: 239.8 MiB
eri1 (1031, 2415)
eri1 (1031, 2415)
2nd memory: 206.5 MiB

========================
iter = 19  energy = -1041.958689 energy diff = 0.001225
multiplicity <S^2> : Reference = 4.8930069 Response = 4.8925697 Projector = 4.8921326
eri1 (1031, 2415)
eri1 (1031, 2415)
    CPU time for making amplitude: integral transform      0.37 sec, wall time      0.02 sec
shape (1031, 1587)
1st memory: 252.6 MiB
eri1 (1031, 2415)
eri1 (1031, 2415)
2nd memory: 206.5 MiB

========================
iter = 20  energy = -1041.956205 energy diff = 0.002484
multiplicity <S^2> : Reference = 4.9059947 Response = 4.9057305 Projector = 4.9054664
eri1 (1031, 2415)
eri1 (1031, 2415)
    CPU time for making amplitude: integral transform      0.35 sec, wall time      0.02 sec
shape (1031, 1587)
1st memory: 236.5 MiB
eri1 (1031, 2415)
eri1 (1031, 2415)
2nd memory: 225.7 MiB

========================
iter = 21  energy = -1041.957045 energy diff = 0.000840
multiplicity <S^2> : Reference = 4.8990607 Response = 4.8990943 Projector = 4.8991278
eri1 (1031, 2415)
eri1 (1031, 2415)
    CPU time for making amplitude: integral transform      0.39 sec, wall time      0.03 sec
shape (1031, 1587)
1st memory: 252.4 MiB
eri1 (1031, 2415)
eri1 (1031, 2415)
2nd memory: 206.5 MiB

========================
iter = 22  energy = -1041.958905 energy diff = 0.001860
multiplicity <S^2> : Reference = 4.8807051 Response = 4.8806789 Projector = 4.8806527
eri1 (1031, 2415)
eri1 (1031, 2415)
    CPU time for making amplitude: integral transform      0.28 sec, wall time      0.02 sec
shape (1031, 1587)
1st memory: 239.4 MiB
eri1 (1031, 2415)
eri1 (1031, 2415)
2nd memory: 207.0 MiB

========================
iter = 23  energy = -1041.960008 energy diff = 0.001103
multiplicity <S^2> : Reference = 4.8893528 Response = 4.8895807 Projector = 4.8898085
eri1 (1031, 2415)
eri1 (1031, 2415)
    CPU time for making amplitude: integral transform      0.32 sec, wall time      0.02 sec
shape (1031, 1587)
1st memory: 252.9 MiB
eri1 (1031, 2415)
eri1 (1031, 2415)
2nd memory: 207.5 MiB

========================
iter = 24  energy = -1041.961492 energy diff = 0.001484
multiplicity <S^2> : Reference = 4.8803598 Response = 4.8806065 Projector = 4.8808531
eri1 (1031, 2415)
eri1 (1031, 2415)
    CPU time for making amplitude: integral transform      0.32 sec, wall time      0.02 sec
shape (1031, 1587)
1st memory: 239.6 MiB
eri1 (1031, 2415)
eri1 (1031, 2415)
2nd memory: 207.3 MiB

========================
iter = 25  energy = -1041.962224 energy diff = 0.000732
multiplicity <S^2> : Reference = 4.8798751 Response = 4.8799251 Projector = 4.8799752
eri1 (1031, 2415)
eri1 (1031, 2415)
    CPU time for making amplitude: integral transform      0.27 sec, wall time      0.02 sec
shape (1031, 1587)
1st memory: 250.5 MiB
eri1 (1031, 2415)
eri1 (1031, 2415)
2nd memory: 214.8 MiB

========================
iter = 26  energy = -1041.964967 energy diff = 0.002743
multiplicity <S^2> : Reference = 4.8725649 Response = 4.8724011 Projector = 4.8722373
eri1 (1031, 2415)
eri1 (1031, 2415)
    CPU time for making amplitude: integral transform      0.27 sec, wall time      0.02 sec
shape (1031, 1587)
1st memory: 252.9 MiB
eri1 (1031, 2415)
eri1 (1031, 2415)
2nd memory: 217.3 MiB

========================
iter = 27  energy = -1041.966114 energy diff = 0.001147
multiplicity <S^2> : Reference = 4.8744947 Response = 4.8747825 Projector = 4.8750702
eri1 (1031, 2415)
eri1 (1031, 2415)
    CPU time for making amplitude: integral transform      0.33 sec, wall time      0.02 sec
shape (1031, 1587)
1st memory: 248.6 MiB
eri1 (1031, 2415)
eri1 (1031, 2415)
2nd memory: 225.7 MiB

========================
iter = 28  energy = -1041.967394 energy diff = 0.001280
multiplicity <S^2> : Reference = 4.860433 Response = 4.8601375 Projector = 4.8598419
eri1 (1031, 2415)
eri1 (1031, 2415)
    CPU time for making amplitude: integral transform      0.38 sec, wall time      0.03 sec
shape (1031, 1587)
1st memory: 252.4 MiB
eri1 (1031, 2415)
eri1 (1031, 2415)
2nd memory: 215.9 MiB

========================
iter = 29  energy = -1041.967388 energy diff = 0.000006
multiplicity <S^2> : Reference = 4.8604579 Response = 4.8601622 Projector = 4.8598666

UOB-MP2 has converged
UOB-MP2 energy =  -1041.967388438554
shift = 0
thresh = 1e-05 
eri1 (1031, 2415)
eri1 (1031, 2415)
    CPU time for making amplitude: integral transform      0.31 sec, wall time      0.02 sec
shape (1031, 1587)
1st memory: 252.4 MiB
eri1 (1031, 2415)
eri1 (1031, 2415)
2nd memory: 214.8 MiB

========================
iter = 0  energy = -1041.845585 energy diff = 1041.845585
multiplicity <S^2> : Reference = 5.2668659 Response = 5.2657945 Projector = 5.264723
eri1 (1031, 2415)
eri1 (1031, 2415)
    CPU time for making amplitude: integral transform      0.32 sec, wall time      0.02 sec
shape (1031, 1587)
1st memory: 248.4 MiB
eri1 (1031, 2415)
eri1 (1031, 2415)
2nd memory: 215.0 MiB

========================
iter = 1  energy = -1041.861348 energy diff = 0.015763
multiplicity <S^2> : Reference = 5.1477379 Response = 5.1479483 Projector = 5.1481587
eri1 (1031, 2415)
eri1 (1031, 2415)
    CPU time for making amplitude: integral transform      0.30 sec, wall time      0.02 sec
shape (1031, 1587)
1st memory: 252.6 MiB
eri1 (1031, 2415)
eri1 (1031, 2415)
2nd memory: 215.3 MiB

========================
iter = 2  energy = -1041.876187 energy diff = 0.014839
multiplicity <S^2> : Reference = 5.0312354 Response = 5.0313888 Projector = 5.0315422
eri1 (1031, 2415)
eri1 (1031, 2415)
    CPU time for making amplitude: integral transform      0.31 sec, wall time      0.02 sec
shape (1031, 1587)
1st memory: 248.0 MiB
eri1 (1031, 2415)
eri1 (1031, 2415)
2nd memory: 215.9 MiB

========================
iter = 3  energy = -1041.884871 energy diff = 0.008684
multiplicity <S^2> : Reference = 4.9421752 Response = 4.9424939 Projector = 4.9428126
eri1 (1031, 2415)
eri1 (1031, 2415)
    CPU time for making amplitude: integral transform      0.33 sec, wall time      0.02 sec
shape (1031, 1587)
1st memory: 252.8 MiB
eri1 (1031, 2415)
eri1 (1031, 2415)
2nd memory: 215.0 MiB

========================
iter = 4  energy = -1041.890550 energy diff = 0.005679
multiplicity <S^2> : Reference = 4.8611644 Response = 4.8610766 Projector = 4.8609888
eri1 (1031, 2415)
eri1 (1031, 2415)
    CPU time for making amplitude: integral transform      0.36 sec, wall time      0.02 sec
shape (1031, 1587)
1st memory: 248.2 MiB
eri1 (1031, 2415)
eri1 (1031, 2415)
2nd memory: 216.1 MiB

========================
iter = 5  energy = -1041.894565 energy diff = 0.004015
multiplicity <S^2> : Reference = 4.8156463 Response = 4.8158463 Projector = 4.8160463
eri1 (1031, 2415)
eri1 (1031, 2415)
    CPU time for making amplitude: integral transform      0.35 sec, wall time      0.02 sec
shape (1031, 1587)
1st memory: 252.7 MiB
eri1 (1031, 2415)
eri1 (1031, 2415)
2nd memory: 214.7 MiB

========================
iter = 6  energy = -1041.892195 energy diff = 0.002370
multiplicity <S^2> : Reference = 4.8342214 Response = 4.8340503 Projector = 4.8338792
eri1 (1031, 2415)
eri1 (1031, 2415)
    CPU time for making amplitude: integral transform      0.26 sec, wall time      0.02 sec
shape (1031, 1587)
1st memory: 248.4 MiB
eri1 (1031, 2415)
eri1 (1031, 2415)
2nd memory: 216.3 MiB

========================
iter = 7  energy = -1041.886546 energy diff = 0.005650
multiplicity <S^2> : Reference = 4.880037 Response = 4.8796128 Projector = 4.8791887
eri1 (1031, 2415)
eri1 (1031, 2415)
    CPU time for making amplitude: integral transform      0.41 sec, wall time      0.03 sec
shape (1031, 1587)
1st memory: 252.4 MiB
eri1 (1031, 2415)
eri1 (1031, 2415)
2nd memory: 215.8 MiB

========================
iter = 8  energy = -1041.877959 energy diff = 0.008587
multiplicity <S^2> : Reference = 4.9661627 Response = 4.9660177 Projector = 4.9658727
eri1 (1031, 2415)
eri1 (1031, 2415)
    CPU time for making amplitude: integral transform      0.36 sec, wall time      0.02 sec
shape (1031, 1587)
1st memory: 248.3 MiB
eri1 (1031, 2415)
eri1 (1031, 2415)
2nd memory: 216.2 MiB

========================
iter = 9  energy = -1041.880916 energy diff = 0.002958
multiplicity <S^2> : Reference = 4.9347791 Response = 4.9349123 Projector = 4.9350455
eri1 (1031, 2415)
eri1 (1031, 2415)
    CPU time for making amplitude: integral transform      0.36 sec, wall time      0.02 sec
shape (1031, 1587)
1st memory: 252.8 MiB
eri1 (1031, 2415)
eri1 (1031, 2415)
2nd memory: 216.0 MiB

========================
iter = 10  energy = -1041.872990 energy diff = 0.007927
multiplicity <S^2> : Reference = 5.0450732 Response = 5.0449848 Projector = 5.0448965
eri1 (1031, 2415)
eri1 (1031, 2415)
    CPU time for making amplitude: integral transform      0.31 sec, wall time      0.02 sec
shape (1031, 1587)
1st memory: 248.6 MiB
eri1 (1031, 2415)
eri1 (1031, 2415)
2nd memory: 216.5 MiB

========================
iter = 11  energy = -1041.874098 energy diff = 0.001108
multiplicity <S^2> : Reference = 5.031908 Response = 5.0321441 Projector = 5.0323801
eri1 (1031, 2415)
eri1 (1031, 2415)
    CPU time for making amplitude: integral transform      0.31 sec, wall time      0.02 sec
shape (1031, 1587)
1st memory: 252.5 MiB
eri1 (1031, 2415)
eri1 (1031, 2415)
2nd memory: 215.3 MiB

========================
iter = 12  energy = -1041.877249 energy diff = 0.003151
multiplicity <S^2> : Reference = 4.9791744 Response = 4.9788969 Projector = 4.9786193
eri1 (1031, 2415)
eri1 (1031, 2415)
    CPU time for making amplitude: integral transform      0.28 sec, wall time      0.02 sec
shape (1031, 1587)
1st memory: 248.6 MiB
eri1 (1031, 2415)
eri1 (1031, 2415)
2nd memory: 215.9 MiB

========================
iter = 13  energy = -1041.877294 energy diff = 0.000044
multiplicity <S^2> : Reference = 4.9787076 Response = 4.9784292 Projector = 4.9781507
eri1 (1031, 2415)
eri1 (1031, 2415)
    CPU time for making amplitude: integral transform      0.29 sec, wall time      0.02 sec
shape (1031, 1587)
1st memory: 253.0 MiB
eri1 (1031, 2415)
eri1 (1031, 2415)
2nd memory: 216.6 MiB

========================
iter = 14  energy = -1041.877584 energy diff = 0.000290
multiplicity <S^2> : Reference = 4.9604448 Response = 4.9599857 Projector = 4.9595266
eri1 (1031, 2415)
eri1 (1031, 2415)
    CPU time for making amplitude: integral transform      0.29 sec, wall time      0.02 sec
shape (1031, 1587)
1st memory: 248.6 MiB
eri1 (1031, 2415)
eri1 (1031, 2415)
2nd memory: 216.4 MiB

========================
iter = 15  energy = -1041.877890 energy diff = 0.000305
multiplicity <S^2> : Reference = 4.950049 Response = 4.949929 Projector = 4.9498089
eri1 (1031, 2415)
eri1 (1031, 2415)
    CPU time for making amplitude: integral transform      0.27 sec, wall time      0.02 sec
shape (1031, 1587)
1st memory: 252.6 MiB
eri1 (1031, 2415)
eri1 (1031, 2415)
2nd memory: 215.9 MiB

========================
iter = 16  energy = -1041.879335 energy diff = 0.001445
multiplicity <S^2> : Reference = 4.9220566 Response = 4.9220035 Projector = 4.9219504
eri1 (1031, 2415)
eri1 (1031, 2415)
    CPU time for making amplitude: integral transform      0.28 sec, wall time      0.02 sec
shape (1031, 1587)
1st memory: 248.5 MiB
eri1 (1031, 2415)
eri1 (1031, 2415)
2nd memory: 215.0 MiB

========================
iter = 17  energy = -1041.879482 energy diff = 0.000147
multiplicity <S^2> : Reference = 4.9214363 Response = 4.9213831 Projector = 4.92133
eri1 (1031, 2415)
eri1 (1031, 2415)
    CPU time for making amplitude: integral transform      0.35 sec, wall time      0.02 sec
shape (1031, 1587)
1st memory: 252.5 MiB
eri1 (1031, 2415)
eri1 (1031, 2415)
2nd memory: 214.8 MiB

========================
iter = 18  energy = -1041.879303 energy diff = 0.000179
multiplicity <S^2> : Reference = 4.923528 Response = 4.9234772 Projector = 4.9234265
eri1 (1031, 2415)
eri1 (1031, 2415)
    CPU time for making amplitude: integral transform      0.29 sec, wall time      0.02 sec
shape (1031, 1587)
1st memory: 248.5 MiB
eri1 (1031, 2415)
eri1 (1031, 2415)
2nd memory: 215.0 MiB

========================
iter = 19  energy = -1041.879440 energy diff = 0.000137
multiplicity <S^2> : Reference = 4.9189335 Response = 4.9188814 Projector = 4.9188293
eri1 (1031, 2415)
eri1 (1031, 2415)
    CPU time for making amplitude: integral transform      0.30 sec, wall time      0.02 sec
shape (1031, 1587)
1st memory: 252.7 MiB
eri1 (1031, 2415)
eri1 (1031, 2415)
2nd memory: 214.8 MiB

========================
iter = 20  energy = -1041.878893 energy diff = 0.000547
multiplicity <S^2> : Reference = 4.9135786 Response = 4.9138706 Projector = 4.9141627
eri1 (1031, 2415)
eri1 (1031, 2415)
    CPU time for making amplitude: integral transform      0.29 sec, wall time      0.02 sec
shape (1031, 1587)
1st memory: 248.4 MiB
eri1 (1031, 2415)
eri1 (1031, 2415)
2nd memory: 214.8 MiB

========================
iter = 21  energy = -1041.878837 energy diff = 0.000056
multiplicity <S^2> : Reference = 4.8779906 Response = 4.8780854 Projector = 4.8781802
eri1 (1031, 2415)
eri1 (1031, 2415)
    CPU time for making amplitude: integral transform      0.30 sec, wall time      0.02 sec
shape (1031, 1587)
1st memory: 252.8 MiB
eri1 (1031, 2415)
eri1 (1031, 2415)
2nd memory: 216.6 MiB

========================
iter = 22  energy = -1041.878864 energy diff = 0.000027
multiplicity <S^2> : Reference = 4.8774874 Response = 4.8775827 Projector = 4.877678
eri1 (1031, 2415)
eri1 (1031, 2415)
    CPU time for making amplitude: integral transform      0.35 sec, wall time      0.02 sec
shape (1031, 1587)
1st memory: 248.4 MiB
eri1 (1031, 2415)
eri1 (1031, 2415)
2nd memory: 214.9 MiB

========================
iter = 23  energy = -1041.878336 energy diff = 0.000528
multiplicity <S^2> : Reference = 4.884309 Response = 4.8843936 Projector = 4.8844782
eri1 (1031, 2415)
eri1 (1031, 2415)
    CPU time for making amplitude: integral transform      0.29 sec, wall time      0.02 sec
shape (1031, 1587)
1st memory: 252.6 MiB
eri1 (1031, 2415)
eri1 (1031, 2415)
2nd memory: 214.8 MiB

========================
iter = 24  energy = -1041.877514 energy diff = 0.000822
multiplicity <S^2> : Reference = 4.8872523 Response = 4.8874215 Projector = 4.8875907
eri1 (1031, 2415)
eri1 (1031, 2415)
    CPU time for making amplitude: integral transform      0.30 sec, wall time      0.02 sec
shape (1031, 1587)
1st memory: 248.4 MiB
eri1 (1031, 2415)
eri1 (1031, 2415)
2nd memory: 216.3 MiB

========================
iter = 25  energy = -1041.876369 energy diff = 0.001145
multiplicity <S^2> : Reference = 4.8947652 Response = 4.8946463 Projector = 4.8945274
eri1 (1031, 2415)
eri1 (1031, 2415)
    CPU time for making amplitude: integral transform      0.36 sec, wall time      0.02 sec
shape (1031, 1587)
1st memory: 252.7 MiB
eri1 (1031, 2415)
eri1 (1031, 2415)
2nd memory: 216.4 MiB

========================
iter = 26  energy = -1041.875442 energy diff = 0.000927
multiplicity <S^2> : Reference = 4.8890675 Response = 4.8890743 Projector = 4.8890811
eri1 (1031, 2415)
eri1 (1031, 2415)
    CPU time for making amplitude: integral transform      0.32 sec, wall time      0.02 sec
shape (1031, 1587)
1st memory: 248.1 MiB
eri1 (1031, 2415)
eri1 (1031, 2415)
2nd memory: 226.0 MiB

========================
iter = 27  energy = -1041.874729 energy diff = 0.000713
multiplicity <S^2> : Reference = 4.8764208 Response = 4.8765925 Projector = 4.8767642
eri1 (1031, 2415)
eri1 (1031, 2415)
    CPU time for making amplitude: integral transform      0.38 sec, wall time      0.03 sec
shape (1031, 1587)
1st memory: 252.6 MiB
eri1 (1031, 2415)
eri1 (1031, 2415)
2nd memory: 216.5 MiB

========================
iter = 28  energy = -1041.874576 energy diff = 0.000153
multiplicity <S^2> : Reference = 4.8510603 Response = 4.8510985 Projector = 4.8511367
eri1 (1031, 2415)
eri1 (1031, 2415)
    CPU time for making amplitude: integral transform      0.33 sec, wall time      0.02 sec
shape (1031, 1587)
1st memory: 248.5 MiB
eri1 (1031, 2415)
eri1 (1031, 2415)
2nd memory: 215.7 MiB

========================
iter = 29  energy = -1041.875566 energy diff = 0.000990
multiplicity <S^2> : Reference = 4.8097935 Response = 4.8102109 Projector = 4.8106283
eri1 (1031, 2415)
eri1 (1031, 2415)
    CPU time for making amplitude: integral transform      0.30 sec, wall time      0.02 sec
shape (1031, 1587)
1st memory: 252.8 MiB
eri1 (1031, 2415)
eri1 (1031, 2415)
2nd memory: 215.6 MiB

========================
iter = 30  energy = -1041.876076 energy diff = 0.000510
multiplicity <S^2> : Reference = 4.7967602 Response = 4.7966012 Projector = 4.7964422
eri1 (1031, 2415)
eri1 (1031, 2415)
    CPU time for making amplitude: integral transform      0.30 sec, wall time      0.02 sec
shape (1031, 1587)
1st memory: 248.5 MiB
eri1 (1031, 2415)
eri1 (1031, 2415)
2nd memory: 216.0 MiB

========================
iter = 31  energy = -1041.875976 energy diff = 0.000099
multiplicity <S^2> : Reference = 4.7993039 Response = 4.7996104 Projector = 4.7999169
eri1 (1031, 2415)
eri1 (1031, 2415)
    CPU time for making amplitude: integral transform      0.32 sec, wall time      0.02 sec
shape (1031, 1587)
1st memory: 253.0 MiB
eri1 (1031, 2415)
eri1 (1031, 2415)
2nd memory: 215.3 MiB

========================
iter = 32  energy = -1041.875929 energy diff = 0.000047
multiplicity <S^2> : Reference = 4.810528 Response = 4.8105508 Projector = 4.8105736
eri1 (1031, 2415)
eri1 (1031, 2415)
    CPU time for making amplitude: integral transform      0.36 sec, wall time      0.02 sec
shape (1031, 1587)
1st memory: 248.3 MiB
eri1 (1031, 2415)
eri1 (1031, 2415)
2nd memory: 214.9 MiB

========================
iter = 33  energy = -1041.875978 energy diff = 0.000049
multiplicity <S^2> : Reference = 4.8251314 Response = 4.8247619 Projector = 4.8243924
eri1 (1031, 2415)
eri1 (1031, 2415)
    CPU time for making amplitude: integral transform      0.32 sec, wall time      0.02 sec
shape (1031, 1587)
1st memory: 252.5 MiB
eri1 (1031, 2415)
eri1 (1031, 2415)
2nd memory: 216.4 MiB

========================
iter = 34  energy = -1041.875523 energy diff = 0.000455
multiplicity <S^2> : Reference = 4.8357391 Response = 4.8356875 Projector = 4.8356358
eri1 (1031, 2415)
eri1 (1031, 2415)
    CPU time for making amplitude: integral transform      0.30 sec, wall time      0.02 sec
shape (1031, 1587)
1st memory: 248.6 MiB
eri1 (1031, 2415)
eri1 (1031, 2415)
2nd memory: 216.7 MiB

========================
iter = 35  energy = -1041.875991 energy diff = 0.000468
multiplicity <S^2> : Reference = 4.8243957 Response = 4.8239337 Projector = 4.8234717
eri1 (1031, 2415)
eri1 (1031, 2415)
    CPU time for making amplitude: integral transform      0.35 sec, wall time      0.02 sec
shape (1031, 1587)
1st memory: 252.5 MiB
eri1 (1031, 2415)
eri1 (1031, 2415)
2nd memory: 216.7 MiB

========================
iter = 36  energy = -1041.876667 energy diff = 0.000676
multiplicity <S^2> : Reference = 4.813857 Response = 4.8133937 Projector = 4.8129304
eri1 (1031, 2415)
eri1 (1031, 2415)
    CPU time for making amplitude: integral transform      0.33 sec, wall time      0.02 sec
shape (1031, 1587)
1st memory: 248.4 MiB
eri1 (1031, 2415)
eri1 (1031, 2415)
2nd memory: 216.3 MiB

========================
iter = 37  energy = -1041.877167 energy diff = 0.000500
multiplicity <S^2> : Reference = 4.807372 Response = 4.8070049 Projector = 4.8066377
eri1 (1031, 2415)
eri1 (1031, 2415)
    CPU time for making amplitude: integral transform      0.39 sec, wall time      0.03 sec
shape (1031, 1587)
1st memory: 252.7 MiB
eri1 (1031, 2415)
eri1 (1031, 2415)
2nd memory: 216.3 MiB

========================
iter = 38  energy = -1041.877613 energy diff = 0.000446
multiplicity <S^2> : Reference = 4.7984775 Response = 4.7980136 Projector = 4.7975497
eri1 (1031, 2415)
eri1 (1031, 2415)
    CPU time for making amplitude: integral transform      0.32 sec, wall time      0.02 sec
shape (1031, 1587)
1st memory: 248.2 MiB
eri1 (1031, 2415)
eri1 (1031, 2415)
2nd memory: 217.2 MiB

========================
iter = 39  energy = -1041.877839 energy diff = 0.000226
multiplicity <S^2> : Reference = 4.7929062 Response = 4.7926515 Projector = 4.7923967
eri1 (1031, 2415)
eri1 (1031, 2415)
    CPU time for making amplitude: integral transform      0.30 sec, wall time      0.02 sec
shape (1031, 1587)
1st memory: 252.5 MiB
eri1 (1031, 2415)
eri1 (1031, 2415)
2nd memory: 225.3 MiB

========================
iter = 40  energy = -1041.877769 energy diff = 0.000070
multiplicity <S^2> : Reference = 4.7943437 Response = 4.7941386 Projector = 4.7939336
eri1 (1031, 2415)
eri1 (1031, 2415)
    CPU time for making amplitude: integral transform      0.28 sec, wall time      0.02 sec
shape (1031, 1587)
1st memory: 248.3 MiB
eri1 (1031, 2415)
eri1 (1031, 2415)
2nd memory: 217.5 MiB

========================
iter = 41  energy = -1041.877789 energy diff = 0.000020
multiplicity <S^2> : Reference = 4.794045 Response = 4.7938404 Projector = 4.7936357
eri1 (1031, 2415)
eri1 (1031, 2415)
    CPU time for making amplitude: integral transform      0.32 sec, wall time      0.02 sec
shape (1031, 1587)
1st memory: 252.5 MiB
eri1 (1031, 2415)
eri1 (1031, 2415)
2nd memory: 225.5 MiB

========================
iter = 42  energy = -1041.877870 energy diff = 0.000081
multiplicity <S^2> : Reference = 4.7949077 Response = 4.7946506 Projector = 4.7943936
eri1 (1031, 2415)
eri1 (1031, 2415)
    CPU time for making amplitude: integral transform      0.33 sec, wall time      0.02 sec
shape (1031, 1587)
1st memory: 248.3 MiB
eri1 (1031, 2415)
eri1 (1031, 2415)
2nd memory: 225.7 MiB

========================
iter = 43  energy = -1041.877883 energy diff = 0.000013
multiplicity <S^2> : Reference = 4.7979762 Response = 4.7977183 Projector = 4.7974604
eri1 (1031, 2415)
eri1 (1031, 2415)
    CPU time for making amplitude: integral transform      0.31 sec, wall time      0.02 sec
shape (1031, 1587)
1st memory: 252.4 MiB
eri1 (1031, 2415)
eri1 (1031, 2415)
2nd memory: 217.7 MiB

========================
iter = 44  energy = -1041.877415 energy diff = 0.000469
multiplicity <S^2> : Reference = 4.817893 Response = 4.818001 Projector = 4.818109
eri1 (1031, 2415)
eri1 (1031, 2415)
    CPU time for making amplitude: integral transform      0.35 sec, wall time      0.02 sec
shape (1031, 1587)
1st memory: 248.7 MiB
eri1 (1031, 2415)
eri1 (1031, 2415)
2nd memory: 225.9 MiB

========================
iter = 45  energy = -1041.876943 energy diff = 0.000472
multiplicity <S^2> : Reference = 4.8514376 Response = 4.8511483 Projector = 4.8508591
eri1 (1031, 2415)
eri1 (1031, 2415)
    CPU time for making amplitude: integral transform      0.26 sec, wall time      0.02 sec
shape (1031, 1587)
1st memory: 252.5 MiB
eri1 (1031, 2415)
eri1 (1031, 2415)
2nd memory: 216.5 MiB

========================
iter = 46  energy = -1041.876867 energy diff = 0.000075
multiplicity <S^2> : Reference = 4.8642434 Response = 4.8642277 Projector = 4.864212
eri1 (1031, 2415)
eri1 (1031, 2415)
    CPU time for making amplitude: integral transform      0.35 sec, wall time      0.02 sec
shape (1031, 1587)
1st memory: 248.9 MiB
eri1 (1031, 2415)
eri1 (1031, 2415)
2nd memory: 217.5 MiB

========================
iter = 47  energy = -1041.876285 energy diff = 0.000582
multiplicity <S^2> : Reference = 4.8868413 Response = 4.8870957 Projector = 4.8873502
eri1 (1031, 2415)
eri1 (1031, 2415)
    CPU time for making amplitude: integral transform      0.32 sec, wall time      0.02 sec
shape (1031, 1587)
1st memory: 252.9 MiB
eri1 (1031, 2415)
eri1 (1031, 2415)
2nd memory: 215.7 MiB

========================
iter = 48  energy = -1041.875266 energy diff = 0.001019
multiplicity <S^2> : Reference = 4.9148458 Response = 4.9147066 Projector = 4.9145673
eri1 (1031, 2415)
eri1 (1031, 2415)
    CPU time for making amplitude: integral transform      0.30 sec, wall time      0.02 sec
shape (1031, 1587)
1st memory: 248.8 MiB
eri1 (1031, 2415)
eri1 (1031, 2415)
2nd memory: 217.5 MiB

========================
iter = 49  energy = -1041.875482 energy diff = 0.000217
multiplicity <S^2> : Reference = 4.93117 Response = 4.9309403 Projector = 4.9307105
eri1 (1031, 2415)
eri1 (1031, 2415)
    CPU time for making amplitude: integral transform      0.32 sec, wall time      0.02 sec
shape (1031, 1587)
1st memory: 252.9 MiB
eri1 (1031, 2415)
eri1 (1031, 2415)
2nd memory: 215.6 MiB

========================
iter = 50  energy = -1041.875299 energy diff = 0.000183
multiplicity <S^2> : Reference = 4.9723445 Response = 4.9720497 Projector = 4.971755
eri1 (1031, 2415)
eri1 (1031, 2415)
    CPU time for making amplitude: integral transform      0.30 sec, wall time      0.02 sec
shape (1031, 1587)
1st memory: 248.5 MiB
eri1 (1031, 2415)
eri1 (1031, 2415)
2nd memory: 217.5 MiB

========================
iter = 51  energy = -1041.876584 energy diff = 0.001285
multiplicity <S^2> : Reference = 4.9570035 Response = 4.9567313 Projector = 4.956459
eri1 (1031, 2415)
eri1 (1031, 2415)
    CPU time for making amplitude: integral transform      0.30 sec, wall time      0.02 sec
shape (1031, 1587)
1st memory: 252.4 MiB
eri1 (1031, 2415)
eri1 (1031, 2415)
2nd memory: 217.0 MiB

========================
iter = 52  energy = -1041.876155 energy diff = 0.000429
multiplicity <S^2> : Reference = 4.9917629 Response = 4.9914278 Projector = 4.9910927
eri1 (1031, 2415)
eri1 (1031, 2415)
    CPU time for making amplitude: integral transform      0.30 sec, wall time      0.02 sec
shape (1031, 1587)
1st memory: 248.5 MiB
eri1 (1031, 2415)
eri1 (1031, 2415)
2nd memory: 215.0 MiB

========================
iter = 53  energy = -1041.876333 energy diff = 0.000177
multiplicity <S^2> : Reference = 5.009034 Response = 5.0078624 Projector = 5.0066909
eri1 (1031, 2415)
eri1 (1031, 2415)
    CPU time for making amplitude: integral transform      0.29 sec, wall time      0.02 sec
shape (1031, 1587)
1st memory: 252.5 MiB
eri1 (1031, 2415)
eri1 (1031, 2415)
2nd memory: 216.7 MiB

========================
iter = 54  energy = -1041.876339 energy diff = 0.000006
multiplicity <S^2> : Reference = 5.0176216 Response = 5.0161872 Projector = 5.0147527

UOB-MP2 has converged
UOB-MP2 energy =  -1041.876338612545


******** <class 'pyscf.scf.uhf.UHF'> ********
method = UHF
initial guess = minao
damping factor = 0
level_shift factor = 0
DIIS = <class 'pyscf.scf.diis.CDIIS'>
diis_start_cycle = 1
diis_space = 8
SCF conv_tol = 1e-09
SCF conv_tol_grad = None
SCF max_cycles = 50
direct_scf = True
direct_scf_tol = 1e-13
chkfile to save SCF result = /home/ltkoanh/Al_B2LYP_6311_Gd_Cluster/Cluster/Al13-neutral-doublet/tmp3n1l___3
max_memory 4000 MB (current use 216 MB)
number electrons alpha = 46  beta = 45
Set gradient conv threshold to 3.16228e-05
init E= -1039.65464044394
  alpha nocc = 46  HOMO = -0.266487721561868  LUMO = -0.179808921887097
  beta  nocc = 45  HOMO = -0.296304496613232  LUMO = -0.266487721561868

WARN: system HOMO -0.266487721561868 >= system LUMO -0.266487721561868

cycle= 1 E= -1038.60270036844  delta_E= 1.05  |g|= 1.05  |ddm|= 2.65
  alpha nocc = 46  HOMO = 0.115491880270074  LUMO = 0.127801340511755
  beta  nocc = 45  HOMO = 0.115415322212241  LUMO = 0.128366586459896
cycle= 2 E= -1018.98016803163  delta_E= 19.6  |g|= 2.89  |ddm|=  5.8
  alpha nocc = 46  HOMO = 0.0761872536827271  LUMO = 0.0904322036295216
  beta  nocc = 45  HOMO = 0.0785007465642597  LUMO = 0.0938555416357399
cycle= 3 E= -1036.54396954184  delta_E= -17.6  |g|= 1.74  |ddm|= 4.42
  alpha nocc = 46  HOMO = 0.0577524438166143  LUMO = 0.0610909999566599
  beta  nocc = 45  HOMO = 0.0528091002300778  LUMO = 0.0605305358032349
cycle= 4 E= -1039.81936939467  delta_E= -3.28  |g|= 1.29  |ddm|= 3.31
  alpha nocc = 46  HOMO = 0.0276879827437558  LUMO = 0.0449374398471313
  beta  nocc = 45  HOMO = 0.0209988519998074  LUMO = 0.0524761158678367
cycle= 5 E= -1040.00147506859  delta_E= -0.182  |g|= 1.23  |ddm|= 2.31
  alpha nocc = 46  HOMO = -0.0238762100913188  LUMO = 0.0636912195010764
  beta  nocc = 45  HOMO = 6.42733872315737e-05  LUMO = 0.0758622988874658
cycle= 6 E= -1039.13803561357  delta_E= 0.863  |g|= 1.52  |ddm|= 0.667
  alpha nocc = 46  HOMO = -0.0137570859442107  LUMO = 0.0347683998889424
  beta  nocc = 45  HOMO = 0.0399372701337574  LUMO = 0.0524449631484286
cycle= 7 E= -1039.18184118742  delta_E= -0.0438  |g|= 1.48  |ddm|= 0.908
  alpha nocc = 46  HOMO = -0.020450099458145  LUMO = 0.0401983582646359
  beta  nocc = 45  HOMO = 0.0367646775426456  LUMO = 0.0555159410395326
cycle= 8 E= -1039.17633429496  delta_E= 0.00551  |g|= 1.49  |ddm|= 0.112
  alpha nocc = 46  HOMO = -0.0133162169640302  LUMO = 0.0431059471639548
  beta  nocc = 45  HOMO = -0.00588468714272477  LUMO = 0.0705990868788062
cycle= 9 E= -1039.41904739882  delta_E= -0.243  |g|= 1.45  |ddm|= 0.859
  alpha nocc = 46  HOMO = -0.0680652626234158  LUMO = -0.025657412523276
  beta  nocc = 45  HOMO = -0.0823189270140156  LUMO = 0.00933483504337408
cycle= 10 E= -1040.47062534019  delta_E= -1.05  |g|= 0.826  |ddm|= 2.44
  alpha nocc = 46  HOMO = -0.0283940928258978  LUMO = 0.0878322122801687
  beta  nocc = 45  HOMO = -0.0199558873475868  LUMO = 0.0977316943194251
cycle= 11 E= -1040.90304981213  delta_E= -0.432  |g|= 0.634  |ddm|= 1.73
  alpha nocc = 46  HOMO = -0.0381226795399126  LUMO = 0.0968108824877859
  beta  nocc = 45  HOMO = -0.0280288365642708  LUMO = 0.0998859914198958
cycle= 12 E= -1041.15502413312  delta_E= -0.252  |g|= 0.355  |ddm|= 0.539
  alpha nocc = 46  HOMO = -0.0850371072423319  LUMO = 0.0991386184451719
  beta  nocc = 45  HOMO = -0.0291207685970383  LUMO = 0.10176862961787
cycle= 13 E= -1041.32020925844  delta_E= -0.165  |g|= 0.215  |ddm|= 0.651
  alpha nocc = 46  HOMO = -0.102810971753149  LUMO = 0.109056487300117
  beta  nocc = 45  HOMO = -0.0359193287021467  LUMO = 0.113539224639818
cycle= 14 E= -1041.40680463287  delta_E= -0.0866  |g|= 0.144  |ddm|= 0.407
  alpha nocc = 46  HOMO = -0.103357304702664  LUMO = 0.103069874800044
  beta  nocc = 45  HOMO = -0.0454361930616472  LUMO = 0.105823716813089
cycle= 15 E= -1041.49058816755  delta_E= -0.0838  |g|= 0.108  |ddm|= 0.571
  alpha nocc = 46  HOMO = -0.116713037170566  LUMO = 0.117315329287427
  beta  nocc = 45  HOMO = -0.0480632938068124  LUMO = 0.112924531046727
cycle= 16 E= -1041.53877802294  delta_E= -0.0482  |g|= 0.107  |ddm|= 0.385
  alpha nocc = 46  HOMO = -0.115742307966189  LUMO = 0.11742501085536
  beta  nocc = 45  HOMO = -0.0478916201009653  LUMO = 0.113103429064845
cycle= 17 E= -1041.53804256642  delta_E= 0.000735  |g|= 0.107  |ddm|= 0.0117
  alpha nocc = 46  HOMO = -0.120936465506416  LUMO = 0.117719432329269
  beta  nocc = 45  HOMO = -0.0473631629843948  LUMO = 0.114587340635205
cycle= 18 E= -1041.54871399848  delta_E= -0.0107  |g|= 0.108  |ddm|= 0.0952
  alpha nocc = 46  HOMO = -0.120897564660901  LUMO = 0.115689894328723
  beta  nocc = 45  HOMO = -0.0498278928156733  LUMO = 0.111519226209199
cycle= 19 E= -1041.54838237306  delta_E= 0.000332  |g|= 0.102  |ddm|= 0.169
  alpha nocc = 46  HOMO = -0.124047880995991  LUMO = 0.1095501173096
  beta  nocc = 45  HOMO = -0.0502855418936392  LUMO = 0.113311864307328
cycle= 20 E= -1041.5511971799  delta_E= -0.00281  |g|= 0.102  |ddm|= 0.182
  alpha nocc = 46  HOMO = -0.129983139739262  LUMO = 0.112284557254121
  beta  nocc = 45  HOMO = -0.0500257152867047  LUMO = 0.114205531575962
cycle= 21 E= -1041.57177589716  delta_E= -0.0206  |g|= 0.103  |ddm|= 0.173
  alpha nocc = 46  HOMO = -0.132996096533905  LUMO = 0.112366746337768
  beta  nocc = 45  HOMO = -0.0481719093156884  LUMO = 0.114264923588555
cycle= 22 E= -1041.58464405518  delta_E= -0.0129  |g|= 0.105  |ddm|= 0.119
  alpha nocc = 46  HOMO = -0.127314117499253  LUMO = 0.115334890824803
  beta  nocc = 45  HOMO = -0.0533317313280127  LUMO = 0.112943382668247
cycle= 23 E= -1041.57688070934  delta_E= 0.00776  |g|= 0.0953  |ddm|= 0.222
  alpha nocc = 46  HOMO = -0.0919952719267128  LUMO = 0.131638770560683
  beta  nocc = 45  HOMO = -0.0368157373478488  LUMO = 0.117687901640522
cycle= 24 E= -1041.60700332892  delta_E= -0.0301  |g|= 0.0842  |ddm|= 0.544
  alpha nocc = 46  HOMO = -0.104648718867131  LUMO = 0.133663354699495
  beta  nocc = 45  HOMO = -0.0375143297176373  LUMO = 0.120810422432888
cycle= 25 E= -1041.64107132503  delta_E= -0.0341  |g|= 0.0734  |ddm|= 0.391
  alpha nocc = 46  HOMO = -0.0726301701160071  LUMO = 0.143211454589492
  beta  nocc = 45  HOMO = -0.0386937302841486  LUMO = 0.132864069368722
cycle= 26 E= -1041.66853474374  delta_E= -0.0275  |g|= 0.0591  |ddm|= 0.368
  alpha nocc = 46  HOMO = -0.083955715757135  LUMO = 0.151390093980661
  beta  nocc = 45  HOMO = -0.0384034445306106  LUMO = 0.14619655051059
cycle= 27 E= -1041.68985240738  delta_E= -0.0213  |g|= 0.0409  |ddm|= 0.391
  alpha nocc = 46  HOMO = -0.0800732156559482  LUMO = 0.144411071559931
  beta  nocc = 45  HOMO = -0.0400826760541285  LUMO = 0.140337954293026
cycle= 28 E= -1041.69889925732  delta_E= -0.00905  |g|= 0.0378  |ddm|= 0.277
  alpha nocc = 46  HOMO = -0.0780811341366634  LUMO = 0.153095053540192
  beta  nocc = 45  HOMO = -0.0488084150411521  LUMO = 0.142123752070878
cycle= 29 E= -1041.70691300198  delta_E= -0.00801  |g|= 0.0251  |ddm|= 0.252
  alpha nocc = 46  HOMO = -0.0832170118990347  LUMO = 0.154280539969463
  beta  nocc = 45  HOMO = -0.0480079791818689  LUMO = 0.140452293095101
cycle= 30 E= -1041.70998165  delta_E= -0.00307  |g|= 0.0204  |ddm|= 0.127
  alpha nocc = 46  HOMO = -0.0843070479778524  LUMO = 0.152303793171871
  beta  nocc = 45  HOMO = -0.0438503912313991  LUMO = 0.134546025617044
cycle= 31 E= -1041.71313070221  delta_E= -0.00315  |g|= 0.021  |ddm|= 0.168
  alpha nocc = 46  HOMO = -0.0822948693222278  LUMO = 0.153807600962155
  beta  nocc = 45  HOMO = -0.0458780210253558  LUMO = 0.134936161453268
cycle= 32 E= -1041.71461221332  delta_E= -0.00148  |g|= 0.0202  |ddm|= 0.0619
  alpha nocc = 46  HOMO = -0.0802494702333276  LUMO = 0.156320619480478
  beta  nocc = 45  HOMO = -0.0494936297055829  LUMO = 0.136773961674962
cycle= 33 E= -1041.71501889837  delta_E= -0.000407  |g|= 0.0195  |ddm|= 0.0348
  alpha nocc = 46  HOMO = -0.0806624476871581  LUMO = 0.15648443003175
  beta  nocc = 45  HOMO = -0.0498480270502104  LUMO = 0.136915740710755
cycle= 34 E= -1041.7151572795  delta_E= -0.000138  |g|= 0.0194  |ddm|= 0.00807
  alpha nocc = 46  HOMO = -0.0809520177240191  LUMO = 0.157799629836644
  beta  nocc = 45  HOMO = -0.0504943474914057  LUMO = 0.136434682088725
cycle= 35 E= -1041.71620815521  delta_E= -0.00105  |g|= 0.019  |ddm|= 0.0719
  alpha nocc = 46  HOMO = -0.081715627422862  LUMO = 0.158241842434465
  beta  nocc = 45  HOMO = -0.0503837234064964  LUMO = 0.13650207666525
cycle= 36 E= -1041.71682425567  delta_E= -0.000616  |g|= 0.0189  |ddm|= 0.0338
  alpha nocc = 46  HOMO = -0.0818118727653789  LUMO = 0.158135329062298
  beta  nocc = 45  HOMO = -0.0502406785985622  LUMO = 0.136793850927579
cycle= 37 E= -1041.7166398293  delta_E= 0.000184  |g|= 0.0188  |ddm|= 0.0127
  alpha nocc = 46  HOMO = -0.0844576053475646  LUMO = 0.157401193714454
  beta  nocc = 45  HOMO = -0.0499178506460922  LUMO = 0.137250687996091
cycle= 38 E= -1041.71577121472  delta_E= 0.000869  |g|= 0.0183  |ddm|= 0.0463
  alpha nocc = 46  HOMO = -0.0851752291992909  LUMO = 0.157221643769957
  beta  nocc = 45  HOMO = -0.0496952873410879  LUMO = 0.137074888992568
cycle= 39 E= -1041.71641335118  delta_E= -0.000642  |g|= 0.0181  |ddm|= 0.0349
  alpha nocc = 46  HOMO = -0.0863977539686019  LUMO = 0.157238104016194
  beta  nocc = 45  HOMO = -0.0491181816580294  LUMO = 0.136689250814478
cycle= 40 E= -1041.71721654927  delta_E= -0.000803  |g|= 0.0177  |ddm|= 0.0661
  alpha nocc = 46  HOMO = -0.0882537358093957  LUMO = 0.155845315760886
  beta  nocc = 45  HOMO = -0.0492098189895948  LUMO = 0.135640861958895
cycle= 41 E= -1041.71799174735  delta_E= -0.000775  |g|= 0.017  |ddm|= 0.117
  alpha nocc = 46  HOMO = -0.0907331107481851  LUMO = 0.154087090860631
  beta  nocc = 45  HOMO = -0.0481361286216964  LUMO = 0.137373924467347
cycle= 42 E= -1041.71777191293  delta_E= 0.00022  |g|= 0.0161  |ddm|= 0.194
  alpha nocc = 46  HOMO = -0.0934838403457675  LUMO = 0.152047528630213
  beta  nocc = 45  HOMO = -0.0474260837797047  LUMO = 0.137692979557407
cycle= 43 E= -1041.71752964996  delta_E= 0.000242  |g|= 0.0153  |ddm|= 0.184
  alpha nocc = 46  HOMO = -0.0967697074312453  LUMO = 0.148984349919357
  beta  nocc = 45  HOMO = -0.0458202198788739  LUMO = 0.139341392584577
cycle= 44 E= -1041.71679736244  delta_E= 0.000732  |g|= 0.0146  |ddm|= 0.295
  alpha nocc = 46  HOMO = -0.0983807026266477  LUMO = 0.148598640446858
  beta  nocc = 45  HOMO = -0.0457455071257497  LUMO = 0.138173636290839
cycle= 45 E= -1041.716730183  delta_E= 6.72e-05  |g|= 0.0134  |ddm|= 0.106
  alpha nocc = 46  HOMO = -0.103053259301551  LUMO = 0.147947884122982
  beta  nocc = 45  HOMO = -0.0462875259393228  LUMO = 0.138399847607811
cycle= 46 E= -1041.71716017779  delta_E= -0.00043  |g|= 0.0129  |ddm|= 0.199
  alpha nocc = 46  HOMO = -0.103874746596664  LUMO = 0.148514694984901
  beta  nocc = 45  HOMO = -0.0461094395623411  LUMO = 0.137879883806088
cycle= 47 E= -1041.71753190043  delta_E= -0.000372  |g|= 0.0127  |ddm|= 0.0262
  alpha nocc = 46  HOMO = -0.104488415237787  LUMO = 0.149049764363453
  beta  nocc = 45  HOMO = -0.0459589660105609  LUMO = 0.137279475760577
cycle= 48 E= -1041.71796038446  delta_E= -0.000428  |g|= 0.0129  |ddm|= 0.0409
  alpha nocc = 46  HOMO = -0.103785559707748  LUMO = 0.148976907949487
  beta  nocc = 45  HOMO = -0.0460420061268211  LUMO = 0.137422351092814
cycle= 49 E= -1041.71775626832  delta_E= 0.000204  |g|= 0.0127  |ddm|= 0.0329
  alpha nocc = 46  HOMO = -0.103311089421835  LUMO = 0.149621850549879
  beta  nocc = 45  HOMO = -0.0461343285023967  LUMO = 0.137023391836969
cycle= 50 E= -1041.71779190066  delta_E= -3.56e-05  |g|= 0.0124  |ddm|= 0.0497
SCF not converged.
SCF energy = -1041.71779190066 after 50 cycles  <S^2> = 5.9390582  2S+1 = 4.9755636
