#INFO: **** input file is /home/ltkoanh/Al_B2LYP_6311_Gd_Cluster/Cluster/Al13-neutral-doublet/input.py ****
import numpy
from pyscf import gto, scf, dft, mp, cc
from pyscf.mp import uobmp2_mom_conv, dfuobmp2_mom_conv, uhf_mom
from pyscf.mp import  mp2, ump2
from pyscf.tools import molden
import os
from functools import reduce


mol = gto.Mole()
geom = os.environ.get('geom_txt')
mol.atom = geom
mol.basis = os.environ.get('basis', 'cc-pvdz')
mol.unit = 'A'
mol.charge = int(os.environ.get('charge', 0))
mol.spin = int(os.environ.get('spin', 0))
mol.verbose = 4
mol.build()

#################### Ground state using density fitting
### Hartree-Fock
a  = scf.UHF(mol).density_fit()
a.kernel()

### Ground state OBMP2 calculation
ob = dfuobmp2_mom_conv.DFUOBMP2(a)
ob.second_order = True
ob.thresh = 10e-6
ob.css = 1
ob.cos = 1
e_obmp2g = ob.kernel()

### Ground state O2BMP2 calculation
ob = dfuobmp2_mom_conv.DFUOBMP2(a)
ob.second_order = True
ob.thresh = 10e-6
ob.css = 0                             
ob.cos = 1.2                             
e_o2bmp2g = ob.kernel()  

#################### Ground state NOT using density fitting
### Hartree-Fock
a  = scf.UHF(mol)
a.kernel()

### Ground state OBMP2 calculation
ob = uobmp2_mom_conv.UOBMP2(a)
ob.second_order = True
ob.thresh = 10e-6
ob.css = 1
ob.cos = 1
#e_obmp2g = ob.kernel()

### Ground state O2BMP2 calculation
ob = uobmp2_mom_conv.UOBMP2(a)
ob.second_order = True
ob.thresh = 10e-6
ob.css = 0
ob.cos = 1.2   ## the cos can be vary ...                        	 
#e_o2bmp2g = ob.kernel()


## Results from density-fitting approximate with non-using density fitting 
## check results between df and non-df with small molecules before running the important molecules
#INFO: ******************** input file end ********************


System: uname_result(system='Linux', node='comphys', release='3.10.0-1160.119.1.el7.x86_64', version='#1 SMP Tue Jun 4 14:43:51 UTC 2024', machine='x86_64', processor='x86_64')  Threads 8
Python 3.7.9 (default, Dec  4 2023, 13:00:18) 
[GCC 4.8.5 20150623 (Red Hat 4.8.5-44)]
numpy 1.21.6  scipy 1.7.3
Date: Mon May 19 18:37:43 2025
PySCF version 1.7.0
PySCF path  /share/installs/pyscf/pyscf
GIT HEAD      ref: refs/heads/ob-mp2
GIT ob-mp2 branch  f0fc63383ab6c719c0c91f5e07a6895c637b700d

[CONFIG] conf_file None
[INPUT] verbose = 4
[INPUT] num. atoms = 13
[INPUT] num. electrons = 91
[INPUT] charge = 0
[INPUT] spin (= nelec alpha-beta = 2S) = 1
[INPUT] symmetry False subgroup None
[INPUT] Mole.unit = A
[INPUT]  1 H     -1.510364000000   2.322337000000  -0.479028000000 AA   -2.854174308403   4.388580898944  -0.905231725998 Bohr
[INPUT]  2 He     0.883748000000   2.001798000000  -1.643181000000 AA    1.670041683132   3.782849976702  -3.105162063089 Bohr
[INPUT]  3 Li    -2.224062000000   0.009098000000  -1.613682000000 AA   -4.202868064052   0.017192728281  -3.049417032140 Bohr
[INPUT]  4 Be    -2.456641000000  -0.248728000000   1.154147000000 AA   -4.642378676378  -0.470027799511   2.181021737488 Bohr
[INPUT]  5 B      2.566727000000   0.019352000000  -0.901408000000 AA    4.850411066527   0.036569979963  -1.703414246492 Bohr
[INPUT]  6 C      0.289851000000  -0.643468000000  -2.438105000000 AA    0.547739006931  -1.215978289922  -4.607350712933 Bohr
[INPUT]  7 N     -1.348727000000  -2.298583000000  -0.584310000000 AA   -2.548724646806  -4.343692344581  -1.104185871845 Bohr
[INPUT]  8 O      1.306450000000  -2.328959000000  -0.459540000000 AA    2.468832695438  -4.401094665341  -0.868404743283 Bohr
[INPUT]  9 F     -0.785425000000   1.690127000000   2.130003000000 AA   -1.484238141387   3.193877145733   4.025122314502 Bohr
[INPUT] 10 Ne     1.657973000000   1.951788000000   1.019445000000 AA    3.133114891924   3.688344773213   1.926471849057 Bohr
[INPUT] 11 Na     2.000568000000  -0.671867000000   1.746405000000 AA    3.780525613569  -1.269644622133   3.300227152571 Bohr
[INPUT] 12 Mg    -0.355506000000  -1.868379000000   1.971735000000 AA   -0.671808975640  -3.530724606889   3.726039140219 Bohr
[INPUT] 13 Al    -0.024591000000   0.065485000000   0.097520000000 AA   -0.046470255129   0.123748715267   0.184286091668 Bohr

nuclear repulsion = 599.042101916911
number of shells = 41
number of NR pGTOs = 414
number of NR cGTOs = 69
basis = sto-6g
ecp = {}
CPU time:         1.40


******** <class 'pyscf.df.df_jk.density_fit.<locals>.DFHF'> ********
method = DFHF-UHF
initial guess = minao
damping factor = 0
level_shift factor = 0
DIIS = <class 'pyscf.scf.diis.CDIIS'>
diis_start_cycle = 1
diis_space = 8
SCF conv_tol = 1e-09
SCF conv_tol_grad = None
SCF max_cycles = 50
direct_scf = True
direct_scf_tol = 1e-13
chkfile to save SCF result = /home/ltkoanh/Al_B2LYP_6311_Gd_Cluster/Cluster/Al13-neutral-doublet/tmp1xd978tj
max_memory 4000 MB (current use 60 MB)
number electrons alpha = 46  beta = 45
Set gradient conv threshold to 3.16228e-05
******** <class 'pyscf.df.df.DF'> ********
auxbasis = None
max_memory = 4000
_cderi_to_save = /home/ltkoanh/Al_B2LYP_6311_Gd_Cluster/Cluster/Al13-neutral-doublet/tmpchpm1yea
Even tempered Gaussians are generated as DF auxbasis for  He N Na Mg H O F Be Al C B Li Ne
init E= -1039.65383335814
  alpha nocc = 46  HOMO = -0.266400236116469  LUMO = -0.179718643232476
  beta  nocc = 45  HOMO = -0.296257390623548  LUMO = -0.266400236116469

WARN: system HOMO -0.266400236116469 >= system LUMO -0.266400236116469

cycle= 1 E= -1038.60126397678  delta_E= 1.05  |g|= 1.05  |ddm|= 2.65
  alpha nocc = 46  HOMO = 0.11548838156226  LUMO = 0.127758188394503
  beta  nocc = 45  HOMO = 0.115405354764281  LUMO = 0.128334123837386
cycle= 2 E= -1018.98192448175  delta_E= 19.6  |g|= 2.89  |ddm|=  5.8
  alpha nocc = 46  HOMO = 0.0761103751072776  LUMO = 0.090252253337082
  beta  nocc = 45  HOMO = 0.0782795254948566  LUMO = 0.0938371084942397
cycle= 3 E= -1036.55151663796  delta_E= -17.6  |g|= 1.73  |ddm|= 4.42
  alpha nocc = 46  HOMO = 0.057884365559934  LUMO = 0.0613665893975104
  beta  nocc = 45  HOMO = 0.0528915073760651  LUMO = 0.0606122007428759
cycle= 4 E= -1039.82890822817  delta_E= -3.28  |g|= 1.29  |ddm|= 3.31
  alpha nocc = 46  HOMO = 0.0276503740839607  LUMO = 0.0450591702727479
  beta  nocc = 45  HOMO = 0.0208093922792853  LUMO = 0.0523369238953496
cycle= 5 E= -1040.0056217104  delta_E= -0.177  |g|= 1.23  |ddm|=  2.3
  alpha nocc = 46  HOMO = -0.0242070388217826  LUMO = 0.0635972195530342
  beta  nocc = 45  HOMO = 0.000520782393115689  LUMO = 0.0759331556298393
cycle= 6 E= -1039.15252476332  delta_E= 0.853  |g|= 1.51  |ddm|= 0.66
  alpha nocc = 46  HOMO = -0.0143030948638141  LUMO = 0.0343856427583586
  beta  nocc = 45  HOMO = 0.0398628348468893  LUMO = 0.0527542801011675
cycle= 7 E= -1039.2020819116  delta_E= -0.0496  |g|= 1.48  |ddm|= 0.93
  alpha nocc = 46  HOMO = -0.0211894553774973  LUMO = 0.0400086314591574
  beta  nocc = 45  HOMO = 0.0367225712966814  LUMO = 0.0559133567607382
cycle= 8 E= -1039.19739200165  delta_E= 0.00469  |g|= 1.49  |ddm|= 0.115
  alpha nocc = 46  HOMO = -0.0141302870981266  LUMO = 0.0427323874420224
  beta  nocc = 45  HOMO = -0.00515392012473875  LUMO = 0.0702632076993493
cycle= 9 E= -1039.42615120251  delta_E= -0.229  |g|= 1.45  |ddm|= 0.867
  alpha nocc = 46  HOMO = -0.0698748628735813  LUMO = -0.0181915168378074
  beta  nocc = 45  HOMO = -0.0729327065641865  LUMO = 0.0114441178883442
cycle= 10 E= -1040.50572187632  delta_E= -1.08  |g|= 0.806  |ddm|= 2.41
  alpha nocc = 46  HOMO = -0.0275508548314573  LUMO = 0.0882197780835102
  beta  nocc = 45  HOMO = -0.0154480774149583  LUMO = 0.0971611233773442
cycle= 11 E= -1040.90259304229  delta_E= -0.397  |g|= 0.633  |ddm|= 1.71
  alpha nocc = 46  HOMO = -0.03763123033076  LUMO = 0.0976046498290343
  beta  nocc = 45  HOMO = -0.0278336917275044  LUMO = 0.0993011243730223
cycle= 12 E= -1041.15364858581  delta_E= -0.251  |g|= 0.36  |ddm|= 0.534
  alpha nocc = 46  HOMO = -0.0849276256098985  LUMO = 0.098971699072067
  beta  nocc = 45  HOMO = -0.0288882786608994  LUMO = 0.100518248133816
cycle= 13 E= -1041.31741833193  delta_E= -0.164  |g|= 0.222  |ddm|= 0.638
  alpha nocc = 46  HOMO = -0.103481227235297  LUMO = 0.109561263948488
  beta  nocc = 45  HOMO = -0.0362793515595274  LUMO = 0.113622215814358
cycle= 14 E= -1041.40664112134  delta_E= -0.0892  |g|= 0.146  |ddm|= 0.414
  alpha nocc = 46  HOMO = -0.105856301209755  LUMO = 0.103686544663713
  beta  nocc = 45  HOMO = -0.0442116847904938  LUMO = 0.105831458042003
cycle= 15 E= -1041.4912882705  delta_E= -0.0846  |g|= 0.11  |ddm|= 0.566
  alpha nocc = 46  HOMO = -0.119157928748663  LUMO = 0.118143203481666
  beta  nocc = 45  HOMO = -0.0454891354291983  LUMO = 0.113750891460322
cycle= 16 E= -1041.54089926131  delta_E= -0.0496  |g|= 0.111  |ddm|= 0.384
  alpha nocc = 46  HOMO = -0.116732959823947  LUMO = 0.117662966074041
  beta  nocc = 45  HOMO = -0.0459071202200881  LUMO = 0.113929356618681
cycle= 17 E= -1041.53521985318  delta_E= 0.00568  |g|= 0.11  |ddm|= 0.0483
  alpha nocc = 46  HOMO = -0.118364251765552  LUMO = 0.115844758241981
  beta  nocc = 45  HOMO = -0.048523744249536  LUMO = 0.116082179040228
cycle= 18 E= -1041.53024213941  delta_E= 0.00498  |g|= 0.105  |ddm|= 0.105
  alpha nocc = 46  HOMO = -0.0862119859306916  LUMO = 0.125236727131236
  beta  nocc = 45  HOMO = -0.0605637910996294  LUMO = 0.118066984512941
cycle= 19 E= -1041.51748576039  delta_E= 0.0128  |g|= 0.0906  |ddm|= 0.57
  alpha nocc = 46  HOMO = -0.079456576386663  LUMO = 0.116817351201196
  beta  nocc = 45  HOMO = -0.0532084842779338  LUMO = 0.110813491474106
cycle= 20 E= -1041.55332082109  delta_E= -0.0358  |g|= 0.0877  |ddm|= 0.339
  alpha nocc = 46  HOMO = -0.0814285993425293  LUMO = 0.117474210792084
  beta  nocc = 45  HOMO = -0.0498614707362553  LUMO = 0.111172508270531
cycle= 21 E= -1041.56079630091  delta_E= -0.00748  |g|= 0.0884  |ddm|= 0.0816
  alpha nocc = 46  HOMO = -0.0797470926872563  LUMO = 0.121699825038516
  beta  nocc = 45  HOMO = -0.0498787740047743  LUMO = 0.112583506644406
cycle= 22 E= -1041.56537041313  delta_E= -0.00457  |g|= 0.0899  |ddm|= 0.046
  alpha nocc = 46  HOMO = -0.0875728437569945  LUMO = 0.120184290218879
  beta  nocc = 45  HOMO = -0.0565494288599758  LUMO = 0.114079353205146
cycle= 23 E= -1041.54712533401  delta_E= 0.0182  |g|= 0.0828  |ddm|= 0.205
  alpha nocc = 46  HOMO = -0.107083724743626  LUMO = 0.0959198207933063
  beta  nocc = 45  HOMO = -0.0623249301481022  LUMO = 0.113488520100837
cycle= 24 E= -1041.53338010731  delta_E= 0.0137  |g|= 0.0675  |ddm|= 0.425
  alpha nocc = 46  HOMO = -0.111004486258676  LUMO = 0.0917045671623414
  beta  nocc = 45  HOMO = -0.0577298844469504  LUMO = 0.109462536314059
cycle= 25 E= -1041.54740126272  delta_E= -0.014  |g|= 0.0646  |ddm|= 0.336
  alpha nocc = 46  HOMO = -0.111472608806877  LUMO = 0.0924642493134016
  beta  nocc = 45  HOMO = -0.0546134479263592  LUMO = 0.111101491760698
cycle= 26 E= -1041.55475037145  delta_E= -0.00735  |g|= 0.0654  |ddm|= 0.123
  alpha nocc = 46  HOMO = -0.109440511187763  LUMO = 0.0937626164345041
  beta  nocc = 45  HOMO = -0.0502869125248872  LUMO = 0.107227682677363
cycle= 27 E= -1041.56481844389  delta_E= -0.0101  |g|= 0.0668  |ddm|= 0.16
  alpha nocc = 46  HOMO = -0.104617152863172  LUMO = 0.096110284888938
  beta  nocc = 45  HOMO = -0.0521731156629988  LUMO = 0.109776478189499
cycle= 28 E= -1041.56412716329  delta_E= 0.000691  |g|= 0.0673  |ddm|= 0.0451
  alpha nocc = 46  HOMO = -0.10812869051411  LUMO = 0.0925416935107863
  beta  nocc = 45  HOMO = -0.0526106511335102  LUMO = 0.110761519351788
cycle= 29 E= -1041.55875371353  delta_E= 0.00537  |g|= 0.0664  |ddm|= 0.115
  alpha nocc = 46  HOMO = -0.113837955467058  LUMO = 0.0908348206999332
  beta  nocc = 45  HOMO = -0.0513455962781664  LUMO = 0.113047519180411
cycle= 30 E= -1041.56058598139  delta_E= -0.00183  |g|= 0.0626  |ddm|= 0.173
  alpha nocc = 46  HOMO = -0.111230241073577  LUMO = 0.0932288400185521
  beta  nocc = 45  HOMO = -0.0425695564532302  LUMO = 0.105646082239537
cycle= 31 E= -1041.58424834356  delta_E= -0.0237  |g|= 0.0509  |ddm|= 0.35
  alpha nocc = 46  HOMO = -0.0948053824542523  LUMO = 0.107123633823038
  beta  nocc = 45  HOMO = -0.0435781113771576  LUMO = 0.112933433963694
cycle= 32 E= -1041.60860587786  delta_E= -0.0244  |g|= 0.0364  |ddm|= 0.541
  alpha nocc = 46  HOMO = -0.0943401452183929  LUMO = 0.107650660811825
  beta  nocc = 45  HOMO = -0.0231600942864606  LUMO = 0.104462836043886
cycle= 33 E= -1041.60925935439  delta_E= -0.000653  |g|= 0.0433  |ddm|= 0.258
  alpha nocc = 46  HOMO = -0.0895437444184166  LUMO = 0.111575376965404
  beta  nocc = 45  HOMO = -0.0235211071296716  LUMO = 0.107695369686116
cycle= 34 E= -1041.61355900435  delta_E= -0.0043  |g|= 0.0401  |ddm|= 0.122
  alpha nocc = 46  HOMO = -0.0898457341044186  LUMO = 0.110561334230011
  beta  nocc = 45  HOMO = -0.0234311708221202  LUMO = 0.107448653471548
cycle= 35 E= -1041.6122129929  delta_E= 0.00135  |g|= 0.0409  |ddm|= 0.0331
  alpha nocc = 46  HOMO = -0.0857848674248078  LUMO = 0.119724797853399
  beta  nocc = 45  HOMO = -0.0323112155016103  LUMO = 0.114970878522229
cycle= 36 E= -1041.62199118  delta_E= -0.00978  |g|= 0.0333  |ddm|= 0.233
  alpha nocc = 46  HOMO = -0.0884227275113933  LUMO = 0.123881534970786
  beta  nocc = 45  HOMO = -0.0295052091195992  LUMO = 0.11306756152561
cycle= 37 E= -1041.62731408936  delta_E= -0.00532  |g|= 0.0367  |ddm|= 0.149
  alpha nocc = 46  HOMO = -0.0901075689679977  LUMO = 0.119520648673
  beta  nocc = 45  HOMO = -0.03221197394768  LUMO = 0.112187115718984
cycle= 38 E= -1041.62114742173  delta_E= 0.00617  |g|= 0.0344  |ddm|= 0.171
  alpha nocc = 46  HOMO = -0.0838029855966196  LUMO = 0.118037683001258
  beta  nocc = 45  HOMO = -0.0424981490479503  LUMO = 0.113135344205752
cycle= 39 E= -1041.61937917581  delta_E= 0.00177  |g|= 0.0298  |ddm|= 0.199
  alpha nocc = 46  HOMO = -0.0805761014952802  LUMO = 0.123874793785956
  beta  nocc = 45  HOMO = -0.042968708680132  LUMO = 0.116890282068743
cycle= 40 E= -1041.62378733349  delta_E= -0.00441  |g|= 0.0283  |ddm|= 0.132
  alpha nocc = 46  HOMO = -0.0781056052175412  LUMO = 0.126890488675058
  beta  nocc = 45  HOMO = -0.0453722167937193  LUMO = 0.116985491469666
cycle= 41 E= -1041.6284698197  delta_E= -0.00468  |g|= 0.028  |ddm|= 0.163
  alpha nocc = 46  HOMO = -0.0755119749361056  LUMO = 0.128806711426799
  beta  nocc = 45  HOMO = -0.0448920409662568  LUMO = 0.116934556127749
cycle= 42 E= -1041.63006608397  delta_E= -0.0016  |g|= 0.0277  |ddm|= 0.071
  alpha nocc = 46  HOMO = -0.0744044269655165  LUMO = 0.131262827243308
  beta  nocc = 45  HOMO = -0.0449686808462423  LUMO = 0.117294547885061
cycle= 43 E= -1041.63142709309  delta_E= -0.00136  |g|= 0.0273  |ddm|= 0.0467
  alpha nocc = 46  HOMO = -0.0758066384599735  LUMO = 0.133463831950191
  beta  nocc = 45  HOMO = -0.0434806676117318  LUMO = 0.117627184791644
cycle= 44 E= -1041.63379843758  delta_E= -0.00237  |g|= 0.0266  |ddm|= 0.0931
  alpha nocc = 46  HOMO = -0.0753806535196786  LUMO = 0.13944728446837
  beta  nocc = 45  HOMO = -0.0429286202309957  LUMO = 0.117046486492167
cycle= 45 E= -1041.639812784  delta_E= -0.00601  |g|= 0.0253  |ddm|= 0.211
  alpha nocc = 46  HOMO = -0.0800010529918211  LUMO = 0.141994612632375
  beta  nocc = 45  HOMO = -0.040854664464147  LUMO = 0.118681483471582
cycle= 46 E= -1041.64437037612  delta_E= -0.00456  |g|= 0.025  |ddm|= 0.174
  alpha nocc = 46  HOMO = -0.0817888218509816  LUMO = 0.141253625001299
  beta  nocc = 45  HOMO = -0.0402966646742553  LUMO = 0.117493234606832
cycle= 47 E= -1041.64557739389  delta_E= -0.00121  |g|= 0.026  |ddm|= 0.0587
  alpha nocc = 46  HOMO = -0.0749594564949558  LUMO = 0.140668568284668
  beta  nocc = 45  HOMO = -0.041660301016292  LUMO = 0.118765449397292
cycle= 48 E= -1041.64239524368  delta_E= 0.00318  |g|= 0.0223  |ddm|= 0.216
  alpha nocc = 46  HOMO = -0.0727014101835655  LUMO = 0.143349236625967
  beta  nocc = 45  HOMO = -0.0370750366672313  LUMO = 0.121451336975806
cycle= 49 E= -1041.64407430106  delta_E= -0.00168  |g|= 0.0197  |ddm|= 0.182
  alpha nocc = 46  HOMO = -0.0707215230597054  LUMO = 0.14618267866943
  beta  nocc = 45  HOMO = -0.0342610193941671  LUMO = 0.122050325826449
cycle= 50 E= -1041.64673082933  delta_E= -0.00266  |g|= 0.0194  |ddm|= 0.126
SCF not converged.
SCF energy = -1041.64673082933 after 50 cycles  <S^2> = 5.2668655  2S+1 = 4.6976017
shift = 0
thresh = 1e-05 
eri1 (1031, 2415)
eri1 (1031, 2415)
    CPU time for making amplitude: integral transform      0.29 sec, wall time      0.02 sec
shape (1031, 1587)
1st memory: 229.3 MiB
eri1 (1031, 2415)
eri1 (1031, 2415)
2nd memory: 209.0 MiB

========================
iter = 0  energy = -1041.917271 energy diff = 1041.917271
multiplicity <S^2> : Reference = 5.2668655 Response = 5.2694133 Projector = 5.2719611
eri1 (1031, 2415)
eri1 (1031, 2415)
    CPU time for making amplitude: integral transform      0.26 sec, wall time      0.02 sec
shape (1031, 1587)
1st memory: 240.2 MiB
eri1 (1031, 2415)
eri1 (1031, 2415)
2nd memory: 217.3 MiB

========================
iter = 1  energy = -1041.940551 energy diff = 0.023280
multiplicity <S^2> : Reference = 5.1615992 Response = 5.1616114 Projector = 5.1616237
eri1 (1031, 2415)
eri1 (1031, 2415)
    CPU time for making amplitude: integral transform      0.29 sec, wall time      0.02 sec
shape (1031, 1587)
1st memory: 240.4 MiB
eri1 (1031, 2415)
eri1 (1031, 2415)
2nd memory: 218.1 MiB

========================
iter = 2  energy = -1041.948571 energy diff = 0.008020
multiplicity <S^2> : Reference = 5.0530128 Response = 5.0530201 Projector = 5.0530274
eri1 (1031, 2415)
eri1 (1031, 2415)
    CPU time for making amplitude: integral transform      0.28 sec, wall time      0.02 sec
shape (1031, 1587)
1st memory: 240.7 MiB
eri1 (1031, 2415)
eri1 (1031, 2415)
2nd memory: 218.1 MiB

========================
iter = 3  energy = -1041.958486 energy diff = 0.009915
multiplicity <S^2> : Reference = 4.9646645 Response = 4.9644048 Projector = 4.9641452
eri1 (1031, 2415)
eri1 (1031, 2415)
    CPU time for making amplitude: integral transform      0.29 sec, wall time      0.02 sec
shape (1031, 1587)
1st memory: 240.4 MiB
eri1 (1031, 2415)
eri1 (1031, 2415)
2nd memory: 207.4 MiB

========================
iter = 4  energy = -1041.964233 energy diff = 0.005747
multiplicity <S^2> : Reference = 4.8897854 Response = 4.8895262 Projector = 4.889267
eri1 (1031, 2415)
eri1 (1031, 2415)
    CPU time for making amplitude: integral transform      0.26 sec, wall time      0.02 sec
shape (1031, 1587)
1st memory: 240.0 MiB
eri1 (1031, 2415)
eri1 (1031, 2415)
2nd memory: 217.7 MiB

========================
iter = 5  energy = -1041.970323 energy diff = 0.006090
multiplicity <S^2> : Reference = 4.8157478 Response = 4.8154256 Projector = 4.8151033
eri1 (1031, 2415)
eri1 (1031, 2415)
    CPU time for making amplitude: integral transform      0.30 sec, wall time      0.02 sec
shape (1031, 1587)
1st memory: 240.4 MiB
eri1 (1031, 2415)
eri1 (1031, 2415)
2nd memory: 209.0 MiB

========================
iter = 6  energy = -1041.973328 energy diff = 0.003005
multiplicity <S^2> : Reference = 4.789078 Response = 4.7889465 Projector = 4.7888151
eri1 (1031, 2415)
eri1 (1031, 2415)
    CPU time for making amplitude: integral transform      0.26 sec, wall time      0.02 sec
shape (1031, 1587)
1st memory: 240.2 MiB
eri1 (1031, 2415)
eri1 (1031, 2415)
2nd memory: 208.3 MiB

========================
iter = 7  energy = -1041.972035 energy diff = 0.001293
multiplicity <S^2> : Reference = 4.7980418 Response = 4.7979014 Projector = 4.797761
eri1 (1031, 2415)
eri1 (1031, 2415)
    CPU time for making amplitude: integral transform      0.30 sec, wall time      0.02 sec
shape (1031, 1587)
1st memory: 240.0 MiB
eri1 (1031, 2415)
eri1 (1031, 2415)
2nd memory: 208.2 MiB

========================
iter = 8  energy = -1041.963615 energy diff = 0.008420
multiplicity <S^2> : Reference = 4.8533098 Response = 4.8531403 Projector = 4.8529708
eri1 (1031, 2415)
eri1 (1031, 2415)
    CPU time for making amplitude: integral transform      0.27 sec, wall time      0.02 sec
shape (1031, 1587)
1st memory: 239.9 MiB
eri1 (1031, 2415)
eri1 (1031, 2415)
2nd memory: 217.1 MiB

========================
iter = 9  energy = -1041.968725 energy diff = 0.005110
multiplicity <S^2> : Reference = 4.8140429 Response = 4.8141052 Projector = 4.8141675
eri1 (1031, 2415)
eri1 (1031, 2415)
    CPU time for making amplitude: integral transform      0.25 sec, wall time      0.02 sec
shape (1031, 1587)
1st memory: 239.6 MiB
eri1 (1031, 2415)
eri1 (1031, 2415)
2nd memory: 216.7 MiB

========================
iter = 10  energy = -1041.960998 energy diff = 0.007727
multiplicity <S^2> : Reference = 4.8840418 Response = 4.884705 Projector = 4.8853681
eri1 (1031, 2415)
eri1 (1031, 2415)
    CPU time for making amplitude: integral transform      0.28 sec, wall time      0.02 sec
shape (1031, 1587)
1st memory: 240.0 MiB
eri1 (1031, 2415)
eri1 (1031, 2415)
2nd memory: 217.1 MiB

========================
iter = 11  energy = -1041.963736 energy diff = 0.002738
multiplicity <S^2> : Reference = 4.8630591 Response = 4.8633801 Projector = 4.8637012
eri1 (1031, 2415)
eri1 (1031, 2415)
    CPU time for making amplitude: integral transform      0.29 sec, wall time      0.02 sec
shape (1031, 1587)
1st memory: 239.8 MiB
eri1 (1031, 2415)
eri1 (1031, 2415)
2nd memory: 206.5 MiB

========================
iter = 12  energy = -1041.966507 energy diff = 0.002770
multiplicity <S^2> : Reference = 4.84919 Response = 4.8488168 Projector = 4.8484435
eri1 (1031, 2415)
eri1 (1031, 2415)
    CPU time for making amplitude: integral transform      0.25 sec, wall time      0.02 sec
shape (1031, 1587)
1st memory: 240.0 MiB
eri1 (1031, 2415)
eri1 (1031, 2415)
2nd memory: 217.5 MiB

========================
iter = 13  energy = -1041.965445 energy diff = 0.001062
multiplicity <S^2> : Reference = 4.8495153 Response = 4.8496937 Projector = 4.8498722
eri1 (1031, 2415)
eri1 (1031, 2415)
    CPU time for making amplitude: integral transform      0.29 sec, wall time      0.02 sec
shape (1031, 1587)
1st memory: 240.1 MiB
eri1 (1031, 2415)
eri1 (1031, 2415)
2nd memory: 206.6 MiB

========================
iter = 14  energy = -1041.964500 energy diff = 0.000945
multiplicity <S^2> : Reference = 4.8499494 Response = 4.8505605 Projector = 4.8511716
eri1 (1031, 2415)
eri1 (1031, 2415)
    CPU time for making amplitude: integral transform      0.28 sec, wall time      0.02 sec
shape (1031, 1587)
1st memory: 240.1 MiB
eri1 (1031, 2415)
eri1 (1031, 2415)
2nd memory: 207.4 MiB

========================
iter = 15  energy = -1041.959284 energy diff = 0.005216
multiplicity <S^2> : Reference = 4.8964648 Response = 4.8960999 Projector = 4.8957351
eri1 (1031, 2415)
eri1 (1031, 2415)
    CPU time for making amplitude: integral transform      0.26 sec, wall time      0.02 sec
shape (1031, 1587)
1st memory: 239.8 MiB
eri1 (1031, 2415)
eri1 (1031, 2415)
2nd memory: 217.0 MiB

========================
iter = 16  energy = -1041.960963 energy diff = 0.001679
multiplicity <S^2> : Reference = 4.8841548 Response = 4.883775 Projector = 4.8833951
eri1 (1031, 2415)
eri1 (1031, 2415)
    CPU time for making amplitude: integral transform      0.27 sec, wall time      0.02 sec
shape (1031, 1587)
1st memory: 240.1 MiB
eri1 (1031, 2415)
eri1 (1031, 2415)
2nd memory: 208.3 MiB

========================
iter = 17  energy = -1041.960376 energy diff = 0.000586
multiplicity <S^2> : Reference = 4.8887395 Response = 4.8884349 Projector = 4.8881303
eri1 (1031, 2415)
eri1 (1031, 2415)
    CPU time for making amplitude: integral transform      0.26 sec, wall time      0.02 sec
shape (1031, 1587)
1st memory: 239.6 MiB
eri1 (1031, 2415)
eri1 (1031, 2415)
2nd memory: 207.5 MiB

========================
iter = 18  energy = -1041.959917 energy diff = 0.000460
multiplicity <S^2> : Reference = 4.8907721 Response = 4.8903155 Projector = 4.8898588
eri1 (1031, 2415)
eri1 (1031, 2415)
    CPU time for making amplitude: integral transform      0.26 sec, wall time      0.02 sec
shape (1031, 1587)
1st memory: 240.0 MiB
eri1 (1031, 2415)
eri1 (1031, 2415)
2nd memory: 209.0 MiB

========================
iter = 19  energy = -1041.958663 energy diff = 0.001253
multiplicity <S^2> : Reference = 4.893096 Response = 4.8926588 Projector = 4.8922216
eri1 (1031, 2415)
eri1 (1031, 2415)
    CPU time for making amplitude: integral transform      0.29 sec, wall time      0.02 sec
shape (1031, 1587)
1st memory: 236.4 MiB
eri1 (1031, 2415)
eri1 (1031, 2415)
2nd memory: 236.9 MiB

========================
iter = 20  energy = -1041.956206 energy diff = 0.002457
multiplicity <S^2> : Reference = 4.9059967 Response = 4.9057389 Projector = 4.9054811
eri1 (1031, 2415)
eri1 (1031, 2415)
    CPU time for making amplitude: integral transform      0.28 sec, wall time      0.02 sec
shape (1031, 1587)
1st memory: 263.0 MiB
eri1 (1031, 2415)
eri1 (1031, 2415)
2nd memory: 210.0 MiB

========================
iter = 21  energy = -1041.957071 energy diff = 0.000864
multiplicity <S^2> : Reference = 4.8988289 Response = 4.8988626 Projector = 4.8988963
eri1 (1031, 2415)
eri1 (1031, 2415)
    CPU time for making amplitude: integral transform      0.28 sec, wall time      0.02 sec
shape (1031, 1587)
1st memory: 249.7 MiB
eri1 (1031, 2415)
eri1 (1031, 2415)
2nd memory: 201.5 MiB

========================
iter = 22  energy = -1041.958912 energy diff = 0.001841
multiplicity <S^2> : Reference = 4.8807022 Response = 4.8806761 Projector = 4.88065
eri1 (1031, 2415)
eri1 (1031, 2415)
    CPU time for making amplitude: integral transform      0.25 sec, wall time      0.02 sec
shape (1031, 1587)
1st memory: 250.2 MiB
eri1 (1031, 2415)
eri1 (1031, 2415)
2nd memory: 201.4 MiB

========================
iter = 23  energy = -1041.960091 energy diff = 0.001179
multiplicity <S^2> : Reference = 4.8885542 Response = 4.8887825 Projector = 4.8890108
eri1 (1031, 2415)
eri1 (1031, 2415)
    CPU time for making amplitude: integral transform      0.31 sec, wall time      0.02 sec
shape (1031, 1587)
1st memory: 259.3 MiB
eri1 (1031, 2415)
eri1 (1031, 2415)
2nd memory: 201.6 MiB

========================
iter = 24  energy = -1041.961520 energy diff = 0.001429
multiplicity <S^2> : Reference = 4.8798182 Response = 4.8800642 Projector = 4.8803101
eri1 (1031, 2415)
eri1 (1031, 2415)
    CPU time for making amplitude: integral transform      0.34 sec, wall time      0.02 sec
shape (1031, 1587)
1st memory: 248.8 MiB
eri1 (1031, 2415)
eri1 (1031, 2415)
2nd memory: 201.4 MiB

========================
iter = 25  energy = -1041.962283 energy diff = 0.000763
multiplicity <S^2> : Reference = 4.8793299 Response = 4.8793815 Projector = 4.8794332
eri1 (1031, 2415)
eri1 (1031, 2415)
    CPU time for making amplitude: integral transform      0.27 sec, wall time      0.02 sec
shape (1031, 1587)
1st memory: 244.8 MiB
eri1 (1031, 2415)
eri1 (1031, 2415)
2nd memory: 210.4 MiB

========================
iter = 26  energy = -1041.964989 energy diff = 0.002706
multiplicity <S^2> : Reference = 4.8725862 Response = 4.8724227 Projector = 4.8722592
eri1 (1031, 2415)
eri1 (1031, 2415)
    CPU time for making amplitude: integral transform      0.27 sec, wall time      0.02 sec
shape (1031, 1587)
1st memory: 259.1 MiB
eri1 (1031, 2415)
eri1 (1031, 2415)
2nd memory: 200.4 MiB

========================
iter = 27  energy = -1041.966144 energy diff = 0.001155
multiplicity <S^2> : Reference = 4.8739769 Response = 4.8742653 Projector = 4.8745537
eri1 (1031, 2415)
eri1 (1031, 2415)
    CPU time for making amplitude: integral transform      0.33 sec, wall time      0.02 sec
shape (1031, 1587)
1st memory: 245.4 MiB
eri1 (1031, 2415)
eri1 (1031, 2415)
2nd memory: 209.7 MiB

========================
iter = 28  energy = -1041.967277 energy diff = 0.001133
multiplicity <S^2> : Reference = 4.8611234 Response = 4.8610058 Projector = 4.8608883
eri1 (1031, 2415)
eri1 (1031, 2415)
    CPU time for making amplitude: integral transform      0.30 sec, wall time      0.02 sec
shape (1031, 1587)
1st memory: 259.2 MiB
eri1 (1031, 2415)
eri1 (1031, 2415)
2nd memory: 202.2 MiB

========================
iter = 29  energy = -1041.967378 energy diff = 0.000101
multiplicity <S^2> : Reference = 4.8606679 Response = 4.8604037 Projector = 4.8601395
eri1 (1031, 2415)
eri1 (1031, 2415)
    CPU time for making amplitude: integral transform      0.30 sec, wall time      0.02 sec
shape (1031, 1587)
1st memory: 247.2 MiB
eri1 (1031, 2415)
eri1 (1031, 2415)
2nd memory: 219.3 MiB

========================
iter = 30  energy = -1041.967378 energy diff = 0.000000
multiplicity <S^2> : Reference = 4.8607943 Response = 4.8605296 Projector = 4.8602649

UOB-MP2 has converged
UOB-MP2 energy =  -1041.9673780115281
shift = 0
thresh = 1e-05 
eri1 (1031, 2415)
eri1 (1031, 2415)
    CPU time for making amplitude: integral transform      0.30 sec, wall time      0.02 sec
shape (1031, 1587)
1st memory: 245.5 MiB
eri1 (1031, 2415)
eri1 (1031, 2415)
2nd memory: 245.5 MiB

========================
iter = 0  energy = -1041.845586 energy diff = 1041.845586
multiplicity <S^2> : Reference = 5.2668655 Response = 5.2694133 Projector = 5.2719611
eri1 (1031, 2415)
eri1 (1031, 2415)
    CPU time for making amplitude: integral transform      0.27 sec, wall time      0.02 sec
shape (1031, 1587)
1st memory: 245.5 MiB
eri1 (1031, 2415)
eri1 (1031, 2415)
2nd memory: 245.5 MiB

========================
iter = 1  energy = -1041.861348 energy diff = 0.015763
multiplicity <S^2> : Reference = 5.1477375 Response = 5.147948 Projector = 5.1481584
eri1 (1031, 2415)
eri1 (1031, 2415)
    CPU time for making amplitude: integral transform      0.32 sec, wall time      0.02 sec
shape (1031, 1587)
1st memory: 245.5 MiB
eri1 (1031, 2415)
eri1 (1031, 2415)
2nd memory: 245.5 MiB

========================
iter = 2  energy = -1041.876187 energy diff = 0.014839
multiplicity <S^2> : Reference = 5.0312351 Response = 5.0313885 Projector = 5.031542
eri1 (1031, 2415)
eri1 (1031, 2415)
    CPU time for making amplitude: integral transform      0.28 sec, wall time      0.02 sec
shape (1031, 1587)
1st memory: 245.5 MiB
eri1 (1031, 2415)
eri1 (1031, 2415)
2nd memory: 245.5 MiB

========================
iter = 3  energy = -1041.884873 energy diff = 0.008686
multiplicity <S^2> : Reference = 4.9421418 Response = 4.9424605 Projector = 4.9427791
eri1 (1031, 2415)
eri1 (1031, 2415)
    CPU time for making amplitude: integral transform      0.27 sec, wall time      0.02 sec
shape (1031, 1587)
1st memory: 245.5 MiB
eri1 (1031, 2415)
eri1 (1031, 2415)
2nd memory: 245.5 MiB

========================
iter = 4  energy = -1041.890558 energy diff = 0.005685
multiplicity <S^2> : Reference = 4.8610444 Response = 4.8609565 Projector = 4.8608685
eri1 (1031, 2415)
eri1 (1031, 2415)
    CPU time for making amplitude: integral transform      0.26 sec, wall time      0.02 sec
shape (1031, 1587)
1st memory: 245.5 MiB
eri1 (1031, 2415)
eri1 (1031, 2415)
2nd memory: 245.5 MiB

========================
iter = 5  energy = -1041.894559 energy diff = 0.004001
multiplicity <S^2> : Reference = 4.8156937 Response = 4.8158938 Projector = 4.8160939
eri1 (1031, 2415)
eri1 (1031, 2415)
    CPU time for making amplitude: integral transform      0.26 sec, wall time      0.02 sec
shape (1031, 1587)
1st memory: 245.5 MiB
eri1 (1031, 2415)
eri1 (1031, 2415)
2nd memory: 245.5 MiB

========================
iter = 6  energy = -1041.892173 energy diff = 0.002387
multiplicity <S^2> : Reference = 4.8344127 Response = 4.8342874 Projector = 4.8341621
eri1 (1031, 2415)
eri1 (1031, 2415)
    CPU time for making amplitude: integral transform      0.30 sec, wall time      0.02 sec
shape (1031, 1587)
1st memory: 245.5 MiB
eri1 (1031, 2415)
eri1 (1031, 2415)
2nd memory: 245.5 MiB

========================
iter = 7  energy = -1041.886561 energy diff = 0.005611
multiplicity <S^2> : Reference = 4.8799255 Response = 4.879614 Projector = 4.8793024
eri1 (1031, 2415)
eri1 (1031, 2415)
    CPU time for making amplitude: integral transform      0.30 sec, wall time      0.02 sec
shape (1031, 1587)
1st memory: 246.0 MiB
eri1 (1031, 2415)
eri1 (1031, 2415)
2nd memory: 246.4 MiB

========================
iter = 8  energy = -1041.877885 energy diff = 0.008676
multiplicity <S^2> : Reference = 4.966968 Response = 4.9668231 Projector = 4.9666783
eri1 (1031, 2415)
eri1 (1031, 2415)
    CPU time for making amplitude: integral transform      0.29 sec, wall time      0.02 sec
shape (1031, 1587)
1st memory: 246.4 MiB
eri1 (1031, 2415)
eri1 (1031, 2415)
2nd memory: 246.4 MiB

========================
iter = 9  energy = -1041.880701 energy diff = 0.002816
multiplicity <S^2> : Reference = 4.9375656 Response = 4.9376994 Projector = 4.9378333
eri1 (1031, 2415)
eri1 (1031, 2415)
    CPU time for making amplitude: integral transform      0.30 sec, wall time      0.02 sec
shape (1031, 1587)
1st memory: 246.4 MiB
eri1 (1031, 2415)
eri1 (1031, 2415)
2nd memory: 246.4 MiB

========================
iter = 10  energy = -1041.872924 energy diff = 0.007778
multiplicity <S^2> : Reference = 5.0461467 Response = 5.0460576 Projector = 5.0459686
eri1 (1031, 2415)
eri1 (1031, 2415)
    CPU time for making amplitude: integral transform      0.27 sec, wall time      0.02 sec
shape (1031, 1587)
1st memory: 246.4 MiB
eri1 (1031, 2415)
eri1 (1031, 2415)
2nd memory: 246.4 MiB

========================
iter = 11  energy = -1041.874122 energy diff = 0.001199
multiplicity <S^2> : Reference = 5.0315018 Response = 5.0317389 Projector = 5.0319759
eri1 (1031, 2415)
eri1 (1031, 2415)
    CPU time for making amplitude: integral transform      0.27 sec, wall time      0.02 sec
shape (1031, 1587)
1st memory: 246.4 MiB
eri1 (1031, 2415)
eri1 (1031, 2415)
2nd memory: 246.4 MiB

========================
iter = 12  energy = -1041.877288 energy diff = 0.003166
multiplicity <S^2> : Reference = 4.9783899 Response = 4.9781117 Projector = 4.9778336
eri1 (1031, 2415)
eri1 (1031, 2415)
    CPU time for making amplitude: integral transform      0.29 sec, wall time      0.02 sec
shape (1031, 1587)
1st memory: 246.4 MiB
eri1 (1031, 2415)
eri1 (1031, 2415)
2nd memory: 246.4 MiB

========================
iter = 13  energy = -1041.877299 energy diff = 0.000010
multiplicity <S^2> : Reference = 4.9782866 Response = 4.9780083 Projector = 4.97773
eri1 (1031, 2415)
eri1 (1031, 2415)
    CPU time for making amplitude: integral transform      0.24 sec, wall time      0.02 sec
shape (1031, 1587)
1st memory: 246.4 MiB
eri1 (1031, 2415)
eri1 (1031, 2415)
2nd memory: 246.4 MiB

========================
iter = 14  energy = -1041.877574 energy diff = 0.000276
multiplicity <S^2> : Reference = 4.9606707 Response = 4.9602116 Projector = 4.9597524
eri1 (1031, 2415)
eri1 (1031, 2415)
    CPU time for making amplitude: integral transform      0.29 sec, wall time      0.02 sec
shape (1031, 1587)
1st memory: 246.4 MiB
eri1 (1031, 2415)
eri1 (1031, 2415)
2nd memory: 246.4 MiB

========================
iter = 15  energy = -1041.877911 energy diff = 0.000337
multiplicity <S^2> : Reference = 4.9493904 Response = 4.9492698 Projector = 4.9491492
eri1 (1031, 2415)
eri1 (1031, 2415)
    CPU time for making amplitude: integral transform      0.27 sec, wall time      0.02 sec
shape (1031, 1587)
1st memory: 246.4 MiB
eri1 (1031, 2415)
eri1 (1031, 2415)
2nd memory: 246.4 MiB

========================
iter = 16  energy = -1041.879346 energy diff = 0.001435
multiplicity <S^2> : Reference = 4.9219994 Response = 4.9219462 Projector = 4.921893
eri1 (1031, 2415)
eri1 (1031, 2415)
    CPU time for making amplitude: integral transform      0.30 sec, wall time      0.02 sec
shape (1031, 1587)
1st memory: 246.4 MiB
eri1 (1031, 2415)
eri1 (1031, 2415)
2nd memory: 246.4 MiB

========================
iter = 17  energy = -1041.879492 energy diff = 0.000146
multiplicity <S^2> : Reference = 4.9211981 Response = 4.9211446 Projector = 4.9210912
eri1 (1031, 2415)
eri1 (1031, 2415)
    CPU time for making amplitude: integral transform      0.27 sec, wall time      0.02 sec
shape (1031, 1587)
1st memory: 246.4 MiB
eri1 (1031, 2415)
eri1 (1031, 2415)
2nd memory: 246.4 MiB

========================
iter = 18  energy = -1041.879212 energy diff = 0.000281
multiplicity <S^2> : Reference = 4.9243346 Response = 4.9242851 Projector = 4.9242355
eri1 (1031, 2415)
eri1 (1031, 2415)
    CPU time for making amplitude: integral transform      0.26 sec, wall time      0.02 sec
shape (1031, 1587)
1st memory: 246.4 MiB
eri1 (1031, 2415)
eri1 (1031, 2415)
2nd memory: 246.4 MiB

========================
iter = 19  energy = -1041.879043 energy diff = 0.000169
multiplicity <S^2> : Reference = 4.9203222 Response = 4.9202768 Projector = 4.9202314
eri1 (1031, 2415)
eri1 (1031, 2415)
    CPU time for making amplitude: integral transform      0.28 sec, wall time      0.02 sec
shape (1031, 1587)
1st memory: 246.4 MiB
eri1 (1031, 2415)
eri1 (1031, 2415)
2nd memory: 246.4 MiB

========================
iter = 20  energy = -1041.877935 energy diff = 0.001108
multiplicity <S^2> : Reference = 4.9101208 Response = 4.9102938 Projector = 4.9104669
eri1 (1031, 2415)
eri1 (1031, 2415)
    CPU time for making amplitude: integral transform      0.29 sec, wall time      0.02 sec
shape (1031, 1587)
1st memory: 246.4 MiB
eri1 (1031, 2415)
eri1 (1031, 2415)
2nd memory: 246.4 MiB

========================
iter = 21  energy = -1041.877905 energy diff = 0.000031
multiplicity <S^2> : Reference = 4.8967082 Response = 4.8961235 Projector = 4.8955388
eri1 (1031, 2415)
eri1 (1031, 2415)
    CPU time for making amplitude: integral transform      0.27 sec, wall time      0.02 sec
shape (1031, 1587)
1st memory: 246.4 MiB
eri1 (1031, 2415)
eri1 (1031, 2415)
2nd memory: 246.4 MiB

========================
iter = 22  energy = -1041.878188 energy diff = 0.000284
multiplicity <S^2> : Reference = 4.8917977 Response = 4.8917835 Projector = 4.8917693
eri1 (1031, 2415)
eri1 (1031, 2415)
    CPU time for making amplitude: integral transform      0.25 sec, wall time      0.02 sec
shape (1031, 1587)
1st memory: 246.4 MiB
eri1 (1031, 2415)
eri1 (1031, 2415)
2nd memory: 246.4 MiB

========================
iter = 23  energy = -1041.878276 energy diff = 0.000087
multiplicity <S^2> : Reference = 4.8907181 Response = 4.8907058 Projector = 4.8906935
eri1 (1031, 2415)
eri1 (1031, 2415)
    CPU time for making amplitude: integral transform      0.28 sec, wall time      0.02 sec
shape (1031, 1587)
1st memory: 246.4 MiB
eri1 (1031, 2415)
eri1 (1031, 2415)
2nd memory: 246.4 MiB

========================
iter = 24  energy = -1041.878243 energy diff = 0.000033
multiplicity <S^2> : Reference = 4.8897021 Response = 4.8896877 Projector = 4.8896733
eri1 (1031, 2415)
eri1 (1031, 2415)
    CPU time for making amplitude: integral transform      0.29 sec, wall time      0.02 sec
shape (1031, 1587)
1st memory: 246.4 MiB
eri1 (1031, 2415)
eri1 (1031, 2415)
2nd memory: 246.4 MiB

========================
iter = 25  energy = -1041.877929 energy diff = 0.000314
multiplicity <S^2> : Reference = 4.8917845 Response = 4.8916696 Projector = 4.8915548
eri1 (1031, 2415)
eri1 (1031, 2415)
    CPU time for making amplitude: integral transform      0.26 sec, wall time      0.02 sec
shape (1031, 1587)
1st memory: 259.5 MiB
eri1 (1031, 2415)
eri1 (1031, 2415)
2nd memory: 211.9 MiB

========================
iter = 26  energy = -1041.876134 energy diff = 0.001795
multiplicity <S^2> : Reference = 4.883358 Response = 4.8833673 Projector = 4.8833766
eri1 (1031, 2415)
eri1 (1031, 2415)
    CPU time for making amplitude: integral transform      0.27 sec, wall time      0.02 sec
shape (1031, 1587)
1st memory: 259.2 MiB
eri1 (1031, 2415)
eri1 (1031, 2415)
2nd memory: 219.6 MiB

========================
iter = 27  energy = -1041.874904 energy diff = 0.001230
multiplicity <S^2> : Reference = 4.8792019 Response = 4.8794018 Projector = 4.8796017
eri1 (1031, 2415)
eri1 (1031, 2415)
    CPU time for making amplitude: integral transform      0.28 sec, wall time      0.02 sec
shape (1031, 1587)
1st memory: 259.0 MiB
eri1 (1031, 2415)
eri1 (1031, 2415)
2nd memory: 211.1 MiB

========================
iter = 28  energy = -1041.874333 energy diff = 0.000571
multiplicity <S^2> : Reference = 4.8722303 Response = 4.8722251 Projector = 4.87222
eri1 (1031, 2415)
eri1 (1031, 2415)
    CPU time for making amplitude: integral transform      0.28 sec, wall time      0.02 sec
shape (1031, 1587)
1st memory: 272.4 MiB
eri1 (1031, 2415)
eri1 (1031, 2415)
2nd memory: 219.9 MiB

========================
iter = 29  energy = -1041.874329 energy diff = 0.000004
multiplicity <S^2> : Reference = 4.8483792 Response = 4.8486978 Projector = 4.8490163

UOB-MP2 has converged
UOB-MP2 energy =  -1041.8743288583505


******** <class 'pyscf.scf.uhf.UHF'> ********
method = UHF
initial guess = minao
damping factor = 0
level_shift factor = 0
DIIS = <class 'pyscf.scf.diis.CDIIS'>
diis_start_cycle = 1
diis_space = 8
SCF conv_tol = 1e-09
SCF conv_tol_grad = None
SCF max_cycles = 50
direct_scf = True
direct_scf_tol = 1e-13
chkfile to save SCF result = /home/ltkoanh/Al_B2LYP_6311_Gd_Cluster/Cluster/Al13-neutral-doublet/tmpt9t63ixq
max_memory 4000 MB (current use 220 MB)
number electrons alpha = 46  beta = 45
Set gradient conv threshold to 3.16228e-05
init E= -1039.65464044394
  alpha nocc = 46  HOMO = -0.266487721561875  LUMO = -0.179808921887099
  beta  nocc = 45  HOMO = -0.296304496613231  LUMO = -0.266487721561875

WARN: system HOMO -0.266487721561875 >= system LUMO -0.266487721561875

cycle= 1 E= -1038.60270036844  delta_E= 1.05  |g|= 1.05  |ddm|= 2.65
  alpha nocc = 46  HOMO = 0.115491880270069  LUMO = 0.12780134051175
  beta  nocc = 45  HOMO = 0.115415322212233  LUMO = 0.128366586459888
cycle= 2 E= -1018.98016803163  delta_E= 19.6  |g|= 2.89  |ddm|=  5.8
  alpha nocc = 46  HOMO = 0.0761872536827192  LUMO = 0.0904322036295112
  beta  nocc = 45  HOMO = 0.0785007465642495  LUMO = 0.0938555416357322
cycle= 3 E= -1036.54396954184  delta_E= -17.6  |g|= 1.74  |ddm|= 4.42
  alpha nocc = 46  HOMO = 0.0577524438166124  LUMO = 0.0610909999566677
  beta  nocc = 45  HOMO = 0.0528091002300728  LUMO = 0.0605305358032334
cycle= 4 E= -1039.81936939467  delta_E= -3.28  |g|= 1.29  |ddm|= 3.31
  alpha nocc = 46  HOMO = 0.0276879827437648  LUMO = 0.0449374398471389
  beta  nocc = 45  HOMO = 0.0209988519998135  LUMO = 0.0524761158678361
cycle= 5 E= -1040.0014750686  delta_E= -0.182  |g|= 1.23  |ddm|= 2.31
  alpha nocc = 46  HOMO = -0.0238762100913319  LUMO = 0.0636912195010858
  beta  nocc = 45  HOMO = 6.4273387244698e-05  LUMO = 0.075862298887464
cycle= 6 E= -1039.13803561357  delta_E= 0.863  |g|= 1.52  |ddm|= 0.667
  alpha nocc = 46  HOMO = -0.0137570859441993  LUMO = 0.0347683998889442
  beta  nocc = 45  HOMO = 0.0399372701337874  LUMO = 0.0524449631484369
cycle= 7 E= -1039.18184118742  delta_E= -0.0438  |g|= 1.48  |ddm|= 0.908
  alpha nocc = 46  HOMO = -0.0204500994582072  LUMO = 0.040198358264696
  beta  nocc = 45  HOMO = 0.0367646775426483  LUMO = 0.0555159410395774
cycle= 8 E= -1039.17633429496  delta_E= 0.00551  |g|= 1.49  |ddm|= 0.112
  alpha nocc = 46  HOMO = -0.0133162169640854  LUMO = 0.0431059471639815
  beta  nocc = 45  HOMO = -0.00588468714271106  LUMO = 0.0705990868787785
cycle= 9 E= -1039.41904739881  delta_E= -0.243  |g|= 1.45  |ddm|= 0.859
  alpha nocc = 46  HOMO = -0.0680652626234917  LUMO = -0.0256574125230627
  beta  nocc = 45  HOMO = -0.0823189270133591  LUMO = 0.00933483504340909
cycle= 10 E= -1040.47062534019  delta_E= -1.05  |g|= 0.826  |ddm|= 2.44
  alpha nocc = 46  HOMO = -0.0283940928257886  LUMO = 0.0878322122802022
  beta  nocc = 45  HOMO = -0.0199558873473823  LUMO = 0.0977316943194352
cycle= 11 E= -1040.90304981213  delta_E= -0.432  |g|= 0.634  |ddm|= 1.73
  alpha nocc = 46  HOMO = -0.0381226795396126  LUMO = 0.0968108824877999
  beta  nocc = 45  HOMO = -0.0280288365641907  LUMO = 0.0998859914198345
cycle= 12 E= -1041.15502413312  delta_E= -0.252  |g|= 0.355  |ddm|= 0.539
  alpha nocc = 46  HOMO = -0.0850371072422556  LUMO = 0.0991386184450681
  beta  nocc = 45  HOMO = -0.0291207685969341  LUMO = 0.101768629617692
cycle= 13 E= -1041.32020925844  delta_E= -0.165  |g|= 0.215  |ddm|= 0.651
  alpha nocc = 46  HOMO = -0.102810971753142  LUMO = 0.109056487300137
  beta  nocc = 45  HOMO = -0.0359193287020131  LUMO = 0.11353922463981
cycle= 14 E= -1041.40680463287  delta_E= -0.0866  |g|= 0.144  |ddm|= 0.407
  alpha nocc = 46  HOMO = -0.103357304702972  LUMO = 0.103069874800081
  beta  nocc = 45  HOMO = -0.0454361930614671  LUMO = 0.105823716813009
cycle= 15 E= -1041.49058816755  delta_E= -0.0838  |g|= 0.108  |ddm|= 0.571
  alpha nocc = 46  HOMO = -0.116713037170935  LUMO = 0.117315329287558
  beta  nocc = 45  HOMO = -0.0480632938065723  LUMO = 0.112924531046766
cycle= 16 E= -1041.53877802293  delta_E= -0.0482  |g|= 0.107  |ddm|= 0.385
  alpha nocc = 46  HOMO = -0.115742307966461  LUMO = 0.117425010855447
  beta  nocc = 45  HOMO = -0.0478916201007626  LUMO = 0.113103429064883
cycle= 17 E= -1041.53804256642  delta_E= 0.000735  |g|= 0.107  |ddm|= 0.0117
  alpha nocc = 46  HOMO = -0.120936465506607  LUMO = 0.11771943232916
  beta  nocc = 45  HOMO = -0.0473631629843649  LUMO = 0.114587340635283
cycle= 18 E= -1041.54871399848  delta_E= -0.0107  |g|= 0.108  |ddm|= 0.0952
  alpha nocc = 46  HOMO = -0.120897564658852  LUMO = 0.115689894327827
  beta  nocc = 45  HOMO = -0.0498278928164691  LUMO = 0.111519226209516
cycle= 19 E= -1041.54838237306  delta_E= 0.000332  |g|= 0.102  |ddm|= 0.169
  alpha nocc = 46  HOMO = -0.124047880991635  LUMO = 0.10955011730705
  beta  nocc = 45  HOMO = -0.0502855418953822  LUMO = 0.113311864307886
cycle= 20 E= -1041.55119717989  delta_E= -0.00281  |g|= 0.102  |ddm|= 0.182
  alpha nocc = 46  HOMO = -0.129983139736235  LUMO = 0.112284557249622
  beta  nocc = 45  HOMO = -0.0500257152919648  LUMO = 0.114205531574031
cycle= 21 E= -1041.57177589716  delta_E= -0.0206  |g|= 0.103  |ddm|= 0.173
  alpha nocc = 46  HOMO = -0.132996096540138  LUMO = 0.112366746334767
  beta  nocc = 45  HOMO = -0.0481719093193284  LUMO = 0.114264923584089
cycle= 22 E= -1041.58464405521  delta_E= -0.0129  |g|= 0.105  |ddm|= 0.119
  alpha nocc = 46  HOMO = -0.127314117642294  LUMO = 0.115334890822578
  beta  nocc = 45  HOMO = -0.0533317312424713  LUMO = 0.112943382687947
cycle= 23 E= -1041.57688070955  delta_E= 0.00776  |g|= 0.0953  |ddm|= 0.222
  alpha nocc = 46  HOMO = -0.0919952720014577  LUMO = 0.131638770532057
  beta  nocc = 45  HOMO = -0.0368157373904218  LUMO = 0.117687901663574
cycle= 24 E= -1041.60700332883  delta_E= -0.0301  |g|= 0.0842  |ddm|= 0.544
  alpha nocc = 46  HOMO = -0.104648719016628  LUMO = 0.13366335467136
  beta  nocc = 45  HOMO = -0.0375143297665262  LUMO = 0.120810422415816
cycle= 25 E= -1041.64107132479  delta_E= -0.0341  |g|= 0.0734  |ddm|= 0.391
  alpha nocc = 46  HOMO = -0.0726301705485105  LUMO = 0.143211454542958
  beta  nocc = 45  HOMO = -0.0386937303131312  LUMO = 0.132864069395344
cycle= 26 E= -1041.66853474377  delta_E= -0.0275  |g|= 0.0591  |ddm|= 0.368
  alpha nocc = 46  HOMO = -0.083955716058926  LUMO = 0.151390093911323
  beta  nocc = 45  HOMO = -0.0384034445347964  LUMO = 0.146196550505919
cycle= 27 E= -1041.68985240743  delta_E= -0.0213  |g|= 0.0409  |ddm|= 0.391
  alpha nocc = 46  HOMO = -0.0800732156478038  LUMO = 0.144411071596938
  beta  nocc = 45  HOMO = -0.0400826762765408  LUMO = 0.140337954434443
cycle= 28 E= -1041.69889925738  delta_E= -0.00905  |g|= 0.0378  |ddm|= 0.277
  alpha nocc = 46  HOMO = -0.0780811341818901  LUMO = 0.153095053615606
  beta  nocc = 45  HOMO = -0.0488084151005628  LUMO = 0.14212375214452
cycle= 29 E= -1041.706913002  delta_E= -0.00801  |g|= 0.0251  |ddm|= 0.252
  alpha nocc = 46  HOMO = -0.0832170120098884  LUMO = 0.154280539870117
  beta  nocc = 45  HOMO = -0.0480079791255308  LUMO = 0.140452293045158
cycle= 30 E= -1041.70998164997  delta_E= -0.00307  |g|= 0.0204  |ddm|= 0.127
  alpha nocc = 46  HOMO = -0.0843070480806886  LUMO = 0.152303793110007
  beta  nocc = 45  HOMO = -0.0438503912713429  LUMO = 0.13454602562977
cycle= 31 E= -1041.71313070218  delta_E= -0.00315  |g|= 0.021  |ddm|= 0.168
  alpha nocc = 46  HOMO = -0.0822948694011669  LUMO = 0.153807600894796
  beta  nocc = 45  HOMO = -0.045878021081712  LUMO = 0.134936161487108
cycle= 32 E= -1041.71461221327  delta_E= -0.00148  |g|= 0.0202  |ddm|= 0.0619
  alpha nocc = 46  HOMO = -0.0802494703226592  LUMO = 0.156320619399032
  beta  nocc = 45  HOMO = -0.049493629733005  LUMO = 0.136773961683119
cycle= 33 E= -1041.71501889832  delta_E= -0.000407  |g|= 0.0195  |ddm|= 0.0348
  alpha nocc = 46  HOMO = -0.0806624477826683  LUMO = 0.156484429946572
  beta  nocc = 45  HOMO = -0.0498480270731681  LUMO = 0.136915740684706
cycle= 34 E= -1041.71515727947  delta_E= -0.000138  |g|= 0.0194  |ddm|= 0.00807
  alpha nocc = 46  HOMO = -0.0809520174197076  LUMO = 0.157799629873766
  beta  nocc = 45  HOMO = -0.0504943475566534  LUMO = 0.13643468221989
cycle= 35 E= -1041.71620815526  delta_E= -0.00105  |g|= 0.019  |ddm|= 0.0719
  alpha nocc = 46  HOMO = -0.0817156267292361  LUMO = 0.158241842335825
  beta  nocc = 45  HOMO = -0.0503837235380183  LUMO = 0.136502076738875
cycle= 36 E= -1041.71682425555  delta_E= -0.000616  |g|= 0.0189  |ddm|= 0.0338
  alpha nocc = 46  HOMO = -0.0818118719703483  LUMO = 0.158135328860019
  beta  nocc = 45  HOMO = -0.0502406787764511  LUMO = 0.136793851014725
cycle= 37 E= -1041.71663982903  delta_E= 0.000184  |g|= 0.0188  |ddm|= 0.0127
  alpha nocc = 46  HOMO = -0.084457605954543  LUMO = 0.157401193048343
  beta  nocc = 45  HOMO = -0.0499178505889517  LUMO = 0.137250688788584
cycle= 38 E= -1041.71577121372  delta_E= 0.000869  |g|= 0.0183  |ddm|= 0.0463
  alpha nocc = 46  HOMO = -0.0851752308373395  LUMO = 0.157221642024529
  beta  nocc = 45  HOMO = -0.0496952865459453  LUMO = 0.137074890317418
cycle= 39 E= -1041.71641334914  delta_E= -0.000642  |g|= 0.0181  |ddm|= 0.0349
  alpha nocc = 46  HOMO = -0.0863977620793513  LUMO = 0.157238100342708
  beta  nocc = 45  HOMO = -0.0491181792018132  LUMO = 0.136689252514709
cycle= 40 E= -1041.71721654609  delta_E= -0.000803  |g|= 0.0177  |ddm|= 0.0661
  alpha nocc = 46  HOMO = -0.0882537577976648  LUMO = 0.155845305685087
  beta  nocc = 45  HOMO = -0.0492098149032942  LUMO = 0.13564086384659
cycle= 41 E= -1041.71799174243  delta_E= -0.000775  |g|= 0.017  |ddm|= 0.117
  alpha nocc = 46  HOMO = -0.0907331575080705  LUMO = 0.154087070539041
  beta  nocc = 45  HOMO = -0.0481361127325656  LUMO = 0.137373947656493
cycle= 42 E= -1041.71777190061  delta_E= 0.00022  |g|= 0.0161  |ddm|= 0.194
  alpha nocc = 46  HOMO = -0.0934839013884847  LUMO = 0.152047504665101
  beta  nocc = 45  HOMO = -0.0474260623176323  LUMO = 0.137693002896326
cycle= 43 E= -1041.71752963204  delta_E= 0.000242  |g|= 0.0153  |ddm|= 0.184
  alpha nocc = 46  HOMO = -0.0967697650001438  LUMO = 0.148984335049118
  beta  nocc = 45  HOMO = -0.045820191995792  LUMO = 0.139341431822513
cycle= 44 E= -1041.71679734159  delta_E= 0.000732  |g|= 0.0146  |ddm|= 0.295
  alpha nocc = 46  HOMO = -0.0983807550169953  LUMO = 0.148598636362643
  beta  nocc = 45  HOMO = -0.0457454922447456  LUMO = 0.138173671574553
cycle= 45 E= -1041.71673016669  delta_E= 6.72e-05  |g|= 0.0134  |ddm|= 0.106
  alpha nocc = 46  HOMO = -0.103053284150353  LUMO = 0.147947912031195
  beta  nocc = 45  HOMO = -0.0462875104989829  LUMO = 0.13839988002809
cycle= 46 E= -1041.71716017191  delta_E= -0.00043  |g|= 0.0129  |ddm|= 0.199
  alpha nocc = 46  HOMO = -0.10387477064583  LUMO = 0.148514727775008
  beta  nocc = 45  HOMO = -0.0461094244374831  LUMO = 0.137879905973741
cycle= 47 E= -1041.71753189608  delta_E= -0.000372  |g|= 0.0127  |ddm|= 0.0262
  alpha nocc = 46  HOMO = -0.104488435080864  LUMO = 0.149049795039368
  beta  nocc = 45  HOMO = -0.0459589464061869  LUMO = 0.137279498662395
cycle= 48 E= -1041.71796037722  delta_E= -0.000428  |g|= 0.0129  |ddm|= 0.0409
  alpha nocc = 46  HOMO = -0.103785582479972  LUMO = 0.148976932642645
  beta  nocc = 45  HOMO = -0.0460419869227999  LUMO = 0.13742237557878
cycle= 49 E= -1041.71775626104  delta_E= 0.000204  |g|= 0.0127  |ddm|= 0.0329
  alpha nocc = 46  HOMO = -0.103311123312038  LUMO = 0.149621857372307
  beta  nocc = 45  HOMO = -0.0461343023055692  LUMO = 0.137023390456288
cycle= 50 E= -1041.71779189817  delta_E= -3.56e-05  |g|= 0.0124  |ddm|= 0.0497
SCF not converged.
SCF energy = -1041.71779189817 after 50 cycles  <S^2> = 5.9390575  2S+1 = 4.9755633
