#INFO: **** input file is /home/ltkoanh/Al_B2LYP_6311_Gd_Cluster/Cluster/Al16-neutral-singlet/input.py ****
import numpy
from pyscf import gto, scf, dft, mp, cc
from pyscf.mp import uobmp2_mom_conv, dfuobmp2_mom_conv, uhf_mom
from pyscf.mp import  mp2, ump2
from pyscf.tools import molden
import os
from functools import reduce


mol = gto.Mole()
geom = os.environ.get('geom_txt')
mol.atom = geom
mol.basis = os.environ.get('basis', 'cc-pvdz')
mol.unit = 'A'
mol.charge = int(os.environ.get('charge', 0))
mol.spin = int(os.environ.get('spin', 0))
mol.verbose = 4
mol.build()

#################### Ground state using density fitting
### Hartree-Fock
a  = scf.UHF(mol).density_fit()
a.kernel()

### Ground state OBMP2 calculation
ob = dfuobmp2_mom_conv.DFUOBMP2(a)
ob.second_order = True
ob.thresh = 10e-6
ob.css = 1
ob.cos = 1
e_obmp2g = ob.kernel()

### Ground state O2BMP2 calculation
ob = dfuobmp2_mom_conv.DFUOBMP2(a)
ob.second_order = True
ob.thresh = 10e-6
ob.css = 0                             
ob.cos = 1.2                             
e_o2bmp2g = ob.kernel()  

#################### Ground state NOT using density fitting
### Hartree-Fock
a  = scf.UHF(mol)
a.kernel()

### Ground state OBMP2 calculation
ob = uobmp2_mom_conv.UOBMP2(a)
ob.second_order = True
ob.thresh = 10e-6
ob.css = 1
ob.cos = 1
#e_obmp2g = ob.kernel()

### Ground state O2BMP2 calculation
ob = uobmp2_mom_conv.UOBMP2(a)
ob.second_order = True
ob.thresh = 10e-6
ob.css = 0
ob.cos = 1.2   ## the cos can be vary ...                        	 
#e_o2bmp2g = ob.kernel()


## Results from density-fitting approximate with non-using density fitting 
## check results between df and non-df with small molecules before running the important molecules
#INFO: ******************** input file end ********************


System: uname_result(system='Linux', node='comphys', release='3.10.0-1160.119.1.el7.x86_64', version='#1 SMP Tue Jun 4 14:43:51 UTC 2024', machine='x86_64', processor='x86_64')  Threads 8
Python 3.7.9 (default, Dec  4 2023, 13:00:18) 
[GCC 4.8.5 20150623 (Red Hat 4.8.5-44)]
numpy 1.21.6  scipy 1.7.3
Date: Tue May 27 20:23:23 2025
PySCF version 1.7.0
PySCF path  /share/installs/pyscf/pyscf
GIT HEAD      ref: refs/heads/ob-mp2
GIT ob-mp2 branch  f0fc63383ab6c719c0c91f5e07a6895c637b700d

[CONFIG] conf_file None
[INPUT] verbose = 4
[INPUT] num. atoms = 16
[INPUT] num. electrons = 208
[INPUT] charge = 0
[INPUT] spin (= nelec alpha-beta = 2S) = 0
[INPUT] symmetry False subgroup None
[INPUT] Mole.unit = A
[INPUT]  1 Al     1.729928000000  -1.884021000000   0.000000000000 AA    3.269090135217  -3.560283702929   0.000000000000 Bohr
[INPUT]  2 Al    -0.768597000000  -1.722748000000   1.528985000000 AA   -1.452437830162  -3.255521901642   2.889362898568 Bohr
[INPUT]  3 Al     2.867986000000   0.602785000000   0.000000000000 AA    5.419708069087   1.139098561996   0.000000000000 Bohr
[INPUT]  4 Al    -2.489064000000  -0.198398000000   0.000000000000 AA   -4.703649266514  -0.374917883661   0.000000000000 Bohr
[INPUT]  5 Al    -1.091630000000   0.890051000000   2.264385000000 AA   -2.062881729359   1.681952626895   4.279067490573 Bohr
[INPUT]  6 Al     1.424537000000  -0.389626000000  -2.273004000000 AA    2.691984784310  -0.736286431010  -4.295355040041 Bohr
[INPUT]  7 Al     1.424537000000  -0.389626000000   2.273004000000 AA    2.691984784310  -0.736286431010   4.295355040041 Bohr
[INPUT]  8 Al    -0.768597000000  -1.722748000000  -1.528985000000 AA   -1.452437830162  -3.255521901642  -2.889362898568 Bohr
[INPUT]  9 Al     1.424537000000   2.210798000000  -1.784728000000 AA    2.691984784310   4.177802736736  -3.372647126843 Bohr
[INPUT] 10 Al    -1.850282000000   2.364073000000   0.000000000000 AA   -3.496526233212   4.467450508479   0.000000000000 Bohr
[INPUT] 11 Al    -1.091630000000   0.890051000000  -2.264385000000 AA   -2.062881729359   1.681952626895  -4.279067490573 Bohr
[INPUT] 12 Al     1.424537000000   2.210798000000   1.784728000000 AA    2.691984784310   4.177802736736   3.372647126843 Bohr
[INPUT] 13 Al    -0.067727000000  -3.868348000000   0.000000000000 AA   -0.127985481238  -7.310118274509   0.000000000000 Bohr
[INPUT] 14 Al     0.332983000000   3.744265000000   0.000000000000 AA    0.629246674136   7.075635387795   0.000000000000 Bohr
[INPUT] 15 Al    -2.702471000000  -3.242177000000   0.000000000000 AA   -5.106930049579  -6.126826577364   0.000000000000 Bohr
[INPUT] 16 Al     0.200950000000   0.504871000000   0.000000000000 AA    0.379740464731   0.954067918235   0.000000000000 Bohr

nuclear repulsion = 2883.61822213432
number of shells = 80
number of NR pGTOs = 864
number of NR cGTOs = 144
basis = sto-6g
ecp = {}
CPU time:         1.44


******** <class 'pyscf.df.df_jk.density_fit.<locals>.DFHF'> ********
method = DFHF-UHF
initial guess = minao
damping factor = 0
level_shift factor = 0
DIIS = <class 'pyscf.scf.diis.CDIIS'>
diis_start_cycle = 1
diis_space = 8
SCF conv_tol = 1e-09
SCF conv_tol_grad = None
SCF max_cycles = 50
direct_scf = True
direct_scf_tol = 1e-13
chkfile to save SCF result = /home/ltkoanh/Al_B2LYP_6311_Gd_Cluster/Cluster/Al16-neutral-singlet/tmpx10yhj6i
max_memory 4000 MB (current use 60 MB)
number electrons alpha = 104  beta = 104
Set gradient conv threshold to 3.16228e-05
******** <class 'pyscf.df.df.DF'> ********
auxbasis = None
max_memory = 4000
_cderi_to_save = /home/ltkoanh/Al_B2LYP_6311_Gd_Cluster/Cluster/Al16-neutral-singlet/tmpoh9hdf64
Even tempered Gaussians are generated as DF auxbasis for  Al
init E= -3851.81405216209
  alpha nocc = 104  HOMO = -0.866639931972017  LUMO = -0.833299163276433
  beta  nocc = 104  HOMO = -0.832512593673808  LUMO = -0.818522859028646
cycle= 1 E= -3852.73654747947  delta_E= -0.922  |g|= 1.46  |ddm|= 4.94
  alpha nocc = 104  HOMO = 0.318401649440325  LUMO = 0.343429463108959
  beta  nocc = 104  HOMO = 0.318801297547577  LUMO = 0.34061802879736
cycle= 2 E= -3849.21715147599  delta_E= 3.52  |g|= 2.14  |ddm|= 5.54
  alpha nocc = 104  HOMO = 0.158889300839901  LUMO = 0.219536596889041
  beta  nocc = 104  HOMO = 0.15645544245643  LUMO = 0.223305037792047
cycle= 3 E= -3854.30923383703  delta_E= -5.09  |g|= 0.581  |ddm|= 4.18
  alpha nocc = 104  HOMO = 0.0784112726220466  LUMO = 0.17716254550404
  beta  nocc = 104  HOMO = 0.0762440933151391  LUMO = 0.16986310032486
cycle= 4 E= -3854.30985830298  delta_E= -0.000624  |g|= 0.621  |ddm|= 2.02
  alpha nocc = 104  HOMO = 0.0398241308178812  LUMO = 0.193495026080722
  beta  nocc = 104  HOMO = 0.040919718240338  LUMO = 0.19569389367725
cycle= 5 E= -3854.65354302419  delta_E= -0.344  |g|= 0.096  |ddm|=  1.1
  alpha nocc = 104  HOMO = 0.0321407404532144  LUMO = 0.200155037210232
  beta  nocc = 104  HOMO = 0.0324676957247303  LUMO = 0.201217085576924
cycle= 6 E= -3854.66302080988  delta_E= -0.00948  |g|= 0.0488  |ddm|= 0.25
  alpha nocc = 104  HOMO = 0.0275037120561481  LUMO = 0.199346872985425
  beta  nocc = 104  HOMO = 0.0274193306072699  LUMO = 0.200946194917885
cycle= 7 E= -3854.66514470745  delta_E= -0.00212  |g|= 0.0369  |ddm|= 0.142
  alpha nocc = 104  HOMO = 0.027302234928174  LUMO = 0.19812486627891
  beta  nocc = 104  HOMO = 0.0269823895422838  LUMO = 0.199468288730189
cycle= 8 E= -3854.66681400897  delta_E= -0.00167  |g|= 0.0114  |ddm|= 0.0872
  alpha nocc = 104  HOMO = 0.0275950025680733  LUMO = 0.198352711190041
  beta  nocc = 104  HOMO = 0.0269462948238191  LUMO = 0.199780463049091
cycle= 9 E= -3854.66741686801  delta_E= -0.000603  |g|= 0.00605  |ddm|= 0.0728
  alpha nocc = 104  HOMO = 0.0277084679327918  LUMO = 0.198421722397605
  beta  nocc = 104  HOMO = 0.0267845924886401  LUMO = 0.199845317354159
cycle= 10 E= -3854.66773205118  delta_E= -0.000315  |g|= 0.00426  |ddm|= 0.063
  alpha nocc = 104  HOMO = 0.0276694546513585  LUMO = 0.198662818590531
  beta  nocc = 104  HOMO = 0.0264485239725743  LUMO = 0.200063060190176
cycle= 11 E= -3854.66791179899  delta_E= -0.00018  |g|= 0.00305  |ddm|= 0.0543
  alpha nocc = 104  HOMO = 0.0278811254830857  LUMO = 0.198835227484613
  beta  nocc = 104  HOMO = 0.0264041192588808  LUMO = 0.200105178399455
cycle= 12 E= -3854.66801548983  delta_E= -0.000104  |g|= 0.00291  |ddm|= 0.0356
  alpha nocc = 104  HOMO = 0.0279112320001359  LUMO = 0.198878135001981
  beta  nocc = 104  HOMO = 0.0263567389154503  LUMO = 0.200115863617221
cycle= 13 E= -3854.66804313761  delta_E= -2.76e-05  |g|= 0.00299  |ddm|= 0.00903
  alpha nocc = 104  HOMO = 0.0278563623309763  LUMO = 0.198852382660617
  beta  nocc = 104  HOMO = 0.0265459484777305  LUMO = 0.20014699758706
cycle= 14 E= -3854.66796477083  delta_E= 7.84e-05  |g|= 0.00279  |ddm|= 0.0276
  alpha nocc = 104  HOMO = 0.0275884121720415  LUMO = 0.198755643614105
  beta  nocc = 104  HOMO = 0.0265996552135274  LUMO = 0.200059743827421
cycle= 15 E= -3854.66788625704  delta_E= 7.85e-05  |g|= 0.00233  |ddm|= 0.0365
  alpha nocc = 104  HOMO = 0.0274421435687112  LUMO = 0.198864421052096
  beta  nocc = 104  HOMO = 0.0267311425849723  LUMO = 0.200028255674411
cycle= 16 E= -3854.66785404032  delta_E= 3.22e-05  |g|= 0.0019  |ddm|= 0.0372
  alpha nocc = 104  HOMO = 0.0274003836009991  LUMO = 0.199027992893063
  beta  nocc = 104  HOMO = 0.0268923883283889  LUMO = 0.199956597951786
cycle= 17 E= -3854.6678526824  delta_E= 1.36e-06  |g|= 0.00117  |ddm|= 0.0347
  alpha nocc = 104  HOMO = 0.0272712665542175  LUMO = 0.198985056706949
  beta  nocc = 104  HOMO = 0.0268517356697064  LUMO = 0.199797115997894
cycle= 18 E= -3854.66785759614  delta_E= -4.91e-06  |g|= 0.000978  |ddm|= 0.0188
  alpha nocc = 104  HOMO = 0.0272318487285045  LUMO = 0.199008731696579
  beta  nocc = 104  HOMO = 0.02682785150315  LUMO = 0.199750997912168
cycle= 19 E= -3854.66786173449  delta_E= -4.14e-06  |g|= 0.000693  |ddm|= 0.00888
  alpha nocc = 104  HOMO = 0.0272621314842641  LUMO = 0.199022974312222
  beta  nocc = 104  HOMO = 0.0268696432250144  LUMO = 0.199717207932746
cycle= 20 E= -3854.66786521659  delta_E= -3.48e-06  |g|= 0.000522  |ddm|= 0.00743
  alpha nocc = 104  HOMO = 0.0272619178532417  LUMO = 0.199044198860266
  beta  nocc = 104  HOMO = 0.026866788092864  LUMO = 0.199686463403128
cycle= 21 E= -3854.66786805904  delta_E= -2.84e-06  |g|= 0.000455  |ddm|= 0.0063
  alpha nocc = 104  HOMO = 0.0272679611100191  LUMO = 0.199052249454449
  beta  nocc = 104  HOMO = 0.0268670062273078  LUMO = 0.199671381603256
cycle= 22 E= -3854.66787051888  delta_E= -2.46e-06  |g|= 0.000426  |ddm|= 0.00583
  alpha nocc = 104  HOMO = 0.027279827038985  LUMO = 0.19906517196783
  beta  nocc = 104  HOMO = 0.0268715606394406  LUMO = 0.19967740984283
cycle= 23 E= -3854.66787242281  delta_E= -1.9e-06  |g|= 0.000414  |ddm|= 0.00457
  alpha nocc = 104  HOMO = 0.0272814323661665  LUMO = 0.199063186946118
  beta  nocc = 104  HOMO = 0.0268662833487773  LUMO = 0.19967377408053
cycle= 24 E= -3854.66787328261  delta_E= -8.6e-07  |g|= 0.000415  |ddm|= 0.00204
  alpha nocc = 104  HOMO = 0.027280590136377  LUMO = 0.199062188033629
  beta  nocc = 104  HOMO = 0.0268663544191342  LUMO = 0.199673260820226
cycle= 25 E= -3854.66787305364  delta_E= 2.29e-07  |g|= 0.000415  |ddm|= 0.000542
  alpha nocc = 104  HOMO = 0.0272797022533525  LUMO = 0.199063649276903
  beta  nocc = 104  HOMO = 0.0268698635079294  LUMO = 0.199676749217088
cycle= 26 E= -3854.66787248363  delta_E= 5.7e-07  |g|= 0.00041  |ddm|= 0.00143
  alpha nocc = 104  HOMO = 0.0272811943985478  LUMO = 0.199064782423445
  beta  nocc = 104  HOMO = 0.0268741100991683  LUMO = 0.199679595957804
cycle= 27 E= -3854.66787164023  delta_E= 8.43e-07  |g|= 0.000391  |ddm|= 0.00282
  alpha nocc = 104  HOMO = 0.0272881761515319  LUMO = 0.199068111767784
  beta  nocc = 104  HOMO = 0.0268761548236381  LUMO = 0.199679035415937
cycle= 28 E= -3854.66787142534  delta_E= 2.15e-07  |g|= 0.000383  |ddm|= 0.00292
  alpha nocc = 104  HOMO = 0.0272920022389922  LUMO = 0.199073531718811
  beta  nocc = 104  HOMO = 0.0268648601678562  LUMO = 0.199677831161077
cycle= 29 E= -3854.66787220079  delta_E= -7.75e-07  |g|= 0.000358  |ddm|= 0.00375
  alpha nocc = 104  HOMO = 0.0273006311489641  LUMO = 0.199072620027465
  beta  nocc = 104  HOMO = 0.0268577706685262  LUMO = 0.199667399956447
cycle= 30 E= -3854.66787309711  delta_E= -8.96e-07  |g|= 0.000351  |ddm|= 0.00321
  alpha nocc = 104  HOMO = 0.0273052537467919  LUMO = 0.199075642752524
  beta  nocc = 104  HOMO = 0.0268521357681998  LUMO = 0.199664662189927
cycle= 31 E= -3854.66787375696  delta_E= -6.6e-07  |g|= 0.000352  |ddm|= 0.00194
  alpha nocc = 104  HOMO = 0.0273054012506997  LUMO = 0.199076290560375
  beta  nocc = 104  HOMO = 0.0268533611543162  LUMO = 0.199665927566691
cycle= 32 E= -3854.66787372154  delta_E= 3.54e-08  |g|= 0.000352  |ddm|= 0.000216
  alpha nocc = 104  HOMO = 0.0273048252352443  LUMO = 0.199075849644378
  beta  nocc = 104  HOMO = 0.0268520750272189  LUMO = 0.199664874505672
cycle= 33 E= -3854.66787385382  delta_E= -1.32e-07  |g|= 0.000351  |ddm|= 0.000503
  alpha nocc = 104  HOMO = 0.0273067284245538  LUMO = 0.199077074572773
  beta  nocc = 104  HOMO = 0.0268539383447007  LUMO = 0.199665193325091
cycle= 34 E= -3854.66787402299  delta_E= -1.69e-07  |g|= 0.000351  |ddm|= 0.00076
  alpha nocc = 104  HOMO = 0.0273073757560337  LUMO = 0.199076909815489
  beta  nocc = 104  HOMO = 0.0268520110307033  LUMO = 0.199663613896814
cycle= 35 E= -3854.66787426727  delta_E= -2.44e-07  |g|= 0.000351  |ddm|= 0.000748
  alpha nocc = 104  HOMO = 0.0273073228635438  LUMO = 0.199076880291201
  beta  nocc = 104  HOMO = 0.0268518091154786  LUMO = 0.199663509200578
cycle= 36 E= -3854.66787429061  delta_E= -2.33e-08  |g|= 0.000351  |ddm|= 9.89e-05
  alpha nocc = 104  HOMO = 0.0273076911087634  LUMO = 0.199077505199014
  beta  nocc = 104  HOMO = 0.0268528614513545  LUMO = 0.199663726213306
cycle= 37 E= -3854.66787420779  delta_E= 8.28e-08  |g|= 0.000351  |ddm|= 0.000571
  alpha nocc = 104  HOMO = 0.0273075858009948  LUMO = 0.1990797118079
  beta  nocc = 104  HOMO = 0.0268526766065027  LUMO = 0.19966266005671
cycle= 38 E= -3854.66787433238  delta_E= -1.25e-07  |g|= 0.000349  |ddm|= 0.00101
  alpha nocc = 104  HOMO = 0.0273152298466314  LUMO = 0.199080855863459
  beta  nocc = 104  HOMO = 0.0268485363486831  LUMO = 0.199654600822227
cycle= 39 E= -3854.66787514585  delta_E= -8.13e-07  |g|= 0.000351  |ddm|= 0.00267
  alpha nocc = 104  HOMO = 0.0273126416203338  LUMO = 0.199079165902321
  beta  nocc = 104  HOMO = 0.0268520105174149  LUMO = 0.199656613326583
cycle= 40 E= -3854.6678747438  delta_E= 4.02e-07  |g|= 0.000348  |ddm|= 0.0012
  alpha nocc = 104  HOMO = 0.0273063273501911  LUMO = 0.199084196383429
  beta  nocc = 104  HOMO = 0.0268668998492327  LUMO = 0.199661815503821
cycle= 41 E= -3854.66787404676  delta_E= 6.97e-07  |g|= 0.000339  |ddm|= 0.00252
  alpha nocc = 104  HOMO = 0.0272926862237438  LUMO = 0.199084863079022
  beta  nocc = 104  HOMO = 0.0268685480953587  LUMO = 0.199648616962328
cycle= 42 E= -3854.66787443077  delta_E= -3.84e-07  |g|= 0.000329  |ddm|= 0.00329
  alpha nocc = 104  HOMO = 0.0272883491885197  LUMO = 0.199093542938724
  beta  nocc = 104  HOMO = 0.0268841957064057  LUMO = 0.199643972783593
cycle= 43 E= -3854.66787442637  delta_E= 4.4e-09  |g|= 0.000321  |ddm|= 0.00225
  alpha nocc = 104  HOMO = 0.0272853076998609  LUMO = 0.199098120190451
  beta  nocc = 104  HOMO = 0.0268819645679596  LUMO = 0.199630764398726
cycle= 44 E= -3854.66787534249  delta_E= -9.16e-07  |g|= 0.000322  |ddm|= 0.00325
  alpha nocc = 104  HOMO = 0.0272759000325843  LUMO = 0.199105205660072
  beta  nocc = 104  HOMO = 0.0268837816614637  LUMO = 0.19962140309222
cycle= 45 E= -3854.66787600001  delta_E= -6.58e-07  |g|= 0.000314  |ddm|= 0.00259
  alpha nocc = 104  HOMO = 0.0272724487945528  LUMO = 0.199109035577943
  beta  nocc = 104  HOMO = 0.0268855516747345  LUMO = 0.199616301300273
cycle= 46 E= -3854.66787642306  delta_E= -4.23e-07  |g|= 0.000312  |ddm|= 0.00155
  alpha nocc = 104  HOMO = 0.027272369458972  LUMO = 0.19910897235794
  beta  nocc = 104  HOMO = 0.0268858267372997  LUMO = 0.199615653527909
cycle= 47 E= -3854.6678765251  delta_E= -1.02e-07  |g|= 0.000312  |ddm|= 0.00043
  alpha nocc = 104  HOMO = 0.0272767345626971  LUMO = 0.199109330799461
  beta  nocc = 104  HOMO = 0.0268829434518882  LUMO = 0.199611720405842
cycle= 48 E= -3854.66787685571  delta_E= -3.31e-07  |g|= 0.000313  |ddm|= 0.00145
  alpha nocc = 104  HOMO = 0.0272756214957434  LUMO = 0.199108238732934
  beta  nocc = 104  HOMO = 0.0268845098560875  LUMO = 0.199612673524509
cycle= 49 E= -3854.66787675831  delta_E= 9.74e-08  |g|= 0.000313  |ddm|= 0.000513
  alpha nocc = 104  HOMO = 0.0272756389385069  LUMO = 0.199108490815623
  beta  nocc = 104  HOMO = 0.0268846308344683  LUMO = 0.199612643440508
cycle= 50 E= -3854.66787681993  delta_E= -6.16e-08  |g|= 0.000313  |ddm|= 0.000266
SCF not converged.
SCF energy = -3854.66787681993 after 50 cycles  <S^2> = 0.0049298219  2S+1 = 1.0098115
shift = 0
thresh = 1e-05 
eri1 (1808, 10440)
eri1 (1808, 10440)
    CPU time for making amplitude: integral transform      2.05 sec, wall time      0.18 sec
shape (1808, 5760)
1st memory: 1046.7 MiB
eri1 (1808, 10440)
eri1 (1808, 10440)
2nd memory: 729.0 MiB

========================
iter = 0  energy = -3855.730948 energy diff = 3855.730948
multiplicity <S^2> : Reference = 0.0049298219 Response = 0.0049285732 Projector = 0.0049273246
eri1 (1808, 10440)
eri1 (1808, 10440)
    CPU time for making amplitude: integral transform      2.09 sec, wall time      0.19 sec
shape (1808, 5760)
1st memory: 1036.4 MiB
eri1 (1808, 10440)
eri1 (1808, 10440)
2nd memory: 734.7 MiB

========================
iter = 1  energy = -3855.731621 energy diff = 0.000673
multiplicity <S^2> : Reference = 0.0029939824 Response = 0.0029941035 Projector = 0.0029942247
eri1 (1808, 10440)
eri1 (1808, 10440)
    CPU time for making amplitude: integral transform      2.16 sec, wall time      0.20 sec
shape (1808, 5760)
1st memory: 1037.7 MiB
eri1 (1808, 10440)
eri1 (1808, 10440)
2nd memory: 736.0 MiB

========================
iter = 2  energy = -3855.740805 energy diff = 0.009184
multiplicity <S^2> : Reference = 0.0020705874 Response = 0.0020704905 Projector = 0.0020703936
eri1 (1808, 10440)
eri1 (1808, 10440)
    CPU time for making amplitude: integral transform      2.21 sec, wall time      0.20 sec
shape (1808, 5760)
1st memory: 1038.9 MiB
eri1 (1808, 10440)
eri1 (1808, 10440)
2nd memory: 733.7 MiB

========================
iter = 3  energy = -3855.745395 energy diff = 0.004590
multiplicity <S^2> : Reference = 0.0012964376 Response = 0.0012963094 Projector = 0.0012961812
eri1 (1808, 10440)
eri1 (1808, 10440)
    CPU time for making amplitude: integral transform      2.12 sec, wall time      0.19 sec
shape (1808, 5760)
1st memory: 1039.2 MiB
eri1 (1808, 10440)
eri1 (1808, 10440)
2nd memory: 737.5 MiB

========================
iter = 4  energy = -3855.748047 energy diff = 0.002652
multiplicity <S^2> : Reference = 0.00058904911 Response = 0.00058901131 Projector = 0.00058897351
eri1 (1808, 10440)
eri1 (1808, 10440)
    CPU time for making amplitude: integral transform      2.06 sec, wall time      0.18 sec
shape (1808, 5760)
1st memory: 1040.0 MiB
eri1 (1808, 10440)
eri1 (1808, 10440)
2nd memory: 738.4 MiB

========================
iter = 5  energy = -3855.748890 energy diff = 0.000843
multiplicity <S^2> : Reference = 0.00032300312 Response = 0.00032301646 Projector = 0.0003230298
eri1 (1808, 10440)
eri1 (1808, 10440)
    CPU time for making amplitude: integral transform      2.15 sec, wall time      0.19 sec
shape (1808, 5760)
1st memory: 1040.7 MiB
eri1 (1808, 10440)
eri1 (1808, 10440)
2nd memory: 739.0 MiB

========================
iter = 6  energy = -3855.749231 energy diff = 0.000341
multiplicity <S^2> : Reference = 0.00013933761 Response = 0.00013932608 Projector = 0.00013931455
eri1 (1808, 10440)
eri1 (1808, 10440)
    CPU time for making amplitude: integral transform      2.47 sec, wall time      0.23 sec
shape (1808, 5760)
1st memory: 1041.8 MiB
eri1 (1808, 10440)
eri1 (1808, 10440)
2nd memory: 740.2 MiB

========================
iter = 7  energy = -3855.749331 energy diff = 0.000100
multiplicity <S^2> : Reference = 5.8707669e-05 Response = 5.8709596e-05 Projector = 5.8711523e-05
eri1 (1808, 10440)
eri1 (1808, 10440)
    CPU time for making amplitude: integral transform      2.13 sec, wall time      0.19 sec
shape (1808, 5760)
1st memory: 1042.7 MiB
eri1 (1808, 10440)
eri1 (1808, 10440)
2nd memory: 741.0 MiB

========================
iter = 8  energy = -3855.749381 energy diff = 0.000050
multiplicity <S^2> : Reference = 1.8830421e-05 Response = 1.8831084e-05 Projector = 1.8831748e-05
eri1 (1808, 10440)
eri1 (1808, 10440)
    CPU time for making amplitude: integral transform      2.09 sec, wall time      0.19 sec
shape (1808, 5760)
1st memory: 1043.0 MiB
eri1 (1808, 10440)
eri1 (1808, 10440)
2nd memory: 741.3 MiB

========================
iter = 9  energy = -3855.749392 energy diff = 0.000012
multiplicity <S^2> : Reference = 1.0495865e-05 Response = 1.0496475e-05 Projector = 1.0497085e-05
eri1 (1808, 10440)
eri1 (1808, 10440)
    CPU time for making amplitude: integral transform      2.11 sec, wall time      0.19 sec
shape (1808, 5760)
1st memory: 1043.8 MiB
eri1 (1808, 10440)
eri1 (1808, 10440)
2nd memory: 742.2 MiB

========================
iter = 10  energy = -3855.749393 energy diff = 0.000000
multiplicity <S^2> : Reference = 6.5458174e-06 Response = 6.5459365e-06 Projector = 6.5460556e-06

UOB-MP2 has converged
UOB-MP2 energy =  -3855.7493926612615
shift = 0
thresh = 1e-05 
eri1 (1808, 10440)
eri1 (1808, 10440)
    CPU time for making amplitude: integral transform      1.98 sec, wall time      0.17 sec
shape (1808, 5760)
1st memory: 1034.1 MiB
eri1 (1808, 10440)
eri1 (1808, 10440)
2nd memory: 732.4 MiB

========================
iter = 0  energy = -3855.364409 energy diff = 3855.364409
multiplicity <S^2> : Reference = 0.0049298219 Response = 0.0049285732 Projector = 0.0049273246
eri1 (1808, 10440)
eri1 (1808, 10440)
    CPU time for making amplitude: integral transform      2.09 sec, wall time      0.19 sec
shape (1808, 5760)
1st memory: 1036.3 MiB
eri1 (1808, 10440)
eri1 (1808, 10440)
2nd memory: 731.2 MiB

========================
iter = 1  energy = -3855.400836 energy diff = 0.036427
multiplicity <S^2> : Reference = 0.0031344491 Response = 0.0031346287 Projector = 0.0031348082
eri1 (1808, 10440)
eri1 (1808, 10440)
    CPU time for making amplitude: integral transform      2.85 sec, wall time      0.28 sec
shape (1808, 5760)
1st memory: 1037.2 MiB
eri1 (1808, 10440)
eri1 (1808, 10440)
2nd memory: 735.6 MiB

========================
iter = 2  energy = -3855.405583 energy diff = 0.004746
multiplicity <S^2> : Reference = 0.0021726701 Response = 0.0021729026 Projector = 0.0021731351
eri1 (1808, 10440)
eri1 (1808, 10440)
    CPU time for making amplitude: integral transform      2.08 sec, wall time      0.18 sec
shape (1808, 5760)
1st memory: 1038.7 MiB
eri1 (1808, 10440)
eri1 (1808, 10440)
2nd memory: 733.6 MiB

========================
iter = 3  energy = -3855.407721 energy diff = 0.002138
multiplicity <S^2> : Reference = 0.0014083732 Response = 0.0014084509 Projector = 0.0014085286
eri1 (1808, 10440)
eri1 (1808, 10440)
    CPU time for making amplitude: integral transform      2.22 sec, wall time      0.20 sec
shape (1808, 5760)
1st memory: 1039.7 MiB
eri1 (1808, 10440)
eri1 (1808, 10440)
2nd memory: 734.6 MiB

========================
iter = 4  energy = -3855.409371 energy diff = 0.001650
multiplicity <S^2> : Reference = 0.00064835256 Response = 0.00064836172 Projector = 0.00064837089
eri1 (1808, 10440)
eri1 (1808, 10440)
    CPU time for making amplitude: integral transform      2.18 sec, wall time      0.20 sec
shape (1808, 5760)
1st memory: 1040.0 MiB
eri1 (1808, 10440)
eri1 (1808, 10440)
2nd memory: 738.4 MiB

========================
iter = 5  energy = -3855.409843 energy diff = 0.000471
multiplicity <S^2> : Reference = 0.00033979125 Response = 0.0003398017 Projector = 0.00033981216
eri1 (1808, 10440)
eri1 (1808, 10440)
    CPU time for making amplitude: integral transform      2.17 sec, wall time      0.20 sec
shape (1808, 5760)
1st memory: 1041.2 MiB
eri1 (1808, 10440)
eri1 (1808, 10440)
2nd memory: 739.5 MiB

========================
iter = 6  energy = -3855.410052 energy diff = 0.000209
multiplicity <S^2> : Reference = 0.00013616197 Response = 0.00013616154 Projector = 0.00013616111
eri1 (1808, 10440)
eri1 (1808, 10440)
    CPU time for making amplitude: integral transform      2.08 sec, wall time      0.19 sec
shape (1808, 5760)
1st memory: 1041.9 MiB
eri1 (1808, 10440)
eri1 (1808, 10440)
2nd memory: 736.7 MiB

========================
iter = 7  energy = -3855.410093 energy diff = 0.000041
multiplicity <S^2> : Reference = 6.2308063e-05 Response = 6.2304315e-05 Projector = 6.2300567e-05
eri1 (1808, 10440)
eri1 (1808, 10440)
    CPU time for making amplitude: integral transform      2.13 sec, wall time      0.19 sec
shape (1808, 5760)
1st memory: 1042.2 MiB
eri1 (1808, 10440)
eri1 (1808, 10440)
2nd memory: 740.5 MiB

========================
iter = 8  energy = -3855.410109 energy diff = 0.000016
multiplicity <S^2> : Reference = 2.7224743e-05 Response = 2.7223409e-05 Projector = 2.7222076e-05
eri1 (1808, 10440)
eri1 (1808, 10440)
    CPU time for making amplitude: integral transform      2.12 sec, wall time      0.19 sec
shape (1808, 5760)
1st memory: 1043.0 MiB
eri1 (1808, 10440)
eri1 (1808, 10440)
2nd memory: 737.9 MiB

========================
iter = 9  energy = -3855.410111 energy diff = 0.000002
multiplicity <S^2> : Reference = 1.4337802e-05 Response = 1.4337563e-05 Projector = 1.4337323e-05

UOB-MP2 has converged
UOB-MP2 energy =  -3855.410110624339


******** <class 'pyscf.scf.uhf.UHF'> ********
method = UHF
initial guess = minao
damping factor = 0
level_shift factor = 0
DIIS = <class 'pyscf.scf.diis.CDIIS'>
diis_start_cycle = 1
diis_space = 8
SCF conv_tol = 1e-09
SCF conv_tol_grad = None
SCF max_cycles = 50
direct_scf = True
direct_scf_tol = 1e-13
chkfile to save SCF result = /home/ltkoanh/Al_B2LYP_6311_Gd_Cluster/Cluster/Al16-neutral-singlet/tmpqagr32nu
max_memory 4000 MB (current use 297 MB)
number electrons alpha = 104  beta = 104
Set gradient conv threshold to 3.16228e-05
init E= -3851.81684588464
  alpha nocc = 104  HOMO = -0.866877742419838  LUMO = -0.833497354997123
  beta  nocc = 104  HOMO = -0.832741699207435  LUMO = -0.818735698850454
cycle= 1 E= -3852.7404200507  delta_E= -0.924  |g|= 1.46  |ddm|= 4.94
  alpha nocc = 104  HOMO = 0.318268351574037  LUMO = 0.343463145718603
  beta  nocc = 104  HOMO = 0.318676585575406  LUMO = 0.340660372429094
cycle= 2 E= -3849.21515505791  delta_E= 3.53  |g|= 2.14  |ddm|= 5.54
  alpha nocc = 104  HOMO = 0.158918127925738  LUMO = 0.219408063555049
  beta  nocc = 104  HOMO = 0.156503658210159  LUMO = 0.223181157502316
cycle= 3 E= -3854.31463245399  delta_E= -5.1  |g|= 0.581  |ddm|= 4.19
  alpha nocc = 104  HOMO = 0.0783437451365971  LUMO = 0.177061410411823
  beta  nocc = 104  HOMO = 0.0762053220419214  LUMO = 0.169758656078628
cycle= 4 E= -3854.31496557478  delta_E= -0.000333  |g|= 0.621  |ddm|= 2.02
  alpha nocc = 104  HOMO = 0.0397352272291913  LUMO = 0.193305098169502
  beta  nocc = 104  HOMO = 0.040841543547202  LUMO = 0.195508016334505
cycle= 5 E= -3854.65883440315  delta_E= -0.344  |g|= 0.0961  |ddm|=  1.1
  alpha nocc = 104  HOMO = 0.0320686578815558  LUMO = 0.199969202711159
  beta  nocc = 104  HOMO = 0.0324040942480528  LUMO = 0.20103313503149
cycle= 6 E= -3854.66831453055  delta_E= -0.00948  |g|= 0.0489  |ddm|= 0.25
  alpha nocc = 104  HOMO = 0.0274368813970598  LUMO = 0.19914297674691
  beta  nocc = 104  HOMO = 0.027358497070784  LUMO = 0.200747780534434
cycle= 7 E= -3854.67043614963  delta_E= -0.00212  |g|= 0.0369  |ddm|= 0.142
  alpha nocc = 104  HOMO = 0.0272281606036718  LUMO = 0.197917913858935
  beta  nocc = 104  HOMO = 0.0269117863744214  LUMO = 0.199267004439366
cycle= 8 E= -3854.67210588319  delta_E= -0.00167  |g|= 0.0114  |ddm|= 0.0873
  alpha nocc = 104  HOMO = 0.0275206625189934  LUMO = 0.198138933351545
  beta  nocc = 104  HOMO = 0.0268721971805962  LUMO = 0.199575239297642
cycle= 9 E= -3854.67270629654  delta_E= -0.0006  |g|= 0.00605  |ddm|= 0.0727
  alpha nocc = 104  HOMO = 0.0276349594645465  LUMO = 0.198204436082729
  beta  nocc = 104  HOMO = 0.0267079931518248  LUMO = 0.199640722303596
cycle= 10 E= -3854.6730203014  delta_E= -0.000314  |g|= 0.00427  |ddm|= 0.0628
  alpha nocc = 104  HOMO = 0.0275983137774294  LUMO = 0.198442927494635
  beta  nocc = 104  HOMO = 0.0263696384841161  LUMO = 0.199861483619736
cycle= 11 E= -3854.67320096637  delta_E= -0.000181  |g|= 0.00307  |ddm|= 0.0543
  alpha nocc = 104  HOMO = 0.0278101493167497  LUMO = 0.198614124363703
  beta  nocc = 104  HOMO = 0.0263222196026804  LUMO = 0.199906930810943
cycle= 12 E= -3854.67330570197  delta_E= -0.000105  |g|= 0.00295  |ddm|= 0.0356
  alpha nocc = 104  HOMO = 0.0278387914934333  LUMO = 0.198653566310741
  beta  nocc = 104  HOMO = 0.0262786771198477  LUMO = 0.199917953533422
cycle= 13 E= -3854.6733315154  delta_E= -2.58e-05  |g|= 0.00302  |ddm|= 0.00835
  alpha nocc = 104  HOMO = 0.0277862259576881  LUMO = 0.19863320931892
  beta  nocc = 104  HOMO = 0.0264735192028144  LUMO = 0.199950830967012
cycle= 14 E= -3854.67325190556  delta_E= 7.96e-05  |g|= 0.00282  |ddm|= 0.0279
  alpha nocc = 104  HOMO = 0.0275128786297166  LUMO = 0.198537170647666
  beta  nocc = 104  HOMO = 0.0265325868948517  LUMO = 0.199861781411284
cycle= 15 E= -3854.67317082981  delta_E= 8.11e-05  |g|= 0.00233  |ddm|= 0.0376
  alpha nocc = 104  HOMO = 0.0273587140166499  LUMO = 0.198643542167589
  beta  nocc = 104  HOMO = 0.026658052534476  LUMO = 0.199820060630927
cycle= 16 E= -3854.67313923287  delta_E= 3.16e-05  |g|= 0.00189  |ddm|= 0.0377
  alpha nocc = 104  HOMO = 0.0273233714563902  LUMO = 0.19880622299531
  beta  nocc = 104  HOMO = 0.0268210769560995  LUMO = 0.199748131528945
cycle= 17 E= -3854.6731386121  delta_E= 6.21e-07  |g|= 0.00116  |ddm|= 0.0344
  alpha nocc = 104  HOMO = 0.0271923690371915  LUMO = 0.198764899265537
  beta  nocc = 104  HOMO = 0.0267758499605626  LUMO = 0.199588603914073
cycle= 18 E= -3854.67314391956  delta_E= -5.31e-06  |g|= 0.000956  |ddm|= 0.019
  alpha nocc = 104  HOMO = 0.0271570864386984  LUMO = 0.198790274672032
  beta  nocc = 104  HOMO = 0.0267539534430393  LUMO = 0.1995463726199
cycle= 19 E= -3854.67314795493  delta_E= -4.04e-06  |g|= 0.000695  |ddm|= 0.00868
  alpha nocc = 104  HOMO = 0.0271868505052115  LUMO = 0.19880383518557
  beta  nocc = 104  HOMO = 0.0267939814691761  LUMO = 0.199514266616903
cycle= 20 E= -3854.67315136143  delta_E= -3.41e-06  |g|= 0.00052  |ddm|= 0.00727
  alpha nocc = 104  HOMO = 0.0271875061834073  LUMO = 0.198823838171025
  beta  nocc = 104  HOMO = 0.0267905995500684  LUMO = 0.199484448937911
cycle= 21 E= -3854.67315418655  delta_E= -2.83e-06  |g|= 0.000454  |ddm|= 0.00627
  alpha nocc = 104  HOMO = 0.0271937869640584  LUMO = 0.198830192422373
  beta  nocc = 104  HOMO = 0.0267894174523953  LUMO = 0.199470226614025
cycle= 22 E= -3854.67315661288  delta_E= -2.43e-06  |g|= 0.000425  |ddm|= 0.00575
  alpha nocc = 104  HOMO = 0.0272061719325492  LUMO = 0.19884249903383
  beta  nocc = 104  HOMO = 0.0267937155358157  LUMO = 0.199477741399428
cycle= 23 E= -3854.67315851635  delta_E= -1.9e-06  |g|= 0.000413  |ddm|= 0.00456
  alpha nocc = 104  HOMO = 0.0272080322005306  LUMO = 0.198839932541778
  beta  nocc = 104  HOMO = 0.0267881411421954  LUMO = 0.1994747768027
cycle= 24 E= -3854.67315937694  delta_E= -8.61e-07  |g|= 0.000415  |ddm|= 0.00204
  alpha nocc = 104  HOMO = 0.0272073455832007  LUMO = 0.198839032190777
  beta  nocc = 104  HOMO = 0.0267882072842254  LUMO = 0.199474116103406
cycle= 25 E= -3854.67315916785  delta_E= 2.09e-07  |g|= 0.000414  |ddm|= 0.000499
  alpha nocc = 104  HOMO = 0.0272065610874969  LUMO = 0.198840581433547
  beta  nocc = 104  HOMO = 0.0267912684379377  LUMO = 0.199477060029572
cycle= 26 E= -3854.67315861541  delta_E= 5.52e-07  |g|= 0.000409  |ddm|= 0.00139
  alpha nocc = 104  HOMO = 0.0272095770402788  LUMO = 0.198841330289838
  beta  nocc = 104  HOMO = 0.026794175009343  LUMO = 0.19947902290883
cycle= 27 E= -3854.67315783561  delta_E= 7.8e-07  |g|= 0.000392  |ddm|= 0.00273
  alpha nocc = 104  HOMO = 0.0272185534774269  LUMO = 0.198844182446731
  beta  nocc = 104  HOMO = 0.0267931941378678  LUMO = 0.199478483486002
cycle= 28 E= -3854.67315773357  delta_E= 1.02e-07  |g|= 0.000386  |ddm|= 0.00294
  alpha nocc = 104  HOMO = 0.0272241974166323  LUMO = 0.198847521707294
  beta  nocc = 104  HOMO = 0.0267797942640163  LUMO = 0.199477770265869
cycle= 29 E= -3854.67315855084  delta_E= -8.17e-07  |g|= 0.000368  |ddm|= 0.00346
  alpha nocc = 104  HOMO = 0.0272324765580684  LUMO = 0.198845733129224
  beta  nocc = 104  HOMO = 0.0267725913395323  LUMO = 0.199470523060625
cycle= 30 E= -3854.67315928287  delta_E= -7.32e-07  |g|= 0.000365  |ddm|= 0.00249
  alpha nocc = 104  HOMO = 0.0272350500067675  LUMO = 0.198846759421817
  beta  nocc = 104  HOMO = 0.026769405201216  LUMO = 0.199469490859671
cycle= 31 E= -3854.67315964841  delta_E= -3.66e-07  |g|= 0.000366  |ddm|= 0.00101
  alpha nocc = 104  HOMO = 0.0272307487014279  LUMO = 0.198847429554651
  beta  nocc = 104  HOMO = 0.0267752994331002  LUMO = 0.19947331543239
cycle= 32 E= -3854.67315906714  delta_E= 5.81e-07  |g|= 0.000363  |ddm|= 0.00161
  alpha nocc = 104  HOMO = 0.0272237577694976  LUMO = 0.198844706348579
  beta  nocc = 104  HOMO = 0.0267784089755121  LUMO = 0.199469951024687
cycle= 33 E= -3854.6731586528  delta_E= 4.14e-07  |g|= 0.000358  |ddm|= 0.00128
  alpha nocc = 104  HOMO = 0.0272176061095663  LUMO = 0.198854472142701
  beta  nocc = 104  HOMO = 0.0268007554309045  LUMO = 0.199469500719725
cycle= 34 E= -3854.67315801971  delta_E= 6.33e-07  |g|= 0.000361  |ddm|= 0.00284
  alpha nocc = 104  HOMO = 0.0272018889927635  LUMO = 0.198860072026803
  beta  nocc = 104  HOMO = 0.0268089892593495  LUMO = 0.199454288163341
cycle= 35 E= -3854.67315820085  delta_E= -1.81e-07  |g|= 0.000333  |ddm|= 0.00298
  alpha nocc = 104  HOMO = 0.0271768662409393  LUMO = 0.198871125583439
  beta  nocc = 104  HOMO = 0.0268225927852755  LUMO = 0.199436068534471
cycle= 36 E= -3854.67315830177  delta_E= -1.01e-07  |g|= 0.000308  |ddm|= 0.00383
  alpha nocc = 104  HOMO = 0.0271617829493016  LUMO = 0.198886512536494
  beta  nocc = 104  HOMO = 0.0268403318936403  LUMO = 0.199420604071321
cycle= 37 E= -3854.67315875924  delta_E= -4.57e-07  |g|= 0.000296  |ddm|= 0.00367
  alpha nocc = 104  HOMO = 0.0271583104136772  LUMO = 0.198894234065059
  beta  nocc = 104  HOMO = 0.0268495064060069  LUMO = 0.199412299641491
cycle= 38 E= -3854.67315924738  delta_E= -4.88e-07  |g|= 0.000292  |ddm|= 0.00208
  alpha nocc = 104  HOMO = 0.0271544805040804  LUMO = 0.198898300928284
  beta  nocc = 104  HOMO = 0.0268499772549513  LUMO = 0.199408170773281
cycle= 39 E= -3854.67315960289  delta_E= -3.56e-07  |g|= 0.000291  |ddm|= 0.00128
  alpha nocc = 104  HOMO = 0.0271543613674531  LUMO = 0.198897908747524
  beta  nocc = 104  HOMO = 0.0268497383201077  LUMO = 0.199408689978085
cycle= 40 E= -3854.67315954053  delta_E= 6.24e-08  |g|= 0.000291  |ddm|= 0.000214
  alpha nocc = 104  HOMO = 0.0271544770551548  LUMO = 0.198896337756593
  beta  nocc = 104  HOMO = 0.026850350530426  LUMO = 0.199411312079195
cycle= 41 E= -3854.67315913709  delta_E= 4.03e-07  |g|= 0.00029  |ddm|= 0.0014
  alpha nocc = 104  HOMO = 0.0271543696419529  LUMO = 0.198895394043678
  beta  nocc = 104  HOMO = 0.0268496572321685  LUMO = 0.199415072038521
cycle= 42 E= -3854.67315865526  delta_E= 4.82e-07  |g|= 0.00029  |ddm|= 0.00175
  alpha nocc = 104  HOMO = 0.0271542871188393  LUMO = 0.198895234050456
  beta  nocc = 104  HOMO = 0.0268484441740968  LUMO = 0.199415523490787
cycle= 43 E= -3854.67315855882  delta_E= 9.64e-08  |g|= 0.00029  |ddm|= 0.000498
  alpha nocc = 104  HOMO = 0.0271555900634701  LUMO = 0.198894914634681
  beta  nocc = 104  HOMO = 0.0268478556479075  LUMO = 0.19941663261244
cycle= 44 E= -3854.67315851021  delta_E= 4.86e-08  |g|= 0.00029  |ddm|= 0.000294
  alpha nocc = 104  HOMO = 0.0271555936394125  LUMO = 0.198894822195635
  beta  nocc = 104  HOMO = 0.026847818071039  LUMO = 0.199416714390159
cycle= 45 E= -3854.67315850768  delta_E= 2.52e-09  |g|= 0.00029  |ddm|= 6.64e-05
  alpha nocc = 104  HOMO = 0.0271538757086987  LUMO = 0.198896593433614
  beta  nocc = 104  HOMO = 0.0268503383950418  LUMO = 0.199415713883962
cycle= 46 E= -3854.67315855746  delta_E= -4.98e-08  |g|= 0.00029  |ddm|= 0.000577
  alpha nocc = 104  HOMO = 0.0271538602560503  LUMO = 0.198896488019868
  beta  nocc = 104  HOMO = 0.0268500948739786  LUMO = 0.199415764922183
cycle= 47 E= -3854.67315855892  delta_E= -1.46e-09  |g|= 0.00029  |ddm|= 6.09e-05
  alpha nocc = 104  HOMO = 0.0271598415290081  LUMO = 0.198892574214932
  beta  nocc = 104  HOMO = 0.0268474603703916  LUMO = 0.199419593179527
cycle= 48 E= -3854.67315834262  delta_E= 2.16e-07  |g|= 0.000288  |ddm|= 0.00113
  alpha nocc = 104  HOMO = 0.0271637930233777  LUMO = 0.198889502763638
  beta  nocc = 104  HOMO = 0.0268384076761041  LUMO = 0.19942052226573
cycle= 49 E= -3854.67315847821  delta_E= -1.36e-07  |g|= 0.000286  |ddm|= 0.00143
  alpha nocc = 104  HOMO = 0.0271730485999443  LUMO = 0.198898583631693
  beta  nocc = 104  HOMO = 0.0268343399638822  LUMO = 0.199410436410789
cycle= 50 E= -3854.67315969695  delta_E= -1.22e-06  |g|= 0.000283  |ddm|= 0.00455
SCF not converged.
SCF energy = -3854.67315969695 after 50 cycles  <S^2> = 0.0047889881  2S+1 = 1.0095325
