#INFO: **** input file is /home/ltkoanh/Al_B2LYP_6311_Gd_Cluster/Cluster/Al14-neutral-singlet/input.py ****
import numpy
from pyscf import gto, scf, dft, mp, cc
from pyscf.mp import uobmp2_mom_conv, dfuobmp2_mom_conv, uhf_mom
from pyscf.mp import  mp2, ump2
from pyscf.tools import molden
import os
from functools import reduce


mol = gto.Mole()
geom = os.environ.get('geom_txt')
mol.atom = geom
mol.basis = os.environ.get('basis', 'cc-pvdz')
mol.unit = 'A'
mol.charge = int(os.environ.get('charge', 0))
mol.spin = int(os.environ.get('spin', 0))
mol.verbose = 4
mol.build()

#################### Ground state using density fitting
### Hartree-Fock
a  = scf.UHF(mol).density_fit()
a.kernel()

### Ground state OBMP2 calculation
ob = dfuobmp2_mom_conv.DFUOBMP2(a)
ob.second_order = True
ob.thresh = 10e-6
ob.css = 1
ob.cos = 1
e_obmp2g = ob.kernel()

### Ground state O2BMP2 calculation
ob = dfuobmp2_mom_conv.DFUOBMP2(a)
ob.second_order = True
ob.thresh = 10e-6
ob.css = 0                             
ob.cos = 1.2                             
e_o2bmp2g = ob.kernel()  

#################### Ground state NOT using density fitting
### Hartree-Fock
a  = scf.UHF(mol)
a.kernel()

### Ground state OBMP2 calculation
ob = uobmp2_mom_conv.UOBMP2(a)
ob.second_order = True
ob.thresh = 10e-6
ob.css = 1
ob.cos = 1
#e_obmp2g = ob.kernel()

### Ground state O2BMP2 calculation
ob = uobmp2_mom_conv.UOBMP2(a)
ob.second_order = True
ob.thresh = 10e-6
ob.css = 0
ob.cos = 1.2   ## the cos can be vary ...                        	 
#e_o2bmp2g = ob.kernel()


## Results from density-fitting approximate with non-using density fitting 
## check results between df and non-df with small molecules before running the important molecules
#INFO: ******************** input file end ********************


System: uname_result(system='Linux', node='comphys', release='3.10.0-1160.119.1.el7.x86_64', version='#1 SMP Tue Jun 4 14:43:51 UTC 2024', machine='x86_64', processor='x86_64')  Threads 8
Python 3.7.9 (default, Dec  4 2023, 13:00:18) 
[GCC 4.8.5 20150623 (Red Hat 4.8.5-44)]
numpy 1.21.6  scipy 1.7.3
Date: Tue May 27 18:57:31 2025
PySCF version 1.7.0
PySCF path  /share/installs/pyscf/pyscf
GIT HEAD      ref: refs/heads/ob-mp2
GIT ob-mp2 branch  f0fc63383ab6c719c0c91f5e07a6895c637b700d

[CONFIG] conf_file None
[INPUT] verbose = 4
[INPUT] num. atoms = 14
[INPUT] num. electrons = 182
[INPUT] charge = 0
[INPUT] spin (= nelec alpha-beta = 2S) = 0
[INPUT] symmetry False subgroup None
[INPUT] Mole.unit = A
[INPUT]  1 Al    -0.685793000000   1.764801000000   1.665662000000 AA   -1.295960948144   3.334990554359   3.147644996095 Bohr
[INPUT]  2 Al     2.204076000000   1.374364000000  -1.216694000000 AA    4.165099997727   2.597171555462  -2.299218437402 Bohr
[INPUT]  3 Al     0.000000000000   2.695183000000  -0.786873000000 AA    0.000000000000   5.093157725584  -1.486974464815 Bohr
[INPUT]  4 Al     1.807612000000   0.835040000000   1.524184000000 AA    3.415891619477   1.577996903057   2.880290323444 Bohr
[INPUT]  5 Al     2.440723000000  -1.206407000000  -0.360844000000 AA    4.612298015927  -2.279778824758  -0.681896333693 Bohr
[INPUT]  6 Al     0.685793000000  -1.764801000000   1.665662000000 AA    1.295960948144  -3.334990554359   3.147644996095 Bohr
[INPUT]  7 Al     0.000000000000  -2.695183000000  -0.786873000000 AA    0.000000000000  -5.093157725584  -1.486974464815 Bohr
[INPUT]  8 Al    -1.807612000000  -0.835040000000   1.524184000000 AA   -3.415891619477  -1.577996903057   2.880290323444 Bohr
[INPUT]  9 Al     0.998082000000  -0.815657000000  -2.636874000000 AA    1.886101629858  -1.541368341584  -4.982969684986 Bohr
[INPUT] 10 Al    -2.204076000000  -1.374364000000  -1.216694000000 AA   -4.165099997727  -2.597171555462  -2.299218437402 Bohr
[INPUT] 11 Al    -2.440723000000   1.206407000000  -0.360844000000 AA   -4.612298015927   2.279778824758  -0.681896333693 Bohr
[INPUT] 12 Al    -0.998082000000   0.815657000000  -2.636874000000 AA   -1.886101629858   1.541368341584  -4.982969684986 Bohr
[INPUT] 13 Al     0.000000000000   0.000000000000   3.917740000000 AA    0.000000000000   0.000000000000   7.403455627254 Bohr
[INPUT] 14 Al     0.000000000000   0.000000000000  -0.294863000000 AA    0.000000000000   0.000000000000  -0.557210314268 Bohr

nuclear repulsion = 2281.52396355992
number of shells = 70
number of NR pGTOs = 756
number of NR cGTOs = 126
basis = sto-6g
ecp = {}
CPU time:         1.48


******** <class 'pyscf.df.df_jk.density_fit.<locals>.DFHF'> ********
method = DFHF-UHF
initial guess = minao
damping factor = 0
level_shift factor = 0
DIIS = <class 'pyscf.scf.diis.CDIIS'>
diis_start_cycle = 1
diis_space = 8
SCF conv_tol = 1e-09
SCF conv_tol_grad = None
SCF max_cycles = 50
direct_scf = True
direct_scf_tol = 1e-13
chkfile to save SCF result = /home/ltkoanh/Al_B2LYP_6311_Gd_Cluster/Cluster/Al14-neutral-singlet/tmp8eiykzxc
max_memory 4000 MB (current use 60 MB)
number electrons alpha = 91  beta = 91
Set gradient conv threshold to 3.16228e-05
******** <class 'pyscf.df.df.DF'> ********
auxbasis = None
max_memory = 4000
_cderi_to_save = /home/ltkoanh/Al_B2LYP_6311_Gd_Cluster/Cluster/Al14-neutral-singlet/tmp_zp_e45l
Even tempered Gaussians are generated as DF auxbasis for  Al
init E= -3370.42750524432
  alpha nocc = 91  HOMO = -0.778018791253139  LUMO = -0.700309737070053
  beta  nocc = 91  HOMO = -0.748277196500133  LUMO = -0.681644936939567
cycle= 1 E= -3371.40988372263  delta_E= -0.982  |g|= 1.26  |ddm|= 4.51
  alpha nocc = 91  HOMO = 0.319087742116582  LUMO = 0.32229331485511
  beta  nocc = 91  HOMO = 0.315465426209715  LUMO = 0.318690167695663

WARN: system HOMO 0.315465426209715 >= system LUMO 0.318690167695663

cycle= 2 E= -3370.0796547949  delta_E= 1.33  |g|= 1.57  |ddm|= 4.35
  alpha nocc = 91  HOMO = 0.157897663634387  LUMO = 0.247696573207035
  beta  nocc = 91  HOMO = 0.152777147472606  LUMO = 0.245749773739985
cycle= 3 E= -3372.52450899051  delta_E= -2.44  |g|= 0.489  |ddm|= 3.08
  alpha nocc = 91  HOMO = 0.0679445421175716  LUMO = 0.208373050306109
  beta  nocc = 91  HOMO = 0.0662171206364264  LUMO = 0.20580054862395
cycle= 4 E= -3372.66291687368  delta_E= -0.138  |g|= 0.354  |ddm|= 1.44
  alpha nocc = 91  HOMO = 0.0307443570361316  LUMO = 0.229424072710725
  beta  nocc = 91  HOMO = 0.032062932318743  LUMO = 0.229441701731932
cycle= 5 E= -3372.77871776615  delta_E= -0.116  |g|= 0.0467  |ddm|= 0.654
  alpha nocc = 91  HOMO = 0.0254128842933766  LUMO = 0.226726917171038
  beta  nocc = 91  HOMO = 0.0261984348516287  LUMO = 0.225420347640097
cycle= 6 E= -3372.78209321456  delta_E= -0.00338  |g|= 0.0159  |ddm|= 0.131
  alpha nocc = 91  HOMO = 0.0230614199620325  LUMO = 0.226774889426825
  beta  nocc = 91  HOMO = 0.023547198588628  LUMO = 0.226070154457874
cycle= 7 E= -3372.78301508022  delta_E= -0.000922  |g|= 0.00761  |ddm|= 0.0828
  alpha nocc = 91  HOMO = 0.0232910276733262  LUMO = 0.226326460787657
  beta  nocc = 91  HOMO = 0.0236336465832347  LUMO = 0.226021718465637
cycle= 8 E= -3372.78333853283  delta_E= -0.000323  |g|= 0.00442  |ddm|= 0.0523
  alpha nocc = 91  HOMO = 0.0233222726750798  LUMO = 0.226353791545777
  beta  nocc = 91  HOMO = 0.0235618423497521  LUMO = 0.226457044132444
cycle= 9 E= -3372.78351960389  delta_E= -0.000181  |g|= 0.00191  |ddm|= 0.0557
  alpha nocc = 91  HOMO = 0.0233443125934554  LUMO = 0.226258240814727
  beta  nocc = 91  HOMO = 0.0235490183176392  LUMO = 0.226521454253429
cycle= 10 E= -3372.78355638948  delta_E= -3.68e-05  |g|= 0.000942  |ddm|= 0.0276
  alpha nocc = 91  HOMO = 0.0233227081464644  LUMO = 0.226232047774613
  beta  nocc = 91  HOMO = 0.0235294914077199  LUMO = 0.226522613321848
cycle= 11 E= -3372.78356308672  delta_E= -6.7e-06  |g|= 0.000726  |ddm|= 0.00862
  alpha nocc = 91  HOMO = 0.0233701893244781  LUMO = 0.226261124186917
  beta  nocc = 91  HOMO = 0.0235827395403199  LUMO = 0.226559942818857
cycle= 12 E= -3372.7835667092  delta_E= -3.62e-06  |g|= 0.000641  |ddm|= 0.00513
  alpha nocc = 91  HOMO = 0.023358624781358  LUMO = 0.226257503615511
  beta  nocc = 91  HOMO = 0.0235777489607531  LUMO = 0.22657027487471
cycle= 13 E= -3372.78357015533  delta_E= -3.45e-06  |g|= 0.000642  |ddm|= 0.00486
  alpha nocc = 91  HOMO = 0.0233594488562492  LUMO = 0.226257328493898
  beta  nocc = 91  HOMO = 0.0235790899248253  LUMO = 0.226571368000697
cycle= 14 E= -3372.7835703775  delta_E= -2.22e-07  |g|= 0.000645  |ddm|= 0.000308
  alpha nocc = 91  HOMO = 0.0233627490547035  LUMO = 0.226257674419155
  beta  nocc = 91  HOMO = 0.0235799244444883  LUMO = 0.226567377857096
cycle= 15 E= -3372.78356968536  delta_E= 6.92e-07  |g|= 0.000643  |ddm|= 0.001
  alpha nocc = 91  HOMO = 0.0233556450311992  LUMO = 0.226272135293653
  beta  nocc = 91  HOMO = 0.0235351487303984  LUMO = 0.226500001810314
cycle= 16 E= -3372.78355934556  delta_E= 1.03e-05  |g|= 0.00053  |ddm|= 0.0168
  alpha nocc = 91  HOMO = 0.023413318012589  LUMO = 0.226340107773583
  beta  nocc = 91  HOMO = 0.0235406998174062  LUMO = 0.22648156463274
cycle= 17 E= -3372.78355282145  delta_E= 6.52e-06  |g|= 0.000386  |ddm|= 0.0173
  alpha nocc = 91  HOMO = 0.0234394055902551  LUMO = 0.226344709955001
  beta  nocc = 91  HOMO = 0.0235202897231548  LUMO = 0.226435658528773
cycle= 18 E= -3372.78355132269  delta_E= 1.5e-06  |g|= 0.0003  |ddm|= 0.0106
  alpha nocc = 91  HOMO = 0.0234596114237768  LUMO = 0.226344677178483
  beta  nocc = 91  HOMO = 0.0235068962430609  LUMO = 0.226418640729096
cycle= 19 E= -3372.78355172427  delta_E= -4.02e-07  |g|= 0.000259  |ddm|= 0.0045
  alpha nocc = 91  HOMO = 0.0234795849656738  LUMO = 0.226344195183724
  beta  nocc = 91  HOMO = 0.0234933431930186  LUMO = 0.226412619039761
cycle= 20 E= -3372.78355255789  delta_E= -8.34e-07  |g|= 0.000228  |ddm|= 0.00392
  alpha nocc = 91  HOMO = 0.0234873303642527  LUMO = 0.22634284044402
  beta  nocc = 91  HOMO = 0.0234748501696844  LUMO = 0.226409428764791
cycle= 21 E= -3372.78355340214  delta_E= -8.44e-07  |g|= 0.000214  |ddm|= 0.00365
  alpha nocc = 91  HOMO = 0.0234981347683222  LUMO = 0.226347652589587
  beta  nocc = 91  HOMO = 0.023473605765961  LUMO = 0.226410858187659
cycle= 22 E= -3372.78355388662  delta_E= -4.84e-07  |g|= 0.00021  |ddm|= 0.00213
  alpha nocc = 91  HOMO = 0.0235007796348744  LUMO = 0.226347345437894
  beta  nocc = 91  HOMO = 0.0234661199352352  LUMO = 0.226409103416825
cycle= 23 E= -3372.78355442745  delta_E= -5.41e-07  |g|= 0.000209  |ddm|= 0.00233
  alpha nocc = 91  HOMO = 0.0235009886247608  LUMO = 0.226348630735055
  beta  nocc = 91  HOMO = 0.0234662455665151  LUMO = 0.226408734331815
cycle= 24 E= -3372.7835543272  delta_E= 1e-07  |g|= 0.000209  |ddm|= 0.000585
  alpha nocc = 91  HOMO = 0.023500770396256  LUMO = 0.226348590112464
  beta  nocc = 91  HOMO = 0.0234661045402479  LUMO = 0.226408095135321
cycle= 25 E= -3372.78355426029  delta_E= 6.69e-08  |g|= 0.000208  |ddm|= 0.000332
  alpha nocc = 91  HOMO = 0.0235002853076977  LUMO = 0.226348311092042
  beta  nocc = 91  HOMO = 0.0234650010309642  LUMO = 0.226406859835444
cycle= 26 E= -3372.78355427957  delta_E= -1.93e-08  |g|= 0.000209  |ddm|= 0.000183
  alpha nocc = 91  HOMO = 0.0235014237941248  LUMO = 0.226349332650933
  beta  nocc = 91  HOMO = 0.0234645478219306  LUMO = 0.226405659262209
cycle= 27 E= -3372.78355427778  delta_E= 1.79e-09  |g|= 0.000209  |ddm|= 0.000436
  alpha nocc = 91  HOMO = 0.0234999660456052  LUMO = 0.226347767913394
  beta  nocc = 91  HOMO = 0.0234655553798873  LUMO = 0.226406716865293
cycle= 28 E= -3372.78355420176  delta_E= 7.6e-08  |g|= 0.000208  |ddm|= 0.000553
  alpha nocc = 91  HOMO = 0.0234977045315319  LUMO = 0.22634711878896
  beta  nocc = 91  HOMO = 0.0234679444892537  LUMO = 0.226410021967756
cycle= 29 E= -3372.78355413112  delta_E= 7.06e-08  |g|= 0.000207  |ddm|= 0.000884
  alpha nocc = 91  HOMO = 0.0234942713013559  LUMO = 0.226345915412786
  beta  nocc = 91  HOMO = 0.023467508565708  LUMO = 0.226409257727014
cycle= 30 E= -3372.78355407524  delta_E= 5.59e-08  |g|= 0.000206  |ddm|= 0.00046
  alpha nocc = 91  HOMO = 0.0234923888993776  LUMO = 0.226347236418819
  beta  nocc = 91  HOMO = 0.0234704751448085  LUMO = 0.226410234467047
cycle= 31 E= -3372.7835539153  delta_E= 1.6e-07  |g|= 0.000204  |ddm|= 0.00075
  alpha nocc = 91  HOMO = 0.0234898340967457  LUMO = 0.226347864555361
  beta  nocc = 91  HOMO = 0.0234714489326179  LUMO = 0.226410432059607
cycle= 32 E= -3372.78355384047  delta_E= 7.48e-08  |g|= 0.000203  |ddm|= 0.000495
  alpha nocc = 91  HOMO = 0.0234869016826319  LUMO = 0.226348792184913
  beta  nocc = 91  HOMO = 0.0234751196514292  LUMO = 0.226411677120091
cycle= 33 E= -3372.78355370408  delta_E= 1.36e-07  |g|= 0.000201  |ddm|= 0.000927
  alpha nocc = 91  HOMO = 0.0234871828891406  LUMO = 0.226348943053239
  beta  nocc = 91  HOMO = 0.023477068854432  LUMO = 0.226410814477985
cycle= 34 E= -3372.78355366484  delta_E= 3.92e-08  |g|= 0.000199  |ddm|= 0.000527
  alpha nocc = 91  HOMO = 0.0234867270013175  LUMO = 0.226348294172624
  beta  nocc = 91  HOMO = 0.023482585105366  LUMO = 0.226414692728497
cycle= 35 E= -3372.783553683  delta_E= -1.82e-08  |g|= 0.000193  |ddm|= 0.00177
  alpha nocc = 91  HOMO = 0.0234824096204266  LUMO = 0.226346021057743
  beta  nocc = 91  HOMO = 0.0234826260432785  LUMO = 0.226416072263851
cycle= 36 E= -3372.78355394132  delta_E= -2.58e-07  |g|= 0.000185  |ddm|= 0.00273
  alpha nocc = 91  HOMO = 0.0234816595615936  LUMO = 0.226342039989187
  beta  nocc = 91  HOMO = 0.0234854902226664  LUMO = 0.226418978143719
cycle= 37 E= -3372.78355423764  delta_E= -2.96e-07  |g|= 0.000182  |ddm|= 0.00258
  alpha nocc = 91  HOMO = 0.023481294535342  LUMO = 0.226340776394592
  beta  nocc = 91  HOMO = 0.0234840684164074  LUMO = 0.226418420763886
cycle= 38 E= -3372.78355434934  delta_E= -1.12e-07  |g|= 0.000184  |ddm|= 0.000548
  alpha nocc = 91  HOMO = 0.0234805650494272  LUMO = 0.226340565226149
  beta  nocc = 91  HOMO = 0.0234839842801579  LUMO = 0.226417200286684
cycle= 39 E= -3372.78355416974  delta_E= 1.8e-07  |g|= 0.000183  |ddm|= 0.000883
  alpha nocc = 91  HOMO = 0.0234786077566279  LUMO = 0.226341889467834
  beta  nocc = 91  HOMO = 0.0234856334401245  LUMO = 0.22641678701858
cycle= 40 E= -3372.78355376493  delta_E= 4.05e-07  |g|= 0.000176  |ddm|= 0.00212
  alpha nocc = 91  HOMO = 0.0234830304906306  LUMO = 0.226347199353126
  beta  nocc = 91  HOMO = 0.0234918714174264  LUMO = 0.22641927392233
cycle= 41 E= -3372.78355325477  delta_E= 5.1e-07  |g|= 0.000165  |ddm|= 0.00308
  alpha nocc = 91  HOMO = 0.0234801505277168  LUMO = 0.226345143688424
  beta  nocc = 91  HOMO = 0.0234870523993857  LUMO = 0.226410341401483
cycle= 42 E= -3372.78355241797  delta_E= 8.37e-07  |g|= 0.000133  |ddm|= 0.00806
  alpha nocc = 91  HOMO = 0.0234811447785267  LUMO = 0.226347949833962
  beta  nocc = 91  HOMO = 0.0234861990171265  LUMO = 0.226407473011979
cycle= 43 E= -3372.78355219111  delta_E= 2.27e-07  |g|= 0.000126  |ddm|= 0.00412
  alpha nocc = 91  HOMO = 0.0234850663240112  LUMO = 0.226352611502094
  beta  nocc = 91  HOMO = 0.0234861040813041  LUMO = 0.226401777262249
cycle= 44 E= -3372.78355193564  delta_E= 2.55e-07  |g|= 0.000101  |ddm|= 0.00403
  alpha nocc = 91  HOMO = 0.0234881236568178  LUMO = 0.226354214753836
  beta  nocc = 91  HOMO = 0.0234876986693555  LUMO = 0.226400380104868
cycle= 45 E= -3372.78355196847  delta_E= -3.28e-08  |g|= 9.4e-05  |ddm|= 0.00115
  alpha nocc = 91  HOMO = 0.0234880756475368  LUMO = 0.226355532941764
  beta  nocc = 91  HOMO = 0.0234861377760481  LUMO = 0.226398555036782
cycle= 46 E= -3372.78355199144  delta_E= -2.3e-08  |g|= 8.97e-05  |ddm|= 0.000664
  alpha nocc = 91  HOMO = 0.0234873396817101  LUMO = 0.226357291425159
  beta  nocc = 91  HOMO = 0.0234856716231783  LUMO = 0.226397356094094
cycle= 47 E= -3372.78355209401  delta_E= -1.03e-07  |g|= 8.4e-05  |ddm|= 0.00135
  alpha nocc = 91  HOMO = 0.0234855570218643  LUMO = 0.226359291316146
  beta  nocc = 91  HOMO = 0.0234859490956487  LUMO = 0.226396191428684
cycle= 48 E= -3372.78355229533  delta_E= -2.01e-07  |g|= 7.68e-05  |ddm|= 0.00264
  alpha nocc = 91  HOMO = 0.0234838996451751  LUMO = 0.226359194371344
  beta  nocc = 91  HOMO = 0.0234871597126293  LUMO = 0.226395991186078
cycle= 49 E= -3372.783552385  delta_E= -8.97e-08  |g|= 7.63e-05  |ddm|= 0.00121
  alpha nocc = 91  HOMO = 0.0234834936867486  LUMO = 0.22635953437048
  beta  nocc = 91  HOMO = 0.0234885309963031  LUMO = 0.226396179067
cycle= 50 E= -3372.78355243048  delta_E= -4.55e-08  |g|= 7.55e-05  |ddm|= 0.000743
SCF not converged.
SCF energy = -3372.78355243048 after 50 cycles  <S^2> = 0.0001050244  2S+1 = 1.00021
shift = 0
thresh = 1e-05 
eri1 (1582, 8001)
eri1 (1582, 8001)
    CPU time for making amplitude: integral transform      1.57 sec, wall time      0.12 sec
shape (1582, 4410)
1st memory: 748.9 MiB
eri1 (1582, 8001)
eri1 (1582, 8001)
2nd memory: 532.2 MiB

========================
iter = 0  energy = -3373.735193 energy diff = 3373.735193
multiplicity <S^2> : Reference = 0.0001050244 Response = 0.00010506637 Projector = 0.00010510833
eri1 (1582, 8001)
eri1 (1582, 8001)
    CPU time for making amplitude: integral transform      1.64 sec, wall time      0.13 sec
shape (1582, 4410)
1st memory: 738.2 MiB
eri1 (1582, 8001)
eri1 (1582, 8001)
2nd memory: 533.4 MiB

========================
iter = 1  energy = -3373.726859 energy diff = 0.008335
multiplicity <S^2> : Reference = 6.3137479e-05 Response = 6.3151023e-05 Projector = 6.3164567e-05
eri1 (1582, 8001)
eri1 (1582, 8001)
    CPU time for making amplitude: integral transform      1.53 sec, wall time      0.12 sec
shape (1582, 4410)
1st memory: 774.0 MiB
eri1 (1582, 8001)
eri1 (1582, 8001)
2nd memory: 534.2 MiB

========================
iter = 2  energy = -3373.732816 energy diff = 0.005957
multiplicity <S^2> : Reference = 4.3331109e-05 Response = 4.3324462e-05 Projector = 4.3317815e-05
eri1 (1582, 8001)
eri1 (1582, 8001)
    CPU time for making amplitude: integral transform      1.51 sec, wall time      0.11 sec
shape (1582, 4410)
1st memory: 815.1 MiB
eri1 (1582, 8001)
eri1 (1582, 8001)
2nd memory: 536.9 MiB

========================
iter = 3  energy = -3373.735027 energy diff = 0.002212
multiplicity <S^2> : Reference = 2.7643986e-05 Response = 2.7640534e-05 Projector = 2.7637082e-05
eri1 (1582, 8001)
eri1 (1582, 8001)
    CPU time for making amplitude: integral transform      1.59 sec, wall time      0.12 sec
shape (1582, 4410)
1st memory: 762.0 MiB
eri1 (1582, 8001)
eri1 (1582, 8001)
2nd memory: 539.2 MiB

========================
iter = 4  energy = -3373.736127 energy diff = 0.001100
multiplicity <S^2> : Reference = 1.2175061e-05 Response = 1.2174864e-05 Projector = 1.2174667e-05
eri1 (1582, 8001)
eri1 (1582, 8001)
    CPU time for making amplitude: integral transform      1.54 sec, wall time      0.12 sec
shape (1582, 4410)
1st memory: 820.1 MiB
eri1 (1582, 8001)
eri1 (1582, 8001)
2nd memory: 539.2 MiB

========================
iter = 5  energy = -3373.736394 energy diff = 0.000268
multiplicity <S^2> : Reference = 6.782095e-06 Response = 6.7814728e-06 Projector = 6.7808506e-06
eri1 (1582, 8001)
eri1 (1582, 8001)
    CPU time for making amplitude: integral transform      1.63 sec, wall time      0.13 sec
shape (1582, 4410)
1st memory: 764.0 MiB
eri1 (1582, 8001)
eri1 (1582, 8001)
2nd memory: 539.0 MiB

========================
iter = 6  energy = -3373.736451 energy diff = 0.000056
multiplicity <S^2> : Reference = 2.8067766e-06 Response = 2.8066111e-06 Projector = 2.8064455e-06
eri1 (1582, 8001)
eri1 (1582, 8001)
    CPU time for making amplitude: integral transform      1.51 sec, wall time      0.11 sec
shape (1582, 4410)
1st memory: 819.9 MiB
eri1 (1582, 8001)
eri1 (1582, 8001)
2nd memory: 539.0 MiB

========================
iter = 7  energy = -3373.736484 energy diff = 0.000033
multiplicity <S^2> : Reference = 1.2025497e-06 Response = 1.2024397e-06 Projector = 1.2023296e-06
eri1 (1582, 8001)
eri1 (1582, 8001)
    CPU time for making amplitude: integral transform      1.56 sec, wall time      0.12 sec
shape (1582, 4410)
1st memory: 764.1 MiB
eri1 (1582, 8001)
eri1 (1582, 8001)
2nd memory: 541.2 MiB

========================
iter = 8  energy = -3373.736489 energy diff = 0.000006
multiplicity <S^2> : Reference = 5.2003344e-07 Response = 5.2000139e-07 Projector = 5.1996935e-07

UOB-MP2 has converged
UOB-MP2 energy =  -3373.736489346922
shift = 0
thresh = 1e-05 
eri1 (1582, 8001)
eri1 (1582, 8001)
    CPU time for making amplitude: integral transform      1.59 sec, wall time      0.12 sec
shape (1582, 4410)
1st memory: 736.5 MiB
eri1 (1582, 8001)
eri1 (1582, 8001)
2nd memory: 531.5 MiB

========================
iter = 0  energy = -3373.407478 energy diff = 3373.407478
multiplicity <S^2> : Reference = 0.0001050244 Response = 0.00010506637 Projector = 0.00010510833
eri1 (1582, 8001)
eri1 (1582, 8001)
    CPU time for making amplitude: integral transform      1.59 sec, wall time      0.12 sec
shape (1582, 4410)
1st memory: 738.7 MiB
eri1 (1582, 8001)
eri1 (1582, 8001)
2nd memory: 534.5 MiB

========================
iter = 1  energy = -3373.437803 energy diff = 0.030326
multiplicity <S^2> : Reference = 6.6222458e-05 Response = 6.6233194e-05 Projector = 6.6243929e-05
eri1 (1582, 8001)
eri1 (1582, 8001)
    CPU time for making amplitude: integral transform      1.56 sec, wall time      0.12 sec
shape (1582, 4410)
1st memory: 775.4 MiB
eri1 (1582, 8001)
eri1 (1582, 8001)
2nd memory: 534.4 MiB

========================
iter = 2  energy = -3373.440513 energy diff = 0.002710
multiplicity <S^2> : Reference = 4.5711307e-05 Response = 4.57111e-05 Projector = 4.5710892e-05
eri1 (1582, 8001)
eri1 (1582, 8001)
    CPU time for making amplitude: integral transform      1.51 sec, wall time      0.11 sec
shape (1582, 4410)
1st memory: 815.3 MiB
eri1 (1582, 8001)
eri1 (1582, 8001)
2nd memory: 537.1 MiB

========================
iter = 3  energy = -3373.441490 energy diff = 0.000977
multiplicity <S^2> : Reference = 2.9779691e-05 Response = 2.9778315e-05 Projector = 2.9776939e-05
eri1 (1582, 8001)
eri1 (1582, 8001)
    CPU time for making amplitude: integral transform      1.56 sec, wall time      0.12 sec
shape (1582, 4410)
1st memory: 761.3 MiB
eri1 (1582, 8001)
eri1 (1582, 8001)
2nd memory: 535.6 MiB

========================
iter = 4  energy = -3373.442136 energy diff = 0.000646
multiplicity <S^2> : Reference = 1.3362321e-05 Response = 1.3360498e-05 Projector = 1.3358674e-05
eri1 (1582, 8001)
eri1 (1582, 8001)
    CPU time for making amplitude: integral transform      1.55 sec, wall time      0.12 sec
shape (1582, 4410)
1st memory: 775.0 MiB
eri1 (1582, 8001)
eri1 (1582, 8001)
2nd memory: 537.2 MiB

========================
iter = 5  energy = -3373.442222 energy diff = 0.000086
multiplicity <S^2> : Reference = 7.0233461e-06 Response = 7.0234489e-06 Projector = 7.0235518e-06
eri1 (1582, 8001)
eri1 (1582, 8001)
    CPU time for making amplitude: integral transform      1.55 sec, wall time      0.12 sec
shape (1582, 4410)
1st memory: 818.0 MiB
eri1 (1582, 8001)
eri1 (1582, 8001)
2nd memory: 539.0 MiB

========================
iter = 6  energy = -3373.442249 energy diff = 0.000027
multiplicity <S^2> : Reference = 3.3181385e-06 Response = 3.3179186e-06 Projector = 3.3176987e-06
eri1 (1582, 8001)
eri1 (1582, 8001)
    CPU time for making amplitude: integral transform      1.52 sec, wall time      0.11 sec
shape (1582, 4410)
1st memory: 764.1 MiB
eri1 (1582, 8001)
eri1 (1582, 8001)
2nd memory: 538.3 MiB

========================
iter = 7  energy = -3373.442259 energy diff = 0.000010
multiplicity <S^2> : Reference = 1.5201686e-06 Response = 1.5201557e-06 Projector = 1.5201428e-06
eri1 (1582, 8001)
eri1 (1582, 8001)
    CPU time for making amplitude: integral transform      1.55 sec, wall time      0.12 sec
shape (1582, 4410)
1st memory: 819.6 MiB
eri1 (1582, 8001)
eri1 (1582, 8001)
2nd memory: 540.8 MiB

========================
iter = 8  energy = -3373.442263 energy diff = 0.000004
multiplicity <S^2> : Reference = 7.2720425e-07 Response = 7.2715525e-07 Projector = 7.2710626e-07

UOB-MP2 has converged
UOB-MP2 energy =  -3373.4422633029635


******** <class 'pyscf.scf.uhf.UHF'> ********
method = UHF
initial guess = minao
damping factor = 0
level_shift factor = 0
DIIS = <class 'pyscf.scf.diis.CDIIS'>
diis_start_cycle = 1
diis_space = 8
SCF conv_tol = 1e-09
SCF conv_tol_grad = None
SCF max_cycles = 50
direct_scf = True
direct_scf_tol = 1e-13
chkfile to save SCF result = /home/ltkoanh/Al_B2LYP_6311_Gd_Cluster/Cluster/Al14-neutral-singlet/tmp1bptki9q
max_memory 4000 MB (current use 277 MB)
number electrons alpha = 91  beta = 91
Set gradient conv threshold to 3.16228e-05
init E= -3370.42987219871
  alpha nocc = 91  HOMO = -0.778216733627855  LUMO = -0.70052722668192
  beta  nocc = 91  HOMO = -0.748470103619845  LUMO = -0.681785099774863
cycle= 1 E= -3371.41326900234  delta_E= -0.983  |g|= 1.26  |ddm|= 4.51
  alpha nocc = 91  HOMO = 0.319143388833595  LUMO = 0.32239418323325
  beta  nocc = 91  HOMO = 0.315547792961572  LUMO = 0.31882086717518

WARN: system HOMO 0.315547792961572 >= system LUMO 0.31882086717518

cycle= 2 E= -3370.07742431659  delta_E= 1.34  |g|= 1.57  |ddm|= 4.36
  alpha nocc = 91  HOMO = 0.157983013386613  LUMO = 0.247687186999993
  beta  nocc = 91  HOMO = 0.152881206401799  LUMO = 0.245742385952574
cycle= 3 E= -3372.52860163779  delta_E= -2.45  |g|= 0.489  |ddm|= 3.09
  alpha nocc = 91  HOMO = 0.0679118532047788  LUMO = 0.20827815264036
  beta  nocc = 91  HOMO = 0.0661773171742228  LUMO = 0.20569916179393
cycle= 4 E= -3372.66715224338  delta_E= -0.139  |g|= 0.355  |ddm|= 1.44
  alpha nocc = 91  HOMO = 0.0306612073093525  LUMO = 0.22928433356112
  beta  nocc = 91  HOMO = 0.0319862948169943  LUMO = 0.229300164727435
cycle= 5 E= -3372.78329408621  delta_E= -0.116  |g|= 0.0467  |ddm|= 0.655
  alpha nocc = 91  HOMO = 0.0253173204412167  LUMO = 0.226708855514029
  beta  nocc = 91  HOMO = 0.0261078527993497  LUMO = 0.225395490480496
cycle= 6 E= -3372.78667414124  delta_E= -0.00338  |g|= 0.0159  |ddm|= 0.131
  alpha nocc = 91  HOMO = 0.0229638849051961  LUMO = 0.226753826619485
  beta  nocc = 91  HOMO = 0.0234524635399999  LUMO = 0.226042475508494
cycle= 7 E= -3372.78759428034  delta_E= -0.00092  |g|= 0.0076  |ddm|= 0.0827
  alpha nocc = 91  HOMO = 0.0231935493305932  LUMO = 0.226304533653668
  beta  nocc = 91  HOMO = 0.0235378016638967  LUMO = 0.225993389632863
cycle= 8 E= -3372.78791576069  delta_E= -0.000321  |g|= 0.0044  |ddm|= 0.0521
  alpha nocc = 91  HOMO = 0.0232254699922945  LUMO = 0.226329626598074
  beta  nocc = 91  HOMO = 0.0234652168369223  LUMO = 0.226427076354669
cycle= 9 E= -3372.78809529233  delta_E= -0.00018  |g|= 0.0019  |ddm|= 0.0554
  alpha nocc = 91  HOMO = 0.0232479543938933  LUMO = 0.226233299417993
  beta  nocc = 91  HOMO = 0.0234520814866061  LUMO = 0.22649221921515
cycle= 10 E= -3372.7881318123  delta_E= -3.65e-05  |g|= 0.00094  |ddm|= 0.0274
  alpha nocc = 91  HOMO = 0.0232263643609584  LUMO = 0.226207121704275
  beta  nocc = 91  HOMO = 0.0234321931552836  LUMO = 0.226494144468742
cycle= 11 E= -3372.78813847959  delta_E= -6.67e-06  |g|= 0.000723  |ddm|= 0.00861
  alpha nocc = 91  HOMO = 0.0232740893513519  LUMO = 0.226235732450614
  beta  nocc = 91  HOMO = 0.0234854319831647  LUMO = 0.22653135407562
cycle= 12 E= -3372.78814207549  delta_E= -3.6e-06  |g|= 0.000637  |ddm|= 0.00513
  alpha nocc = 91  HOMO = 0.0232626358742108  LUMO = 0.226232017312414
  beta  nocc = 91  HOMO = 0.0234803418892441  LUMO = 0.226541747318492
cycle= 13 E= -3372.78814551119  delta_E= -3.44e-06  |g|= 0.000638  |ddm|= 0.00488
  alpha nocc = 91  HOMO = 0.0232634457618862  LUMO = 0.226231899722047
  beta  nocc = 91  HOMO = 0.023481728838766  LUMO = 0.226543072494524
cycle= 14 E= -3372.78814576813  delta_E= -2.57e-07  |g|= 0.00064  |ddm|= 0.000357
  alpha nocc = 91  HOMO = 0.0232682578059325  LUMO = 0.226234528014181
  beta  nocc = 91  HOMO = 0.023479366413822  LUMO = 0.226530321393498
cycle= 15 E= -3372.78814340441  delta_E= 2.36e-06  |g|= 0.000622  |ddm|= 0.00341
  alpha nocc = 91  HOMO = 0.0232633140976015  LUMO = 0.226257444681622
  beta  nocc = 91  HOMO = 0.0234360118524225  LUMO = 0.226466815992849
cycle= 16 E= -3372.78813321942  delta_E= 1.02e-05  |g|= 0.00052  |ddm|= 0.0175
  alpha nocc = 91  HOMO = 0.0233200918081758  LUMO = 0.226317031111882
  beta  nocc = 91  HOMO = 0.0234443376670726  LUMO = 0.226452570671035
cycle= 17 E= -3372.78812813941  delta_E= 5.08e-06  |g|= 0.000379  |ddm|= 0.0151
  alpha nocc = 91  HOMO = 0.0233413583649708  LUMO = 0.22631421854864
  beta  nocc = 91  HOMO = 0.02342340850152  LUMO = 0.226406692510233
cycle= 18 E= -3372.78812697805  delta_E= 1.16e-06  |g|= 0.000301  |ddm|= 0.00911
  alpha nocc = 91  HOMO = 0.0233626662236594  LUMO = 0.226319398406071
  beta  nocc = 91  HOMO = 0.0234100349774688  LUMO = 0.226393215463828
cycle= 19 E= -3372.78812727193  delta_E= -2.94e-07  |g|= 0.00026  |ddm|= 0.00481
  alpha nocc = 91  HOMO = 0.0233830664689805  LUMO = 0.226317722129974
  beta  nocc = 91  HOMO = 0.0233981527401787  LUMO = 0.226387592783594
cycle= 20 E= -3372.78812811827  delta_E= -8.46e-07  |g|= 0.00023  |ddm|= 0.00379
  alpha nocc = 91  HOMO = 0.0233887400486151  LUMO = 0.226315296868445
  beta  nocc = 91  HOMO = 0.0233797331694938  LUMO = 0.226382153260933
cycle= 21 E= -3372.78812885533  delta_E= -7.37e-07  |g|= 0.000217  |ddm|= 0.00322
  alpha nocc = 91  HOMO = 0.0234000961609692  LUMO = 0.226320335573097
  beta  nocc = 91  HOMO = 0.0233765675715212  LUMO = 0.22638416660967
cycle= 22 E= -3372.78812940611  delta_E= -5.51e-07  |g|= 0.000211  |ddm|= 0.00241
  alpha nocc = 91  HOMO = 0.0234032963502762  LUMO = 0.226320319210127
  beta  nocc = 91  HOMO = 0.0233689644397211  LUMO = 0.226382415304007
cycle= 23 E= -3372.78812997119  delta_E= -5.65e-07  |g|= 0.00021  |ddm|= 0.00242
  alpha nocc = 91  HOMO = 0.0234032613847648  LUMO = 0.226321179870263
  beta  nocc = 91  HOMO = 0.0233688301338555  LUMO = 0.226382113924693
cycle= 24 E= -3372.78812990981  delta_E= 6.14e-08  |g|= 0.00021  |ddm|= 0.000376
  alpha nocc = 91  HOMO = 0.0234034346038207  LUMO = 0.226320960368755
  beta  nocc = 91  HOMO = 0.0233690215064554  LUMO = 0.22638147833364
cycle= 25 E= -3372.78812989224  delta_E= 1.76e-08  |g|= 0.00021  |ddm|= 0.000135
  alpha nocc = 91  HOMO = 0.0234034536729956  LUMO = 0.226320969926282
  beta  nocc = 91  HOMO = 0.0233690454287339  LUMO = 0.226381491893511
cycle= 26 E= -3372.7881298914  delta_E= 8.45e-10  |g|= 0.00021  |ddm|= 3.92e-06
  alpha nocc = 91  HOMO = 0.0234049167755229  LUMO = 0.226321834841137
  beta  nocc = 91  HOMO = 0.0233684764085612  LUMO = 0.226380214986137
cycle= 27 E= -3372.78812987001  delta_E= 2.14e-08  |g|= 0.00021  |ddm|= 0.000513
  alpha nocc = 91  HOMO = 0.0234044790530473  LUMO = 0.226321398163022
  beta  nocc = 91  HOMO = 0.0233687780277504  LUMO = 0.226380502176234
cycle= 28 E= -3372.78812986409  delta_E= 5.91e-09  |g|= 0.00021  |ddm|= 0.000152
  alpha nocc = 91  HOMO = 0.0234002880027894  LUMO = 0.226320342621039
  beta  nocc = 91  HOMO = 0.0233714334502234  LUMO = 0.226384040955539
cycle= 29 E= -3372.78812974941  delta_E= 1.15e-07  |g|= 0.000209  |ddm|= 0.00111
  alpha nocc = 91  HOMO = 0.0234000485505123  LUMO = 0.226321259819003
  beta  nocc = 91  HOMO = 0.0233743996755638  LUMO = 0.226384460246664
cycle= 30 E= -3372.78812954988  delta_E= 2e-07  |g|= 0.000208  |ddm|= 0.000872
  alpha nocc = 91  HOMO = 0.0233966118567871  LUMO = 0.226320068786134
  beta  nocc = 91  HOMO = 0.023374573697858  LUMO = 0.226384118118599
cycle= 31 E= -3372.78812946166  delta_E= 8.82e-08  |g|= 0.000207  |ddm|= 0.000482
  alpha nocc = 91  HOMO = 0.0233971981728756  LUMO = 0.226321682812554
  beta  nocc = 91  HOMO = 0.0233757656360213  LUMO = 0.22638473233724
cycle= 32 E= -3372.78812944602  delta_E= 1.56e-08  |g|= 0.000207  |ddm|= 0.0002
  alpha nocc = 91  HOMO = 0.0233967867394785  LUMO = 0.226321489109284
  beta  nocc = 91  HOMO = 0.0233748313124495  LUMO = 0.226384777062017
cycle= 33 E= -3372.78812956287  delta_E= -1.17e-07  |g|= 0.000207  |ddm|= 0.000534
  alpha nocc = 91  HOMO = 0.0233970127943183  LUMO = 0.226321659305301
  beta  nocc = 91  HOMO = 0.023375202982339  LUMO = 0.226384769651862
cycle= 34 E= -3372.78812953942  delta_E= 2.35e-08  |g|= 0.000207  |ddm|= 0.000136
  alpha nocc = 91  HOMO = 0.0233969931382777  LUMO = 0.22632165971617
  beta  nocc = 91  HOMO = 0.0233751753327622  LUMO = 0.226384740149134
cycle= 35 E= -3372.78812953848  delta_E= 9.4e-10  |g|= 0.000207  |ddm|= 7.54e-06
  alpha nocc = 91  HOMO = 0.0233982126174522  LUMO = 0.226321900462746
  beta  nocc = 91  HOMO = 0.0233746340581631  LUMO = 0.226384025346599
cycle= 36 E= -3372.78812953626  delta_E= 2.22e-09  |g|= 0.000206  |ddm|= 0.000364
  alpha nocc = 91  HOMO = 0.0233982487671404  LUMO = 0.226321887113881
  beta  nocc = 91  HOMO = 0.0233749895308033  LUMO = 0.226383613918196
cycle= 37 E= -3372.78812945278  delta_E= 8.35e-08  |g|= 0.000206  |ddm|= 0.000386
  alpha nocc = 91  HOMO = 0.0234000619870716  LUMO = 0.226322833405007
  beta  nocc = 91  HOMO = 0.0233734033327752  LUMO = 0.226382699265894
cycle= 38 E= -3372.78812958022  delta_E= -1.27e-07  |g|= 0.000206  |ddm|= 0.000641
  alpha nocc = 91  HOMO = 0.0234002543275318  LUMO = 0.226322813416095
  beta  nocc = 91  HOMO = 0.0233728039432047  LUMO = 0.226382566600816
cycle= 39 E= -3372.78812962444  delta_E= -4.42e-08  |g|= 0.000207  |ddm|= 0.00019
  alpha nocc = 91  HOMO = 0.0233990968533396  LUMO = 0.22632251562128
  beta  nocc = 91  HOMO = 0.0233741394416668  LUMO = 0.226383671451159
cycle= 40 E= -3372.78812953426  delta_E= 9.02e-08  |g|= 0.000206  |ddm|= 0.000465
  alpha nocc = 91  HOMO = 0.023397170339135  LUMO = 0.226321793156533
  beta  nocc = 91  HOMO = 0.0233730415663578  LUMO = 0.226380545098862
cycle= 41 E= -3372.78812928327  delta_E= 2.51e-07  |g|= 0.000204  |ddm|= 0.00126
  alpha nocc = 91  HOMO = 0.0234005805281013  LUMO = 0.226330890288052
  beta  nocc = 91  HOMO = 0.023378524124673  LUMO = 0.226377367050749
cycle= 42 E= -3372.78812842108  delta_E= 8.62e-07  |g|= 0.000197  |ddm|= 0.00508
  alpha nocc = 91  HOMO = 0.0234044682119904  LUMO = 0.226336795640643
  beta  nocc = 91  HOMO = 0.0233778477285297  LUMO = 0.226368367303017
cycle= 43 E= -3372.78812824839  delta_E= 1.73e-07  |g|= 0.000192  |ddm|= 0.00459
  alpha nocc = 91  HOMO = 0.0233981893155116  LUMO = 0.226337774228555
  beta  nocc = 91  HOMO = 0.0233732054781636  LUMO = 0.22636368476321
cycle= 44 E= -3372.7881280122  delta_E= 2.36e-07  |g|= 0.000178  |ddm|= 0.0022
  alpha nocc = 91  HOMO = 0.0233945210156266  LUMO = 0.226342024181945
  beta  nocc = 91  HOMO = 0.0233769463807413  LUMO = 0.226363291918444
cycle= 45 E= -3372.78812785959  delta_E= 1.53e-07  |g|= 0.000143  |ddm|= 0.00488
  alpha nocc = 91  HOMO = 0.0233972099562107  LUMO = 0.226341566623812
  beta  nocc = 91  HOMO = 0.0233772900333767  LUMO = 0.226359770299219
cycle= 46 E= -3372.7881280904  delta_E= -2.31e-07  |g|= 0.000125  |ddm|= 0.00495
  alpha nocc = 91  HOMO = 0.0233795769456203  LUMO = 0.226338615039952
  beta  nocc = 91  HOMO = 0.0233869821949865  LUMO = 0.226362114536123
cycle= 47 E= -3372.78812785865  delta_E= 2.32e-07  |g|= 9.36e-05  |ddm|= 0.00803
  alpha nocc = 91  HOMO = 0.02338307949063  LUMO = 0.226341945162184
  beta  nocc = 91  HOMO = 0.0233910696057012  LUMO = 0.226362630852433
cycle= 48 E= -3372.78812793797  delta_E= -7.93e-08  |g|= 6.39e-05  |ddm|= 0.00238
  alpha nocc = 91  HOMO = 0.0233864877384297  LUMO = 0.226343162942829
  beta  nocc = 91  HOMO = 0.0233917475784686  LUMO = 0.226361005755925
cycle= 49 E= -3372.78812798592  delta_E= -4.79e-08  |g|= 5.53e-05  |ddm|= 0.00139
  alpha nocc = 91  HOMO = 0.0233896961938719  LUMO = 0.226342318462881
  beta  nocc = 91  HOMO = 0.0233874124258351  LUMO = 0.22635512515976
cycle= 50 E= -3372.78812803729  delta_E= -5.14e-08  |g|= 4.21e-05  |ddm|= 0.00164
SCF not converged.
SCF energy = -3372.78812803729 after 50 cycles  <S^2> = 4.5645279e-05  2S+1 = 1.0000913
