#INFO: **** input file is /home/ltkoanh/Al_B2LYP_6311_Gd_Cluster/Cluster/Al12-neutral-singlet-3/input.py ****
import numpy
from pyscf import gto, scf, dft, mp, cc
from pyscf.mp import uobmp2_mom_conv, dfuobmp2_mom_conv, uhf_mom
from pyscf.mp import  mp2, ump2
from pyscf.tools import molden
import os
from functools import reduce


mol = gto.Mole()
geom = os.environ.get('geom_txt')
mol.atom = geom
mol.basis = os.environ.get('basis', 'cc-pvdz')
mol.unit = 'A'
mol.charge = int(os.environ.get('charge', 0))
mol.spin = int(os.environ.get('spin', 0))
mol.verbose = 4
mol.build()

#################### Ground state using density fitting
### Hartree-Fock
a  = scf.UHF(mol).density_fit()
a.kernel()

### Ground state OBMP2 calculation
ob = dfuobmp2_mom_conv.DFUOBMP2(a)
ob.second_order = True
ob.thresh = 10e-6
ob.css = 1
ob.cos = 1
e_obmp2g = ob.kernel()

### Ground state O2BMP2 calculation
ob = dfuobmp2_mom_conv.DFUOBMP2(a)
ob.second_order = True
ob.thresh = 10e-6
ob.css = 0                             
ob.cos = 1.2                             
e_o2bmp2g = ob.kernel()  

#################### Ground state NOT using density fitting
### Hartree-Fock
a  = scf.UHF(mol)
a.kernel()

### Ground state OBMP2 calculation
ob = uobmp2_mom_conv.UOBMP2(a)
ob.second_order = True
ob.thresh = 10e-6
ob.css = 1
ob.cos = 1
#e_obmp2g = ob.kernel()

### Ground state O2BMP2 calculation
ob = uobmp2_mom_conv.UOBMP2(a)
ob.second_order = True
ob.thresh = 10e-6
ob.css = 0
ob.cos = 1.2   ## the cos can be vary ...                        	 
#e_o2bmp2g = ob.kernel()


## Results from density-fitting approximate with non-using density fitting 
## check results between df and non-df with small molecules before running the important molecules
#INFO: ******************** input file end ********************


System: uname_result(system='Linux', node='comphys', release='3.10.0-1160.119.1.el7.x86_64', version='#1 SMP Tue Jun 4 14:43:51 UTC 2024', machine='x86_64', processor='x86_64')  Threads 8
Python 3.7.9 (default, Dec  4 2023, 13:00:18) 
[GCC 4.8.5 20150623 (Red Hat 4.8.5-44)]
numpy 1.21.6  scipy 1.7.3
Date: Tue May 27 17:54:18 2025
PySCF version 1.7.0
PySCF path  /share/installs/pyscf/pyscf
GIT HEAD      ref: refs/heads/ob-mp2
GIT ob-mp2 branch  f0fc63383ab6c719c0c91f5e07a6895c637b700d

[CONFIG] conf_file None
[INPUT] verbose = 4
[INPUT] num. atoms = 12
[INPUT] num. electrons = 156
[INPUT] charge = 0
[INPUT] spin (= nelec alpha-beta = 2S) = 0
[INPUT] symmetry False subgroup None
[INPUT] Mole.unit = A
[INPUT]  1 Al    -2.204986000000  -1.462289000000  -1.375265000000 AA   -4.166819648500  -2.763325724964  -2.598874198700 Bohr
[INPUT]  2 Al     2.210085000000  -1.453631000000  -1.376051000000 AA    4.176455362009  -2.746964476178  -2.600359523434 Bohr
[INPUT]  3 Al     0.004943000000  -2.690771000000  -0.347123000000 AA    0.009340916234  -5.084820253922  -0.655967401537 Bohr
[INPUT]  4 Al    -2.432644000000  -0.800122000000   1.166367000000 AA   -4.597030918566  -1.512011446239   2.204114190731 Bohr
[INPUT]  5 Al     2.235508000000   1.187223000000  -1.277602000000 AA    4.224497869274   2.243526318785  -2.414317876197 Bohr
[INPUT]  6 Al     2.432795000000  -0.799047000000   1.167512000000 AA    4.597316267211  -1.509979990655   2.206277927143 Bohr
[INPUT]  7 Al    -0.000263000000  -1.025622000000   1.936969000000 AA   -0.000496997971  -1.938144687329   3.660340921773 Bohr
[INPUT]  8 Al     1.348998000000   1.547899000000   1.383673000000 AA    2.549236762586   2.925105178488   2.614763015955 Bohr
[INPUT]  9 Al    -2.239180000000   1.179070000000  -1.278347000000 AA   -4.231436943604   2.228119381691  -2.415725722159 Bohr
[INPUT] 10 Al    -0.003722000000   2.790272000000  -0.846340000000 AA   -0.007033560636   5.272849893042  -1.599350808264 Bohr
[INPUT] 11 Al    -1.351651000000   1.548303000000   1.382020000000 AA   -2.554250205994   2.925868627842   2.611639298671 Bohr
[INPUT] 12 Al     0.000116000000  -0.021285000000  -0.535815000000 AA    0.000219208230  -0.040222820561  -1.012543603434 Bohr

nuclear repulsion = 1700.88806626468
number of shells = 60
number of NR pGTOs = 648
number of NR cGTOs = 108
basis = sto-6g
ecp = {}
CPU time:         1.59


******** <class 'pyscf.df.df_jk.density_fit.<locals>.DFHF'> ********
method = DFHF-UHF
initial guess = minao
damping factor = 0
level_shift factor = 0
DIIS = <class 'pyscf.scf.diis.CDIIS'>
diis_start_cycle = 1
diis_space = 8
SCF conv_tol = 1e-09
SCF conv_tol_grad = None
SCF max_cycles = 50
direct_scf = True
direct_scf_tol = 1e-13
chkfile to save SCF result = /home/ltkoanh/Al_B2LYP_6311_Gd_Cluster/Cluster/Al12-neutral-singlet-3/tmp0ld0y2ea
max_memory 4000 MB (current use 60 MB)
number electrons alpha = 78  beta = 78
Set gradient conv threshold to 3.16228e-05
******** <class 'pyscf.df.df.DF'> ********
auxbasis = None
max_memory = 4000
_cderi_to_save = /home/ltkoanh/Al_B2LYP_6311_Gd_Cluster/Cluster/Al12-neutral-singlet-3/tmpwg2_8d62
Even tempered Gaussians are generated as DF auxbasis for  Al
init E= -2888.99122376683
  alpha nocc = 78  HOMO = -0.691519068338955  LUMO = -0.641546775316691
  beta  nocc = 78  HOMO = -0.649999164377943  LUMO = -0.61817484553251
cycle= 1 E= -2889.98146794364  delta_E= -0.99  |g|= 1.01  |ddm|= 4.06
  alpha nocc = 78  HOMO = 0.253585394039314  LUMO = 0.311758909781318
  beta  nocc = 78  HOMO = 0.255781217402011  LUMO = 0.314593764333317
cycle= 2 E= -2890.30450950098  delta_E= -0.323  |g|= 0.817  |ddm|= 3.18
  alpha nocc = 78  HOMO = 0.0663397529919944  LUMO = 0.223086897337577
  beta  nocc = 78  HOMO = 0.0609305952659432  LUMO = 0.23086663972479
cycle= 3 E= -2890.88667678724  delta_E= -0.582  |g|= 0.134  |ddm|= 1.46
  alpha nocc = 78  HOMO = 0.0394623902312455  LUMO = 0.21791799482805
  beta  nocc = 78  HOMO = 0.0348498866564692  LUMO = 0.220802846371521
cycle= 4 E= -2890.89476782214  delta_E= -0.00809  |g|= 0.111  |ddm|= 0.433
  alpha nocc = 78  HOMO = 0.0330617985987447  LUMO = 0.220248256355457
  beta  nocc = 78  HOMO = 0.0283421628711707  LUMO = 0.222969772002835
cycle= 5 E= -2890.90759758046  delta_E= -0.0128  |g|= 0.0279  |ddm|= 0.226
  alpha nocc = 78  HOMO = 0.0302746032632131  LUMO = 0.216918428429185
  beta  nocc = 78  HOMO = 0.0254211166816222  LUMO = 0.21870500466107
cycle= 6 E= -2890.9090981266  delta_E= -0.0015  |g|= 0.0171  |ddm|= 0.0885
  alpha nocc = 78  HOMO = 0.0304470336756452  LUMO = 0.218543655212008
  beta  nocc = 78  HOMO = 0.0257361733483501  LUMO = 0.219419838014643
cycle= 7 E= -2890.91035806534  delta_E= -0.00126  |g|= 0.0102  |ddm|= 0.0943
  alpha nocc = 78  HOMO = 0.0296889977779535  LUMO = 0.219372863318604
  beta  nocc = 78  HOMO = 0.0250490183120969  LUMO = 0.21918170468839
cycle= 8 E= -2890.91123251602  delta_E= -0.000874  |g|= 0.00775  |ddm|= 0.0905
  alpha nocc = 78  HOMO = 0.0296200821184879  LUMO = 0.220495145155359
  beta  nocc = 78  HOMO = 0.0247593752055646  LUMO = 0.219562947274458
cycle= 9 E= -2890.9119610549  delta_E= -0.000729  |g|= 0.00763  |ddm|= 0.0877
  alpha nocc = 78  HOMO = 0.0296281524423586  LUMO = 0.220475242142622
  beta  nocc = 78  HOMO = 0.024803046056807  LUMO = 0.219588935886164
cycle= 10 E= -2890.91189963142  delta_E= 6.14e-05  |g|= 0.00752  |ddm|= 0.00718
  alpha nocc = 78  HOMO = 0.0293089050718704  LUMO = 0.22009638854107
  beta  nocc = 78  HOMO = 0.0249905675422993  LUMO = 0.219488598188161
cycle= 11 E= -2890.91145490722  delta_E= 0.000445  |g|= 0.00702  |ddm|= 0.06
  alpha nocc = 78  HOMO = 0.0282972329101996  LUMO = 0.219945666738529
  beta  nocc = 78  HOMO = 0.0255478404051816  LUMO = 0.219836152632776
cycle= 12 E= -2890.91093371974  delta_E= 0.000521  |g|= 0.00396  |ddm|= 0.131
  alpha nocc = 78  HOMO = 0.0286208645870663  LUMO = 0.219418288029533
  beta  nocc = 78  HOMO = 0.0268544424052426  LUMO = 0.219629461169487
cycle= 13 E= -2890.91091870149  delta_E= 1.5e-05  |g|= 0.00214  |ddm|= 0.0658
  alpha nocc = 78  HOMO = 0.0288174445220066  LUMO = 0.218745243385734
  beta  nocc = 78  HOMO = 0.0272995857235913  LUMO = 0.219090682431036
cycle= 14 E= -2890.91094540071  delta_E= -2.67e-05  |g|= 0.0014  |ddm|= 0.0291
  alpha nocc = 78  HOMO = 0.0287371610370061  LUMO = 0.218969597056402
  beta  nocc = 78  HOMO = 0.0273676315471382  LUMO = 0.219301484747919
cycle= 15 E= -2890.91095839169  delta_E= -1.3e-05  |g|= 0.00123  |ddm|= 0.0151
  alpha nocc = 78  HOMO = 0.0285331106142896  LUMO = 0.218958894546768
  beta  nocc = 78  HOMO = 0.0272400174768626  LUMO = 0.219281905841718
cycle= 16 E= -2890.91096488065  delta_E= -6.49e-06  |g|= 0.000828  |ddm|= 0.00839
  alpha nocc = 78  HOMO = 0.0285470197220477  LUMO = 0.218892383267796
  beta  nocc = 78  HOMO = 0.0273174421932971  LUMO = 0.219215529535432
cycle= 17 E= -2890.91096842913  delta_E= -3.55e-06  |g|= 0.000637  |ddm|= 0.0052
  alpha nocc = 78  HOMO = 0.028567872449946  LUMO = 0.218891112088533
  beta  nocc = 78  HOMO = 0.0274011903162551  LUMO = 0.219192701452402
cycle= 18 E= -2890.91097212475  delta_E= -3.7e-06  |g|= 0.000556  |ddm|= 0.00604
  alpha nocc = 78  HOMO = 0.0285289521009085  LUMO = 0.218911513598171
  beta  nocc = 78  HOMO = 0.0274406647883986  LUMO = 0.219199864809578
cycle= 19 E= -2890.91097623089  delta_E= -4.11e-06  |g|= 0.000512  |ddm|= 0.00736
  alpha nocc = 78  HOMO = 0.0285068597691896  LUMO = 0.2189003442234
  beta  nocc = 78  HOMO = 0.0274606735715132  LUMO = 0.219190176525133
cycle= 20 E= -2890.91097897598  delta_E= -2.75e-06  |g|= 0.000497  |ddm|= 0.00513
  alpha nocc = 78  HOMO = 0.02851097404295  LUMO = 0.218899389875902
  beta  nocc = 78  HOMO = 0.0274748463734262  LUMO = 0.219196444793998
cycle= 21 E= -2890.91098058418  delta_E= -1.61e-06  |g|= 0.000496  |ddm|= 0.00295
  alpha nocc = 78  HOMO = 0.0285080574660035  LUMO = 0.218895065484333
  beta  nocc = 78  HOMO = 0.0274712746319806  LUMO = 0.219196882874457
cycle= 22 E= -2890.91098132938  delta_E= -7.45e-07  |g|= 0.000497  |ddm|= 0.00138
  alpha nocc = 78  HOMO = 0.0285004997438429  LUMO = 0.218894566998684
  beta  nocc = 78  HOMO = 0.0274737517580368  LUMO = 0.219191399529493
cycle= 23 E= -2890.91098050395  delta_E= 8.25e-07  |g|= 0.000496  |ddm|= 0.0017
  alpha nocc = 78  HOMO = 0.0284949463794166  LUMO = 0.218898287998798
  beta  nocc = 78  HOMO = 0.0274831748382913  LUMO = 0.21919137708408
cycle= 24 E= -2890.91097984898  delta_E= 6.55e-07  |g|= 0.000495  |ddm|= 0.00157
  alpha nocc = 78  HOMO = 0.0284924951364329  LUMO = 0.218897585846664
  beta  nocc = 78  HOMO = 0.0274852872893211  LUMO = 0.219190796928822
cycle= 25 E= -2890.91097976656  delta_E= 8.24e-08  |g|= 0.000495  |ddm|= 0.000338
  alpha nocc = 78  HOMO = 0.0284983123166213  LUMO = 0.218900954040295
  beta  nocc = 78  HOMO = 0.0274813680142043  LUMO = 0.219189077395999
cycle= 26 E= -2890.91097951754  delta_E= 2.49e-07  |g|= 0.000493  |ddm|= 0.000773
  alpha nocc = 78  HOMO = 0.028498328105668  LUMO = 0.218910524251637
  beta  nocc = 78  HOMO = 0.02748437803277  LUMO = 0.219188920432821
cycle= 27 E= -2890.91097919212  delta_E= 3.25e-07  |g|= 0.00049  |ddm|= 0.000821
  alpha nocc = 78  HOMO = 0.0284921598881365  LUMO = 0.218912773359464
  beta  nocc = 78  HOMO = 0.0274788202700063  LUMO = 0.219179528399728
cycle= 28 E= -2890.91097901033  delta_E= 1.82e-07  |g|= 0.000484  |ddm|= 0.000985
  alpha nocc = 78  HOMO = 0.0284840163371221  LUMO = 0.218921921952994
  beta  nocc = 78  HOMO = 0.0274889105788488  LUMO = 0.219176298254833
cycle= 29 E= -2890.91097923466  delta_E= -2.24e-07  |g|= 0.000479  |ddm|= 0.00139
  alpha nocc = 78  HOMO = 0.0284780323232234  LUMO = 0.218928018293154
  beta  nocc = 78  HOMO = 0.0274996590107327  LUMO = 0.219178121334229
cycle= 30 E= -2890.91098026375  delta_E= -1.03e-06  |g|= 0.000476  |ddm|= 0.00236
  alpha nocc = 78  HOMO = 0.0284605582667437  LUMO = 0.218919111265873
  beta  nocc = 78  HOMO = 0.0274971269792358  LUMO = 0.219171147217112
cycle= 31 E= -2890.91098151525  delta_E= -1.25e-06  |g|= 0.000473  |ddm|= 0.00268
  alpha nocc = 78  HOMO = 0.0284677236477872  LUMO = 0.218919339298658
  beta  nocc = 78  HOMO = 0.0274969839551392  LUMO = 0.219178063240828
cycle= 32 E= -2890.9109827392  delta_E= -1.22e-06  |g|= 0.000476  |ddm|= 0.00247
  alpha nocc = 78  HOMO = 0.0284658225132801  LUMO = 0.218922077788618
  beta  nocc = 78  HOMO = 0.0275022080363781  LUMO = 0.219178079042524
cycle= 33 E= -2890.91098225864  delta_E= 4.81e-07  |g|= 0.000476  |ddm|= 0.00101
  alpha nocc = 78  HOMO = 0.0284501911997993  LUMO = 0.21892127158377
  beta  nocc = 78  HOMO = 0.0275153825904336  LUMO = 0.219173127349638
cycle= 34 E= -2890.91098144143  delta_E= 8.17e-07  |g|= 0.000471  |ddm|= 0.00218
  alpha nocc = 78  HOMO = 0.0284403337688889  LUMO = 0.218919054953538
  beta  nocc = 78  HOMO = 0.0275216875460446  LUMO = 0.219173940553997
cycle= 35 E= -2890.91098164042  delta_E= -1.99e-07  |g|= 0.000472  |ddm|= 0.000873
  alpha nocc = 78  HOMO = 0.0284406358298362  LUMO = 0.218916646740347
  beta  nocc = 78  HOMO = 0.0275209993512111  LUMO = 0.219173728011277
cycle= 36 E= -2890.91098173657  delta_E= -9.62e-08  |g|= 0.000472  |ddm|= 0.000216
  alpha nocc = 78  HOMO = 0.028435014720992  LUMO = 0.218917669041279
  beta  nocc = 78  HOMO = 0.0275188640619803  LUMO = 0.219166610093354
cycle= 37 E= -2890.91098142243  delta_E= 3.14e-07  |g|= 0.000469  |ddm|= 0.000795
  alpha nocc = 78  HOMO = 0.0284065777839667  LUMO = 0.218937427229797
  beta  nocc = 78  HOMO = 0.0275517707050809  LUMO = 0.219154229164612
cycle= 38 E= -2890.91098056299  delta_E= 8.59e-07  |g|= 0.000451  |ddm|= 0.00384
  alpha nocc = 78  HOMO = 0.0283638188305567  LUMO = 0.218951036739081
  beta  nocc = 78  HOMO = 0.0275921948984482  LUMO = 0.21914673539276
cycle= 39 E= -2890.9109807701  delta_E= -2.07e-07  |g|= 0.000434  |ddm|= 0.00483
  alpha nocc = 78  HOMO = 0.0283016152662847  LUMO = 0.218938569296628
  beta  nocc = 78  HOMO = 0.0276178462297278  LUMO = 0.219125885528878
cycle= 40 E= -2890.91098142994  delta_E= -6.6e-07  |g|= 0.00041  |ddm|= 0.0056
  alpha nocc = 78  HOMO = 0.028303438163505  LUMO = 0.21893998930159
  beta  nocc = 78  HOMO = 0.027653729856865  LUMO = 0.219143572863095
cycle= 41 E= -2890.91098367126  delta_E= -2.24e-06  |g|= 0.000398  |ddm|= 0.00813
  alpha nocc = 78  HOMO = 0.0282988962766036  LUMO = 0.218930808867967
  beta  nocc = 78  HOMO = 0.0276478737703382  LUMO = 0.219143202077444
cycle= 42 E= -2890.91098456649  delta_E= -8.95e-07  |g|= 0.000388  |ddm|= 0.0029
  alpha nocc = 78  HOMO = 0.0282981576074532  LUMO = 0.218930501375157
  beta  nocc = 78  HOMO = 0.0276491826570906  LUMO = 0.219147350095592
cycle= 43 E= -2890.91098498425  delta_E= -4.18e-07  |g|= 0.000387  |ddm|= 0.00129
  alpha nocc = 78  HOMO = 0.028298462676866  LUMO = 0.218928959528025
  beta  nocc = 78  HOMO = 0.0276489275306926  LUMO = 0.219150113292701
cycle= 44 E= -2890.91098537374  delta_E= -3.89e-07  |g|= 0.000387  |ddm|= 0.00118
  alpha nocc = 78  HOMO = 0.0283000576147595  LUMO = 0.218929803585496
  beta  nocc = 78  HOMO = 0.0276476478671084  LUMO = 0.21914840098728
cycle= 45 E= -2890.91098520537  delta_E= 1.68e-07  |g|= 0.000388  |ddm|= 0.00062
  alpha nocc = 78  HOMO = 0.0283071870021146  LUMO = 0.218935966320974
  beta  nocc = 78  HOMO = 0.0276470975654988  LUMO = 0.219150555538499
cycle= 46 E= -2890.91098493593  delta_E= 2.69e-07  |g|= 0.000387  |ddm|= 0.00126
  alpha nocc = 78  HOMO = 0.0283165986468256  LUMO = 0.218930905852957
  beta  nocc = 78  HOMO = 0.0276337122950163  LUMO = 0.219151050010392
cycle= 47 E= -2890.91098517691  delta_E= -2.41e-07  |g|= 0.000389  |ddm|= 0.00116
  alpha nocc = 78  HOMO = 0.0283104167957239  LUMO = 0.218932755547427
  beta  nocc = 78  HOMO = 0.0276387140461872  LUMO = 0.219149167391737
cycle= 48 E= -2890.9109850013  delta_E= 1.76e-07  |g|= 0.000388  |ddm|= 0.000711
  alpha nocc = 78  HOMO = 0.0282843186958946  LUMO = 0.218929800323318
  beta  nocc = 78  HOMO = 0.0276537613506095  LUMO = 0.219138353583364
cycle= 49 E= -2890.91098480124  delta_E= 2e-07  |g|= 0.000384  |ddm|= 0.00288
  alpha nocc = 78  HOMO = 0.028287468000138  LUMO = 0.21893558677908
  beta  nocc = 78  HOMO = 0.0276598279346513  LUMO = 0.219139418764006
cycle= 50 E= -2890.91098466314  delta_E= 1.38e-07  |g|= 0.000383  |ddm|= 0.00107
SCF not converged.
SCF energy = -2890.91098466314 after 50 cycles  <S^2> = 0.0020539215  2S+1 = 1.0040994
shift = 0
thresh = 1e-05 
eri1 (1356, 5886)
eri1 (1356, 5886)
    CPU time for making amplitude: integral transform      1.14 sec, wall time      0.08 sec
shape (1356, 3240)
1st memory: 521.5 MiB
eri1 (1356, 5886)
eri1 (1356, 5886)
2nd memory: 404.3 MiB

========================
iter = 0  energy = -2891.656934 energy diff = 2891.656934
multiplicity <S^2> : Reference = 0.0020539215 Response = 0.0020548807 Projector = 0.0020558399
eri1 (1356, 5886)
eri1 (1356, 5886)
    CPU time for making amplitude: integral transform      1.08 sec, wall time      0.07 sec
shape (1356, 3240)
1st memory: 510.3 MiB
eri1 (1356, 5886)
eri1 (1356, 5886)
2nd memory: 387.7 MiB

========================
iter = 1  energy = -2891.669547 energy diff = 0.012614
multiplicity <S^2> : Reference = 0.0014586653 Response = 0.0014587113 Projector = 0.0014587574
eri1 (1356, 5886)
eri1 (1356, 5886)
    CPU time for making amplitude: integral transform      1.03 sec, wall time      0.07 sec
shape (1356, 3240)
1st memory: 515.0 MiB
eri1 (1356, 5886)
eri1 (1356, 5886)
2nd memory: 387.8 MiB

========================
iter = 2  energy = -2891.678825 energy diff = 0.009278
multiplicity <S^2> : Reference = 0.0011308783 Response = 0.0011308885 Projector = 0.0011308987
eri1 (1356, 5886)
eri1 (1356, 5886)
    CPU time for making amplitude: integral transform      0.95 sec, wall time      0.06 sec
shape (1356, 3240)
1st memory: 509.9 MiB
eri1 (1356, 5886)
eri1 (1356, 5886)
2nd memory: 388.3 MiB

========================
iter = 3  energy = -2891.685284 energy diff = 0.006459
multiplicity <S^2> : Reference = 0.00078299689 Response = 0.00078296377 Projector = 0.00078293065
eri1 (1356, 5886)
eri1 (1356, 5886)
    CPU time for making amplitude: integral transform      1.21 sec, wall time      0.08 sec
shape (1356, 3240)
1st memory: 516.0 MiB
eri1 (1356, 5886)
eri1 (1356, 5886)
2nd memory: 388.5 MiB

========================
iter = 4  energy = -2891.689053 energy diff = 0.003769
multiplicity <S^2> : Reference = 0.00045779364 Response = 0.00045778808 Projector = 0.00045778252
eri1 (1356, 5886)
eri1 (1356, 5886)
    CPU time for making amplitude: integral transform      0.98 sec, wall time      0.07 sec
shape (1356, 3240)
1st memory: 548.1 MiB
eri1 (1356, 5886)
eri1 (1356, 5886)
2nd memory: 422.9 MiB

========================
iter = 5  energy = -2891.690008 energy diff = 0.000956
multiplicity <S^2> : Reference = 0.00031671958 Response = 0.0003167447 Projector = 0.00031676981
eri1 (1356, 5886)
eri1 (1356, 5886)
    CPU time for making amplitude: integral transform      1.23 sec, wall time      0.08 sec
shape (1356, 3240)
1st memory: 576.2 MiB
eri1 (1356, 5886)
eri1 (1356, 5886)
2nd memory: 422.1 MiB

========================
iter = 6  energy = -2891.690385 energy diff = 0.000376
multiplicity <S^2> : Reference = 0.0002137729 Response = 0.00021377134 Projector = 0.00021376977
eri1 (1356, 5886)
eri1 (1356, 5886)
    CPU time for making amplitude: integral transform      0.93 sec, wall time      0.06 sec
shape (1356, 3240)
1st memory: 550.7 MiB
eri1 (1356, 5886)
eri1 (1356, 5886)
2nd memory: 421.3 MiB

========================
iter = 7  energy = -2891.690535 energy diff = 0.000150
multiplicity <S^2> : Reference = 0.0001492279 Response = 0.00014923662 Projector = 0.00014924534
eri1 (1356, 5886)
eri1 (1356, 5886)
    CPU time for making amplitude: integral transform      0.94 sec, wall time      0.06 sec
shape (1356, 3240)
1st memory: 551.5 MiB
eri1 (1356, 5886)
eri1 (1356, 5886)
2nd memory: 422.0 MiB

========================
iter = 8  energy = -2891.690597 energy diff = 0.000062
multiplicity <S^2> : Reference = 0.00010227377 Response = 0.00010227535 Projector = 0.00010227693
eri1 (1356, 5886)
eri1 (1356, 5886)
    CPU time for making amplitude: integral transform      0.97 sec, wall time      0.07 sec
shape (1356, 3240)
1st memory: 551.3 MiB
eri1 (1356, 5886)
eri1 (1356, 5886)
2nd memory: 423.0 MiB

========================
iter = 9  energy = -2891.690621 energy diff = 0.000024
multiplicity <S^2> : Reference = 8.233141e-05 Response = 8.2331542e-05 Projector = 8.2331674e-05
eri1 (1356, 5886)
eri1 (1356, 5886)
    CPU time for making amplitude: integral transform      0.92 sec, wall time      0.06 sec
shape (1356, 3240)
1st memory: 576.4 MiB
eri1 (1356, 5886)
eri1 (1356, 5886)
2nd memory: 423.1 MiB

========================
iter = 10  energy = -2891.690621 energy diff = 0.000000
multiplicity <S^2> : Reference = 6.33253e-05 Response = 6.332499e-05 Projector = 6.3324679e-05

UOB-MP2 has converged
UOB-MP2 energy =  -2891.6906205390233
shift = 0
thresh = 1e-05 
eri1 (1356, 5886)
eri1 (1356, 5886)
    CPU time for making amplitude: integral transform      0.97 sec, wall time      0.07 sec
shape (1356, 3240)
1st memory: 508.3 MiB
eri1 (1356, 5886)
eri1 (1356, 5886)
2nd memory: 385.5 MiB

========================
iter = 0  energy = -2891.409678 energy diff = 2891.409678
multiplicity <S^2> : Reference = 0.0020539215 Response = 0.0020548807 Projector = 0.0020558399
eri1 (1356, 5886)
eri1 (1356, 5886)
    CPU time for making amplitude: integral transform      1.19 sec, wall time      0.08 sec
shape (1356, 3240)
1st memory: 515.7 MiB
eri1 (1356, 5886)
eri1 (1356, 5886)
2nd memory: 387.2 MiB

========================
iter = 1  energy = -2891.438954 energy diff = 0.029276
multiplicity <S^2> : Reference = 0.0015030676 Response = 0.0015031446 Projector = 0.0015032215
eri1 (1356, 5886)
eri1 (1356, 5886)
    CPU time for making amplitude: integral transform      1.07 sec, wall time      0.07 sec
shape (1356, 3240)
1st memory: 510.9 MiB
eri1 (1356, 5886)
eri1 (1356, 5886)
2nd memory: 387.5 MiB

========================
iter = 2  energy = -2891.443769 energy diff = 0.004815
multiplicity <S^2> : Reference = 0.0011696885 Response = 0.0011696755 Projector = 0.0011696625
eri1 (1356, 5886)
eri1 (1356, 5886)
    CPU time for making amplitude: integral transform      1.34 sec, wall time      0.09 sec
shape (1356, 3240)
1st memory: 515.6 MiB
eri1 (1356, 5886)
eri1 (1356, 5886)
2nd memory: 409.9 MiB

========================
iter = 3  energy = -2891.446721 energy diff = 0.002951
multiplicity <S^2> : Reference = 0.0008276643 Response = 0.00082756706 Projector = 0.00082746981
eri1 (1356, 5886)
eri1 (1356, 5886)
    CPU time for making amplitude: integral transform      1.11 sec, wall time      0.07 sec
shape (1356, 3240)
1st memory: 541.2 MiB
eri1 (1356, 5886)
eri1 (1356, 5886)
2nd memory: 423.3 MiB

========================
iter = 4  energy = -2891.448633 energy diff = 0.001913
multiplicity <S^2> : Reference = 0.00047656122 Response = 0.00047656477 Projector = 0.00047656831
eri1 (1356, 5886)
eri1 (1356, 5886)
    CPU time for making amplitude: integral transform      0.94 sec, wall time      0.06 sec
shape (1356, 3240)
1st memory: 576.7 MiB
eri1 (1356, 5886)
eri1 (1356, 5886)
2nd memory: 423.3 MiB

========================
iter = 5  energy = -2891.449016 energy diff = 0.000383
multiplicity <S^2> : Reference = 0.00031829272 Response = 0.00031830946 Projector = 0.0003183262
eri1 (1356, 5886)
eri1 (1356, 5886)
    CPU time for making amplitude: integral transform      1.09 sec, wall time      0.07 sec
shape (1356, 3240)
1st memory: 540.7 MiB
eri1 (1356, 5886)
eri1 (1356, 5886)
2nd memory: 421.8 MiB

========================
iter = 6  energy = -2891.449153 energy diff = 0.000137
multiplicity <S^2> : Reference = 0.00021319842 Response = 0.00021321163 Projector = 0.00021322485
eri1 (1356, 5886)
eri1 (1356, 5886)
    CPU time for making amplitude: integral transform      0.98 sec, wall time      0.07 sec
shape (1356, 3240)
1st memory: 551.8 MiB
eri1 (1356, 5886)
eri1 (1356, 5886)
2nd memory: 422.4 MiB

========================
iter = 7  energy = -2891.449199 energy diff = 0.000046
multiplicity <S^2> : Reference = 0.00015007158 Response = 0.00015008268 Projector = 0.00015009379
eri1 (1356, 5886)
eri1 (1356, 5886)
    CPU time for making amplitude: integral transform      1.00 sec, wall time      0.07 sec
shape (1356, 3240)
1st memory: 551.5 MiB
eri1 (1356, 5886)
eri1 (1356, 5886)
2nd memory: 422.2 MiB

========================
iter = 8  energy = -2891.449222 energy diff = 0.000022
multiplicity <S^2> : Reference = 0.0001028827 Response = 0.00010288723 Projector = 0.00010289176
eri1 (1356, 5886)
eri1 (1356, 5886)
    CPU time for making amplitude: integral transform      1.09 sec, wall time      0.07 sec
shape (1356, 3240)
1st memory: 553.0 MiB
eri1 (1356, 5886)
eri1 (1356, 5886)
2nd memory: 422.2 MiB

========================
iter = 9  energy = -2891.449229 energy diff = 0.000007
multiplicity <S^2> : Reference = 7.2742813e-05 Response = 7.2745821e-05 Projector = 7.2748828e-05

UOB-MP2 has converged
UOB-MP2 energy =  -2891.4492285835313


******** <class 'pyscf.scf.uhf.UHF'> ********
method = UHF
initial guess = minao
damping factor = 0
level_shift factor = 0
DIIS = <class 'pyscf.scf.diis.CDIIS'>
diis_start_cycle = 1
diis_space = 8
SCF conv_tol = 1e-09
SCF conv_tol_grad = None
SCF max_cycles = 50
direct_scf = True
direct_scf_tol = 1e-13
chkfile to save SCF result = /home/ltkoanh/Al_B2LYP_6311_Gd_Cluster/Cluster/Al12-neutral-singlet-3/tmp92d3afca
max_memory 4000 MB (current use 247 MB)
number electrons alpha = 78  beta = 78
Set gradient conv threshold to 3.16228e-05
init E= -2888.99329694638
  alpha nocc = 78  HOMO = -0.691744048799672  LUMO = -0.641758469057138
  beta  nocc = 78  HOMO = -0.650200516118523  LUMO = -0.618392803458773
cycle= 1 E= -2889.98389522124  delta_E= -0.991  |g|= 1.01  |ddm|= 4.07
  alpha nocc = 78  HOMO = 0.253593538190518  LUMO = 0.311566404274091
  beta  nocc = 78  HOMO = 0.255819244322573  LUMO = 0.31441032136885
cycle= 2 E= -2890.30670817787  delta_E= -0.323  |g|= 0.818  |ddm|= 3.18
  alpha nocc = 78  HOMO = 0.0663116040869174  LUMO = 0.222911680754472
  beta  nocc = 78  HOMO = 0.0609164164523032  LUMO = 0.230709805388082
cycle= 3 E= -2890.89015518413  delta_E= -0.583  |g|= 0.134  |ddm|= 1.46
  alpha nocc = 78  HOMO = 0.0393866012838019  LUMO = 0.217764305148437
  beta  nocc = 78  HOMO = 0.0347798331285078  LUMO = 0.220658404008924
cycle= 4 E= -2890.89821471487  delta_E= -0.00806  |g|= 0.111  |ddm|= 0.434
  alpha nocc = 78  HOMO = 0.0329820053167982  LUMO = 0.220062749538805
  beta  nocc = 78  HOMO = 0.0282602759541307  LUMO = 0.222796762451389
cycle= 5 E= -2890.91105792044  delta_E= -0.0128  |g|= 0.0279  |ddm|= 0.226
  alpha nocc = 78  HOMO = 0.0301952115105033  LUMO = 0.216733796489287
  beta  nocc = 78  HOMO = 0.0253358221366158  LUMO = 0.218531950409947
cycle= 6 E= -2890.9125529935  delta_E= -0.0015  |g|= 0.0171  |ddm|= 0.0884
  alpha nocc = 78  HOMO = 0.0303678041460247  LUMO = 0.218350218833845
  beta  nocc = 78  HOMO = 0.0256451432890453  LUMO = 0.219238717571411
cycle= 7 E= -2890.91380514338  delta_E= -0.00125  |g|= 0.0102  |ddm|= 0.0939
  alpha nocc = 78  HOMO = 0.0296105945572954  LUMO = 0.21917276068251
  beta  nocc = 78  HOMO = 0.0249519501284978  LUMO = 0.218995684784143
cycle= 8 E= -2890.91467471083  delta_E= -0.00087  |g|= 0.00776  |ddm|= 0.0901
  alpha nocc = 78  HOMO = 0.0295409312357092  LUMO = 0.220287468983098
  beta  nocc = 78  HOMO = 0.0246560439670056  LUMO = 0.219374622402794
cycle= 9 E= -2890.91540111191  delta_E= -0.000726  |g|= 0.00766  |ddm|= 0.0872
  alpha nocc = 78  HOMO = 0.0295515868447542  LUMO = 0.22026310025241
  beta  nocc = 78  HOMO = 0.024711313194088  LUMO = 0.21940703620072
cycle= 10 E= -2890.91532450261  delta_E= 7.66e-05  |g|= 0.00753  |ddm|= 0.00893
  alpha nocc = 78  HOMO = 0.0292214442914996  LUMO = 0.219881112913199
  beta  nocc = 78  HOMO = 0.0249034554311837  LUMO = 0.219305790569419
cycle= 11 E= -2890.91487177221  delta_E= 0.000453  |g|= 0.00701  |ddm|= 0.0614
  alpha nocc = 78  HOMO = 0.0282074045361668  LUMO = 0.219733565407988
  beta  nocc = 78  HOMO = 0.0254577703086084  LUMO = 0.219640140661623
cycle= 12 E= -2890.91436280146  delta_E= 0.000509  |g|= 0.00395  |ddm|= 0.13
  alpha nocc = 78  HOMO = 0.0285529167162769  LUMO = 0.219208005025545
  beta  nocc = 78  HOMO = 0.0267841499313588  LUMO = 0.219423971329364
cycle= 13 E= -2890.91435072334  delta_E= 1.21e-05  |g|= 0.00213  |ddm|= 0.0652
  alpha nocc = 78  HOMO = 0.0287331896472305  LUMO = 0.218546376511678
  beta  nocc = 78  HOMO = 0.0272078838612613  LUMO = 0.218893824938397
cycle= 14 E= -2890.91437734064  delta_E= -2.66e-05  |g|= 0.00139  |ddm|= 0.0288
  alpha nocc = 78  HOMO = 0.0286538907249193  LUMO = 0.218773797680167
  beta  nocc = 78  HOMO = 0.0272765559481252  LUMO = 0.219106226746179
cycle= 15 E= -2890.91439037167  delta_E= -1.3e-05  |g|= 0.00122  |ddm|= 0.0151
  alpha nocc = 78  HOMO = 0.0284488297401231  LUMO = 0.218761820757847
  beta  nocc = 78  HOMO = 0.0271482153450842  LUMO = 0.219085058609417
cycle= 16 E= -2890.91439679056  delta_E= -6.42e-06  |g|= 0.000827  |ddm|= 0.00833
  alpha nocc = 78  HOMO = 0.0284646645454524  LUMO = 0.218695108496889
  beta  nocc = 78  HOMO = 0.027227307586447  LUMO = 0.219017817384733
cycle= 17 E= -2890.9144003291  delta_E= -3.54e-06  |g|= 0.000636  |ddm|= 0.00518
  alpha nocc = 78  HOMO = 0.0284855957189053  LUMO = 0.218695175879097
  beta  nocc = 78  HOMO = 0.0273118333948456  LUMO = 0.218995838297946
cycle= 18 E= -2890.91440403179  delta_E= -3.7e-06  |g|= 0.000555  |ddm|= 0.00605
  alpha nocc = 78  HOMO = 0.0284436907172414  LUMO = 0.218714515124028
  beta  nocc = 78  HOMO = 0.0273504160552308  LUMO = 0.219001170169919
cycle= 19 E= -2890.91440822796  delta_E= -4.2e-06  |g|= 0.000511  |ddm|= 0.00753
  alpha nocc = 78  HOMO = 0.0284243403988013  LUMO = 0.218704294811221
  beta  nocc = 78  HOMO = 0.0273720532438672  LUMO = 0.218992511502986
cycle= 20 E= -2890.91441093204  delta_E= -2.7e-06  |g|= 0.000498  |ddm|= 0.00504
  alpha nocc = 78  HOMO = 0.0284278960855088  LUMO = 0.218702870045755
  beta  nocc = 78  HOMO = 0.027384642418841  LUMO = 0.218998093333547
cycle= 21 E= -2890.9144124749  delta_E= -1.54e-06  |g|= 0.000497  |ddm|= 0.00283
  alpha nocc = 78  HOMO = 0.0284253294557877  LUMO = 0.218698918222316
  beta  nocc = 78  HOMO = 0.0273813251475495  LUMO = 0.218998644916026
cycle= 22 E= -2890.91441318047  delta_E= -7.06e-07  |g|= 0.000498  |ddm|= 0.00131
  alpha nocc = 78  HOMO = 0.0284163942934239  LUMO = 0.218698975379755
  beta  nocc = 78  HOMO = 0.0273843922986066  LUMO = 0.218992422956616
cycle= 23 E= -2890.91441217235  delta_E= 1.01e-06  |g|= 0.000496  |ddm|= 0.00206
  alpha nocc = 78  HOMO = 0.0284100548421604  LUMO = 0.218703054669321
  beta  nocc = 78  HOMO = 0.027396289809028  LUMO = 0.21899280195586
cycle= 24 E= -2890.9144114929  delta_E= 6.79e-07  |g|= 0.000495  |ddm|= 0.00173
  alpha nocc = 78  HOMO = 0.0284081033004496  LUMO = 0.218702477906125
  beta  nocc = 78  HOMO = 0.0273975009115453  LUMO = 0.218992386005994
cycle= 25 E= -2890.91441144042  delta_E= 5.25e-08  |g|= 0.000496  |ddm|= 0.000234
  alpha nocc = 78  HOMO = 0.0284145512651865  LUMO = 0.21870912705782
  beta  nocc = 78  HOMO = 0.0273948213157136  LUMO = 0.218992501853361
cycle= 26 E= -2890.91441111091  delta_E= 3.3e-07  |g|= 0.000493  |ddm|= 0.000877
  alpha nocc = 78  HOMO = 0.0284125615551746  LUMO = 0.218711327083556
  beta  nocc = 78  HOMO = 0.0273899430821396  LUMO = 0.218983424431971
cycle= 27 E= -2890.91441080601  delta_E= 3.05e-07  |g|= 0.000488  |ddm|= 0.000992
  alpha nocc = 78  HOMO = 0.0284068606616806  LUMO = 0.218723749304519
  beta  nocc = 78  HOMO = 0.0273942919447973  LUMO = 0.218984295309075
cycle= 28 E= -2890.91441053034  delta_E= 2.76e-07  |g|= 0.000485  |ddm|= 0.00101
  alpha nocc = 78  HOMO = 0.0283995719726199  LUMO = 0.218725875328721
  beta  nocc = 78  HOMO = 0.0273988008030894  LUMO = 0.218975211147106
cycle= 29 E= -2890.91441075242  delta_E= -2.22e-07  |g|= 0.000478  |ddm|= 0.00129
  alpha nocc = 78  HOMO = 0.0283888691860226  LUMO = 0.21873323591267
  beta  nocc = 78  HOMO = 0.027414698636603  LUMO = 0.218975913522367
cycle= 30 E= -2890.91441186077  delta_E= -1.11e-06  |g|= 0.000473  |ddm|= 0.00274
  alpha nocc = 78  HOMO = 0.0283673933523911  LUMO = 0.218725080767586
  beta  nocc = 78  HOMO = 0.0274138716328464  LUMO = 0.218968997799068
cycle= 31 E= -2890.91441307435  delta_E= -1.21e-06  |g|= 0.000469  |ddm|= 0.00273
  alpha nocc = 78  HOMO = 0.0283707968864081  LUMO = 0.218723582709787
  beta  nocc = 78  HOMO = 0.0274156499460361  LUMO = 0.2189756232247
cycle= 32 E= -2890.91441470307  delta_E= -1.63e-06  |g|= 0.000471  |ddm|= 0.00335
  alpha nocc = 78  HOMO = 0.0283684578197905  LUMO = 0.21872581450531
  beta  nocc = 78  HOMO = 0.0274202805256611  LUMO = 0.218975413517923
cycle= 33 E= -2890.91441424696  delta_E= 4.56e-07  |g|= 0.00047  |ddm|= 0.000981
  alpha nocc = 78  HOMO = 0.0283587529333572  LUMO = 0.218724002478369
  beta  nocc = 78  HOMO = 0.0274259485313841  LUMO = 0.218971904370825
cycle= 34 E= -2890.91441384244  delta_E= 4.05e-07  |g|= 0.000468  |ddm|= 0.00113
  alpha nocc = 78  HOMO = 0.0283512332613552  LUMO = 0.218722748092189
  beta  nocc = 78  HOMO = 0.0274341218517095  LUMO = 0.21897282075985
cycle= 35 E= -2890.91441395039  delta_E= -1.08e-07  |g|= 0.000468  |ddm|= 0.000795
  alpha nocc = 78  HOMO = 0.0283519803337077  LUMO = 0.218722625621233
  beta  nocc = 78  HOMO = 0.0274346571751441  LUMO = 0.218973821865195
cycle= 36 E= -2890.91441396518  delta_E= -1.48e-08  |g|= 0.000468  |ddm|= 9.92e-05
  alpha nocc = 78  HOMO = 0.0283515841452697  LUMO = 0.2187286479224
  beta  nocc = 78  HOMO = 0.0274425917557874  LUMO = 0.218975996273339
cycle= 37 E= -2890.91441376541  delta_E= 2e-07  |g|= 0.000467  |ddm|= 0.000536
  alpha nocc = 78  HOMO = 0.0283141302851078  LUMO = 0.218736382822024
  beta  nocc = 78  HOMO = 0.027456327739237  LUMO = 0.218956940694866
cycle= 38 E= -2890.91441339821  delta_E= 3.67e-07  |g|= 0.000451  |ddm|= 0.00316
  alpha nocc = 78  HOMO = 0.0282749411328266  LUMO = 0.218750983314475
  beta  nocc = 78  HOMO = 0.0275169139926834  LUMO = 0.218951425293474
cycle= 39 E= -2890.91441349129  delta_E= -9.31e-08  |g|= 0.000429  |ddm|= 0.0056
  alpha nocc = 78  HOMO = 0.0282003364319001  LUMO = 0.218737263243594
  beta  nocc = 78  HOMO = 0.0275564866194216  LUMO = 0.218928793130794
cycle= 40 E= -2890.91441393974  delta_E= -4.48e-07  |g|= 0.000405  |ddm|= 0.00709
  alpha nocc = 78  HOMO = 0.0281793261383679  LUMO = 0.218737801295304
  beta  nocc = 78  HOMO = 0.027601010878034  LUMO = 0.21893763206263
cycle= 41 E= -2890.91441554761  delta_E= -1.61e-06  |g|= 0.000376  |ddm|= 0.00857
  alpha nocc = 78  HOMO = 0.0281784695239741  LUMO = 0.218731882644619
  beta  nocc = 78  HOMO = 0.0276005909877006  LUMO = 0.218938405256378
cycle= 42 E= -2890.91441611082  delta_E= -5.63e-07  |g|= 0.000372  |ddm|= 0.0021
  alpha nocc = 78  HOMO = 0.0281728422870557  LUMO = 0.218729102829113
  beta  nocc = 78  HOMO = 0.0276032722192521  LUMO = 0.21894241594523
cycle= 43 E= -2890.91441645055  delta_E= -3.4e-07  |g|= 0.000375  |ddm|= 0.00124
  alpha nocc = 78  HOMO = 0.028186060963438  LUMO = 0.218731423632411
  beta  nocc = 78  HOMO = 0.0275867264176253  LUMO = 0.218936784122047
cycle= 44 E= -2890.91441621931  delta_E= 2.31e-07  |g|= 0.000373  |ddm|= 0.00203
  alpha nocc = 78  HOMO = 0.0281882244801842  LUMO = 0.21873567569892
  beta  nocc = 78  HOMO = 0.0275928336672352  LUMO = 0.218936256296444
cycle= 45 E= -2890.91441597675  delta_E= 2.43e-07  |g|= 0.000369  |ddm|= 0.000937
  alpha nocc = 78  HOMO = 0.028153035140951  LUMO = 0.218747077322556
  beta  nocc = 78  HOMO = 0.0276130943136436  LUMO = 0.218942365520572
cycle= 46 E= -2890.91441606554  delta_E= -8.88e-08  |g|= 0.000356  |ddm|= 0.00434
  alpha nocc = 78  HOMO = 0.0281676364781634  LUMO = 0.218734954230127
  beta  nocc = 78  HOMO = 0.0276059222027883  LUMO = 0.218947929712347
cycle= 47 E= -2890.91441703452  delta_E= -9.69e-07  |g|= 0.000353  |ddm|= 0.0031
  alpha nocc = 78  HOMO = 0.0281639887349087  LUMO = 0.21873349006095
  beta  nocc = 78  HOMO = 0.0276069511412699  LUMO = 0.2189532075304
cycle= 48 E= -2890.91441738648  delta_E= -3.52e-07  |g|= 0.000348  |ddm|= 0.00198
  alpha nocc = 78  HOMO = 0.0281616280445094  LUMO = 0.218727437972873
  beta  nocc = 78  HOMO = 0.0276106582464648  LUMO = 0.218957073047282
cycle= 49 E= -2890.91441797508  delta_E= -5.89e-07  |g|= 0.000349  |ddm|= 0.00258
  alpha nocc = 78  HOMO = 0.0281630683782467  LUMO = 0.218737652046573
  beta  nocc = 78  HOMO = 0.0276093263774533  LUMO = 0.218953015927441
cycle= 50 E= -2890.91441700087  delta_E= 9.74e-07  |g|= 0.000345  |ddm|= 0.00393
SCF not converged.
SCF energy = -2890.91441700087 after 50 cycles  <S^2> = 0.0018408299  2S+1 = 1.0036749
