#INFO: **** input file is /home/ltkoanh/Al_B2LYP_6311_Gd_Cluster/Cluster/Al12-cation-doublet-2/input.py ****
import numpy
from pyscf import gto, scf, dft, mp, cc
from pyscf.mp import uobmp2_mom_conv, dfuobmp2_mom_conv, uhf_mom
from pyscf.mp import  mp2, ump2
from pyscf.tools import molden
import os
from functools import reduce


mol = gto.Mole()
geom = os.environ.get('geom_txt')
mol.atom = geom
mol.basis = os.environ.get('basis', 'cc-pvdz')
mol.unit = 'A'
mol.charge = int(os.environ.get('charge', 0))
mol.spin = int(os.environ.get('spin', 0))
mol.verbose = 4
mol.build()

#################### Ground state using density fitting
### Hartree-Fock
a  = scf.UHF(mol).density_fit()
a.kernel()

### Ground state OBMP2 calculation
ob = dfuobmp2_mom_conv.DFUOBMP2(a)
ob.second_order = True
ob.thresh = 10e-6
ob.css = 1
ob.cos = 1
e_obmp2g = ob.kernel()

### Ground state O2BMP2 calculation
ob = dfuobmp2_mom_conv.DFUOBMP2(a)
ob.second_order = True
ob.thresh = 10e-6
ob.css = 0                             
ob.cos = 1.2                             
e_o2bmp2g = ob.kernel()  

#################### Ground state NOT using density fitting
### Hartree-Fock
a  = scf.UHF(mol)
a.kernel()

### Ground state OBMP2 calculation
ob = uobmp2_mom_conv.UOBMP2(a)
ob.second_order = True
ob.thresh = 10e-6
ob.css = 1
ob.cos = 1
#e_obmp2g = ob.kernel()

### Ground state O2BMP2 calculation
ob = uobmp2_mom_conv.UOBMP2(a)
ob.second_order = True
ob.thresh = 10e-6
ob.css = 0
ob.cos = 1.2   ## the cos can be vary ...                        	 
#e_o2bmp2g = ob.kernel()


## Results from density-fitting approximate with non-using density fitting 
## check results between df and non-df with small molecules before running the important molecules
#INFO: ******************** input file end ********************


System: uname_result(system='Linux', node='comphys', release='3.10.0-1160.119.1.el7.x86_64', version='#1 SMP Tue Jun 4 14:43:51 UTC 2024', machine='x86_64', processor='x86_64')  Threads 8
Python 3.7.9 (default, Dec  4 2023, 13:00:18) 
[GCC 4.8.5 20150623 (Red Hat 4.8.5-44)]
numpy 1.21.6  scipy 1.7.3
Date: Tue May 27 17:22:46 2025
PySCF version 1.7.0
PySCF path  /share/installs/pyscf/pyscf
GIT HEAD      ref: refs/heads/ob-mp2
GIT ob-mp2 branch  f0fc63383ab6c719c0c91f5e07a6895c637b700d

[CONFIG] conf_file None
[INPUT] verbose = 4
[INPUT] num. atoms = 12
[INPUT] num. electrons = 155
[INPUT] charge = 1
[INPUT] spin (= nelec alpha-beta = 2S) = 1
[INPUT] symmetry False subgroup None
[INPUT] Mole.unit = A
[INPUT]  1 Al     1.545759000000  -0.323100000000   2.326574000000 AA    2.921061164582  -0.610570510847   4.396587668534 Bohr
[INPUT]  2 Al    -0.000174000000   1.802003000000   2.344070000000 AA   -0.000328812346   3.405292145645   4.429650316809 Bohr
[INPUT]  3 Al    -1.545897000000  -0.323098000000   2.326839000000 AA   -2.921321946787  -0.610566731395   4.397088445957 Bohr
[INPUT]  4 Al    -0.000174000000  -2.222976000000   1.274574000000 AA   -0.000328812346  -4.200815821481   2.408595785491 Bohr
[INPUT]  5 Al    -0.000174000000   1.802003000000  -2.344070000000 AA   -0.000328812346   3.405292145645  -4.429650316809 Bohr
[INPUT]  6 Al    -0.000055000000   2.899144000000   0.000000000000 AA   -0.000103934937   5.478588155676   0.000000000000 Bohr
[INPUT]  7 Al    -2.682108000000  -0.499886000000   0.000000000000 AA   -5.068449556505  -0.944647633504   0.000000000000 Bohr
[INPUT]  8 Al    -1.545897000000  -0.323098000000  -2.326839000000 AA   -2.921321946787  -0.610566731395  -4.397088445957 Bohr
[INPUT]  9 Al     2.683028000000  -0.498220000000   0.000000000000 AA    5.070188104540  -0.941499349781   0.000000000000 Bohr
[INPUT] 10 Al     1.545759000000  -0.323100000000  -2.326574000000 AA    2.921061164582  -0.610570510847  -4.396587668534 Bohr
[INPUT] 11 Al    -0.000174000000  -2.222976000000  -1.274574000000 AA   -0.000328812346  -4.200815821481  -2.408595785491 Bohr
[INPUT] 12 Al     0.000106000000   0.233306000000   0.000000000000 AA    0.000200310969   0.440884443218   0.000000000000 Bohr

nuclear repulsion = 1674.44517355788
number of shells = 60
number of NR pGTOs = 648
number of NR cGTOs = 108
basis = sto-6g
ecp = {}
CPU time:         1.67


******** <class 'pyscf.df.df_jk.density_fit.<locals>.DFHF'> ********
method = DFHF-UHF
initial guess = minao
damping factor = 0
level_shift factor = 0
DIIS = <class 'pyscf.scf.diis.CDIIS'>
diis_start_cycle = 1
diis_space = 8
SCF conv_tol = 1e-09
SCF conv_tol_grad = None
SCF max_cycles = 50
direct_scf = True
direct_scf_tol = 1e-13
chkfile to save SCF result = /home/ltkoanh/Al_B2LYP_6311_Gd_Cluster/Cluster/Al12-cation-doublet-2/tmpj1q7ulcm
max_memory 4000 MB (current use 60 MB)
number electrons alpha = 78  beta = 77
Set gradient conv threshold to 3.16228e-05
******** <class 'pyscf.df.df.DF'> ********
auxbasis = None
max_memory = 4000
_cderi_to_save = /home/ltkoanh/Al_B2LYP_6311_Gd_Cluster/Cluster/Al12-cation-doublet-2/tmpo1o29mzr
Even tempered Gaussians are generated as DF auxbasis for  Al
init E= -2892.71144789007
  alpha nocc = 78  HOMO = -0.225111226746193  LUMO = -0.206778044772233
  beta  nocc = 77  HOMO = -0.263604600075759  LUMO = -0.225111226746194

WARN: system HOMO -0.225111226746194 >= system LUMO -0.225111226746194

cycle= 1 E= -2890.8603300862  delta_E= 1.85  |g|= 0.281  |ddm|= 3.77
  alpha nocc = 78  HOMO = -0.0673079470402645  LUMO = 0.0768285322193514
  beta  nocc = 77  HOMO = -0.0636267949393714  LUMO = 0.0743896716161448
cycle= 2 E= -2890.90543188718  delta_E= -0.0451  |g|= 0.199  |ddm|= 0.844
  alpha nocc = 78  HOMO = -0.121399369872796  LUMO = 0.0571649938445606
  beta  nocc = 77  HOMO = -0.108685265800618  LUMO = 0.0541367506916497
cycle= 3 E= -2890.93950960906  delta_E= -0.0341  |g|= 0.0309  |ddm|= 0.347
  alpha nocc = 78  HOMO = -0.120987035009827  LUMO = 0.0585537302715913
  beta  nocc = 77  HOMO = -0.107597669425855  LUMO = 0.0542024631260075
cycle= 4 E= -2890.94249885157  delta_E= -0.00299  |g|= 0.0219  |ddm|= 0.148
  alpha nocc = 78  HOMO = -0.121357577695263  LUMO = 0.0573869178346885
  beta  nocc = 77  HOMO = -0.109663664251143  LUMO = 0.0560730981337853
cycle= 5 E= -2890.94367908824  delta_E= -0.00118  |g|= 0.0137  |ddm|= 0.0917
  alpha nocc = 78  HOMO = -0.1208566286895  LUMO = 0.0581749012030553
  beta  nocc = 77  HOMO = -0.108688547744486  LUMO = 0.0580526571581901
cycle= 6 E= -2890.94447053254  delta_E= -0.000791  |g|= 0.00862  |ddm|= 0.0747
  alpha nocc = 78  HOMO = -0.120440146380044  LUMO = 0.0583821858523971
  beta  nocc = 77  HOMO = -0.108793465143612  LUMO = 0.0587113310569835
cycle= 7 E= -2890.94502451357  delta_E= -0.000554  |g|= 0.00813  |ddm|= 0.0638
  alpha nocc = 78  HOMO = -0.120436233026382  LUMO = 0.0585775340238393
  beta  nocc = 77  HOMO = -0.108766092147926  LUMO = 0.0592505303500077
cycle= 8 E= -2890.94539805241  delta_E= -0.000374  |g|= 0.00845  |ddm|= 0.0417
  alpha nocc = 78  HOMO = -0.119922488028234  LUMO = 0.0588289174649099
  beta  nocc = 77  HOMO = -0.108994476206393  LUMO = 0.05846417180061
cycle= 9 E= -2890.94426267987  delta_E= 0.00114  |g|= 0.0062  |ddm|= 0.16
  alpha nocc = 78  HOMO = -0.120108708878789  LUMO = 0.0583045984372272
  beta  nocc = 77  HOMO = -0.109383841144922  LUMO = 0.0583875222142336
cycle= 10 E= -2890.94393937266  delta_E= 0.000323  |g|= 0.00416  |ddm|= 0.125
  alpha nocc = 78  HOMO = -0.120337681714981  LUMO = 0.0574892559402248
  beta  nocc = 77  HOMO = -0.109675315249958  LUMO = 0.0585763275936578
cycle= 11 E= -2890.94398567731  delta_E= -4.63e-05  |g|= 0.00313  |ddm|= 0.0583
  alpha nocc = 78  HOMO = -0.120276719884965  LUMO = 0.0575257769907327
  beta  nocc = 77  HOMO = -0.109539097222278  LUMO = 0.0588984329881733
cycle= 12 E= -2890.94403914821  delta_E= -5.35e-05  |g|= 0.00259  |ddm|= 0.0282
  alpha nocc = 78  HOMO = -0.120738734881109  LUMO = 0.0573711107610253
  beta  nocc = 77  HOMO = -0.109615016968217  LUMO = 0.0590958272117037
cycle= 13 E= -2890.94410673345  delta_E= -6.76e-05  |g|= 0.00198  |ddm|= 0.0326
  alpha nocc = 78  HOMO = -0.121015943428627  LUMO = 0.057504529327393
  beta  nocc = 77  HOMO = -0.109651940086694  LUMO = 0.059291777864706
cycle= 14 E= -2890.94415951925  delta_E= -5.28e-05  |g|= 0.00152  |ddm|= 0.0319
  alpha nocc = 78  HOMO = -0.121097207685082  LUMO = 0.0576833988279251
  beta  nocc = 77  HOMO = -0.109598422761389  LUMO = 0.0595297242617389
cycle= 15 E= -2890.9441950949  delta_E= -3.56e-05  |g|= 0.00116  |ddm|= 0.0294
  alpha nocc = 78  HOMO = -0.12131708183884  LUMO = 0.057392156520858
  beta  nocc = 77  HOMO = -0.109630421573315  LUMO = 0.0596632503831012
cycle= 16 E= -2890.94420960807  delta_E= -1.45e-05  |g|= 0.000968  |ddm|= 0.0164
  alpha nocc = 78  HOMO = -0.121399720699091  LUMO = 0.0573928480168339
  beta  nocc = 77  HOMO = -0.109705055179372  LUMO = 0.059669924946228
cycle= 17 E= -2890.9442202592  delta_E= -1.07e-05  |g|= 0.000803  |ddm|= 0.0132
  alpha nocc = 78  HOMO = -0.121508688817345  LUMO = 0.0573264751307782
  beta  nocc = 77  HOMO = -0.10969876246193  LUMO = 0.0597220948763147
cycle= 18 E= -2890.94423047084  delta_E= -1.02e-05  |g|= 0.00061  |ddm|= 0.0164
  alpha nocc = 78  HOMO = -0.121634738869518  LUMO = 0.0572602025282665
  beta  nocc = 77  HOMO = -0.109737342188119  LUMO = 0.0597547760733483
cycle= 19 E= -2890.94423732988  delta_E= -6.86e-06  |g|= 0.000478  |ddm|= 0.0142
  alpha nocc = 78  HOMO = -0.121691246954835  LUMO = 0.0572199184328344
  beta  nocc = 77  HOMO = -0.109743324891824  LUMO = 0.059727513411745
cycle= 20 E= -2890.94424034892  delta_E= -3.02e-06  |g|= 0.000466  |ddm|= 0.00672
  alpha nocc = 78  HOMO = -0.121684480602111  LUMO = 0.0572160024239741
  beta  nocc = 77  HOMO = -0.109740481589326  LUMO = 0.0597215057598914
cycle= 21 E= -2890.94424079809  delta_E= -4.49e-07  |g|= 0.000476  |ddm|= 0.00109
  alpha nocc = 78  HOMO = -0.121705227672786  LUMO = 0.057213991871806
  beta  nocc = 77  HOMO = -0.109750615623659  LUMO = 0.0597367590936883
cycle= 22 E= -2890.94423983726  delta_E= 9.61e-07  |g|= 0.000439  |ddm|= 0.00362
  alpha nocc = 78  HOMO = -0.121729238774942  LUMO = 0.0572133826337685
  beta  nocc = 77  HOMO = -0.109747376723651  LUMO = 0.059746967200331
cycle= 23 E= -2890.94423954314  delta_E= 2.94e-07  |g|= 0.000409  |ddm|= 0.00451
  alpha nocc = 78  HOMO = -0.121740753526808  LUMO = 0.0571969897143642
  beta  nocc = 77  HOMO = -0.109741792698042  LUMO = 0.0597435696497213
cycle= 24 E= -2890.94424031296  delta_E= -7.7e-07  |g|= 0.00038  |ddm|= 0.00435
  alpha nocc = 78  HOMO = -0.121725173019761  LUMO = 0.0571896970530759
  beta  nocc = 77  HOMO = -0.109739026954  LUMO = 0.0597305667325615
cycle= 25 E= -2890.94424074492  delta_E= -4.32e-07  |g|= 0.000384  |ddm|= 0.00189
  alpha nocc = 78  HOMO = -0.121742252566226  LUMO = 0.057180821215989
  beta  nocc = 77  HOMO = -0.109744964848933  LUMO = 0.0597387945005374
cycle= 26 E= -2890.94424018132  delta_E= 5.64e-07  |g|= 0.000362  |ddm|= 0.00274
  alpha nocc = 78  HOMO = -0.121760471998856  LUMO = 0.0571786288849174
  beta  nocc = 77  HOMO = -0.109733465694366  LUMO = 0.0597643805420148
cycle= 27 E= -2890.94423944514  delta_E= 7.36e-07  |g|= 0.000345  |ddm|= 0.00371
  alpha nocc = 78  HOMO = -0.121772284087605  LUMO = 0.0571571214510983
  beta  nocc = 77  HOMO = -0.109730477732343  LUMO = 0.0597822956083645
cycle= 28 E= -2890.94423915298  delta_E= 2.92e-07  |g|= 0.000296  |ddm|= 0.00361
  alpha nocc = 78  HOMO = -0.121768666504507  LUMO = 0.0571166005807137
  beta  nocc = 77  HOMO = -0.109717689910367  LUMO = 0.059768273644025
cycle= 29 E= -2890.94423930945  delta_E= -1.56e-07  |g|= 0.000245  |ddm|= 0.0043
  alpha nocc = 78  HOMO = -0.121746843686097  LUMO = 0.0570999089125161
  beta  nocc = 77  HOMO = -0.109693674458823  LUMO = 0.0597741520231333
cycle= 30 E= -2890.944239344  delta_E= -3.46e-08  |g|= 0.000181  |ddm|= 0.00359
  alpha nocc = 78  HOMO = -0.121740877674405  LUMO = 0.0570925088506972
  beta  nocc = 77  HOMO = -0.109692016956902  LUMO = 0.0597775097788601
cycle= 31 E= -2890.94423941806  delta_E= -7.41e-08  |g|= 0.000147  |ddm|= 0.00194
  alpha nocc = 78  HOMO = -0.121733917767382  LUMO = 0.0570964301881269
  beta  nocc = 77  HOMO = -0.1096867586355  LUMO = 0.0597689402979731
cycle= 32 E= -2890.94423955146  delta_E= -1.33e-07  |g|= 0.00013  |ddm|= 0.00166
  alpha nocc = 78  HOMO = -0.12173513045817  LUMO = 0.0570961172161304
  beta  nocc = 77  HOMO = -0.109689527735841  LUMO = 0.0597685064216238
cycle= 33 E= -2890.94423963256  delta_E= -8.11e-08  |g|= 0.00013  |ddm|= 0.000887
  alpha nocc = 78  HOMO = -0.121735750412207  LUMO = 0.0570969553924014
  beta  nocc = 77  HOMO = -0.109689299793857  LUMO = 0.0597692115965357
cycle= 34 E= -2890.9442396423  delta_E= -9.73e-09  |g|= 0.000131  |ddm|= 0.000166
  alpha nocc = 78  HOMO = -0.121725243162581  LUMO = 0.0571005664244952
  beta  nocc = 77  HOMO = -0.109685414715976  LUMO = 0.0597636517134906
cycle= 35 E= -2890.94423964475  delta_E= -2.45e-09  |g|= 0.000127  |ddm|= 0.0016
  alpha nocc = 78  HOMO = -0.121726794325751  LUMO = 0.0571002223982712
  beta  nocc = 77  HOMO = -0.109684877417498  LUMO = 0.0597631340839977
cycle= 36 E= -2890.94423965419  delta_E= -9.44e-09  |g|= 0.000128  |ddm|= 0.00021
  alpha nocc = 78  HOMO = -0.121726870742693  LUMO = 0.0570993823268569
  beta  nocc = 77  HOMO = -0.109684631591729  LUMO = 0.0597637040279982
cycle= 37 E= -2890.94423964069  delta_E= 1.35e-08  |g|= 0.000127  |ddm|= 0.000137
  alpha nocc = 78  HOMO = -0.121726263879544  LUMO = 0.057102830616907
  beta  nocc = 77  HOMO = -0.109685418715613  LUMO = 0.059762559828719
cycle= 38 E= -2890.94423968103  delta_E= -4.03e-08  |g|= 0.00013  |ddm|= 0.000503
  alpha nocc = 78  HOMO = -0.121727572196138  LUMO = 0.0571007944677528
  beta  nocc = 77  HOMO = -0.109683230810335  LUMO = 0.0597634217594434
cycle= 39 E= -2890.94423965679  delta_E= 2.42e-08  |g|= 0.000127  |ddm|= 0.000539
  alpha nocc = 78  HOMO = -0.121731421670487  LUMO = 0.0570957987678111
  beta  nocc = 77  HOMO = -0.109682566202922  LUMO = 0.0597659440259083
cycle= 40 E= -2890.94423959803  delta_E= 5.88e-08  |g|= 0.000122  |ddm|= 0.00108
  alpha nocc = 78  HOMO = -0.12173928130025  LUMO = 0.0570987172615077
  beta  nocc = 77  HOMO = -0.109681661764808  LUMO = 0.0597668401035031
cycle= 41 E= -2890.94423954905  delta_E= 4.9e-08  |g|= 0.000107  |ddm|= 0.00142
  alpha nocc = 78  HOMO = -0.121756769175813  LUMO = 0.0571081848107796
  beta  nocc = 77  HOMO = -0.109688203582341  LUMO = 0.0597748440857017
cycle= 42 E= -2890.94423950308  delta_E= 4.6e-08  |g|= 8.22e-05  |ddm|= 0.00182
  alpha nocc = 78  HOMO = -0.121752078136496  LUMO = 0.0571165580665957
  beta  nocc = 77  HOMO = -0.109684983680705  LUMO = 0.0597824944028244
cycle= 43 E= -2890.94423949164  delta_E= 1.14e-08  |g|= 6.78e-05  |ddm|= 0.00102
  alpha nocc = 78  HOMO = -0.121756659549306  LUMO = 0.0571153847482959
  beta  nocc = 77  HOMO = -0.109687435014675  LUMO = 0.0597848824034145
cycle= 44 E= -2890.94423949446  delta_E= -2.82e-09  |g|= 5.59e-05  |ddm|= 0.00121
  alpha nocc = 78  HOMO = -0.121755465761422  LUMO = 0.057115870638373
  beta  nocc = 77  HOMO = -0.109687090014752  LUMO = 0.0597853714150808
cycle= 45 E= -2890.94423950557  delta_E= -1.11e-08  |g|= 5.66e-05  |ddm|= 0.000261
  alpha nocc = 78  HOMO = -0.121754438583951  LUMO = 0.0571152411604878
  beta  nocc = 77  HOMO = -0.109687200930976  LUMO = 0.0597861625538366
cycle= 46 E= -2890.94423951059  delta_E= -5.02e-09  |g|= 5.92e-05  |ddm|= 0.00018
  alpha nocc = 78  HOMO = -0.12175522309208  LUMO = 0.0571161260749622
  beta  nocc = 77  HOMO = -0.109687743613062  LUMO = 0.0597857672808949
cycle= 47 E= -2890.94423948604  delta_E= 2.45e-08  |g|= 5.19e-05  |ddm|= 0.000581
  alpha nocc = 78  HOMO = -0.121755417132577  LUMO = 0.0571151149845441
  beta  nocc = 77  HOMO = -0.109687959610282  LUMO = 0.0597875221021762
cycle= 48 E= -2890.94423945834  delta_E= 2.77e-08  |g|= 4.26e-05  |ddm|= 0.000821
  alpha nocc = 78  HOMO = -0.12175407297513  LUMO = 0.0571154213035482
  beta  nocc = 77  HOMO = -0.109689000682129  LUMO = 0.0597846339504645
cycle= 49 E= -2890.94423946283  delta_E= -4.49e-09  |g|= 3.89e-05  |ddm|= 0.000478
  alpha nocc = 78  HOMO = -0.121752506612101  LUMO = 0.057115810631239
  beta  nocc = 77  HOMO = -0.109687829581165  LUMO = 0.0597823730931061
cycle= 50 E= -2890.94423946849  delta_E= -5.66e-09  |g|= 3.57e-05  |ddm|= 0.000369
SCF not converged.
SCF energy = -2890.94423946849 after 50 cycles  <S^2> = 0.88781495  2S+1 = 2.1333682
shift = 0
thresh = 1e-05 
eri1 (1356, 5886)
eri1 (1356, 5886)
    CPU time for making amplitude: integral transform      1.16 sec, wall time      0.08 sec
shape (1356, 3240)
1st memory: 498.1 MiB
eri1 (1356, 5886)
eri1 (1356, 5886)
2nd memory: 365.6 MiB

========================
iter = 0  energy = -2891.699639 energy diff = 2891.699639
multiplicity <S^2> : Reference = 0.88781495 Response = 0.88783162 Projector = 0.88784829
eri1 (1356, 5886)
eri1 (1356, 5886)
    CPU time for making amplitude: integral transform      1.25 sec, wall time      0.08 sec
shape (1356, 3240)
1st memory: 473.1 MiB
eri1 (1356, 5886)
eri1 (1356, 5886)
2nd memory: 376.0 MiB

========================
iter = 1  energy = -2891.702728 energy diff = 0.003090
multiplicity <S^2> : Reference = 0.82176378 Response = 0.82175808 Projector = 0.82175238
eri1 (1356, 5886)
eri1 (1356, 5886)
    CPU time for making amplitude: integral transform      1.34 sec, wall time      1.32 sec
shape (1356, 3240)
1st memory: 490.1 MiB
eri1 (1356, 5886)
eri1 (1356, 5886)
2nd memory: 378.7 MiB

========================
iter = 2  energy = -2891.709751 energy diff = 0.007022
multiplicity <S^2> : Reference = 0.79709799 Response = 0.7970852 Projector = 0.79707241
eri1 (1356, 5886)
eri1 (1356, 5886)
    CPU time for making amplitude: integral transform      1.36 sec, wall time      0.10 sec
shape (1356, 3240)
1st memory: 476.4 MiB
eri1 (1356, 5886)
eri1 (1356, 5886)
2nd memory: 379.2 MiB

========================
iter = 3  energy = -2891.713184 energy diff = 0.003434
multiplicity <S^2> : Reference = 0.77966882 Response = 0.77965289 Projector = 0.77963696
eri1 (1356, 5886)
eri1 (1356, 5886)
    CPU time for making amplitude: integral transform      1.33 sec, wall time      0.12 sec
shape (1356, 3240)
1st memory: 514.5 MiB
eri1 (1356, 5886)
eri1 (1356, 5886)
2nd memory: 378.7 MiB

========================
iter = 4  energy = -2891.715349 energy diff = 0.002165
multiplicity <S^2> : Reference = 0.76419815 Response = 0.76420018 Projector = 0.76420222
eri1 (1356, 5886)
eri1 (1356, 5886)
    CPU time for making amplitude: integral transform      1.34 sec, wall time      0.11 sec
shape (1356, 3240)
1st memory: 476.1 MiB
eri1 (1356, 5886)
eri1 (1356, 5886)
2nd memory: 375.1 MiB

========================
iter = 5  energy = -2891.715798 energy diff = 0.000449
multiplicity <S^2> : Reference = 0.760197 Response = 0.76021201 Projector = 0.76022702
eri1 (1356, 5886)
eri1 (1356, 5886)
    CPU time for making amplitude: integral transform      1.41 sec, wall time      0.14 sec
shape (1356, 3240)
1st memory: 490.4 MiB
eri1 (1356, 5886)
eri1 (1356, 5886)
2nd memory: 375.1 MiB

========================
iter = 6  energy = -2891.716091 energy diff = 0.000293
multiplicity <S^2> : Reference = 0.7565882 Response = 0.75659189 Projector = 0.75659558
eri1 (1356, 5886)
eri1 (1356, 5886)
    CPU time for making amplitude: integral transform      1.30 sec, wall time      0.10 sec
shape (1356, 3240)
1st memory: 478.4 MiB
eri1 (1356, 5886)
eri1 (1356, 5886)
2nd memory: 380.6 MiB

========================
iter = 7  energy = -2891.716278 energy diff = 0.000187
multiplicity <S^2> : Reference = 0.75469924 Response = 0.75467413 Projector = 0.75464902
eri1 (1356, 5886)
eri1 (1356, 5886)
    CPU time for making amplitude: integral transform      1.29 sec, wall time      0.09 sec
shape (1356, 3240)
1st memory: 489.7 MiB
eri1 (1356, 5886)
eri1 (1356, 5886)
2nd memory: 380.7 MiB

========================
iter = 8  energy = -2891.716377 energy diff = 0.000100
multiplicity <S^2> : Reference = 0.75444036 Response = 0.75443592 Projector = 0.75443148
eri1 (1356, 5886)
eri1 (1356, 5886)
    CPU time for making amplitude: integral transform      0.98 sec, wall time      0.07 sec
shape (1356, 3240)
1st memory: 479.4 MiB
eri1 (1356, 5886)
eri1 (1356, 5886)
2nd memory: 381.9 MiB

========================
iter = 9  energy = -2891.716435 energy diff = 0.000057
multiplicity <S^2> : Reference = 0.75538822 Response = 0.7553844 Projector = 0.75538059
eri1 (1356, 5886)
eri1 (1356, 5886)
    CPU time for making amplitude: integral transform      1.26 sec, wall time      0.08 sec
shape (1356, 3240)
1st memory: 489.5 MiB
eri1 (1356, 5886)
eri1 (1356, 5886)
2nd memory: 380.4 MiB

========================
iter = 10  energy = -2891.716455 energy diff = 0.000020
multiplicity <S^2> : Reference = 0.75716314 Response = 0.75716132 Projector = 0.75715949
eri1 (1356, 5886)
eri1 (1356, 5886)
    CPU time for making amplitude: integral transform      1.18 sec, wall time      0.08 sec
shape (1356, 3240)
1st memory: 478.6 MiB
eri1 (1356, 5886)
eri1 (1356, 5886)
2nd memory: 381.8 MiB

========================
iter = 11  energy = -2891.716458 energy diff = 0.000003
multiplicity <S^2> : Reference = 0.75919299 Response = 0.75918838 Projector = 0.75918376

UOB-MP2 has converged
UOB-MP2 energy =  -2891.7164578657816
shift = 0
thresh = 1e-05 
eri1 (1356, 5886)
eri1 (1356, 5886)
    CPU time for making amplitude: integral transform      1.10 sec, wall time      0.07 sec
shape (1356, 3240)
1st memory: 476.8 MiB
eri1 (1356, 5886)
eri1 (1356, 5886)
2nd memory: 378.0 MiB

========================
iter = 0  energy = -2891.446285 energy diff = 2891.446285
multiplicity <S^2> : Reference = 0.88781495 Response = 0.88783162 Projector = 0.88784829
eri1 (1356, 5886)
eri1 (1356, 5886)
    CPU time for making amplitude: integral transform      1.37 sec, wall time      0.11 sec
shape (1356, 3240)
1st memory: 491.0 MiB
eri1 (1356, 5886)
eri1 (1356, 5886)
2nd memory: 378.6 MiB

========================
iter = 1  energy = -2891.473486 energy diff = 0.027201
multiplicity <S^2> : Reference = 0.82867008 Response = 0.82860235 Projector = 0.82853462
eri1 (1356, 5886)
eri1 (1356, 5886)
    CPU time for making amplitude: integral transform      1.29 sec, wall time      0.10 sec
shape (1356, 3240)
1st memory: 479.0 MiB
eri1 (1356, 5886)
eri1 (1356, 5886)
2nd memory: 377.4 MiB

========================
iter = 2  energy = -2891.477467 energy diff = 0.003981
multiplicity <S^2> : Reference = 0.80279233 Response = 0.80277484 Projector = 0.80275735
eri1 (1356, 5886)
eri1 (1356, 5886)
    CPU time for making amplitude: integral transform      1.43 sec, wall time      0.11 sec
shape (1356, 3240)
1st memory: 490.3 MiB
eri1 (1356, 5886)
eri1 (1356, 5886)
2nd memory: 381.1 MiB

========================
iter = 3  energy = -2891.479060 energy diff = 0.001593
multiplicity <S^2> : Reference = 0.78527071 Response = 0.7852733 Projector = 0.7852759
eri1 (1356, 5886)
eri1 (1356, 5886)
    CPU time for making amplitude: integral transform      1.26 sec, wall time      0.08 sec
shape (1356, 3240)
1st memory: 480.1 MiB
eri1 (1356, 5886)
eri1 (1356, 5886)
2nd memory: 384.9 MiB

========================
iter = 4  energy = -2891.480421 energy diff = 0.001361
multiplicity <S^2> : Reference = 0.76718206 Response = 0.76717851 Projector = 0.76717496
eri1 (1356, 5886)
eri1 (1356, 5886)
    CPU time for making amplitude: integral transform      1.19 sec, wall time      0.08 sec
shape (1356, 3240)
1st memory: 494.5 MiB
eri1 (1356, 5886)
eri1 (1356, 5886)
2nd memory: 385.2 MiB

========================
iter = 5  energy = -2891.480697 energy diff = 0.000276
multiplicity <S^2> : Reference = 0.76267529 Response = 0.7626697 Projector = 0.76266411
eri1 (1356, 5886)
eri1 (1356, 5886)
    CPU time for making amplitude: integral transform      1.05 sec, wall time      0.07 sec
shape (1356, 3240)
1st memory: 483.1 MiB
eri1 (1356, 5886)
eri1 (1356, 5886)
2nd memory: 386.4 MiB

========================
iter = 6  energy = -2891.480843 energy diff = 0.000146
multiplicity <S^2> : Reference = 0.76089807 Response = 0.7609083 Projector = 0.76091853
eri1 (1356, 5886)
eri1 (1356, 5886)
    CPU time for making amplitude: integral transform      1.32 sec, wall time      0.09 sec
shape (1356, 3240)
1st memory: 496.1 MiB
eri1 (1356, 5886)
eri1 (1356, 5886)
2nd memory: 387.3 MiB

========================
iter = 7  energy = -2891.480948 energy diff = 0.000105
multiplicity <S^2> : Reference = 0.76067029 Response = 0.76067568 Projector = 0.76068107
eri1 (1356, 5886)
eri1 (1356, 5886)
    CPU time for making amplitude: integral transform      1.19 sec, wall time      0.08 sec
shape (1356, 3240)
1st memory: 485.6 MiB
eri1 (1356, 5886)
eri1 (1356, 5886)
2nd memory: 389.3 MiB

========================
iter = 8  energy = -2891.481048 energy diff = 0.000100
multiplicity <S^2> : Reference = 0.76234585 Response = 0.76233489 Projector = 0.76232393
eri1 (1356, 5886)
eri1 (1356, 5886)
    CPU time for making amplitude: integral transform      1.37 sec, wall time      0.10 sec
shape (1356, 3240)
1st memory: 498.7 MiB
eri1 (1356, 5886)
eri1 (1356, 5886)
2nd memory: 389.3 MiB

========================
iter = 9  energy = -2891.481108 energy diff = 0.000060
multiplicity <S^2> : Reference = 0.76551855 Response = 0.76552444 Projector = 0.76553033
eri1 (1356, 5886)
eri1 (1356, 5886)
    CPU time for making amplitude: integral transform      1.06 sec, wall time      0.07 sec
shape (1356, 3240)
1st memory: 488.7 MiB
eri1 (1356, 5886)
eri1 (1356, 5886)
2nd memory: 390.6 MiB

========================
iter = 10  energy = -2891.481146 energy diff = 0.000038
multiplicity <S^2> : Reference = 0.7703535 Response = 0.77036341 Projector = 0.77037331
eri1 (1356, 5886)
eri1 (1356, 5886)
    CPU time for making amplitude: integral transform      1.14 sec, wall time      0.08 sec
shape (1356, 3240)
1st memory: 502.0 MiB
eri1 (1356, 5886)
eri1 (1356, 5886)
2nd memory: 392.0 MiB

========================
iter = 11  energy = -2891.481159 energy diff = 0.000013
multiplicity <S^2> : Reference = 0.77490758 Response = 0.77491559 Projector = 0.77492361
eri1 (1356, 5886)
eri1 (1356, 5886)
    CPU time for making amplitude: integral transform      1.01 sec, wall time      0.07 sec
shape (1356, 3240)
1st memory: 491.8 MiB
eri1 (1356, 5886)
eri1 (1356, 5886)
2nd memory: 393.1 MiB

========================
iter = 12  energy = -2891.481160 energy diff = 0.000001
multiplicity <S^2> : Reference = 0.77849706 Response = 0.77850545 Projector = 0.77851383

UOB-MP2 has converged
UOB-MP2 energy =  -2891.4811597388393


******** <class 'pyscf.scf.uhf.UHF'> ********
method = UHF
initial guess = minao
damping factor = 0
level_shift factor = 0
DIIS = <class 'pyscf.scf.diis.CDIIS'>
diis_start_cycle = 1
diis_space = 8
SCF conv_tol = 1e-09
SCF conv_tol_grad = None
SCF max_cycles = 50
direct_scf = True
direct_scf_tol = 1e-13
chkfile to save SCF result = /home/ltkoanh/Al_B2LYP_6311_Gd_Cluster/Cluster/Al12-cation-doublet-2/tmptzq3byak
max_memory 4000 MB (current use 233 MB)
number electrons alpha = 78  beta = 77
Set gradient conv threshold to 3.16228e-05
init E= -2892.71325079808
  alpha nocc = 78  HOMO = -0.225270786464822  LUMO = -0.206916678936703
  beta  nocc = 77  HOMO = -0.263794483226687  LUMO = -0.225270786464822

WARN: system HOMO -0.225270786464822 >= system LUMO -0.225270786464822

cycle= 1 E= -2890.86297109572  delta_E= 1.85  |g|= 0.282  |ddm|= 3.77
  alpha nocc = 78  HOMO = -0.0673189831965831  LUMO = 0.0767891976520031
  beta  nocc = 77  HOMO = -0.0636245826438797  LUMO = 0.0743845843290425
cycle= 2 E= -2890.90807370468  delta_E= -0.0451  |g|= 0.199  |ddm|= 0.845
  alpha nocc = 78  HOMO = -0.121506301065781  LUMO = 0.0570778393958637
  beta  nocc = 77  HOMO = -0.108795864046466  LUMO = 0.0541417320402316
cycle= 3 E= -2890.9422926613  delta_E= -0.0342  |g|= 0.0308  |ddm|= 0.347
  alpha nocc = 78  HOMO = -0.121090005591337  LUMO = 0.0584834416662653
  beta  nocc = 77  HOMO = -0.107674998478026  LUMO = 0.0542353039228407
cycle= 4 E= -2890.94525286356  delta_E= -0.00296  |g|= 0.022  |ddm|= 0.147
  alpha nocc = 78  HOMO = -0.121458968734754  LUMO = 0.0573088709670073
  beta  nocc = 77  HOMO = -0.109755137503776  LUMO = 0.0561056424498925
cycle= 5 E= -2890.94643080525  delta_E= -0.00118  |g|= 0.0137  |ddm|= 0.0914
  alpha nocc = 78  HOMO = -0.12096035592111  LUMO = 0.0580908456743118
  beta  nocc = 77  HOMO = -0.10878841711499  LUMO = 0.0580990226921478
cycle= 6 E= -2890.94721745595  delta_E= -0.000787  |g|= 0.00859  |ddm|= 0.0745
  alpha nocc = 78  HOMO = -0.120543859346141  LUMO = 0.0582949212168776
  beta  nocc = 77  HOMO = -0.108894371972212  LUMO = 0.0587593277028042
cycle= 7 E= -2890.94776694013  delta_E= -0.000549  |g|= 0.00811  |ddm|= 0.0634
  alpha nocc = 78  HOMO = -0.120539750537291  LUMO = 0.0584882671112018
  beta  nocc = 77  HOMO = -0.108868956217554  LUMO = 0.0592973759578738
cycle= 8 E= -2890.94813784947  delta_E= -0.000371  |g|= 0.00843  |ddm|= 0.0415
  alpha nocc = 78  HOMO = -0.120023943023872  LUMO = 0.0587421564632422
  beta  nocc = 77  HOMO = -0.109098387937003  LUMO = 0.0585122547660316
cycle= 9 E= -2890.94700588339  delta_E= 0.00113  |g|= 0.00619  |ddm|= 0.16
  alpha nocc = 78  HOMO = -0.1202077062896  LUMO = 0.0582185011308272
  beta  nocc = 77  HOMO = -0.109490289242544  LUMO = 0.0584403722571284
cycle= 10 E= -2890.94668449088  delta_E= 0.000321  |g|= 0.00416  |ddm|= 0.124
  alpha nocc = 78  HOMO = -0.120436809330141  LUMO = 0.0574039147755822
  beta  nocc = 77  HOMO = -0.109786549683952  LUMO = 0.0586294250363198
cycle= 11 E= -2890.94673038546  delta_E= -4.59e-05  |g|= 0.00313  |ddm|= 0.0584
  alpha nocc = 78  HOMO = -0.12037446751166  LUMO = 0.0574441768478901
  beta  nocc = 77  HOMO = -0.109651666035448  LUMO = 0.0589511690661681
cycle= 12 E= -2890.94678367266  delta_E= -5.33e-05  |g|= 0.00258  |ddm|= 0.0282
  alpha nocc = 78  HOMO = -0.120838784570875  LUMO = 0.0572869892541128
  beta  nocc = 77  HOMO = -0.109729013758695  LUMO = 0.0591479699462717
cycle= 13 E= -2890.94685123518  delta_E= -6.76e-05  |g|= 0.00198  |ddm|= 0.0327
  alpha nocc = 78  HOMO = -0.121116109317307  LUMO = 0.0574187870794483
  beta  nocc = 77  HOMO = -0.109765017966389  LUMO = 0.0593425083493815
cycle= 14 E= -2890.94690369088  delta_E= -5.25e-05  |g|= 0.00152  |ddm|= 0.0318
  alpha nocc = 78  HOMO = -0.121196909443438  LUMO = 0.0575986098323401
  beta  nocc = 77  HOMO = -0.109710554899434  LUMO = 0.0595782628039021
cycle= 15 E= -2890.94693897709  delta_E= -3.53e-05  |g|= 0.00116  |ddm|= 0.0292
  alpha nocc = 78  HOMO = -0.121416527169046  LUMO = 0.0573094491370656
  beta  nocc = 77  HOMO = -0.109741483074019  LUMO = 0.0597119295472844
cycle= 16 E= -2890.94695346044  delta_E= -1.45e-05  |g|= 0.000968  |ddm|= 0.0164
  alpha nocc = 78  HOMO = -0.121499868387052  LUMO = 0.0573100962239428
  beta  nocc = 77  HOMO = -0.109816075808366  LUMO = 0.059718099067086
cycle= 17 E= -2890.94696403525  delta_E= -1.06e-05  |g|= 0.000803  |ddm|= 0.0131
  alpha nocc = 78  HOMO = -0.121609716595852  LUMO = 0.0572426964880845
  beta  nocc = 77  HOMO = -0.109809722887003  LUMO = 0.0597702603560828
cycle= 18 E= -2890.94697425831  delta_E= -1.02e-05  |g|= 0.000609  |ddm|= 0.0164
  alpha nocc = 78  HOMO = -0.121736012623846  LUMO = 0.0571769702587024
  beta  nocc = 77  HOMO = -0.109848283422251  LUMO = 0.0598027706040347
cycle= 19 E= -2890.94698110029  delta_E= -6.84e-06  |g|= 0.000479  |ddm|= 0.0142
  alpha nocc = 78  HOMO = -0.121792668895857  LUMO = 0.0571369539794192
  beta  nocc = 77  HOMO = -0.109854382380378  LUMO = 0.0597757026152478
cycle= 20 E= -2890.94698412129  delta_E= -3.02e-06  |g|= 0.000468  |ddm|= 0.00669
  alpha nocc = 78  HOMO = -0.121786039769943  LUMO = 0.0571331885362267
  beta  nocc = 77  HOMO = -0.109851727854961  LUMO = 0.0597697671908633
cycle= 21 E= -2890.94698454549  delta_E= -4.24e-07  |g|= 0.000477  |ddm|= 0.00105
  alpha nocc = 78  HOMO = -0.121807110018987  LUMO = 0.0571311421442995
  beta  nocc = 77  HOMO = -0.10986185712573  LUMO = 0.059784775178419
cycle= 22 E= -2890.94698363513  delta_E= 9.1e-07  |g|= 0.000442  |ddm|= 0.00354
  alpha nocc = 78  HOMO = -0.121829752099228  LUMO = 0.0571310964303605
  beta  nocc = 77  HOMO = -0.109859046304104  LUMO = 0.0597954023720884
cycle= 23 E= -2890.94698333729  delta_E= 2.98e-07  |g|= 0.000415  |ddm|= 0.00431
  alpha nocc = 78  HOMO = -0.121840994553941  LUMO = 0.0571164819990229
  beta  nocc = 77  HOMO = -0.109853093528531  LUMO = 0.0597930428316819
cycle= 24 E= -2890.94698410071  delta_E= -7.63e-07  |g|= 0.000387  |ddm|= 0.00432
  alpha nocc = 78  HOMO = -0.121826995619105  LUMO = 0.0571087930700488
  beta  nocc = 77  HOMO = -0.109850922791291  LUMO = 0.0597797408586057
cycle= 25 E= -2890.94698454607  delta_E= -4.45e-07  |g|= 0.000391  |ddm|= 0.00189
  alpha nocc = 78  HOMO = -0.121846056651564  LUMO = 0.0570999981109988
  beta  nocc = 77  HOMO = -0.109856881531231  LUMO = 0.0597890357334491
cycle= 26 E= -2890.9469839747  delta_E= 5.71e-07  |g|= 0.000371  |ddm|= 0.00286
  alpha nocc = 78  HOMO = -0.121863789410601  LUMO = 0.0570947625103191
  beta  nocc = 77  HOMO = -0.109849783280527  LUMO = 0.0598077032800826
cycle= 27 E= -2890.94698348898  delta_E= 4.86e-07  |g|= 0.000364  |ddm|= 0.00311
  alpha nocc = 78  HOMO = -0.121877208376102  LUMO = 0.0570778956263576
  beta  nocc = 77  HOMO = -0.109841942043508  LUMO = 0.0598348773048154
cycle= 28 E= -2890.94698303689  delta_E= 4.52e-07  |g|= 0.000305  |ddm|= 0.00394
  alpha nocc = 78  HOMO = -0.121883385565073  LUMO = 0.057032153945806
  beta  nocc = 77  HOMO = -0.109830554167596  LUMO = 0.0598181420873149
cycle= 29 E= -2890.94698323988  delta_E= -2.03e-07  |g|= 0.00025  |ddm|= 0.00473
  alpha nocc = 78  HOMO = -0.121862798690027  LUMO = 0.0570058380554254
  beta  nocc = 77  HOMO = -0.109807586903295  LUMO = 0.0598290826623608
cycle= 30 E= -2890.94698330017  delta_E= -6.03e-08  |g|= 0.000196  |ddm|= 0.00435
  alpha nocc = 78  HOMO = -0.1218598285285  LUMO = 0.057003209244616
  beta  nocc = 77  HOMO = -0.109806981703219  LUMO = 0.0598254822361982
cycle= 31 E= -2890.94698342363  delta_E= -1.23e-07  |g|= 0.000192  |ddm|= 0.00155
  alpha nocc = 78  HOMO = -0.12185998516493  LUMO = 0.0570040961366907
  beta  nocc = 77  HOMO = -0.109804034711476  LUMO = 0.0598229171503944
cycle= 32 E= -2890.94698350418  delta_E= -8.05e-08  |g|= 0.000189  |ddm|= 0.000736
  alpha nocc = 78  HOMO = -0.121860874819074  LUMO = 0.0570039933125392
  beta  nocc = 77  HOMO = -0.109806228045057  LUMO = 0.0598233332580451
cycle= 33 E= -2890.9469835743  delta_E= -7.01e-08  |g|= 0.000193  |ddm|= 0.00052
  alpha nocc = 78  HOMO = -0.121855038497206  LUMO = 0.0570008033257735
  beta  nocc = 77  HOMO = -0.109807553131956  LUMO = 0.0598177567390195
cycle= 34 E= -2890.94698350551  delta_E= 6.88e-08  |g|= 0.000184  |ddm|= 0.00106
  alpha nocc = 78  HOMO = -0.121835724680942  LUMO = 0.0570075268961249
  beta  nocc = 77  HOMO = -0.109800820516595  LUMO = 0.0598087707253795
cycle= 35 E= -2890.94698350951  delta_E= -4e-09  |g|= 0.00017  |ddm|= 0.00267
  alpha nocc = 78  HOMO = -0.121836444969223  LUMO = 0.0570102068316624
  beta  nocc = 77  HOMO = -0.109801901565703  LUMO = 0.0598060689486513
cycle= 36 E= -2890.94698357305  delta_E= -6.35e-08  |g|= 0.000169  |ddm|= 0.000525
  alpha nocc = 78  HOMO = -0.121837908176092  LUMO = 0.0570093831248455
  beta  nocc = 77  HOMO = -0.109801007470714  LUMO = 0.0598074686049499
cycle= 37 E= -2890.94698356312  delta_E= 9.93e-09  |g|= 0.000169  |ddm|= 0.000257
  alpha nocc = 78  HOMO = -0.121838920311977  LUMO = 0.0570125145179339
  beta  nocc = 77  HOMO = -0.109802810097794  LUMO = 0.0598085159280064
cycle= 38 E= -2890.94698361102  delta_E= -4.79e-08  |g|= 0.000173  |ddm|= 0.00048
  alpha nocc = 78  HOMO = -0.121835752758644  LUMO = 0.0570083007465526
  beta  nocc = 77  HOMO = -0.109798992198885  LUMO = 0.0598111438728728
cycle= 39 E= -2890.94698352972  delta_E= 8.13e-08  |g|= 0.000166  |ddm|= 0.000912
  alpha nocc = 78  HOMO = -0.121821789301785  LUMO = 0.0570153467168307
  beta  nocc = 77  HOMO = -0.109790733989502  LUMO = 0.0598103784256627
cycle= 40 E= -2890.94698343423  delta_E= 9.55e-08  |g|= 0.000148  |ddm|= 0.00221
  alpha nocc = 78  HOMO = -0.121818726934302  LUMO = 0.0570232571432136
  beta  nocc = 77  HOMO = -0.109790014509267  LUMO = 0.0598028397446746
cycle= 41 E= -2890.9469834242  delta_E= 1e-08  |g|= 0.000131  |ddm|= 0.00199
  alpha nocc = 78  HOMO = -0.12181789272808  LUMO = 0.0570260153024572
  beta  nocc = 77  HOMO = -0.109792440325674  LUMO = 0.0598036491168853
cycle= 42 E= -2890.94698344139  delta_E= -1.72e-08  |g|= 0.000125  |ddm|= 0.00115
  alpha nocc = 78  HOMO = -0.121818345057299  LUMO = 0.0570276184090516
  beta  nocc = 77  HOMO = -0.109790893220808  LUMO = 0.0598049597979294
cycle= 43 E= -2890.94698346408  delta_E= -2.27e-08  |g|= 0.000126  |ddm|= 0.000327
  alpha nocc = 78  HOMO = -0.121813244227183  LUMO = 0.0570296151994727
  beta  nocc = 77  HOMO = -0.109788876754577  LUMO = 0.059803113200395
cycle= 44 E= -2890.94698343082  delta_E= 3.33e-08  |g|= 0.000123  |ddm|= 0.000726
  alpha nocc = 78  HOMO = -0.121815363932624  LUMO = 0.0570303131551573
  beta  nocc = 77  HOMO = -0.109788662466104  LUMO = 0.0598015648361807
cycle= 45 E= -2890.94698345031  delta_E= -1.95e-08  |g|= 0.000126  |ddm|= 0.000464
  alpha nocc = 78  HOMO = -0.121807395028926  LUMO = 0.0570296396825528
  beta  nocc = 77  HOMO = -0.109790079251584  LUMO = 0.0598037756452315
cycle= 46 E= -2890.94698339045  delta_E= 5.99e-08  |g|= 0.000118  |ddm|= 0.00122
  alpha nocc = 78  HOMO = -0.12180432273279  LUMO = 0.0570358038259721
  beta  nocc = 77  HOMO = -0.10979132220586  LUMO = 0.0598047247888895
cycle= 47 E= -2890.94698334967  delta_E= 4.08e-08  |g|= 0.000115  |ddm|= 0.00156
  alpha nocc = 78  HOMO = -0.121800089339571  LUMO = 0.0570421133792723
  beta  nocc = 77  HOMO = -0.109796042853416  LUMO = 0.059801521708595
cycle= 48 E= -2890.94698328109  delta_E= 6.86e-08  |g|= 0.000107  |ddm|= 0.00173
  alpha nocc = 78  HOMO = -0.121799726401427  LUMO = 0.0570425503813972
  beta  nocc = 77  HOMO = -0.109796203609076  LUMO = 0.0598014611550725
cycle= 49 E= -2890.94698328287  delta_E= -1.78e-09  |g|= 0.000107  |ddm|= 8.93e-05
  alpha nocc = 78  HOMO = -0.121795930481247  LUMO = 0.0570424174767142
  beta  nocc = 77  HOMO = -0.109793773710696  LUMO = 0.0598026671213576
cycle= 50 E= -2890.94698325982  delta_E= 2.31e-08  |g|= 0.000105  |ddm|= 0.000478
SCF not converged.
SCF energy = -2890.94698325982 after 50 cycles  <S^2> = 0.88644309  2S+1 = 2.1320817
