#INFO: **** input file is /home/ltkoanh/Al_B2LYP_6311_Gd_Cluster/Cluster/Al12-cation-doublet-2/input.py ****
import numpy
from pyscf import gto, scf, dft, mp, cc
from pyscf.mp import uobmp2_mom_conv, dfuobmp2_mom_conv, uhf_mom
from pyscf.mp import  mp2, ump2
from pyscf.tools import molden
import os
from functools import reduce


mol = gto.Mole()
geom = os.environ.get('geom_txt')
mol.atom = geom
mol.basis = os.environ.get('basis', 'cc-pvdz')
mol.unit = 'A'
mol.charge = int(os.environ.get('charge', 0))
mol.spin = int(os.environ.get('spin', 0))
mol.verbose = 4
mol.build()

#################### Ground state using density fitting
### Hartree-Fock
a  = scf.UHF(mol).density_fit()
a.kernel()

### Ground state OBMP2 calculation
ob = dfuobmp2_mom_conv.DFUOBMP2(a)
ob.second_order = True
ob.thresh = 10e-6
ob.css = 1
ob.cos = 1
e_obmp2g = ob.kernel()

### Ground state O2BMP2 calculation
ob = dfuobmp2_mom_conv.DFUOBMP2(a)
ob.second_order = True
ob.thresh = 10e-6
ob.css = 0                             
ob.cos = 1.2                             
e_o2bmp2g = ob.kernel()  

#################### Ground state NOT using density fitting
### Hartree-Fock
a  = scf.UHF(mol)
a.kernel()

### Ground state OBMP2 calculation
ob = uobmp2_mom_conv.UOBMP2(a)
ob.second_order = True
ob.thresh = 10e-6
ob.css = 1
ob.cos = 1
#e_obmp2g = ob.kernel()

### Ground state O2BMP2 calculation
ob = uobmp2_mom_conv.UOBMP2(a)
ob.second_order = True
ob.thresh = 10e-6
ob.css = 0
ob.cos = 1.2   ## the cos can be vary ...                        	 
#e_o2bmp2g = ob.kernel()


## Results from density-fitting approximate with non-using density fitting 
## check results between df and non-df with small molecules before running the important molecules
#INFO: ******************** input file end ********************


System: uname_result(system='Linux', node='comphys', release='3.10.0-1160.119.1.el7.x86_64', version='#1 SMP Tue Jun 4 14:43:51 UTC 2024', machine='x86_64', processor='x86_64')  Threads 8
Python 3.7.9 (default, Dec  4 2023, 13:00:18) 
[GCC 4.8.5 20150623 (Red Hat 4.8.5-44)]
numpy 1.21.6  scipy 1.7.3
Date: Mon May 19 18:06:29 2025
PySCF version 1.7.0
PySCF path  /share/installs/pyscf/pyscf
GIT HEAD      ref: refs/heads/ob-mp2
GIT ob-mp2 branch  f0fc63383ab6c719c0c91f5e07a6895c637b700d

[CONFIG] conf_file None
[INPUT] verbose = 4
[INPUT] num. atoms = 12
[INPUT] num. electrons = 77
[INPUT] charge = 1
[INPUT] spin (= nelec alpha-beta = 2S) = 1
[INPUT] symmetry False subgroup None
[INPUT] Mole.unit = A
[INPUT]  1 H      1.545759000000  -0.323100000000   2.326574000000 AA    2.921061164582  -0.610570510847   4.396587668534 Bohr
[INPUT]  2 He    -0.000174000000   1.802003000000   2.344070000000 AA   -0.000328812346   3.405292145645   4.429650316809 Bohr
[INPUT]  3 Li    -1.545897000000  -0.323098000000   2.326839000000 AA   -2.921321946787  -0.610566731395   4.397088445957 Bohr
[INPUT]  4 Be    -0.000174000000  -2.222976000000   1.274574000000 AA   -0.000328812346  -4.200815821481   2.408595785491 Bohr
[INPUT]  5 B     -0.000174000000   1.802003000000  -2.344070000000 AA   -0.000328812346   3.405292145645  -4.429650316809 Bohr
[INPUT]  6 C     -0.000055000000   2.899144000000   0.000000000000 AA   -0.000103934937   5.478588155676   0.000000000000 Bohr
[INPUT]  7 N     -2.682108000000  -0.499886000000   0.000000000000 AA   -5.068449556505  -0.944647633504   0.000000000000 Bohr
[INPUT]  8 O     -1.545897000000  -0.323098000000  -2.326839000000 AA   -2.921321946787  -0.610566731395  -4.397088445957 Bohr
[INPUT]  9 F      2.683028000000  -0.498220000000   0.000000000000 AA    5.070188104540  -0.941499349781   0.000000000000 Bohr
[INPUT] 10 Ne     1.545759000000  -0.323100000000  -2.326574000000 AA    2.921061164582  -0.610570510847  -4.396587668534 Bohr
[INPUT] 11 Na    -0.000174000000  -2.222976000000  -1.274574000000 AA   -0.000328812346  -4.200815821481  -2.408595785491 Bohr
[INPUT] 12 Mg     0.000106000000   0.233306000000   0.000000000000 AA    0.000200310969   0.440884443218   0.000000000000 Bohr

nuclear repulsion = 434.006471391236
number of shells = 36
number of NR pGTOs = 360
number of NR cGTOs = 60
basis = sto-6g
ecp = {}
CPU time:         1.43


******** <class 'pyscf.df.df_jk.density_fit.<locals>.DFHF'> ********
method = DFHF-UHF
initial guess = minao
damping factor = 0
level_shift factor = 0
DIIS = <class 'pyscf.scf.diis.CDIIS'>
diis_start_cycle = 1
diis_space = 8
SCF conv_tol = 1e-09
SCF conv_tol_grad = None
SCF max_cycles = 50
direct_scf = True
direct_scf_tol = 1e-13
chkfile to save SCF result = /home/ltkoanh/Al_B2LYP_6311_Gd_Cluster/Cluster/Al12-cation-doublet-2/tmprpu1scob
max_memory 4000 MB (current use 60 MB)
number electrons alpha = 39  beta = 38
Set gradient conv threshold to 3.16228e-05
******** <class 'pyscf.df.df.DF'> ********
auxbasis = None
max_memory = 4000
_cderi_to_save = /home/ltkoanh/Al_B2LYP_6311_Gd_Cluster/Cluster/Al12-cation-doublet-2/tmp_w4ra073
Even tempered Gaussians are generated as DF auxbasis for  C Ne O Mg N He Be F Na Li B H
init E= -798.542993439047
  alpha nocc = 39  HOMO = -0.270251415917028  LUMO = -0.241300897332369
  beta  nocc = 38  HOMO = -0.290461901757808  LUMO = -0.270251415917027

WARN: system HOMO -0.270251415917027 >= system LUMO -0.270251415917027

cycle= 1 E= -797.990092440061  delta_E= 0.553  |g|= 0.844  |ddm|= 2.46

WARN: alpha nocc = 39  HOMO -0.0342169504619678 >= LUMO -0.0333115727074131

  beta  nocc = 38  HOMO = -0.0792795324987442  LUMO = -0.0321326566856222
cycle= 2 E= -774.621502408002  delta_E= 23.4  |g|= 2.65  |ddm|= 5.59
  alpha nocc = 39  HOMO = -0.192786022282385  LUMO = -0.0543199502458626
  beta  nocc = 38  HOMO = -0.176737765266347  LUMO = -0.0388660595233641
cycle= 3 E= -790.188631839061  delta_E= -15.6  |g|= 1.46  |ddm|= 3.93
  alpha nocc = 39  HOMO = -0.181394489007366  LUMO = -0.177652514521215
  beta  nocc = 38  HOMO = -0.175583153677697  LUMO = -0.169208120966401
cycle= 4 E= -799.076778503267  delta_E= -8.89  |g|= 0.612  |ddm|= 3.71
  alpha nocc = 39  HOMO = -0.181602870333342  LUMO = -0.171246947691709
  beta  nocc = 38  HOMO = -0.180647438337533  LUMO = -0.174607795938168
cycle= 5 E= -799.56823996669  delta_E= -0.491  |g|= 1.14  |ddm|=  2.4
  alpha nocc = 39  HOMO = -0.170957711881389  LUMO = -0.123961451838903
  beta  nocc = 38  HOMO = -0.179917400640141  LUMO = -0.114830142650759
cycle= 6 E= -798.216723799358  delta_E= 1.35  |g|= 1.58  |ddm|= 1.01
  alpha nocc = 39  HOMO = -0.16884572939033  LUMO = -0.123655967033164
  beta  nocc = 38  HOMO = -0.173609791854123  LUMO = -0.127710048868267
cycle= 7 E= -799.200831270897  delta_E= -0.984  |g|= 1.35  |ddm|= 0.774
  alpha nocc = 39  HOMO = -0.165040267781512  LUMO = -0.115768186149311
  beta  nocc = 38  HOMO = -0.166811805203259  LUMO = -0.120443587136196
cycle= 8 E= -799.025292555679  delta_E= 0.176  |g|= 1.42  |ddm|= 0.206
  alpha nocc = 39  HOMO = -0.156150182710793  LUMO = -0.0846507883053866
  beta  nocc = 38  HOMO = -0.178752048770254  LUMO = -0.0697624409697859
cycle= 9 E= -800.028167292435  delta_E=   -1  |g|= 0.74  |ddm|= 1.06
  alpha nocc = 39  HOMO = -0.235564597407226  LUMO = -0.0647192594485359
  beta  nocc = 38  HOMO = -0.229079914283893  LUMO = -0.0646158653430085
cycle= 10 E= -800.418218021752  delta_E= -0.39  |g|= 0.306  |ddm|= 0.646
  alpha nocc = 39  HOMO = -0.24237530022784  LUMO = -0.0428353573463214
  beta  nocc = 38  HOMO = -0.23197712938717  LUMO = -0.0369703557663261
cycle= 11 E= -800.532973695317  delta_E= -0.115  |g|= 0.182  |ddm|= 0.518
  alpha nocc = 39  HOMO = -0.252741776091079  LUMO = -0.0394858987305437
  beta  nocc = 38  HOMO = -0.233695462592613  LUMO = -0.0311894775765267
cycle= 12 E= -800.597661703271  delta_E= -0.0647  |g|= 0.118  |ddm|= 0.408
  alpha nocc = 39  HOMO = -0.273654885148416  LUMO = -0.0339492162877835
  beta  nocc = 38  HOMO = -0.249747680573382  LUMO = -0.0292808826146356
cycle= 13 E= -800.654646807174  delta_E= -0.057  |g|= 0.0815  |ddm|= 0.486
  alpha nocc = 39  HOMO = -0.296271179774548  LUMO = -0.0404617693593221
  beta  nocc = 38  HOMO = -0.248601956123822  LUMO = -0.0208120202779262
cycle= 14 E= -800.681531256608  delta_E= -0.0269  |g|= 0.0829  |ddm|= 0.273
  alpha nocc = 39  HOMO = -0.295950599232446  LUMO = -0.0396662244267403
  beta  nocc = 38  HOMO = -0.249590156456795  LUMO = -0.0205402718695796
cycle= 15 E= -800.681365015067  delta_E= 0.000166  |g|= 0.0822  |ddm|= 0.0257
  alpha nocc = 39  HOMO = -0.289730906233276  LUMO = -0.0404747006012593
  beta  nocc = 38  HOMO = -0.246470084232492  LUMO = -0.0213067719459315
cycle= 16 E= -800.679896226184  delta_E= 0.00147  |g|= 0.0817  |ddm|= 0.0374
  alpha nocc = 39  HOMO = -0.294110845987708  LUMO = -0.0404773088428761
  beta  nocc = 38  HOMO = -0.248576630551593  LUMO = -0.0202311872297267
cycle= 17 E= -800.684969754197  delta_E= -0.00507  |g|= 0.0822  |ddm|= 0.057
  alpha nocc = 39  HOMO = -0.299121500888574  LUMO = -0.0434361630846224
  beta  nocc = 38  HOMO = -0.250167300219702  LUMO = -0.0186203243237327
cycle= 18 E= -800.697531758696  delta_E= -0.0126  |g|= 0.0836  |ddm|= 0.144
  alpha nocc = 39  HOMO = -0.276017566620548  LUMO = -0.0297401774703133
  beta  nocc = 38  HOMO = -0.246870678559644  LUMO = -0.0258921886197072
cycle= 19 E= -800.657412092722  delta_E= 0.0401  |g|= 0.0698  |ddm|= 0.507
  alpha nocc = 39  HOMO = -0.266974056898981  LUMO = -0.0190030289211583
  beta  nocc = 38  HOMO = -0.252213936018336  LUMO = -0.0285477653996595
cycle= 20 E= -800.657689545729  delta_E= -0.000277  |g|= 0.0676  |ddm|= 0.36
  alpha nocc = 39  HOMO = -0.279716296471576  LUMO = -0.021928472175817
  beta  nocc = 38  HOMO = -0.260820660583266  LUMO = -0.0277643846517277
cycle= 21 E= -800.675861414054  delta_E= -0.0182  |g|= 0.0663  |ddm|= 0.24
  alpha nocc = 39  HOMO = -0.286817956622289  LUMO = -0.01251543554907
  beta  nocc = 38  HOMO = -0.258574078356094  LUMO = -0.0275771232516953
cycle= 22 E= -800.686261198859  delta_E= -0.0104  |g|= 0.0741  |ddm|= 0.185
  alpha nocc = 39  HOMO = -0.286298591879084  LUMO = -0.0129979679758834
  beta  nocc = 38  HOMO = -0.261217506854405  LUMO = -0.0269831095745651
cycle= 23 E= -800.679772674917  delta_E= 0.00649  |g|= 0.0624  |ddm|= 0.171
  alpha nocc = 39  HOMO = -0.288741791041529  LUMO = -0.0211784265975179
  beta  nocc = 38  HOMO = -0.266503062567712  LUMO = -0.0236788180752994
cycle= 24 E= -800.679594760553  delta_E= 0.000178  |g|= 0.0457  |ddm|= 0.313
  alpha nocc = 39  HOMO = -0.284096771078656  LUMO = -0.0201447139826765
  beta  nocc = 38  HOMO = -0.27124318641299  LUMO = -0.0263949328310432
cycle= 25 E= -800.688258259115  delta_E= -0.00866  |g|= 0.0377  |ddm|= 0.238
  alpha nocc = 39  HOMO = -0.298503978947744  LUMO = -0.0200590843422014
  beta  nocc = 38  HOMO = -0.268155315483463  LUMO = -0.0293282687021847
cycle= 26 E= -800.700522186596  delta_E= -0.0123  |g|= 0.0355  |ddm|= 0.285
  alpha nocc = 39  HOMO = -0.307155983706789  LUMO = -0.0197806624493235
  beta  nocc = 38  HOMO = -0.264481462160689  LUMO = -0.0281756698327216
cycle= 27 E= -800.704837431594  delta_E= -0.00432  |g|= 0.0378  |ddm|= 0.11
  alpha nocc = 39  HOMO = -0.292563358972045  LUMO = -0.0191399807855725
  beta  nocc = 38  HOMO = -0.270098533942371  LUMO = -0.0265597274090835
cycle= 28 E= -800.695802823168  delta_E= 0.00903  |g|= 0.0318  |ddm|= 0.23
  alpha nocc = 39  HOMO = -0.275872024485303  LUMO = -0.0190211260447721
  beta  nocc = 38  HOMO = -0.2778889651297  LUMO = -0.0234275656294927
cycle= 29 E= -800.694024735711  delta_E= 0.00178  |g|= 0.0242  |ddm|= 0.288
  alpha nocc = 39  HOMO = -0.267572799239565  LUMO = -0.0239363445767481
  beta  nocc = 38  HOMO = -0.272198544718492  LUMO = -0.0223258483403573
cycle= 30 E= -800.695353934078  delta_E= -0.00133  |g|= 0.021  |ddm|= 0.129
  alpha nocc = 39  HOMO = -0.263385329543159  LUMO = -0.0210929271539908
  beta  nocc = 38  HOMO = -0.273581912195112  LUMO = -0.0192484449623235
cycle= 31 E= -800.696722372385  delta_E= -0.00137  |g|= 0.0201  |ddm|= 0.141
  alpha nocc = 39  HOMO = -0.26320104312017  LUMO = -0.0212004923545721
  beta  nocc = 38  HOMO = -0.273581158871754  LUMO = -0.0190298100281075
cycle= 32 E= -800.697068010107  delta_E= -0.000346  |g|= 0.0204  |ddm|= 0.0154
  alpha nocc = 39  HOMO = -0.261440545084091  LUMO = -0.0210796827254869
  beta  nocc = 38  HOMO = -0.273417123401506  LUMO = -0.0191847855514713
cycle= 33 E= -800.696138094436  delta_E= 0.00093  |g|= 0.0192  |ddm|= 0.0543
  alpha nocc = 39  HOMO = -0.257331100562223  LUMO = -0.0212853675593616
  beta  nocc = 38  HOMO = -0.272545842261484  LUMO = -0.0181441565027867
cycle= 34 E= -800.696511782136  delta_E= -0.000374  |g|= 0.0182  |ddm|= 0.111
  alpha nocc = 39  HOMO = -0.255941615913469  LUMO = -0.0224291782053845
  beta  nocc = 38  HOMO = -0.272000674986151  LUMO = -0.0180921234198177
cycle= 35 E= -800.697776698599  delta_E= -0.00126  |g|= 0.0173  |ddm|= 0.0996
  alpha nocc = 39  HOMO = -0.259412711368082  LUMO = -0.0208651888710751
  beta  nocc = 38  HOMO = -0.273211996280286  LUMO = -0.0184720470347825
cycle= 36 E= -800.700192546239  delta_E= -0.00242  |g|= 0.014  |ddm|= 0.193
  alpha nocc = 39  HOMO = -0.267469865273029  LUMO = -0.0200593739310574
  beta  nocc = 38  HOMO = -0.274248026400306  LUMO = -0.0172093217646186
cycle= 37 E= -800.701722873489  delta_E= -0.00153  |g|= 0.0135  |ddm|= 0.135
  alpha nocc = 39  HOMO = -0.268517645760182  LUMO = -0.0198561070843786
  beta  nocc = 38  HOMO = -0.27490353909405  LUMO = -0.016166488542364
cycle= 38 E= -800.702406490393  delta_E= -0.000684  |g|= 0.0139  |ddm|= 0.0509
  alpha nocc = 39  HOMO = -0.268482517262581  LUMO = -0.0198758237089518
  beta  nocc = 38  HOMO = -0.274733038831968  LUMO = -0.0163508956697587
cycle= 39 E= -800.702137381365  delta_E= 0.000269  |g|= 0.0131  |ddm|= 0.0262
  alpha nocc = 39  HOMO = -0.269816344567205  LUMO = -0.0202328013012197
  beta  nocc = 38  HOMO = -0.274238272441237  LUMO = -0.0169130272807482
cycle= 40 E= -800.702089862207  delta_E= 4.75e-05  |g|= 0.013  |ddm|= 0.0359
  alpha nocc = 39  HOMO = -0.269383141110996  LUMO = -0.0202439411231936
  beta  nocc = 38  HOMO = -0.274190549181708  LUMO = -0.0168969409605253
cycle= 41 E= -800.702033191913  delta_E= 5.67e-05  |g|= 0.0129  |ddm|= 0.0109
  alpha nocc = 39  HOMO = -0.269823792309073  LUMO = -0.0202715571140067
  beta  nocc = 38  HOMO = -0.274315064487957  LUMO = -0.0163337859341799
cycle= 42 E= -800.702317317523  delta_E= -0.000284  |g|= 0.0126  |ddm|= 0.046
  alpha nocc = 39  HOMO = -0.267966147646914  LUMO = -0.0204390250798675
  beta  nocc = 38  HOMO = -0.274034165530742  LUMO = -0.0157296149442777
cycle= 43 E= -800.702201558076  delta_E= 0.000116  |g|= 0.0123  |ddm|= 0.0457
  alpha nocc = 39  HOMO = -0.2669617028328  LUMO = -0.0205819063292242
  beta  nocc = 38  HOMO = -0.273855458263725  LUMO = -0.015730542576085
cycle= 44 E= -800.702029123088  delta_E= 0.000172  |g|= 0.0124  |ddm|= 0.0198
  alpha nocc = 39  HOMO = -0.268695497788534  LUMO = -0.0203857196298169
  beta  nocc = 38  HOMO = -0.27402908395477  LUMO = -0.0155990574802772
cycle= 45 E= -800.702437170385  delta_E= -0.000408  |g|= 0.0124  |ddm|= 0.0421
  alpha nocc = 39  HOMO = -0.268453670801136  LUMO = -0.020390066533085
  beta  nocc = 38  HOMO = -0.274041764568137  LUMO = -0.0157611980936188
cycle= 46 E= -800.702311563897  delta_E= 0.000126  |g|= 0.0123  |ddm|= 0.0176
  alpha nocc = 39  HOMO = -0.268581900443415  LUMO = -0.0204142357837051
  beta  nocc = 38  HOMO = -0.274217076203001  LUMO = -0.0155229982127302
cycle= 47 E= -800.7024769248  delta_E= -0.000165  |g|= 0.0124  |ddm|= 0.0151
  alpha nocc = 39  HOMO = -0.26818569961261  LUMO = -0.0202628050375561
  beta  nocc = 38  HOMO = -0.274203635236194  LUMO = -0.0156816258551538
cycle= 48 E= -800.702275072814  delta_E= 0.000202  |g|= 0.012  |ddm|= 0.0183
  alpha nocc = 39  HOMO = -0.267695607772819  LUMO = -0.0198012740229608
  beta  nocc = 38  HOMO = -0.274946663890735  LUMO = -0.0139661134774652
cycle= 49 E= -800.702271759381  delta_E= 3.31e-06  |g|= 0.00969  |ddm|= 0.162
  alpha nocc = 39  HOMO = -0.267996361146029  LUMO = -0.0198592630607708
  beta  nocc = 38  HOMO = -0.275275531344023  LUMO = -0.0134152692858589
cycle= 50 E= -800.702510965153  delta_E= -0.000239  |g|= 0.00968  |ddm|= 0.0356
SCF not converged.
SCF energy = -800.702510965153 after 50 cycles  <S^2> = 4.1608523  2S+1 = 4.2004059
shift = 0
thresh = 1e-05 
eri1 (918, 1830)
eri1 (918, 1830)
    CPU time for making amplitude: integral transform      0.17 sec, wall time      0.01 sec
shape (918, 1260)
1st memory: 191.4 MiB
eri1 (918, 1830)
eri1 (918, 1830)
2nd memory: 180.0 MiB

========================
iter = 0  energy = -800.896159 energy diff = 800.896159
multiplicity <S^2> : Reference = 4.1608523 Response = 4.160628 Projector = 4.1604037
eri1 (918, 1830)
eri1 (918, 1830)
    CPU time for making amplitude: integral transform      0.18 sec, wall time      0.01 sec
shape (918, 1260)
1st memory: 199.5 MiB
eri1 (918, 1830)
eri1 (918, 1830)
2nd memory: 180.2 MiB

========================
iter = 1  energy = -800.906629 energy diff = 0.010469
multiplicity <S^2> : Reference = 4.0443483 Response = 4.0441477 Projector = 4.0439472
eri1 (918, 1830)
eri1 (918, 1830)
    CPU time for making amplitude: integral transform      0.17 sec, wall time      0.01 sec
shape (918, 1260)
1st memory: 200.0 MiB
eri1 (918, 1830)
eri1 (918, 1830)
2nd memory: 186.4 MiB

========================
iter = 2  energy = -800.912806 energy diff = 0.006177
multiplicity <S^2> : Reference = 3.9603047 Response = 3.9605514 Projector = 3.9607982
eri1 (918, 1830)
eri1 (918, 1830)
    CPU time for making amplitude: integral transform      0.17 sec, wall time      0.01 sec
shape (918, 1260)
1st memory: 200.1 MiB
eri1 (918, 1830)
eri1 (918, 1830)
2nd memory: 178.4 MiB

========================
iter = 3  energy = -800.920852 energy diff = 0.008046
multiplicity <S^2> : Reference = 3.873999 Response = 3.8738186 Projector = 3.8736382
eri1 (918, 1830)
eri1 (918, 1830)
    CPU time for making amplitude: integral transform      0.17 sec, wall time      0.01 sec
shape (918, 1260)
1st memory: 200.0 MiB
eri1 (918, 1830)
eri1 (918, 1830)
2nd memory: 179.1 MiB

========================
iter = 4  energy = -800.922435 energy diff = 0.001583
multiplicity <S^2> : Reference = 3.8641997 Response = 3.864046 Projector = 3.8638924
eri1 (918, 1830)
eri1 (918, 1830)
    CPU time for making amplitude: integral transform      0.20 sec, wall time      0.01 sec
shape (918, 1260)
1st memory: 199.5 MiB
eri1 (918, 1830)
eri1 (918, 1830)
2nd memory: 185.2 MiB

========================
iter = 5  energy = -800.916819 energy diff = 0.005615
multiplicity <S^2> : Reference = 3.8881093 Response = 3.8884884 Projector = 3.8888675
eri1 (918, 1830)
eri1 (918, 1830)
    CPU time for making amplitude: integral transform      0.17 sec, wall time      0.01 sec
shape (918, 1260)
1st memory: 199.6 MiB
eri1 (918, 1830)
eri1 (918, 1830)
2nd memory: 177.9 MiB

========================
iter = 6  energy = -800.907410 energy diff = 0.009409
multiplicity <S^2> : Reference = 3.9363785 Response = 3.9362345 Projector = 3.9360905
eri1 (918, 1830)
eri1 (918, 1830)
    CPU time for making amplitude: integral transform      0.18 sec, wall time      0.01 sec
shape (918, 1260)
1st memory: 199.9 MiB
eri1 (918, 1830)
eri1 (918, 1830)
2nd memory: 178.2 MiB

========================
iter = 7  energy = -800.905741 energy diff = 0.001670
multiplicity <S^2> : Reference = 3.9470328 Response = 3.9467605 Projector = 3.9464883
eri1 (918, 1830)
eri1 (918, 1830)
    CPU time for making amplitude: integral transform      0.20 sec, wall time      0.01 sec
shape (918, 1260)
1st memory: 200.2 MiB
eri1 (918, 1830)
eri1 (918, 1830)
2nd memory: 178.8 MiB

========================
iter = 8  energy = -800.905497 energy diff = 0.000243
multiplicity <S^2> : Reference = 3.9465213 Response = 3.9466901 Projector = 3.9468588
eri1 (918, 1830)
eri1 (918, 1830)
    CPU time for making amplitude: integral transform      0.20 sec, wall time      0.01 sec
shape (918, 1260)
1st memory: 200.1 MiB
eri1 (918, 1830)
eri1 (918, 1830)
2nd memory: 179.1 MiB

========================
iter = 9  energy = -800.907728 energy diff = 0.002231
multiplicity <S^2> : Reference = 3.9204355 Response = 3.920394 Projector = 3.9203525
eri1 (918, 1830)
eri1 (918, 1830)
    CPU time for making amplitude: integral transform      0.18 sec, wall time      0.01 sec
shape (918, 1260)
1st memory: 199.9 MiB
eri1 (918, 1830)
eri1 (918, 1830)
2nd memory: 186.5 MiB

========================
iter = 10  energy = -800.908909 energy diff = 0.001181
multiplicity <S^2> : Reference = 3.9066283 Response = 3.9065781 Projector = 3.9065279
eri1 (918, 1830)
eri1 (918, 1830)
    CPU time for making amplitude: integral transform      0.19 sec, wall time      0.01 sec
shape (918, 1260)
1st memory: 200.0 MiB
eri1 (918, 1830)
eri1 (918, 1830)
2nd memory: 185.9 MiB

========================
iter = 11  energy = -800.907489 energy diff = 0.001420
multiplicity <S^2> : Reference = 3.922125 Response = 3.9220448 Projector = 3.9219645
eri1 (918, 1830)
eri1 (918, 1830)
    CPU time for making amplitude: integral transform      0.18 sec, wall time      0.01 sec
shape (918, 1260)
1st memory: 199.9 MiB
eri1 (918, 1830)
eri1 (918, 1830)
2nd memory: 178.2 MiB

========================
iter = 12  energy = -800.899786 energy diff = 0.007703
multiplicity <S^2> : Reference = 4.0193175 Response = 4.0194747 Projector = 4.0196319
eri1 (918, 1830)
eri1 (918, 1830)
    CPU time for making amplitude: integral transform      0.17 sec, wall time      0.01 sec
shape (918, 1260)
1st memory: 200.1 MiB
eri1 (918, 1830)
eri1 (918, 1830)
2nd memory: 178.3 MiB

========================
iter = 13  energy = -800.896488 energy diff = 0.003299
multiplicity <S^2> : Reference = 4.0902801 Response = 4.0904302 Projector = 4.0905804
eri1 (918, 1830)
eri1 (918, 1830)
    CPU time for making amplitude: integral transform      0.17 sec, wall time      0.01 sec
shape (918, 1260)
1st memory: 199.8 MiB
eri1 (918, 1830)
eri1 (918, 1830)
2nd memory: 178.0 MiB

========================
iter = 14  energy = -800.894888 energy diff = 0.001600
multiplicity <S^2> : Reference = 4.1711526 Response = 4.17114 Projector = 4.1711275
eri1 (918, 1830)
eri1 (918, 1830)
    CPU time for making amplitude: integral transform      0.18 sec, wall time      0.01 sec
shape (918, 1260)
1st memory: 199.8 MiB
eri1 (918, 1830)
eri1 (918, 1830)
2nd memory: 178.1 MiB

========================
iter = 15  energy = -800.894156 energy diff = 0.000732
multiplicity <S^2> : Reference = 4.1700094 Response = 4.1702648 Projector = 4.1705202
eri1 (918, 1830)
eri1 (918, 1830)
    CPU time for making amplitude: integral transform      0.17 sec, wall time      0.01 sec
shape (918, 1260)
1st memory: 206.3 MiB
eri1 (918, 1830)
eri1 (918, 1830)
2nd memory: 174.0 MiB

========================
iter = 16  energy = -800.895186 energy diff = 0.001030
multiplicity <S^2> : Reference = 4.1757193 Response = 4.1759669 Projector = 4.1762146
eri1 (918, 1830)
eri1 (918, 1830)
    CPU time for making amplitude: integral transform      0.19 sec, wall time      0.01 sec
shape (918, 1260)
1st memory: 208.6 MiB
eri1 (918, 1830)
eri1 (918, 1830)
2nd memory: 177.8 MiB

========================
iter = 17  energy = -800.894385 energy diff = 0.000800
multiplicity <S^2> : Reference = 4.1781187 Response = 4.1783917 Projector = 4.1786647
eri1 (918, 1830)
eri1 (918, 1830)
    CPU time for making amplitude: integral transform      0.20 sec, wall time      0.01 sec
shape (918, 1260)
1st memory: 200.1 MiB
eri1 (918, 1830)
eri1 (918, 1830)
2nd memory: 185.8 MiB

========================
iter = 18  energy = -800.894439 energy diff = 0.000054
multiplicity <S^2> : Reference = 4.1804266 Response = 4.1805648 Projector = 4.180703
eri1 (918, 1830)
eri1 (918, 1830)
    CPU time for making amplitude: integral transform      0.18 sec, wall time      0.01 sec
shape (918, 1260)
1st memory: 209.0 MiB
eri1 (918, 1830)
eri1 (918, 1830)
2nd memory: 178.2 MiB

========================
iter = 19  energy = -800.894376 energy diff = 0.000063
multiplicity <S^2> : Reference = 4.1757305 Response = 4.1760044 Projector = 4.1762783
eri1 (918, 1830)
eri1 (918, 1830)
    CPU time for making amplitude: integral transform      0.17 sec, wall time      0.01 sec
shape (918, 1260)
1st memory: 200.0 MiB
eri1 (918, 1830)
eri1 (918, 1830)
2nd memory: 178.2 MiB

========================
iter = 20  energy = -800.893724 energy diff = 0.000652
multiplicity <S^2> : Reference = 4.1104331 Response = 4.1102707 Projector = 4.1101082
eri1 (918, 1830)
eri1 (918, 1830)
    CPU time for making amplitude: integral transform      0.18 sec, wall time      0.01 sec
shape (918, 1260)
1st memory: 209.4 MiB
eri1 (918, 1830)
eri1 (918, 1830)
2nd memory: 185.8 MiB

========================
iter = 21  energy = -800.891396 energy diff = 0.002329
multiplicity <S^2> : Reference = 4.1337627 Response = 4.133674 Projector = 4.1335854
eri1 (918, 1830)
eri1 (918, 1830)
    CPU time for making amplitude: integral transform      0.19 sec, wall time      0.01 sec
shape (918, 1260)
1st memory: 199.8 MiB
eri1 (918, 1830)
eri1 (918, 1830)
2nd memory: 178.0 MiB

========================
iter = 22  energy = -800.892289 energy diff = 0.000893
multiplicity <S^2> : Reference = 4.1144941 Response = 4.1149105 Projector = 4.115327
eri1 (918, 1830)
eri1 (918, 1830)
    CPU time for making amplitude: integral transform      0.17 sec, wall time      0.01 sec
shape (918, 1260)
1st memory: 209.0 MiB
eri1 (918, 1830)
eri1 (918, 1830)
2nd memory: 178.1 MiB

========================
iter = 23  energy = -800.892475 energy diff = 0.000186
multiplicity <S^2> : Reference = 4.1078118 Response = 4.1082607 Projector = 4.1087096
eri1 (918, 1830)
eri1 (918, 1830)
    CPU time for making amplitude: integral transform      0.20 sec, wall time      0.01 sec
shape (918, 1260)
1st memory: 199.7 MiB
eri1 (918, 1830)
eri1 (918, 1830)
2nd memory: 178.1 MiB

========================
iter = 24  energy = -800.893063 energy diff = 0.000588
multiplicity <S^2> : Reference = 4.1034431 Response = 4.1034507 Projector = 4.1034584
eri1 (918, 1830)
eri1 (918, 1830)
    CPU time for making amplitude: integral transform      0.17 sec, wall time      0.01 sec
shape (918, 1260)
1st memory: 209.1 MiB
eri1 (918, 1830)
eri1 (918, 1830)
2nd memory: 178.1 MiB

========================
iter = 25  energy = -800.893769 energy diff = 0.000705
multiplicity <S^2> : Reference = 4.11392 Response = 4.1138123 Projector = 4.1137046
eri1 (918, 1830)
eri1 (918, 1830)
    CPU time for making amplitude: integral transform      0.17 sec, wall time      0.01 sec
shape (918, 1260)
1st memory: 199.9 MiB
eri1 (918, 1830)
eri1 (918, 1830)
2nd memory: 178.3 MiB

========================
iter = 26  energy = -800.893605 energy diff = 0.000164
multiplicity <S^2> : Reference = 4.1417118 Response = 4.1417728 Projector = 4.1418338
eri1 (918, 1830)
eri1 (918, 1830)
    CPU time for making amplitude: integral transform      0.18 sec, wall time      0.01 sec
shape (918, 1260)
1st memory: 209.0 MiB
eri1 (918, 1830)
eri1 (918, 1830)
2nd memory: 178.2 MiB

========================
iter = 27  energy = -800.893616 energy diff = 0.000011
multiplicity <S^2> : Reference = 4.1434822 Response = 4.143545 Projector = 4.1436077
eri1 (918, 1830)
eri1 (918, 1830)
    CPU time for making amplitude: integral transform      0.19 sec, wall time      0.01 sec
shape (918, 1260)
1st memory: 200.5 MiB
eri1 (918, 1830)
eri1 (918, 1830)
2nd memory: 186.2 MiB

========================
iter = 28  energy = -800.893729 energy diff = 0.000113
multiplicity <S^2> : Reference = 4.1461065 Response = 4.1460258 Projector = 4.145945
eri1 (918, 1830)
eri1 (918, 1830)
    CPU time for making amplitude: integral transform      0.18 sec, wall time      0.01 sec
shape (918, 1260)
1st memory: 210.4 MiB
eri1 (918, 1830)
eri1 (918, 1830)
2nd memory: 179.3 MiB

========================
iter = 29  energy = -800.893703 energy diff = 0.000026
multiplicity <S^2> : Reference = 4.1445557 Response = 4.1446233 Projector = 4.1446909
eri1 (918, 1830)
eri1 (918, 1830)
    CPU time for making amplitude: integral transform      0.18 sec, wall time      0.01 sec
shape (918, 1260)
1st memory: 201.2 MiB
eri1 (918, 1830)
eri1 (918, 1830)
2nd memory: 187.0 MiB

========================
iter = 30  energy = -800.893573 energy diff = 0.000130
multiplicity <S^2> : Reference = 4.1423634 Response = 4.1423854 Projector = 4.1424073
eri1 (918, 1830)
eri1 (918, 1830)
    CPU time for making amplitude: integral transform      0.21 sec, wall time      0.01 sec
shape (918, 1260)
1st memory: 210.8 MiB
eri1 (918, 1830)
eri1 (918, 1830)
2nd memory: 187.8 MiB

========================
iter = 31  energy = -800.893621 energy diff = 0.000048
multiplicity <S^2> : Reference = 4.1425993 Response = 4.1426218 Projector = 4.1426442
eri1 (918, 1830)
eri1 (918, 1830)
    CPU time for making amplitude: integral transform      0.17 sec, wall time      0.01 sec
shape (918, 1260)
1st memory: 201.7 MiB
eri1 (918, 1830)
eri1 (918, 1830)
2nd memory: 187.4 MiB

========================
iter = 32  energy = -800.893295 energy diff = 0.000326
multiplicity <S^2> : Reference = 4.1437129 Response = 4.1437362 Projector = 4.1437596
eri1 (918, 1830)
eri1 (918, 1830)
    CPU time for making amplitude: integral transform      0.19 sec, wall time      0.01 sec
shape (918, 1260)
1st memory: 211.3 MiB
eri1 (918, 1830)
eri1 (918, 1830)
2nd memory: 179.5 MiB

========================
iter = 33  energy = -800.893464 energy diff = 0.000169
multiplicity <S^2> : Reference = 4.1296826 Response = 4.1294102 Projector = 4.1291379
eri1 (918, 1830)
eri1 (918, 1830)
    CPU time for making amplitude: integral transform      0.18 sec, wall time      0.01 sec
shape (918, 1260)
1st memory: 201.3 MiB
eri1 (918, 1830)
eri1 (918, 1830)
2nd memory: 180.1 MiB

========================
iter = 34  energy = -800.893461 energy diff = 0.000004
multiplicity <S^2> : Reference = 4.1317887 Response = 4.1316454 Projector = 4.1315022

UOB-MP2 has converged
UOB-MP2 energy =  -800.8934606870632
shift = 0
thresh = 1e-05 
eri1 (918, 1830)
eri1 (918, 1830)
    CPU time for making amplitude: integral transform      0.19 sec, wall time      0.01 sec
shape (918, 1260)
1st memory: 201.3 MiB
eri1 (918, 1830)
eri1 (918, 1830)
2nd memory: 180.3 MiB

========================
iter = 0  energy = -800.861514 energy diff = 800.861514
multiplicity <S^2> : Reference = 4.1608523 Response = 4.160628 Projector = 4.1604037
eri1 (918, 1830)
eri1 (918, 1830)
    CPU time for making amplitude: integral transform      0.18 sec, wall time      0.01 sec
shape (918, 1260)
1st memory: 201.5 MiB
eri1 (918, 1830)
eri1 (918, 1830)
2nd memory: 180.4 MiB

========================
iter = 1  energy = -800.873616 energy diff = 0.012102
multiplicity <S^2> : Reference = 4.0454887 Response = 4.0454489 Projector = 4.045409
eri1 (918, 1830)
eri1 (918, 1830)
    CPU time for making amplitude: integral transform      0.20 sec, wall time      0.01 sec
shape (918, 1260)
1st memory: 201.4 MiB
eri1 (918, 1830)
eri1 (918, 1830)
2nd memory: 180.4 MiB

========================
iter = 2  energy = -800.879619 energy diff = 0.006003
multiplicity <S^2> : Reference = 3.9628942 Response = 3.9629399 Projector = 3.9629856
eri1 (918, 1830)
eri1 (918, 1830)
    CPU time for making amplitude: integral transform      0.19 sec, wall time      0.01 sec
shape (918, 1260)
1st memory: 201.5 MiB
eri1 (918, 1830)
eri1 (918, 1830)
2nd memory: 180.4 MiB

========================
iter = 3  energy = -800.886592 energy diff = 0.006972
multiplicity <S^2> : Reference = 3.8903854 Response = 3.8904416 Projector = 3.8904977
eri1 (918, 1830)
eri1 (918, 1830)
    CPU time for making amplitude: integral transform      0.18 sec, wall time      0.01 sec
shape (918, 1260)
1st memory: 201.3 MiB
eri1 (918, 1830)
eri1 (918, 1830)
2nd memory: 179.4 MiB

========================
iter = 4  energy = -800.884499 energy diff = 0.002092
multiplicity <S^2> : Reference = 3.9038207 Response = 3.9037715 Projector = 3.9037224
eri1 (918, 1830)
eri1 (918, 1830)
    CPU time for making amplitude: integral transform      0.20 sec, wall time      0.01 sec
shape (918, 1260)
1st memory: 201.1 MiB
eri1 (918, 1830)
eri1 (918, 1830)
2nd memory: 179.3 MiB

========================
iter = 5  energy = -800.881703 energy diff = 0.002796
multiplicity <S^2> : Reference = 3.9147223 Response = 3.9143191 Projector = 3.9139159
eri1 (918, 1830)
eri1 (918, 1830)
    CPU time for making amplitude: integral transform      0.17 sec, wall time      0.01 sec
shape (918, 1260)
1st memory: 201.1 MiB
eri1 (918, 1830)
eri1 (918, 1830)
2nd memory: 180.7 MiB

========================
iter = 6  energy = -800.869463 energy diff = 0.012240
multiplicity <S^2> : Reference = 4.003788 Response = 4.0039868 Projector = 4.0041856
eri1 (918, 1830)
eri1 (918, 1830)
    CPU time for making amplitude: integral transform      0.16 sec, wall time      0.01 sec
shape (918, 1260)
1st memory: 201.2 MiB
eri1 (918, 1830)
eri1 (918, 1830)
2nd memory: 180.7 MiB

========================
iter = 7  energy = -800.868965 energy diff = 0.000499
multiplicity <S^2> : Reference = 3.9974023 Response = 3.9968978 Projector = 3.9963933
eri1 (918, 1830)
eri1 (918, 1830)
    CPU time for making amplitude: integral transform      0.16 sec, wall time      0.01 sec
shape (918, 1260)
1st memory: 201.2 MiB
eri1 (918, 1830)
eri1 (918, 1830)
2nd memory: 180.6 MiB

========================
iter = 8  energy = -800.867243 energy diff = 0.001722
multiplicity <S^2> : Reference = 4.0201854 Response = 4.0199101 Projector = 4.0196348
eri1 (918, 1830)
eri1 (918, 1830)
    CPU time for making amplitude: integral transform      0.15 sec, wall time      0.01 sec
shape (918, 1260)
1st memory: 201.2 MiB
eri1 (918, 1830)
eri1 (918, 1830)
2nd memory: 180.7 MiB

========================
iter = 9  energy = -800.868377 energy diff = 0.001134
multiplicity <S^2> : Reference = 4.0024988 Response = 4.0025672 Projector = 4.0026357
eri1 (918, 1830)
eri1 (918, 1830)
    CPU time for making amplitude: integral transform      0.18 sec, wall time      0.01 sec
shape (918, 1260)
1st memory: 201.2 MiB
eri1 (918, 1830)
eri1 (918, 1830)
2nd memory: 180.7 MiB

========================
iter = 10  energy = -800.869641 energy diff = 0.001264
multiplicity <S^2> : Reference = 3.9838103 Response = 3.9839314 Projector = 3.9840524
eri1 (918, 1830)
eri1 (918, 1830)
    CPU time for making amplitude: integral transform      0.16 sec, wall time      0.01 sec
shape (918, 1260)
1st memory: 200.9 MiB
eri1 (918, 1830)
eri1 (918, 1830)
2nd memory: 180.4 MiB

========================
iter = 11  energy = -800.869884 energy diff = 0.000243
multiplicity <S^2> : Reference = 3.9805316 Response = 3.9806543 Projector = 3.980777
eri1 (918, 1830)
eri1 (918, 1830)
    CPU time for making amplitude: integral transform      0.20 sec, wall time      0.01 sec
shape (918, 1260)
1st memory: 201.2 MiB
eri1 (918, 1830)
eri1 (918, 1830)
2nd memory: 179.4 MiB

========================
iter = 12  energy = -800.869855 energy diff = 0.000028
multiplicity <S^2> : Reference = 3.98084 Response = 3.9809605 Projector = 3.981081
eri1 (918, 1830)
eri1 (918, 1830)
    CPU time for making amplitude: integral transform      0.18 sec, wall time      0.01 sec
shape (918, 1260)
1st memory: 201.2 MiB
eri1 (918, 1830)
eri1 (918, 1830)
2nd memory: 179.3 MiB

========================
iter = 13  energy = -800.868971 energy diff = 0.000884
multiplicity <S^2> : Reference = 3.9924866 Response = 3.9926693 Projector = 3.992852
eri1 (918, 1830)
eri1 (918, 1830)
    CPU time for making amplitude: integral transform      0.17 sec, wall time      0.01 sec
shape (918, 1260)
1st memory: 201.6 MiB
eri1 (918, 1830)
eri1 (918, 1830)
2nd memory: 179.7 MiB

========================
iter = 14  energy = -800.865871 energy diff = 0.003100
multiplicity <S^2> : Reference = 4.0314646 Response = 4.0320215 Projector = 4.0325783
eri1 (918, 1830)
eri1 (918, 1830)
    CPU time for making amplitude: integral transform      0.18 sec, wall time      0.01 sec
shape (918, 1260)
1st memory: 201.0 MiB
eri1 (918, 1830)
eri1 (918, 1830)
2nd memory: 180.5 MiB

========================
iter = 15  energy = -800.863044 energy diff = 0.002827
multiplicity <S^2> : Reference = 4.078504 Response = 4.0785512 Projector = 4.0785983
eri1 (918, 1830)
eri1 (918, 1830)
    CPU time for making amplitude: integral transform      0.17 sec, wall time      0.01 sec
shape (918, 1260)
1st memory: 201.0 MiB
eri1 (918, 1830)
eri1 (918, 1830)
2nd memory: 180.4 MiB

========================
iter = 16  energy = -800.861468 energy diff = 0.001576
multiplicity <S^2> : Reference = 4.1218815 Response = 4.1219904 Projector = 4.1220993
eri1 (918, 1830)
eri1 (918, 1830)
    CPU time for making amplitude: integral transform      0.17 sec, wall time      0.01 sec
shape (918, 1260)
1st memory: 201.4 MiB
eri1 (918, 1830)
eri1 (918, 1830)
2nd memory: 179.6 MiB

========================
iter = 17  energy = -800.861792 energy diff = 0.000324
multiplicity <S^2> : Reference = 4.151962 Response = 4.1518476 Projector = 4.1517331
eri1 (918, 1830)
eri1 (918, 1830)
    CPU time for making amplitude: integral transform      0.19 sec, wall time      0.01 sec
shape (918, 1260)
1st memory: 201.3 MiB
eri1 (918, 1830)
eri1 (918, 1830)
2nd memory: 179.6 MiB

========================
iter = 18  energy = -800.861904 energy diff = 0.000111
multiplicity <S^2> : Reference = 4.1520613 Response = 4.1519468 Projector = 4.1518323
eri1 (918, 1830)
eri1 (918, 1830)
    CPU time for making amplitude: integral transform      0.20 sec, wall time      0.01 sec
shape (918, 1260)
1st memory: 201.1 MiB
eri1 (918, 1830)
eri1 (918, 1830)
2nd memory: 179.3 MiB

========================
iter = 19  energy = -800.861983 energy diff = 0.000079
multiplicity <S^2> : Reference = 4.1518282 Response = 4.151841 Projector = 4.1518537
eri1 (918, 1830)
eri1 (918, 1830)
    CPU time for making amplitude: integral transform      0.18 sec, wall time      0.01 sec
shape (918, 1260)
1st memory: 207.1 MiB
eri1 (918, 1830)
eri1 (918, 1830)
2nd memory: 175.4 MiB

========================
iter = 20  energy = -800.861958 energy diff = 0.000025
multiplicity <S^2> : Reference = 4.151614 Response = 4.1514984 Projector = 4.1513828
eri1 (918, 1830)
eri1 (918, 1830)
    CPU time for making amplitude: integral transform      0.18 sec, wall time      0.01 sec
shape (918, 1260)
1st memory: 217.0 MiB
eri1 (918, 1830)
eri1 (918, 1830)
2nd memory: 175.9 MiB

========================
iter = 21  energy = -800.860460 energy diff = 0.001497
multiplicity <S^2> : Reference = 4.1598491 Response = 4.1598031 Projector = 4.159757
eri1 (918, 1830)
eri1 (918, 1830)
    CPU time for making amplitude: integral transform      0.19 sec, wall time      0.01 sec
shape (918, 1260)
1st memory: 197.7 MiB
eri1 (918, 1830)
eri1 (918, 1830)
2nd memory: 198.1 MiB

========================
iter = 22  energy = -800.860401 energy diff = 0.000059
multiplicity <S^2> : Reference = 4.1522435 Response = 4.1524808 Projector = 4.1527181
eri1 (918, 1830)
eri1 (918, 1830)
    CPU time for making amplitude: integral transform      0.18 sec, wall time      0.01 sec
shape (918, 1260)
1st memory: 217.2 MiB
eri1 (918, 1830)
eri1 (918, 1830)
2nd memory: 176.2 MiB

========================
iter = 23  energy = -800.860479 energy diff = 0.000078
multiplicity <S^2> : Reference = 4.1410555 Response = 4.1411838 Projector = 4.141312
eri1 (918, 1830)
eri1 (918, 1830)
    CPU time for making amplitude: integral transform      0.17 sec, wall time      0.01 sec
shape (918, 1260)
1st memory: 198.0 MiB
eri1 (918, 1830)
eri1 (918, 1830)
2nd memory: 198.7 MiB

========================
iter = 24  energy = -800.859869 energy diff = 0.000611
multiplicity <S^2> : Reference = 4.1224411 Response = 4.1225174 Projector = 4.1225936
eri1 (918, 1830)
eri1 (918, 1830)
    CPU time for making amplitude: integral transform      0.18 sec, wall time      0.01 sec
shape (918, 1260)
1st memory: 216.7 MiB
eri1 (918, 1830)
eri1 (918, 1830)
2nd memory: 176.5 MiB

========================
iter = 25  energy = -800.859174 energy diff = 0.000694
multiplicity <S^2> : Reference = 4.1004833 Response = 4.1008256 Projector = 4.1011678
eri1 (918, 1830)
eri1 (918, 1830)
    CPU time for making amplitude: integral transform      0.22 sec, wall time      0.01 sec
shape (918, 1260)
1st memory: 197.7 MiB
eri1 (918, 1830)
eri1 (918, 1830)
2nd memory: 198.1 MiB

========================
iter = 26  energy = -800.859039 energy diff = 0.000135
multiplicity <S^2> : Reference = 4.0876403 Response = 4.0877636 Projector = 4.0878869
eri1 (918, 1830)
eri1 (918, 1830)
    CPU time for making amplitude: integral transform      0.17 sec, wall time      0.01 sec
shape (918, 1260)
1st memory: 217.0 MiB
eri1 (918, 1830)
eri1 (918, 1830)
2nd memory: 176.5 MiB

========================
iter = 27  energy = -800.858848 energy diff = 0.000191
multiplicity <S^2> : Reference = 4.0824339 Response = 4.0826176 Projector = 4.0828014
eri1 (918, 1830)
eri1 (918, 1830)
    CPU time for making amplitude: integral transform      0.20 sec, wall time      0.01 sec
shape (918, 1260)
1st memory: 197.9 MiB
eri1 (918, 1830)
eri1 (918, 1830)
2nd memory: 198.2 MiB

========================
iter = 28  energy = -800.858815 energy diff = 0.000033
multiplicity <S^2> : Reference = 4.0820194 Response = 4.0817812 Projector = 4.0815431
eri1 (918, 1830)
eri1 (918, 1830)
    CPU time for making amplitude: integral transform      0.19 sec, wall time      0.01 sec
shape (918, 1260)
1st memory: 216.7 MiB
eri1 (918, 1830)
eri1 (918, 1830)
2nd memory: 176.5 MiB

========================
iter = 29  energy = -800.858647 energy diff = 0.000168
multiplicity <S^2> : Reference = 4.0836025 Response = 4.0837469 Projector = 4.0838914
eri1 (918, 1830)
eri1 (918, 1830)
    CPU time for making amplitude: integral transform      0.18 sec, wall time      0.01 sec
shape (918, 1260)
1st memory: 197.5 MiB
eri1 (918, 1830)
eri1 (918, 1830)
2nd memory: 197.5 MiB

========================
iter = 30  energy = -800.858522 energy diff = 0.000125
multiplicity <S^2> : Reference = 4.0975378 Response = 4.0973794 Projector = 4.097221
eri1 (918, 1830)
eri1 (918, 1830)
    CPU time for making amplitude: integral transform      0.20 sec, wall time      0.01 sec
shape (918, 1260)
1st memory: 216.8 MiB
eri1 (918, 1830)
eri1 (918, 1830)
2nd memory: 175.8 MiB

========================
iter = 31  energy = -800.859082 energy diff = 0.000560
multiplicity <S^2> : Reference = 4.143914 Response = 4.1437534 Projector = 4.1435928
eri1 (918, 1830)
eri1 (918, 1830)
    CPU time for making amplitude: integral transform      0.19 sec, wall time      0.01 sec
shape (918, 1260)
1st memory: 207.4 MiB
eri1 (918, 1830)
eri1 (918, 1830)
2nd memory: 175.5 MiB

========================
iter = 32  energy = -800.860329 energy diff = 0.001247
multiplicity <S^2> : Reference = 4.1753928 Response = 4.1753732 Projector = 4.1753536
eri1 (918, 1830)
eri1 (918, 1830)
    CPU time for making amplitude: integral transform      0.18 sec, wall time      0.01 sec
shape (918, 1260)
1st memory: 216.7 MiB
eri1 (918, 1830)
eri1 (918, 1830)
2nd memory: 175.7 MiB

========================
iter = 33  energy = -800.861150 energy diff = 0.000820
multiplicity <S^2> : Reference = 4.1891736 Response = 4.1891402 Projector = 4.1891068
eri1 (918, 1830)
eri1 (918, 1830)
    CPU time for making amplitude: integral transform      0.18 sec, wall time      0.01 sec
shape (918, 1260)
1st memory: 207.7 MiB
eri1 (918, 1830)
eri1 (918, 1830)
2nd memory: 181.6 MiB

========================
iter = 34  energy = -800.860405 energy diff = 0.000745
multiplicity <S^2> : Reference = 4.172925 Response = 4.1728745 Projector = 4.172824
eri1 (918, 1830)
eri1 (918, 1830)
    CPU time for making amplitude: integral transform      0.17 sec, wall time      0.01 sec
shape (918, 1260)
1st memory: 216.9 MiB
eri1 (918, 1830)
eri1 (918, 1830)
2nd memory: 181.5 MiB

========================
iter = 35  energy = -800.859436 energy diff = 0.000969
multiplicity <S^2> : Reference = 4.1384834 Response = 4.1383635 Projector = 4.1382437
eri1 (918, 1830)
eri1 (918, 1830)
    CPU time for making amplitude: integral transform      0.17 sec, wall time      0.01 sec
shape (918, 1260)
1st memory: 207.2 MiB
eri1 (918, 1830)
eri1 (918, 1830)
2nd memory: 181.0 MiB

========================
iter = 36  energy = -800.858837 energy diff = 0.000599
multiplicity <S^2> : Reference = 4.103343 Response = 4.1032722 Projector = 4.1032013
eri1 (918, 1830)
eri1 (918, 1830)
    CPU time for making amplitude: integral transform      0.19 sec, wall time      0.01 sec
shape (918, 1260)
1st memory: 216.6 MiB
eri1 (918, 1830)
eri1 (918, 1830)
2nd memory: 181.2 MiB

========================
iter = 37  energy = -800.858848 energy diff = 0.000011
multiplicity <S^2> : Reference = 4.1012197 Response = 4.1011504 Projector = 4.1010812
eri1 (918, 1830)
eri1 (918, 1830)
    CPU time for making amplitude: integral transform      0.19 sec, wall time      0.01 sec
shape (918, 1260)
1st memory: 207.7 MiB
eri1 (918, 1830)
eri1 (918, 1830)
2nd memory: 181.4 MiB

========================
iter = 38  energy = -800.858901 energy diff = 0.000053
multiplicity <S^2> : Reference = 4.0950164 Response = 4.0949654 Projector = 4.0949143
eri1 (918, 1830)
eri1 (918, 1830)
    CPU time for making amplitude: integral transform      0.19 sec, wall time      0.01 sec
shape (918, 1260)
1st memory: 217.1 MiB
eri1 (918, 1830)
eri1 (918, 1830)
2nd memory: 181.4 MiB

========================
iter = 39  energy = -800.858900 energy diff = 0.000001
multiplicity <S^2> : Reference = 4.0930325 Response = 4.0929826 Projector = 4.0929326

UOB-MP2 has converged
UOB-MP2 energy =  -800.8588999144511


******** <class 'pyscf.scf.uhf.UHF'> ********
method = UHF
initial guess = minao
damping factor = 0
level_shift factor = 0
DIIS = <class 'pyscf.scf.diis.CDIIS'>
diis_start_cycle = 1
diis_space = 8
SCF conv_tol = 1e-09
SCF conv_tol_grad = None
SCF max_cycles = 50
direct_scf = True
direct_scf_tol = 1e-13
chkfile to save SCF result = /home/ltkoanh/Al_B2LYP_6311_Gd_Cluster/Cluster/Al12-cation-doublet-2/tmp852gcgr6
max_memory 4000 MB (current use 181 MB)
number electrons alpha = 39  beta = 38
Set gradient conv threshold to 3.16228e-05
init E= -798.543650684915
  alpha nocc = 39  HOMO = -0.270292954139035  LUMO = -0.241370239224108
  beta  nocc = 38  HOMO = -0.290509353649781  LUMO = -0.270292954139035

WARN: system HOMO -0.270292954139035 >= system LUMO -0.270292954139035

cycle= 1 E= -797.992205842068  delta_E= 0.551  |g|= 0.843  |ddm|= 2.46
  alpha nocc = 39  HOMO = -0.0344751848544768  LUMO = -0.0332043770889529
  beta  nocc = 38  HOMO = -0.0794743623144785  LUMO = -0.0320224260125601
cycle= 2 E= -774.589632931462  delta_E= 23.4  |g|= 2.65  |ddm|= 5.59
  alpha nocc = 39  HOMO = -0.193318774340908  LUMO = -0.0546561988141606
  beta  nocc = 38  HOMO = -0.177247512763499  LUMO = -0.0388259507058033
cycle= 3 E= -790.196260796312  delta_E= -15.6  |g|= 1.46  |ddm|= 3.94
  alpha nocc = 39  HOMO = -0.182916844007569  LUMO = -0.177645183516046
  beta  nocc = 38  HOMO = -0.175661986610105  LUMO = -0.170089050504295
cycle= 4 E= -799.074959537878  delta_E= -8.88  |g|= 0.611  |ddm|= 3.71
  alpha nocc = 39  HOMO = -0.182852697866881  LUMO = -0.17305432258024
  beta  nocc = 38  HOMO = -0.18199391228526  LUMO = -0.176079563691445
cycle= 5 E= -799.45332801031  delta_E= -0.378  |g|= 1.22  |ddm|= 2.45
  alpha nocc = 39  HOMO = -0.169366036092432  LUMO = -0.128997712274685
  beta  nocc = 38  HOMO = -0.177309871358235  LUMO = -0.110040750612214
cycle= 6 E= -798.084233527755  delta_E= 1.37  |g|= 1.64  |ddm|= 0.986
  alpha nocc = 39  HOMO = -0.166417601573682  LUMO = -0.128663012336155
  beta  nocc = 38  HOMO = -0.176788644681138  LUMO = -0.123308014687997
cycle= 7 E= -798.666270366279  delta_E= -0.582  |g|= 1.58  |ddm|= 0.471
  alpha nocc = 39  HOMO = -0.163632261696011  LUMO = -0.103344168281405
  beta  nocc = 38  HOMO = -0.159603039250204  LUMO = -0.111759495314555
cycle= 8 E= -798.550843074789  delta_E= 0.115  |g|= 1.49  |ddm|= 0.53
  alpha nocc = 39  HOMO = -0.159437743643837  LUMO = -0.104049498818854
  beta  nocc = 38  HOMO = -0.154945206501174  LUMO = -0.111842958461734
cycle= 9 E= -798.91767150903  delta_E= -0.367  |g|= 1.43  |ddm|= 0.315
  alpha nocc = 39  HOMO = -0.174203737151047  LUMO = -0.0712090291531474
  beta  nocc = 38  HOMO = -0.170969378742124  LUMO = -0.0863073915747943
cycle= 10 E= -800.057666914824  delta_E= -1.14  |g|= 0.694  |ddm|= 1.03
  alpha nocc = 39  HOMO = -0.210457422689912  LUMO = -0.0519687203687823
  beta  nocc = 38  HOMO = -0.217893148791631  LUMO = -0.0635882667561915
cycle= 11 E= -800.479476251553  delta_E= -0.422  |g|= 0.211  |ddm|= 0.878
  alpha nocc = 39  HOMO = -0.254514897538453  LUMO = -0.0461298766886011
  beta  nocc = 38  HOMO = -0.235487336499908  LUMO = -0.0342749106704506
cycle= 12 E= -800.545558898101  delta_E= -0.0661  |g|= 0.167  |ddm|= 0.449
  alpha nocc = 39  HOMO = -0.2633440597571  LUMO = -0.039318754392621
  beta  nocc = 38  HOMO = -0.245806934049737  LUMO = -0.0327044413906512
cycle= 13 E= -800.617607321265  delta_E= -0.072  |g|= 0.095  |ddm|= 0.462
  alpha nocc = 39  HOMO = -0.287334130566781  LUMO = -0.034962907828438
  beta  nocc = 38  HOMO = -0.248884727471094  LUMO = -0.029809329972065
cycle= 14 E= -800.660423271079  delta_E= -0.0428  |g|= 0.0887  |ddm|= 0.377
  alpha nocc = 39  HOMO = -0.303699309612216  LUMO = -0.0357528902930432
  beta  nocc = 38  HOMO = -0.253659413757654  LUMO = -0.0289692895414298
cycle= 15 E= -800.687582336853  delta_E= -0.0272  |g|= 0.0877  |ddm|= 0.249
  alpha nocc = 39  HOMO = -0.317768346465753  LUMO = -0.0352721162656751
  beta  nocc = 38  HOMO = -0.254139583051795  LUMO = -0.0267205140898369
cycle= 16 E= -800.711111020056  delta_E= -0.0235  |g|= 0.0885  |ddm|= 0.219
  alpha nocc = 39  HOMO = -0.325133513854078  LUMO = -0.0372040949897638
  beta  nocc = 38  HOMO = -0.254591906099426  LUMO = -0.0251317688734939
cycle= 17 E= -800.722586474916  delta_E= -0.0115  |g|= 0.0906  |ddm|= 0.116
  alpha nocc = 39  HOMO = -0.296574377315106  LUMO = -0.0322634478555906
  beta  nocc = 38  HOMO = -0.250790587504004  LUMO = -0.0280013578528681
cycle= 18 E= -800.684203026453  delta_E= 0.0384  |g|= 0.0763  |ddm|= 0.499
  alpha nocc = 39  HOMO = -0.294768997348316  LUMO = -0.01676452619982
  beta  nocc = 38  HOMO = -0.260451950533618  LUMO = -0.0308291775967374
cycle= 19 E= -800.694394244408  delta_E= -0.0102  |g|= 0.064  |ddm|= 0.406
  alpha nocc = 39  HOMO = -0.295021312420112  LUMO = -0.0151021149925308
  beta  nocc = 38  HOMO = -0.261080660892427  LUMO = -0.034913632086476
cycle= 20 E= -800.716068220559  delta_E= -0.0217  |g|= 0.0708  |ddm|= 0.264
  alpha nocc = 39  HOMO = -0.292374411802754  LUMO = -0.0215813817092228
  beta  nocc = 38  HOMO = -0.263640297949763  LUMO = -0.0393319554823794
cycle= 21 E= -800.706104571503  delta_E= 0.00996  |g|= 0.0587  |ddm|= 0.225
  alpha nocc = 39  HOMO = -0.282485281039772  LUMO = -0.0240185248127435
  beta  nocc = 38  HOMO = -0.259802110564474  LUMO = -0.0275993623914635
cycle= 22 E= -800.677770943347  delta_E= 0.0283  |g|= 0.0432  |ddm|= 0.599
  alpha nocc = 39  HOMO = -0.271909614129646  LUMO = -0.020071208752078
  beta  nocc = 38  HOMO = -0.26769402812519  LUMO = -0.0272824123754902
cycle= 23 E= -800.682257282355  delta_E= -0.00449  |g|= 0.0348  |ddm|= 0.192
  alpha nocc = 39  HOMO = -0.264161554901737  LUMO = -0.0160082667059771
  beta  nocc = 38  HOMO = -0.270860284047587  LUMO = -0.0280222344079416
cycle= 24 E= -800.689099661623  delta_E= -0.00684  |g|= 0.025  |ddm|= 0.205
  alpha nocc = 39  HOMO = -0.265171289662879  LUMO = -0.0157876821957264
  beta  nocc = 38  HOMO = -0.273730104221871  LUMO = -0.02363942355036
cycle= 25 E= -800.69443109872  delta_E= -0.00533  |g|= 0.0203  |ddm|= 0.211
  alpha nocc = 39  HOMO = -0.26790047986294  LUMO = -0.0186107273358778
  beta  nocc = 38  HOMO = -0.275162321405408  LUMO = -0.0241223086463702
cycle= 26 E= -800.698020119812  delta_E= -0.00359  |g|= 0.0197  |ddm|= 0.167
  alpha nocc = 39  HOMO = -0.268914606692412  LUMO = -0.0185059305548706
  beta  nocc = 38  HOMO = -0.274986814440436  LUMO = -0.0233117622411417
cycle= 27 E= -800.699164315668  delta_E= -0.00114  |g|= 0.0209  |ddm|= 0.0457
  alpha nocc = 39  HOMO = -0.265121546611178  LUMO = -0.0184888931411736
  beta  nocc = 38  HOMO = -0.275302785723181  LUMO = -0.0220642487855602
cycle= 28 E= -800.697030635727  delta_E= 0.00213  |g|= 0.0167  |ddm|= 0.109
  alpha nocc = 39  HOMO = -0.266076801901277  LUMO = -0.0207786015529663
  beta  nocc = 38  HOMO = -0.27512230357485  LUMO = -0.0207983818526334
cycle= 29 E= -800.698589115797  delta_E= -0.00156  |g|= 0.015  |ddm|= 0.109
  alpha nocc = 39  HOMO = -0.269148241369435  LUMO = -0.0224922253549877
  beta  nocc = 38  HOMO = -0.27522230433277  LUMO = -0.0191443222219745
cycle= 30 E= -800.70044888289  delta_E= -0.00186  |g|= 0.0143  |ddm|= 0.119
  alpha nocc = 39  HOMO = -0.270964838027585  LUMO = -0.0226803346559355
  beta  nocc = 38  HOMO = -0.27460411651849  LUMO = -0.0201564690187711
cycle= 31 E= -800.701385607623  delta_E= -0.000937  |g|= 0.015  |ddm|= 0.0607
  alpha nocc = 39  HOMO = -0.266106018715171  LUMO = -0.0223844682441504
  beta  nocc = 38  HOMO = -0.273347843139214  LUMO = -0.0221211898904979
cycle= 32 E= -800.699412313382  delta_E= 0.00197  |g|= 0.0142  |ddm|= 0.114
  alpha nocc = 39  HOMO = -0.264261999126877  LUMO = -0.0235447617197217
  beta  nocc = 38  HOMO = -0.273236514735487  LUMO = -0.0203621084512492
cycle= 33 E= -800.69908266125  delta_E= 0.00033  |g|= 0.0126  |ddm|= 0.0996
  alpha nocc = 39  HOMO = -0.262080692642845  LUMO = -0.0240864654834667
  beta  nocc = 38  HOMO = -0.272956848161325  LUMO = -0.0203357917923775
cycle= 34 E= -800.699010205778  delta_E= 7.25e-05  |g|= 0.0128  |ddm|= 0.0523
  alpha nocc = 39  HOMO = -0.260886771629356  LUMO = -0.0239293122042171
  beta  nocc = 38  HOMO = -0.272499052870641  LUMO = -0.0209595051553696
cycle= 35 E= -800.698507037443  delta_E= 0.000503  |g|= 0.0122  |ddm|= 0.0357
  alpha nocc = 39  HOMO = -0.25807280471256  LUMO = -0.0238724454102174
  beta  nocc = 38  HOMO = -0.271792223091581  LUMO = -0.0212638722247889
cycle= 36 E= -800.698033281405  delta_E= 0.000474  |g|= 0.0112  |ddm|= 0.0767
  alpha nocc = 39  HOMO = -0.2572802696004  LUMO = -0.023605753914406
  beta  nocc = 38  HOMO = -0.272107859876176  LUMO = -0.0212546939700726
cycle= 37 E= -800.698478160651  delta_E= -0.000445  |g|= 0.0106  |ddm|= 0.0566
  alpha nocc = 39  HOMO = -0.25909781139232  LUMO = -0.0230712460712671
  beta  nocc = 38  HOMO = -0.273200854262523  LUMO = -0.0203814117699165
cycle= 38 E= -800.699422834563  delta_E= -0.000945  |g|= 0.0103  |ddm|= 0.0749
  alpha nocc = 39  HOMO = -0.260343005850987  LUMO = -0.0227897182057935
  beta  nocc = 38  HOMO = -0.273674722183856  LUMO = -0.0198349174643714
cycle= 39 E= -800.699765375818  delta_E= -0.000343  |g|= 0.0106  |ddm|= 0.0321
  alpha nocc = 39  HOMO = -0.258651270245094  LUMO = -0.0229966672103168
  beta  nocc = 38  HOMO = -0.273134561538909  LUMO = -0.0202557125553265
cycle= 40 E= -800.699442063452  delta_E= 0.000323  |g|= 0.00958  |ddm|= 0.0544
  alpha nocc = 39  HOMO = -0.258291711474288  LUMO = -0.0235575423088142
  beta  nocc = 38  HOMO = -0.273022616868304  LUMO = -0.0202170814943073
cycle= 41 E= -800.699791515445  delta_E= -0.000349  |g|= 0.00887  |ddm|= 0.0658
  alpha nocc = 39  HOMO = -0.258912303925662  LUMO = -0.0233852943106165
  beta  nocc = 38  HOMO = -0.273477016908571  LUMO = -0.0194684945930418
cycle= 42 E= -800.700153219977  delta_E= -0.000362  |g|= 0.00885  |ddm|= 0.036
  alpha nocc = 39  HOMO = -0.259580261217743  LUMO = -0.0234110901271376
  beta  nocc = 38  HOMO = -0.273714880138678  LUMO = -0.0191186473996248
cycle= 43 E= -800.700340479735  delta_E= -0.000187  |g|= 0.00897  |ddm|= 0.0201
  alpha nocc = 39  HOMO = -0.258583542265826  LUMO = -0.0231977992678002
  beta  nocc = 38  HOMO = -0.273498161006883  LUMO = -0.0193713984191508
cycle= 44 E= -800.700175404457  delta_E= 0.000165  |g|= 0.00861  |ddm|= 0.0331
  alpha nocc = 39  HOMO = -0.257885184688868  LUMO = -0.0225828606530241
  beta  nocc = 38  HOMO = -0.273741758740322  LUMO = -0.0193782781267289
cycle= 45 E= -800.700248133029  delta_E= -7.27e-05  |g|= 0.00849  |ddm|= 0.0433
  alpha nocc = 39  HOMO = -0.257958065684114  LUMO = -0.0227868028306657
  beta  nocc = 38  HOMO = -0.273457256687103  LUMO = -0.0194595221953756
cycle= 46 E= -800.700113812511  delta_E= 0.000134  |g|= 0.00852  |ddm|= 0.0222
  alpha nocc = 39  HOMO = -0.258730846753833  LUMO = -0.0226149194559553
  beta  nocc = 38  HOMO = -0.273794815741581  LUMO = -0.0192888467169334
cycle= 47 E= -800.700368476363  delta_E= -0.000255  |g|= 0.00838  |ddm|= 0.0313
  alpha nocc = 39  HOMO = -0.259239481975649  LUMO = -0.0223330480545854
  beta  nocc = 38  HOMO = -0.274268216082126  LUMO = -0.0187974424999195
cycle= 48 E= -800.70059676734  delta_E= -0.000228  |g|= 0.00859  |ddm|= 0.0248
  alpha nocc = 39  HOMO = -0.257802898085112  LUMO = -0.0226057160524625
  beta  nocc = 38  HOMO = -0.274057057495187  LUMO = -0.0191522655274564
cycle= 49 E= -800.700343876949  delta_E= 0.000253  |g|= 0.00812  |ddm|= 0.0436
  alpha nocc = 39  HOMO = -0.258468061776772  LUMO = -0.0226271476282931
  beta  nocc = 38  HOMO = -0.274618329993083  LUMO = -0.0186578028383521
cycle= 50 E= -800.700635302655  delta_E= -0.000291  |g|= 0.00783  |ddm|= 0.0444
SCF not converged.
SCF energy = -800.700635302655 after 50 cycles  <S^2> = 4.2438278  2S+1 = 4.2397301
