 Entering Gaussian System, Link 0=g09
 Initial command:
 /apps/leuven/thinking/software/G09//g09D1/l1.exe "/local_scratch/vsc31064/Gau-39311.inp" -scrdir="/local_scratch/vsc31064/"
 Entering Link 1 = /apps/leuven/thinking/software/G09//g09D1/l1.exe PID=     39315.
  
 Copyright (c) 1988,1990,1992,1993,1995,1998,2003,2009,2013,
            Gaussian, Inc.  All Rights Reserved.
  
 This is part of the Gaussian(R) 09 program.  It is based on
 the Gaussian(R) 03 system (copyright 2003, Gaussian, Inc.),
 the Gaussian(R) 98 system (copyright 1998, Gaussian, Inc.),
 the Gaussian(R) 94 system (copyright 1995, Gaussian, Inc.),
 the Gaussian 92(TM) system (copyright 1992, Gaussian, Inc.),
 the Gaussian 90(TM) system (copyright 1990, Gaussian, Inc.),
 the Gaussian 88(TM) system (copyright 1988, Gaussian, Inc.),
 the Gaussian 86(TM) system (copyright 1986, Carnegie Mellon
 University), and the Gaussian 82(TM) system (copyright 1983,
 Carnegie Mellon University). Gaussian is a federally registered
 trademark of Gaussian, Inc.
  
 This software contains proprietary and confidential information,
 including trade secrets, belonging to Gaussian, Inc.
  
 This software is provided under written license and may be
 used, copied, transmitted, or stored only in accord with that
 written license.
  
 The following legend is applicable only to US Government
 contracts under FAR:
  
                    RESTRICTED RIGHTS LEGEND
  
 Use, reproduction and disclosure by the US Government is
 subject to restrictions as set forth in subparagraphs (a)
 and (c) of the Commercial Computer Software - Restricted
 Rights clause in FAR 52.227-19.
  
 Gaussian, Inc.
 340 Quinnipiac St., Bldg. 40, Wallingford CT 06492
  
  
 ---------------------------------------------------------------
 Warning -- This program may not be used in any manner that
 competes with the business of Gaussian, Inc. or will provide
 assistance to any competitor of Gaussian, Inc.  The licensee
 of this program is prohibited from giving any competitor of
 Gaussian, Inc. access to this program.  By using this program,
 the user acknowledges that Gaussian, Inc. is engaged in the
 business of creating and licensing software in the field of
 computational chemistry and represents and warrants to the
 licensee that it is not a competitor of Gaussian, Inc. and that
 it will not use this program in any manner prohibited above.
 ---------------------------------------------------------------
  

 Cite this work as:
 Gaussian 09, Revision D.01,
 M. J. Frisch, G. W. Trucks, H. B. Schlegel, G. E. Scuseria, 
 M. A. Robb, J. R. Cheeseman, G. Scalmani, V. Barone, B. Mennucci, 
 G. A. Petersson, H. Nakatsuji, M. Caricato, X. Li, H. P. Hratchian, 
 A. F. Izmaylov, J. Bloino, G. Zheng, J. L. Sonnenberg, M. Hada, 
 M. Ehara, K. Toyota, R. Fukuda, J. Hasegawa, M. Ishida, T. Nakajima, 
 Y. Honda, O. Kitao, H. Nakai, T. Vreven, J. A. Montgomery, Jr., 
 J. E. Peralta, F. Ogliaro, M. Bearpark, J. J. Heyd, E. Brothers, 
 K. N. Kudin, V. N. Staroverov, T. Keith, R. Kobayashi, J. Normand, 
 K. Raghavachari, A. Rendell, J. C. Burant, S. S. Iyengar, J. Tomasi, 
 M. Cossi, N. Rega, J. M. Millam, M. Klene, J. E. Knox, J. B. Cross, 
 V. Bakken, C. Adamo, J. Jaramillo, R. Gomperts, R. E. Stratmann, 
 O. Yazyev, A. J. Austin, R. Cammi, C. Pomelli, J. W. Ochterski, 
 R. L. Martin, K. Morokuma, V. G. Zakrzewski, G. A. Voth, 
 P. Salvador, J. J. Dannenberg, S. Dapprich, A. D. Daniels, 
 O. Farkas, J. B. Foresman, J. V. Ortiz, J. Cioslowski, 
 and D. J. Fox, Gaussian, Inc., Wallingford CT, 2013.
 
 ******************************************
 Gaussian 09:  ES64L-G09RevD.01 24-Apr-2013
                 3-Oct-2016 
 ******************************************
 %NprocShared=20
 Will use up to   20 processors via shared memory.
 %mem=55000mb
 %chk=cc-Al10-n-s
 ------------------------
 # hf/6-31G* test scf=xqc
 ------------------------
 1/38=1/1;
 2/12=2,17=6,18=5,40=1/2;
 3/5=1,6=6,7=1,11=9,16=1,25=1,30=1/1,2,3;
 4//1;
 5/5=2,8=3,13=1,38=5/2,8;
 6/7=2,8=2,9=2,10=2,28=1/1;
 99/5=1,9=1/99;
 --------
 Al10-n-s
 --------
 Symbolic Z-matrix:
 Charge =  0 Multiplicity = 1
 Al                   -2.07598   2.1049   -0.00027 
 Al                   -1.71275  -2.69314  -0.00021 
 Al                   -2.87525  -0.3359   -0.00037 
 Al                   -0.6712    0.04893  -1.44582 
 Al                   -0.67157   0.04894   1.44564 
 Al                    1.78975   0.57213  -1.50796 
 Al                    0.45889   2.42445   0.00005 
 Al                    0.75446  -1.83416   0.00011 
 Al                    1.78936   0.57215   1.50841 
 Al                    3.21428  -0.9083    0.00042 
 
                          Input orientation:                          
 ---------------------------------------------------------------------
 Center     Atomic      Atomic             Coordinates (Angstroms)
 Number     Number       Type             X           Y           Z
 ---------------------------------------------------------------------
      1         13           0       -2.075984    2.104901   -0.000272
      2         13           0       -1.712746   -2.693139   -0.000206
      3         13           0       -2.875247   -0.335901   -0.000371
      4         13           0       -0.671202    0.048926   -1.445816
      5         13           0       -0.671569    0.048937    1.445640
      6         13           0        1.789748    0.572125   -1.507959
      7         13           0        0.458894    2.424454    0.000048
      8         13           0        0.754460   -1.834156    0.000112
      9         13           0        1.789364    0.572154    1.508406
     10         13           0        3.214282   -0.908302    0.000418
 ---------------------------------------------------------------------
                    Distance matrix (angstroms):
                    1          2          3          4          5
     1  Al   0.000000
     2  Al   4.811770   0.000000
     3  Al   2.568333   2.628304   0.000000
     4  Al   2.879243   3.270095   2.663685   0.000000
     5  Al   2.879241   3.270092   2.663690   2.891456   0.000000
     6  Al   4.423393   5.020232   4.985931   2.516719   3.880149
     7  Al   2.554940   5.559297   4.328517   3.001795   3.001793
     8  Al   4.850524   2.612462   3.926772   2.769335   2.769323
     9  Al   4.423385   5.020241   4.985937   3.880152   2.516721
    10  Al   6.088211   5.240348   6.116372   4.254981   4.254975
                    6          7          8          9         10
     6  Al   0.000000
     7  Al   2.734297   0.000000
     8  Al   3.022629   4.268854   0.000000
     9  Al   3.016365   2.734284   3.022632   0.000000
    10  Al   2.548757   4.324283   2.628294   2.548758   0.000000
 Stoichiometry    Al10
 Framework group  C1[X(Al10)]
 Deg. of freedom    24
 Full point group                 C1      NOp   1
 Largest Abelian subgroup         C1      NOp   1
 Largest concise Abelian subgroup C1      NOp   1
                         Standard orientation:                         
 ---------------------------------------------------------------------
 Center     Atomic      Atomic             Coordinates (Angstroms)
 Number     Number       Type             X           Y           Z
 ---------------------------------------------------------------------
      1         13           0        2.075984   -2.104901   -0.000272
      2         13           0        1.712746    2.693139   -0.000206
      3         13           0        2.875247    0.335901   -0.000371
      4         13           0        0.671202   -0.048926   -1.445816
      5         13           0        0.671569   -0.048937    1.445640
      6         13           0       -1.789748   -0.572125   -1.507959
      7         13           0       -0.458894   -2.424454    0.000048
      8         13           0       -0.754460    1.834156    0.000112
      9         13           0       -1.789364   -0.572154    1.508406
     10         13           0       -3.214282    0.908302    0.000418
 ---------------------------------------------------------------------
 Rotational constants (GHZ):      0.5993292      0.4390896      0.3318005
 Standard basis: 6-31G(d) (6D, 7F)
 There are   190 symmetry adapted cartesian basis functions of A   symmetry.
 There are   190 symmetry adapted basis functions of A   symmetry.
   190 basis functions,   520 primitive gaussians,   190 cartesian basis functions
    65 alpha electrons       65 beta electrons
       nuclear repulsion energy      1191.2804643483 Hartrees.
 NAtoms=   10 NActive=   10 NUniq=   10 SFac= 1.00D+00 NAtFMM=   60 NAOKFM=F Big=F
 Integral buffers will be    131072 words long.
 Raffenetti 1 integral format.
 Two-electron integral symmetry is turned on.
 One-electron integrals computed using PRISM.
 NBasis=   190 RedAO= T EigKep=  1.36D-03  NBF=   190
 NBsUse=   190 1.00D-06 EigRej= -1.00D+00 NBFU=   190
 ExpMin= 5.57D-02 ExpMax= 1.40D+04 ExpMxC= 2.10D+03 IAcc=2 IRadAn=         4 AccDes= 0.00D+00
 Harris functional with IExCor=  205 and IRadAn=       4 diagonalized for initial guess.
 HarFok:  IExCor=  205 AccDes= 0.00D+00 IRadAn=         4 IDoV= 1 UseB2=F ITyADJ=14
 ICtDFT=  3500011 ScaDFX=  1.000000  1.000000  1.000000  1.000000
 FoFCou: FMM=F IPFlag=           0 FMFlag=      100000 FMFlg1=           0
         NFxFlg=           0 DoJE=T BraDBF=F KetDBF=T FulRan=T
         wScrn=  0.000000 ICntrl=     500 IOpCl=  0 I1Cent=   200000004 NGrid=           0
         NMat0=    1 NMatS0=      1 NMatT0=    0 NMatD0=    1 NMtDS0=    0 NMtDT0=    0
 Petite list used in FoFCou.
 Keep R1 ints in memory in canonical form, NReq=168232867.
 Requested convergence on RMS density matrix=1.00D-08 within  64 cycles.
 Requested convergence on MAX density matrix=1.00D-06.
 Requested convergence on             energy=1.00D-06.
 No special actions if energy rises.
 SCF Done:  E(RHF) =  -2418.95464083     A.U. after   22 cycles
            NFock= 22  Conv=0.46D-08     -V/T= 2.0002
 QCSCF skips out because SCF is already converged.

 **********************************************************************

            Population analysis using the SCF density.

 **********************************************************************

 Orbital symmetries:
       Occupied  (A) (A) (A) (A) (A) (A) (A) (A) (A) (A) (A) (A)
                 (A) (A) (A) (A) (A) (A) (A) (A) (A) (A) (A) (A)
                 (A) (A) (A) (A) (A) (A) (A) (A) (A) (A) (A) (A)
                 (A) (A) (A) (A) (A) (A) (A) (A) (A) (A) (A) (A)
                 (A) (A) (A) (A) (A) (A) (A) (A) (A) (A) (A) (A)
                 (A) (A) (A) (A) (A)
       Virtual   (A) (A) (A) (A) (A) (A) (A) (A) (A) (A) (A) (A)
                 (A) (A) (A) (A) (A) (A) (A) (A) (A) (A) (A) (A)
                 (A) (A) (A) (A) (A) (A) (A) (A) (A) (A) (A) (A)
                 (A) (A) (A) (A) (A) (A) (A) (A) (A) (A) (A) (A)
                 (A) (A) (A) (A) (A) (A) (A) (A) (A) (A) (A) (A)
                 (A) (A) (A) (A) (A) (A) (A) (A) (A) (A) (A) (A)
                 (A) (A) (A) (A) (A) (A) (A) (A) (A) (A) (A) (A)
                 (A) (A) (A) (A) (A) (A) (A) (A) (A) (A) (A) (A)
                 (A) (A) (A) (A) (A) (A) (A) (A) (A) (A) (A) (A)
                 (A) (A) (A) (A) (A) (A) (A) (A) (A) (A) (A) (A)
                 (A) (A) (A) (A) (A)
 The electronic state is 1-A.
 Alpha  occ. eigenvalues --  -58.47995 -58.47872 -58.47325 -58.47314 -58.47288
 Alpha  occ. eigenvalues --  -58.46881 -58.46880 -58.46879 -58.46107 -58.46106
 Alpha  occ. eigenvalues --   -4.89931  -4.89828  -4.89480  -4.89396  -4.89335
 Alpha  occ. eigenvalues --   -4.89023  -4.89021  -4.88977  -4.88478  -4.88475
 Alpha  occ. eigenvalues --   -3.21069  -3.20940  -3.20915  -3.20875  -3.20874
 Alpha  occ. eigenvalues --   -3.20749  -3.20706  -3.20595  -3.20542  -3.20516
 Alpha  occ. eigenvalues --   -3.20488  -3.20447  -3.20384  -3.20358  -3.20302
 Alpha  occ. eigenvalues --   -3.20245  -3.20237  -3.20160  -3.20157  -3.20147
 Alpha  occ. eigenvalues --   -3.20141  -3.20068  -3.20042  -3.20041  -3.19746
 Alpha  occ. eigenvalues --   -3.19729  -3.19618  -3.19616  -3.19572  -3.19566
 Alpha  occ. eigenvalues --   -0.67929  -0.58397  -0.54223  -0.48890  -0.45293
 Alpha  occ. eigenvalues --   -0.40828  -0.39374  -0.34095  -0.27969  -0.26375
 Alpha  occ. eigenvalues --   -0.26216  -0.26041  -0.23577  -0.23032  -0.22877
 Alpha virt. eigenvalues --   -0.03675  -0.01631  -0.01601  -0.00475   0.00367
 Alpha virt. eigenvalues --    0.01231   0.04663   0.05855   0.07217   0.07531
 Alpha virt. eigenvalues --    0.07923   0.08807   0.09828   0.10827   0.12009
 Alpha virt. eigenvalues --    0.12320   0.13705   0.14091   0.14990   0.15608
 Alpha virt. eigenvalues --    0.16618   0.16804   0.18923   0.19861   0.19988
 Alpha virt. eigenvalues --    0.21650   0.23764   0.24019   0.24490   0.25961
 Alpha virt. eigenvalues --    0.26954   0.27134   0.28456   0.30322   0.30402
 Alpha virt. eigenvalues --    0.30758   0.30871   0.31382   0.32978   0.34022
 Alpha virt. eigenvalues --    0.34331   0.34903   0.35815   0.37290   0.38225
 Alpha virt. eigenvalues --    0.38878   0.39667   0.39910   0.40800   0.41183
 Alpha virt. eigenvalues --    0.42456   0.42914   0.44270   0.44345   0.44398
 Alpha virt. eigenvalues --    0.45937   0.47119   0.48456   0.49682   0.50539
 Alpha virt. eigenvalues --    0.50596   0.53006   0.53925   0.54381   0.54950
 Alpha virt. eigenvalues --    0.56888   0.57678   0.60233   0.60254   0.61892
 Alpha virt. eigenvalues --    0.63501   0.64284   0.65417   0.66531   0.67295
 Alpha virt. eigenvalues --    0.68169   0.69548   0.69814   0.70427   0.70623
 Alpha virt. eigenvalues --    0.72297   0.74423   0.75664   0.76331   0.78399
 Alpha virt. eigenvalues --    0.79180   0.80234   0.82700   0.83454   0.84086
 Alpha virt. eigenvalues --    0.85134   0.85931   0.86248   0.87580   0.88306
 Alpha virt. eigenvalues --    0.89330   0.89718   0.90382   0.90841   0.95361
 Alpha virt. eigenvalues --    0.96805   0.98252   0.99860   1.00586   1.00743
 Alpha virt. eigenvalues --    1.01061   1.02685   1.02729   1.05212   1.08547
 Alpha virt. eigenvalues --    1.10652   1.14370   1.16336   1.17368   1.17510
 Alpha virt. eigenvalues --    2.23016   2.29087   2.31734   2.33335   2.33702
 Alpha virt. eigenvalues --    2.38643   2.39685   2.40981   2.41072   2.46804
          Condensed to atoms (all electrons):
               1          2          3          4          5          6
     1  Al  12.556717  -0.013973   0.257986  -0.043105  -0.043103  -0.004092
     2  Al  -0.013973  12.303232   0.293830  -0.041431  -0.041431  -0.015734
     3  Al   0.257986   0.293830  12.869545  -0.104723  -0.104722  -0.027729
     4  Al  -0.043105  -0.041431  -0.104723  13.499473  -0.068809   0.080481
     5  Al  -0.043103  -0.041431  -0.104722  -0.068809  13.499482  -0.070020
     6  Al  -0.004092  -0.015734  -0.027729   0.080481  -0.070020  12.760572
     7  Al   0.211161   0.009916  -0.006533   0.011229   0.011227  -0.055382
     8  Al   0.001617   0.260007  -0.035842  -0.099258  -0.099263   0.027622
     9  Al  -0.004092  -0.015733  -0.027729  -0.070020   0.080478   0.217185
    10  Al   0.006733   0.016419   0.009829   0.039258   0.039258  -0.013208
               7          8          9         10
     1  Al   0.211161   0.001617  -0.004092   0.006733
     2  Al   0.009916   0.260007  -0.015733   0.016419
     3  Al  -0.006533  -0.035842  -0.027729   0.009829
     4  Al   0.011229  -0.099258  -0.070020   0.039258
     5  Al   0.011227  -0.099263   0.080478   0.039258
     6  Al  -0.055382   0.027622   0.217185  -0.013208
     7  Al  12.881257  -0.073070  -0.055381   0.053439
     8  Al  -0.073070  13.085038   0.027622  -0.053094
     9  Al  -0.055381   0.027622  12.760575  -0.013209
    10  Al   0.053439  -0.053094  -0.013209  12.874882
 Mulliken charges:
               1
     1  Al   0.074151
     2  Al   0.244897
     3  Al  -0.123913
     4  Al  -0.203096
     5  Al  -0.203097
     6  Al   0.100304
     7  Al   0.012136
     8  Al  -0.041380
     9  Al   0.100304
    10  Al   0.039694
 Sum of Mulliken charges =   0.00000
 Mulliken charges with hydrogens summed into heavy atoms:
               1
     1  Al   0.074151
     2  Al   0.244897
     3  Al  -0.123913
     4  Al  -0.203096
     5  Al  -0.203097
     6  Al   0.100304
     7  Al   0.012136
     8  Al  -0.041380
     9  Al   0.100304
    10  Al   0.039694
 Electronic spatial extent (au):  <R**2>=           3318.0608
 Charge=              0.0000 electrons
 Dipole moment (field-independent basis, Debye):
    X=              0.6020    Y=             -0.2301    Z=             -0.0001  Tot=              0.6445
 Quadrupole moment (field-independent basis, Debye-Ang):
   XX=           -124.6410   YY=           -137.6661   ZZ=           -130.6065
   XY=             -0.6503   XZ=             -0.0007   YZ=              0.0001
 Traceless Quadrupole moment (field-independent basis, Debye-Ang):
   XX=              6.3302   YY=             -6.6949   ZZ=              0.3647
   XY=             -0.6503   XZ=             -0.0007   YZ=              0.0001
 Octapole moment (field-independent basis, Debye-Ang**2):
  XXX=             -9.2614  YYY=            -10.0316  ZZZ=             -0.0020  XYY=             -1.3315
  XXY=              3.5854  XXZ=              0.0025  XZZ=              5.2756  YZZ=             -1.6627
  YYZ=              0.0001  XYZ=             -0.0007
 Hexadecapole moment (field-independent basis, Debye-Ang**3):
 XXXX=          -2800.9580 YYYY=          -2282.8231 ZZZZ=          -1006.4387 XXXY=            -80.2414
 XXXZ=              0.0972 YYYX=             -2.4932 YYYZ=             -0.0021 ZZZX=              0.1337
 ZZZY=             -0.0093 XXYY=           -873.8338 XXZZ=           -680.9928 YYZZ=           -524.1883
 XXYZ=              0.0142 YYXZ=              0.0451 ZZXY=             18.0244
 N-N= 1.191280464348D+03 E-N=-8.168260192183D+03  KE= 2.418521011740D+03

 Test job not archived.
 1\1\GINC-R1I1N10\SP\RHF\6-31G(d)\Al10\VSC31064\03-Oct-2016\0\\# hf/6-3
 1G* test scf=xqc\\Al10-n-s\\0,1\Al,0,-2.075984,2.104901,-0.000272\Al,0
 ,-1.712746,-2.693139,-0.000206\Al,0,-2.875247,-0.335901,-0.000371\Al,0
 ,-0.671202,0.048926,-1.445816\Al,0,-0.671569,0.048937,1.44564\Al,0,1.7
 89748,0.572125,-1.507959\Al,0,0.458894,2.424454,0.000048\Al,0,0.75446,
 -1.834156,0.000112\Al,0,1.789364,0.572154,1.508406\Al,0,3.214282,-0.90
 8302,0.000418\\Version=ES64L-G09RevD.01\State=1-A\HF=-2418.9546408\RMS
 D=4.635e-09\Dipole=-0.2368483,0.0905345,-0.0000315\Quadrupole=4.706369
 1,-4.9775015,0.2711324,-0.4835161,0.0005569,-0.0000517\PG=C01 [X(Al10)
 ]\\@


 SIC AS THE CAWSE OF EWERY THING IS, SIC WILBE THE EFFECT.
 -- PROVERBS AND REASONS OF THE YEAR 1585
           AS REPRINTED IN PAISLEY MAGAZINE 1828.
 Job cpu time:       0 days  0 hours  1 minutes 11.9 seconds.
 File lengths (MBytes):  RWF=     15 Int=      0 D2E=      0 Chk=      2 Scr=      1
 Normal termination of Gaussian 09 at Mon Oct  3 09:49:55 2016.
 Initial command:
 /apps/leuven/thinking/software/G09//g09D1/l1.exe "/local_scratch/vsc31064/Gau-39311.inp" -scrdir="/local_scratch/vsc31064/"
 Entering Link 1 = /apps/leuven/thinking/software/G09//g09D1/l1.exe PID=     39564.
  
 Copyright (c) 1988,1990,1992,1993,1995,1998,2003,2009,2013,
            Gaussian, Inc.  All Rights Reserved.
  
 This is part of the Gaussian(R) 09 program.  It is based on
 the Gaussian(R) 03 system (copyright 2003, Gaussian, Inc.),
 the Gaussian(R) 98 system (copyright 1998, Gaussian, Inc.),
 the Gaussian(R) 94 system (copyright 1995, Gaussian, Inc.),
 the Gaussian 92(TM) system (copyright 1992, Gaussian, Inc.),
 the Gaussian 90(TM) system (copyright 1990, Gaussian, Inc.),
 the Gaussian 88(TM) system (copyright 1988, Gaussian, Inc.),
 the Gaussian 86(TM) system (copyright 1986, Carnegie Mellon
 University), and the Gaussian 82(TM) system (copyright 1983,
 Carnegie Mellon University). Gaussian is a federally registered
 trademark of Gaussian, Inc.
  
 This software contains proprietary and confidential information,
 including trade secrets, belonging to Gaussian, Inc.
  
 This software is provided under written license and may be
 used, copied, transmitted, or stored only in accord with that
 written license.
  
 The following legend is applicable only to US Government
 contracts under FAR:
  
                    RESTRICTED RIGHTS LEGEND
  
 Use, reproduction and disclosure by the US Government is
 subject to restrictions as set forth in subparagraphs (a)
 and (c) of the Commercial Computer Software - Restricted
 Rights clause in FAR 52.227-19.
  
 Gaussian, Inc.
 340 Quinnipiac St., Bldg. 40, Wallingford CT 06492
  
  
 ---------------------------------------------------------------
 Warning -- This program may not be used in any manner that
 competes with the business of Gaussian, Inc. or will provide
 assistance to any competitor of Gaussian, Inc.  The licensee
 of this program is prohibited from giving any competitor of
 Gaussian, Inc. access to this program.  By using this program,
 the user acknowledges that Gaussian, Inc. is engaged in the
 business of creating and licensing software in the field of
 computational chemistry and represents and warrants to the
 licensee that it is not a competitor of Gaussian, Inc. and that
 it will not use this program in any manner prohibited above.
 ---------------------------------------------------------------
  

 Cite this work as:
 Gaussian 09, Revision D.01,
 M. J. Frisch, G. W. Trucks, H. B. Schlegel, G. E. Scuseria, 
 M. A. Robb, J. R. Cheeseman, G. Scalmani, V. Barone, B. Mennucci, 
 G. A. Petersson, H. Nakatsuji, M. Caricato, X. Li, H. P. Hratchian, 
 A. F. Izmaylov, J. Bloino, G. Zheng, J. L. Sonnenberg, M. Hada, 
 M. Ehara, K. Toyota, R. Fukuda, J. Hasegawa, M. Ishida, T. Nakajima, 
 Y. Honda, O. Kitao, H. Nakai, T. Vreven, J. A. Montgomery, Jr., 
 J. E. Peralta, F. Ogliaro, M. Bearpark, J. J. Heyd, E. Brothers, 
 K. N. Kudin, V. N. Staroverov, T. Keith, R. Kobayashi, J. Normand, 
 K. Raghavachari, A. Rendell, J. C. Burant, S. S. Iyengar, J. Tomasi, 
 M. Cossi, N. Rega, J. M. Millam, M. Klene, J. E. Knox, J. B. Cross, 
 V. Bakken, C. Adamo, J. Jaramillo, R. Gomperts, R. E. Stratmann, 
 O. Yazyev, A. J. Austin, R. Cammi, C. Pomelli, J. W. Ochterski, 
 R. L. Martin, K. Morokuma, V. G. Zakrzewski, G. A. Voth, 
 P. Salvador, J. J. Dannenberg, S. Dapprich, A. D. Daniels, 
 O. Farkas, J. B. Foresman, J. V. Ortiz, J. Cioslowski, 
 and D. J. Fox, Gaussian, Inc., Wallingford CT, 2013.
 
 ******************************************
 Gaussian 09:  ES64L-G09RevD.01 24-Apr-2013
                 3-Oct-2016 
 ******************************************
 %NprocShared=20
 Will use up to   20 processors via shared memory.
 %mem=55000mb
 %chk=cc-Al10-n-s
 --------------------------------------------------------
 # CCSD(T,conver=5)/cc-pVTZ test geom=allcheck guess=read
 --------------------------------------------------------
 1/29=7,38=1/1;
 2/12=2,40=1/2;
 3/5=16,6=1,11=9,14=-4,16=1,25=1,30=1,116=-2/1,2,3;
 4/5=1/1;
 5/5=2,38=6/2;
 8/6=4,9=120000,10=1/1,4;
 9/5=7,9=5,14=2/13;
 6/7=2,8=2,9=2,10=2/1;
 99/5=1,9=1/99;
 Structure from the checkpoint file:  "cc-Al10-n-s.chk"
 --------
 Al10-n-s
 --------
 Charge =  0 Multiplicity = 1
 Z-Matrix found in file.
 Al,0,-2.075984,2.104901,-0.000272
 Al,0,-1.712746,-2.693139,-0.000206
 Al,0,-2.875247,-0.335901,-0.000371
 Al,0,-0.671202,0.048926,-1.445816
 Al,0,-0.671569,0.048937,1.44564
 Al,0,1.789748,0.572125,-1.507959
 Al,0,0.458894,2.424454,0.000048
 Al,0,0.75446,-1.834156,0.000112
 Al,0,1.789364,0.572154,1.508406
 Al,0,3.214282,-0.908302,0.000418
 Recover connectivity data from disk.
                          Input orientation:                          
 ---------------------------------------------------------------------
 Center     Atomic      Atomic             Coordinates (Angstroms)
 Number     Number       Type             X           Y           Z
 ---------------------------------------------------------------------
      1         13           0       -2.075984    2.104901   -0.000272
      2         13           0       -1.712746   -2.693139   -0.000206
      3         13           0       -2.875247   -0.335901   -0.000371
      4         13           0       -0.671202    0.048926   -1.445816
      5         13           0       -0.671569    0.048937    1.445640
      6         13           0        1.789748    0.572125   -1.507959
      7         13           0        0.458894    2.424454    0.000048
      8         13           0        0.754460   -1.834156    0.000112
      9         13           0        1.789364    0.572154    1.508406
     10         13           0        3.214282   -0.908302    0.000418
 ---------------------------------------------------------------------
                    Distance matrix (angstroms):
                    1          2          3          4          5
     1  Al   0.000000
     2  Al   4.811770   0.000000
     3  Al   2.568333   2.628304   0.000000
     4  Al   2.879243   3.270095   2.663685   0.000000
     5  Al   2.879241   3.270092   2.663690   2.891456   0.000000
     6  Al   4.423393   5.020232   4.985931   2.516719   3.880149
     7  Al   2.554940   5.559297   4.328517   3.001795   3.001793
     8  Al   4.850524   2.612462   3.926772   2.769335   2.769323
     9  Al   4.423385   5.020241   4.985937   3.880152   2.516721
    10  Al   6.088211   5.240348   6.116372   4.254981   4.254975
                    6          7          8          9         10
     6  Al   0.000000
     7  Al   2.734297   0.000000
     8  Al   3.022629   4.268854   0.000000
     9  Al   3.016365   2.734284   3.022632   0.000000
    10  Al   2.548757   4.324283   2.628294   2.548758   0.000000
 Stoichiometry    Al10
 Framework group  C1[X(Al10)]
 Deg. of freedom    24
 Full point group                 C1      NOp   1
 Largest Abelian subgroup         C1      NOp   1
 Largest concise Abelian subgroup C1      NOp   1
                         Standard orientation:                         
 ---------------------------------------------------------------------
 Center     Atomic      Atomic             Coordinates (Angstroms)
 Number     Number       Type             X           Y           Z
 ---------------------------------------------------------------------
      1         13           0        2.075984   -2.104901   -0.000272
      2         13           0        1.712746    2.693139   -0.000206
      3         13           0        2.875247    0.335901   -0.000371
      4         13           0        0.671202   -0.048926   -1.445816
      5         13           0        0.671569   -0.048937    1.445640
      6         13           0       -1.789748   -0.572125   -1.507959
      7         13           0       -0.458894   -2.424454    0.000048
      8         13           0       -0.754460    1.834156    0.000112
      9         13           0       -1.789364   -0.572154    1.508406
     10         13           0       -3.214282    0.908302    0.000418
 ---------------------------------------------------------------------
 Rotational constants (GHZ):      0.5993292      0.4390896      0.3318005
 Standard basis: CC-pVTZ (5D, 7F)
 There are   390 symmetry adapted cartesian basis functions of A   symmetry.
 There are   340 symmetry adapted basis functions of A   symmetry.
   340 basis functions,   950 primitive gaussians,   390 cartesian basis functions
    65 alpha electrons       65 beta electrons
       nuclear repulsion energy      1191.2804643483 Hartrees.
 NAtoms=   10 NActive=   10 NUniq=   10 SFac= 1.00D+00 NAtFMM=   60 NAOKFM=F Big=F
 Integral buffers will be    131072 words long.
 Raffenetti 1 integral format.
 Two-electron integral symmetry is turned on.
 One-electron integrals computed using PRISM.
 NBasis=   340 RedAO= T EigKep=  3.92D-04  NBF=   340
 NBsUse=   340 1.00D-06 EigRej= -1.00D+00 NBFU=   340
 Initial guess from the checkpoint file:  "cc-Al10-n-s.chk"
 B after Tr=     0.000000    0.000000    0.000000
         Rot=    1.000000    0.000000    0.000000    0.000000 Ang=   0.00 deg.
 Keep R1 ints in memory in canonical form, NReq=1710662945.
 Requested convergence on RMS density matrix=1.00D-08 within 128 cycles.
 Requested convergence on MAX density matrix=1.00D-06.
 Requested convergence on             energy=1.00D-06.
 No special actions if energy rises.
 SCF Done:  E(RHF) =  -2419.17344324     A.U. after   17 cycles
            NFock= 17  Conv=0.91D-08     -V/T= 1.9999
 ExpMin= 5.56D-02 ExpMax= 2.06D+05 ExpMxC= 1.99D+03 IAcc=3 IRadAn=         5 AccDes= 0.00D+00
 HarFok:  IExCor=  205 AccDes= 0.00D+00 IRadAn=         5 IDoV=-2 UseB2=F ITyADJ=14
 ICtDFT= 12500011 ScaDFX=  1.000000  1.000000  1.000000  1.000000
 DSYEVD-2 returned Info=          69 IAlg= 4 N=    34 NDim=    34 NE2=   212018437 trying  DSYEV.
 Range of M.O.s used for correlation:    51   340
 NBasis=   340 NAE=    65 NBE=    65 NFC=    50 NFV=     0
 NROrb=    290 NOA=    15 NOB=    15 NVA=   275 NVB=   275
 Semi-Direct transformation.
 ModeAB=           4 MOrb=            15 LenV=    7206158429
 LASXX=    176819565 LTotXX=   176819565 LenRXX=   355442340
 LTotAB=   178622775 MaxLAS=   329786550 LenRXY=           0
 NonZer=   532261905 LenScr=   801524736 LnRSAI=   329786550
 LnScr1=   496620544 LExtra=           0 Total=   1983374170
 MaxDsk=          -1 SrtSym=           T ITran=            4
 JobTyp=0 Pass  1:  I=   1 to  15.
 (rs|ai) integrals will be sorted in core.
 SymMOI:  orbitals are not symmetric.
 Spin components of T(2) and E(2):
     alpha-alpha T2 =       0.1392038259D+00 E2=     -0.1271898619D+00
     alpha-beta  T2 =       0.6032868405D+00 E2=     -0.6339700084D+00
     beta-beta   T2 =       0.1392038259D+00 E2=     -0.1271898619D+00
 ANorm=    0.1371748699D+01
 E2 =    -0.8883497321D+00 EUMP2 =    -0.24200617929729D+04
 Keep R2 and R3 ints in memory in canonical form, NReq=3390468888.
 Iterations=  50 Convergence= 0.100D-04
 Iteration Nr.   1
 **********************
 DD1Dir will call FoFMem   1 times, MxPair=       240
 NAB=   120 NAA=     0 NBB=     0.
 MP4(R+Q)=  0.68496251D-01
 E3=        0.72431110D-01        EUMP3=      -0.24199893619D+04
 E4(DQ)=   -0.19452872D-01        UMP4(DQ)=   -0.24200088147D+04
 E4(SDQ)=  -0.37039830D-01        UMP4(SDQ)=  -0.24200264017D+04
 DE(Corr)= -0.74785008     E(Corr)=     -2419.9212933    
 NORM(A)=   0.12826027D+01
 Iteration Nr.   2
 **********************
 DD1Dir will call FoFMem   1 times, MxPair=       240
 NAB=   120 NAA=     0 NBB=     0.
 DE(Corr)= -0.84743286     E(CORR)=     -2420.0208761     Delta=-9.96D-02
 NORM(A)=   0.13313123D+01
 Iteration Nr.   3
 **********************
 DD1Dir will call FoFMem   1 times, MxPair=       240
 NAB=   120 NAA=     0 NBB=     0.
 DE(Corr)= -0.82599447     E(CORR)=     -2419.9994377     Delta= 2.14D-02
 NORM(A)=   0.13423118D+01
 Iteration Nr.   4
 **********************
 DD1Dir will call FoFMem   1 times, MxPair=       240
 NAB=   120 NAA=     0 NBB=     0.
 DE(Corr)= -0.83197129     E(CORR)=     -2420.0054145     Delta=-5.98D-03
 NORM(A)=   0.13466617D+01
 Iteration Nr.   5
 **********************
 DD1Dir will call FoFMem   1 times, MxPair=       240
 NAB=   120 NAA=     0 NBB=     0.
 DE(Corr)= -0.83353279     E(CORR)=     -2420.0069760     Delta=-1.56D-03
 NORM(A)=   0.13522018D+01
 Iteration Nr.   6
 **********************
 DD1Dir will call FoFMem   1 times, MxPair=       240
 NAB=   120 NAA=     0 NBB=     0.
 DE(Corr)= -0.83370120     E(CORR)=     -2420.0071444     Delta=-1.68D-04
 NORM(A)=   0.13551995D+01
 Iteration Nr.   7
 **********************
 DD1Dir will call FoFMem   1 times, MxPair=       240
 NAB=   120 NAA=     0 NBB=     0.
 DE(Corr)= -0.83368526     E(CORR)=     -2420.0071285     Delta= 1.59D-05
 NORM(A)=   0.13551291D+01
 Iteration Nr.   8
 **********************
 DD1Dir will call FoFMem   1 times, MxPair=       240
 NAB=   120 NAA=     0 NBB=     0.
 DE(Corr)= -0.83404412     E(CORR)=     -2420.0074874     Delta=-3.59D-04
 NORM(A)=   0.13557565D+01
 Iteration Nr.   9
 **********************
 DD1Dir will call FoFMem   1 times, MxPair=       240
 NAB=   120 NAA=     0 NBB=     0.
 DE(Corr)= -0.83379031     E(CORR)=     -2420.0072336     Delta= 2.54D-04
 NORM(A)=   0.13558192D+01
 Iteration Nr.  10
 **********************
 DD1Dir will call FoFMem   1 times, MxPair=       240
 NAB=   120 NAA=     0 NBB=     0.
 DE(Corr)= -0.83392073     E(CORR)=     -2420.0073640     Delta=-1.30D-04
 NORM(A)=   0.13557775D+01
 Iteration Nr.  11
 **********************
 DD1Dir will call FoFMem   1 times, MxPair=       240
 NAB=   120 NAA=     0 NBB=     0.
 DE(Corr)= -0.83387517     E(CORR)=     -2420.0073184     Delta= 4.56D-05
 NORM(A)=   0.13558581D+01
 Iteration Nr.  12
 **********************
 DD1Dir will call FoFMem   1 times, MxPair=       240
 NAB=   120 NAA=     0 NBB=     0.
 DE(Corr)= -0.83388095     E(CORR)=     -2420.0073242     Delta=-5.78D-06
 NORM(A)=   0.13558381D+01
 Iteration Nr.  13
 **********************
 DD1Dir will call FoFMem   1 times, MxPair=       240
 NAB=   120 NAA=     0 NBB=     0.
 DE(Corr)= -0.83388412     E(CORR)=     -2420.0073274     Delta=-3.16D-06
 NORM(A)=   0.13558349D+01
 Iteration Nr.  14
 **********************
 DD1Dir will call FoFMem   1 times, MxPair=       240
 NAB=   120 NAA=     0 NBB=     0.
 DE(Corr)= -0.83388562     E(CORR)=     -2420.0073289     Delta=-1.51D-06
 NORM(A)=   0.13558424D+01
 Iteration Nr.  15
 **********************
 DD1Dir will call FoFMem   1 times, MxPair=       240
 NAB=   120 NAA=     0 NBB=     0.
 DE(Corr)= -0.83387983     E(CORR)=     -2420.0073231     Delta= 5.79D-06
 NORM(A)=   0.13558350D+01
 Iteration Nr.  16
 **********************
 DD1Dir will call FoFMem   1 times, MxPair=       240
 NAB=   120 NAA=     0 NBB=     0.
 DE(Corr)= -0.83388522     E(CORR)=     -2420.0073285     Delta=-5.40D-06
 NORM(A)=   0.13558340D+01
 Largest amplitude= 6.81D-02
 T4(AAA)= -0.42417395D-02
 T4(AAB)= -0.53215669D-01
 T5(AAA)=  0.22554595D-03
 T5(AAB)=  0.16547724D-02
 Time for triples=    73862.70 seconds.
 T4(CCSD)= -0.11491482D+00
 T5(CCSD)=  0.37606367D-02
 CCSD(T)= -0.24201184826D+04
 Discarding MO integrals.

 **********************************************************************

            Population analysis using the SCF density.

 **********************************************************************

 Orbital symmetries:
       Occupied  (A) (A) (A) (A) (A) (A) (A) (A) (A) (A) (A) (A)
                 (A) (A) (A) (A) (A) (A) (A) (A) (A) (A) (A) (A)
                 (A) (A) (A) (A) (A) (A) (A) (A) (A) (A) (A) (A)
                 (A) (A) (A) (A) (A) (A) (A) (A) (A) (A) (A) (A)
                 (A) (A) (A) (A) (A) (A) (A) (A) (A) (A) (A) (A)
                 (A) (A) (A) (A) (A)
       Virtual   (A) (A) (A) (A) (A) (A) (A) (A) (A) (A) (A) (A)
                 (A) (A) (A) (A) (A) (A) (A) (A) (A) (A) (A) (A)
                 (A) (A) (A) (A) (A) (A) (A) (A) (A) (A) (A) (A)
                 (A) (A) (A) (A) (A) (A) (A) (A) (A) (A) (A) (A)
                 (A) (A) (A) (A) (A) (A) (A) (A) (A) (A) (A) (A)
                 (A) (A) (A) (A) (A) (A) (A) (A) (A) (A) (A) (A)
                 (A) (A) (A) (A) (A) (A) (A) (A) (A) (A) (A) (A)
                 (A) (A) (A) (A) (A) (A) (A) (A) (A) (A) (A) (A)
                 (A) (A) (A) (A) (A) (A) (A) (A) (A) (A) (A) (A)
                 (A) (A) (A) (A) (A) (A) (A) (A) (A) (A) (A) (A)
                 (A) (A) (A) (A) (A) (A) (A) (A) (A) (A) (A) (A)
                 (A) (A) (A) (A) (A) (A) (A) (A) (A) (A) (A) (A)
                 (A) (A) (A) (A) (A) (A) (A) (A) (A) (A) (A) (A)
                 (A) (A) (A) (A) (A) (A) (A) (A) (A) (A) (A) (A)
                 (A) (A) (A) (A) (A) (A) (A) (A) (A) (A) (A) (A)
                 (A) (A) (A) (A) (A) (A) (A) (A) (A) (A) (A) (A)
                 (A) (A) (A) (A) (A) (A) (A) (A) (A) (A) (A) (A)
                 (A) (A) (A) (A) (A) (A) (A) (A) (A) (A) (A) (A)
                 (A) (A) (A) (A) (A) (A) (A) (A) (A) (A) (A) (A)
                 (A) (A) (A) (A) (A) (A) (A) (A) (A) (A) (A) (A)
                 (A) (A) (A) (A) (A) (A) (A) (A) (A) (A) (A) (A)
                 (A) (A) (A) (A) (A) (A) (A) (A) (A) (A) (A) (A)
                 (A) (A) (A) (A) (A) (A) (A) (A) (A) (A) (A)
 The electronic state is 1-A.
 Alpha  occ. eigenvalues --  -58.48800 -58.48648 -58.48195 -58.48092 -58.48051
 Alpha  occ. eigenvalues --  -58.47801 -58.47801 -58.47787 -58.47178 -58.47178
 Alpha  occ. eigenvalues --   -4.89901  -4.89820  -4.89394  -4.89383  -4.89323
 Alpha  occ. eigenvalues --   -4.89079  -4.89076  -4.89034  -4.88591  -4.88589
 Alpha  occ. eigenvalues --   -3.21050  -3.20907  -3.20904  -3.20901  -3.20897
 Alpha  occ. eigenvalues --   -3.20800  -3.20612  -3.20531  -3.20525  -3.20502
 Alpha  occ. eigenvalues --   -3.20469  -3.20462  -3.20430  -3.20422  -3.20332
 Alpha  occ. eigenvalues --   -3.20298  -3.20289  -3.20235  -3.20230  -3.20223
 Alpha  occ. eigenvalues --   -3.20217  -3.20182  -3.20177  -3.20176  -3.19861
 Alpha  occ. eigenvalues --   -3.19845  -3.19768  -3.19766  -3.19760  -3.19753
 Alpha  occ. eigenvalues --   -0.67411  -0.57984  -0.53824  -0.48567  -0.44927
 Alpha  occ. eigenvalues --   -0.40493  -0.39092  -0.33862  -0.27734  -0.26146
 Alpha  occ. eigenvalues --   -0.26074  -0.25815  -0.23586  -0.23070  -0.22841
 Alpha virt. eigenvalues --   -0.03425  -0.01503  -0.01462  -0.00376   0.00591
 Alpha virt. eigenvalues --    0.01365   0.04613   0.05753   0.07091   0.07228
 Alpha virt. eigenvalues --    0.07650   0.08600   0.09371   0.10630   0.11577
 Alpha virt. eigenvalues --    0.11721   0.12646   0.13190   0.14224   0.14284
 Alpha virt. eigenvalues --    0.15886   0.15980   0.17084   0.17352   0.17573
 Alpha virt. eigenvalues --    0.18479   0.18833   0.19992   0.20563   0.20898
 Alpha virt. eigenvalues --    0.21563   0.22020   0.22209   0.22820   0.23458
 Alpha virt. eigenvalues --    0.24118   0.24388   0.25437   0.25816   0.26353
 Alpha virt. eigenvalues --    0.26952   0.27205   0.27446   0.27903   0.28694
 Alpha virt. eigenvalues --    0.28706   0.29339   0.30603   0.30606   0.31676
 Alpha virt. eigenvalues --    0.32073   0.33277   0.33648   0.34146   0.34575
 Alpha virt. eigenvalues --    0.35157   0.35671   0.36644   0.37652   0.38171
 Alpha virt. eigenvalues --    0.38505   0.39108   0.39317   0.40484   0.40614
 Alpha virt. eigenvalues --    0.40713   0.42314   0.42753   0.43615   0.44960
 Alpha virt. eigenvalues --    0.46072   0.46241   0.47292   0.47673   0.48796
 Alpha virt. eigenvalues --    0.49925   0.50170   0.50310   0.50678   0.51088
 Alpha virt. eigenvalues --    0.51423   0.52773   0.53147   0.53748   0.54849
 Alpha virt. eigenvalues --    0.54927   0.55129   0.56653   0.57185   0.57746
 Alpha virt. eigenvalues --    0.59087   0.59553   0.59919   0.60203   0.61868
 Alpha virt. eigenvalues --    0.62639   0.63114   0.64126   0.64422   0.65422
 Alpha virt. eigenvalues --    0.65960   0.66401   0.66689   0.67913   0.67977
 Alpha virt. eigenvalues --    0.68214   0.69816   0.70573   0.70662   0.71350
 Alpha virt. eigenvalues --    0.72455   0.73767   0.74441   0.76276   0.76675
 Alpha virt. eigenvalues --    0.79467   0.79718   0.80041   0.82418   0.82932
 Alpha virt. eigenvalues --    0.83685   0.84409   0.85109   0.85186   0.85275
 Alpha virt. eigenvalues --    0.86388   0.86719   0.87208   0.88138   0.88913
 Alpha virt. eigenvalues --    0.89186   0.90645   0.91221   0.91310   0.92698
 Alpha virt. eigenvalues --    0.93096   0.94111   0.94436   0.95090   0.95571
 Alpha virt. eigenvalues --    0.96186   0.97411   0.98288   0.98556   0.98715
 Alpha virt. eigenvalues --    0.98785   0.99554   0.99823   1.00490   1.00972
 Alpha virt. eigenvalues --    1.01255   1.01526   1.01548   1.02564   1.02896
 Alpha virt. eigenvalues --    1.04175   1.04344   1.05101   1.05240   1.05465
 Alpha virt. eigenvalues --    1.06952   1.07267   1.07577   1.09229   1.09438
 Alpha virt. eigenvalues --    1.10430   1.12175   1.12755   1.13300   1.13360
 Alpha virt. eigenvalues --    1.13780   1.13844   1.15855   1.17607   1.17715
 Alpha virt. eigenvalues --    1.18552   1.19516   1.20247   1.21032   1.22111
 Alpha virt. eigenvalues --    1.22607   1.22660   1.23743   1.23950   1.24024
 Alpha virt. eigenvalues --    1.25300   1.27041   1.27103   1.27495   1.28173
 Alpha virt. eigenvalues --    1.31087   1.31188   1.31344   1.32265   1.33805
 Alpha virt. eigenvalues --    1.33979   1.34397   1.34429   1.35384   1.35699
 Alpha virt. eigenvalues --    1.37250   1.38011   1.38534   1.39430   1.39567
 Alpha virt. eigenvalues --    1.40276   1.41479   1.42111   1.42862   1.43558
 Alpha virt. eigenvalues --    1.44308   1.44344   1.45394   1.45829   1.47474
 Alpha virt. eigenvalues --    1.47969   1.49099   1.49768   1.50144   1.51351
 Alpha virt. eigenvalues --    1.53312   1.54425   1.54771   1.55934   1.56620
 Alpha virt. eigenvalues --    1.57357   1.57828   1.58412   1.60172   1.62240
 Alpha virt. eigenvalues --    1.63275   1.63484   1.66266   1.67938   1.68468
 Alpha virt. eigenvalues --    2.33647   2.37988   2.42102   2.47091   2.48632
 Alpha virt. eigenvalues --    2.49275   2.51511   2.53865   2.54905   2.59100
 Alpha virt. eigenvalues --    2.61228   2.61453   2.63445   2.63745   2.65245
 Alpha virt. eigenvalues --    2.70485   2.71312   2.72156   2.73910   2.79352
 Alpha virt. eigenvalues --    2.80192   2.85507   2.87495   2.88158   2.95091
 Alpha virt. eigenvalues --    2.98834   3.01308   3.13396   3.21158   3.21843
 Alpha virt. eigenvalues --    3.31351   3.42706   3.47810   3.49848   3.51377
 Alpha virt. eigenvalues --    3.65173   3.70432   3.70731   3.88211   4.22107
          Condensed to atoms (all electrons):
               1          2          3          4          5          6
     1  Al  12.144535  -0.020275   0.351945   0.118927   0.118929  -0.018870
     2  Al  -0.020275  12.300908   0.314110   0.021910   0.021911  -0.004243
     3  Al   0.351945   0.314110  12.038204   0.214606   0.214604  -0.005606
     4  Al   0.118927   0.021910   0.214606  12.130145  -0.011464   0.365187
     5  Al   0.118929   0.021911   0.214604  -0.011464  12.130148  -0.015188
     6  Al  -0.018870  -0.004243  -0.005606   0.365187  -0.015188  12.009760
     7  Al   0.347285   0.000339  -0.030736   0.059366   0.059364   0.232824
     8  Al  -0.009987   0.292206  -0.059798   0.200627   0.200631   0.005275
     9  Al  -0.018870  -0.004243  -0.005606  -0.015188   0.365184   0.020065
    10  Al   0.002485   0.002244   0.001512  -0.030831  -0.030831   0.374951
               7          8          9         10
     1  Al   0.347285  -0.009987  -0.018870   0.002485
     2  Al   0.000339   0.292206  -0.004243   0.002244
     3  Al  -0.030736  -0.059798  -0.005606   0.001512
     4  Al   0.059366   0.200627  -0.015188  -0.030831
     5  Al   0.059364   0.200631   0.365184  -0.030831
     6  Al   0.232824   0.005275   0.020065   0.374951
     7  Al  12.172600  -0.027691   0.232830  -0.032204
     8  Al  -0.027691  12.106112   0.005274   0.312081
     9  Al   0.232830   0.005274  12.009759   0.374951
    10  Al  -0.032204   0.312081   0.374951  11.977843
 Mulliken charges:
               1
     1  Al  -0.016104
     2  Al   0.075133
     3  Al  -0.033234
     4  Al  -0.053287
     5  Al  -0.053288
     6  Al   0.035845
     7  Al  -0.013978
     8  Al  -0.024730
     9  Al   0.035845
    10  Al   0.047799
 Sum of Mulliken charges =   0.00000
 Mulliken charges with hydrogens summed into heavy atoms:
               1
     1  Al  -0.016104
     2  Al   0.075133
     3  Al  -0.033234
     4  Al  -0.053287
     5  Al  -0.053288
     6  Al   0.035845
     7  Al  -0.013978
     8  Al  -0.024730
     9  Al   0.035845
    10  Al   0.047799
 Electronic spatial extent (au):  <R**2>=           3316.3028
 Charge=              0.0000 electrons
 Dipole moment (field-independent basis, Debye):
    X=              0.4938    Y=             -0.2533    Z=             -0.0001  Tot=              0.5550
 Quadrupole moment (field-independent basis, Debye-Ang):
   XX=           -125.2403   YY=           -136.9072   ZZ=           -128.4014
   XY=             -0.0323   XZ=             -0.0004   YZ=              0.0000
 Traceless Quadrupole moment (field-independent basis, Debye-Ang):
   XX=              4.9427   YY=             -6.7243   ZZ=              1.7816
   XY=             -0.0323   XZ=             -0.0004   YZ=              0.0000
 Octapole moment (field-independent basis, Debye-Ang**2):
  XXX=             -9.0274  YYY=            -10.9318  ZZZ=             -0.0021  XYY=             -2.6703
  XXY=              3.2997  XXZ=              0.0025  XZZ=              5.4354  YZZ=             -1.7973
  YYZ=              0.0002  XYZ=             -0.0007
 Hexadecapole moment (field-independent basis, Debye-Ang**3):
 XXXX=          -2837.1892 YYYY=          -2275.7430 ZZZZ=           -974.5347 XXXY=            -69.8802
 XXXZ=              0.1029 YYYX=              7.8291 YYYZ=             -0.0035 ZZZX=              0.1368
 ZZZY=             -0.0106 XXYY=           -877.1106 XXZZ=           -678.3314 YYZZ=           -522.1282
 XXYZ=              0.0135 YYXZ=              0.0458 ZZXY=             20.9885
 N-N= 1.191280464348D+03 E-N=-8.169338842756D+03  KE= 2.419304579927D+03

 Test job not archived.
 1\1\GINC-R1I1N10\SP\RCCSD(T)-FC\CC-pVTZ\Al10\VSC31064\03-Oct-2016\0\\#
  CCSD(T,conver=5)/cc-pVTZ test geom=allcheck guess=read\\Al10-n-s\\0,1
 \Al,0,-2.075984,2.104901,-0.000272\Al,0,-1.712746,-2.693139,-0.000206\
 Al,0,-2.875247,-0.335901,-0.000371\Al,0,-0.671202,0.048926,-1.445816\A
 l,0,-0.671569,0.048937,1.44564\Al,0,1.789748,0.572125,-1.507959\Al,0,0
 .458894,2.424454,0.000048\Al,0,0.75446,-1.834156,0.000112\Al,0,1.78936
 4,0.572154,1.508406\Al,0,3.214282,-0.908302,0.000418\\Version=ES64L-G0
 9RevD.01\State=1-A\HF=-2419.1734432\MP2=-2420.061793\MP3=-2419.9893619
 \MP4D=-2420.077311\MP4DQ=-2420.0088147\MP4SDQ=-2420.0264017\CCSD=-2420
 .0073285\CCSD(T)=-2420.1184826\RMSD=9.131e-09\PG=C01 [X(Al10)]\\@


 THE REAL VOYAGE OF DISCOVERY CONSISTS NOT IN SEEKING NEW LANDSCAPES 
 BUT IN HAVING NEW EYES.
                                                    -- MARCEL PROUST
 Job cpu time:       1 days  4 hours 56 minutes 12.4 seconds.
 File lengths (MBytes):  RWF=  29459 Int=      0 D2E=      0 Chk=      6 Scr=      1
 Normal termination of Gaussian 09 at Mon Oct  3 11:23:02 2016.
