 Entering Gaussian System, Link 0=g09
 Initial command:
 /apps/leuven/thinking/software/G09//g09D1/l1.exe "/local_scratch/vsc31064/Gau-19837.inp" -scrdir="/local_scratch/vsc31064/"
 Entering Link 1 = /apps/leuven/thinking/software/G09//g09D1/l1.exe PID=     19841.
  
 Copyright (c) 1988,1990,1992,1993,1995,1998,2003,2009,2013,
            Gaussian, Inc.  All Rights Reserved.
  
 This is part of the Gaussian(R) 09 program.  It is based on
 the Gaussian(R) 03 system (copyright 2003, Gaussian, Inc.),
 the Gaussian(R) 98 system (copyright 1998, Gaussian, Inc.),
 the Gaussian(R) 94 system (copyright 1995, Gaussian, Inc.),
 the Gaussian 92(TM) system (copyright 1992, Gaussian, Inc.),
 the Gaussian 90(TM) system (copyright 1990, Gaussian, Inc.),
 the Gaussian 88(TM) system (copyright 1988, Gaussian, Inc.),
 the Gaussian 86(TM) system (copyright 1986, Carnegie Mellon
 University), and the Gaussian 82(TM) system (copyright 1983,
 Carnegie Mellon University). Gaussian is a federally registered
 trademark of Gaussian, Inc.
  
 This software contains proprietary and confidential information,
 including trade secrets, belonging to Gaussian, Inc.
  
 This software is provided under written license and may be
 used, copied, transmitted, or stored only in accord with that
 written license.
  
 The following legend is applicable only to US Government
 contracts under FAR:
  
                    RESTRICTED RIGHTS LEGEND
  
 Use, reproduction and disclosure by the US Government is
 subject to restrictions as set forth in subparagraphs (a)
 and (c) of the Commercial Computer Software - Restricted
 Rights clause in FAR 52.227-19.
  
 Gaussian, Inc.
 340 Quinnipiac St., Bldg. 40, Wallingford CT 06492
  
  
 ---------------------------------------------------------------
 Warning -- This program may not be used in any manner that
 competes with the business of Gaussian, Inc. or will provide
 assistance to any competitor of Gaussian, Inc.  The licensee
 of this program is prohibited from giving any competitor of
 Gaussian, Inc. access to this program.  By using this program,
 the user acknowledges that Gaussian, Inc. is engaged in the
 business of creating and licensing software in the field of
 computational chemistry and represents and warrants to the
 licensee that it is not a competitor of Gaussian, Inc. and that
 it will not use this program in any manner prohibited above.
 ---------------------------------------------------------------
  

 Cite this work as:
 Gaussian 09, Revision D.01,
 M. J. Frisch, G. W. Trucks, H. B. Schlegel, G. E. Scuseria, 
 M. A. Robb, J. R. Cheeseman, G. Scalmani, V. Barone, B. Mennucci, 
 G. A. Petersson, H. Nakatsuji, M. Caricato, X. Li, H. P. Hratchian, 
 A. F. Izmaylov, J. Bloino, G. Zheng, J. L. Sonnenberg, M. Hada, 
 M. Ehara, K. Toyota, R. Fukuda, J. Hasegawa, M. Ishida, T. Nakajima, 
 Y. Honda, O. Kitao, H. Nakai, T. Vreven, J. A. Montgomery, Jr., 
 J. E. Peralta, F. Ogliaro, M. Bearpark, J. J. Heyd, E. Brothers, 
 K. N. Kudin, V. N. Staroverov, T. Keith, R. Kobayashi, J. Normand, 
 K. Raghavachari, A. Rendell, J. C. Burant, S. S. Iyengar, J. Tomasi, 
 M. Cossi, N. Rega, J. M. Millam, M. Klene, J. E. Knox, J. B. Cross, 
 V. Bakken, C. Adamo, J. Jaramillo, R. Gomperts, R. E. Stratmann, 
 O. Yazyev, A. J. Austin, R. Cammi, C. Pomelli, J. W. Ochterski, 
 R. L. Martin, K. Morokuma, V. G. Zakrzewski, G. A. Voth, 
 P. Salvador, J. J. Dannenberg, S. Dapprich, A. D. Daniels, 
 O. Farkas, J. B. Foresman, J. V. Ortiz, J. Cioslowski, 
 and D. J. Fox, Gaussian, Inc., Wallingford CT, 2013.
 
 ******************************************
 Gaussian 09:  ES64L-G09RevD.01 24-Apr-2013
                 3-Oct-2016 
 ******************************************
 %NprocShared=20
 Will use up to   20 processors via shared memory.
 %mem=55000mb
 %chk=cc-Al11-n-d
 ------------------------
 # hf/6-31G* test scf=xqc
 ------------------------
 1/38=1/1;
 2/12=2,17=6,18=5,40=1/2;
 3/5=1,6=6,7=1,11=9,16=1,25=1,30=1/1,2,3;
 4//1;
 5/5=2,8=3,13=1,38=5/2,8;
 6/7=2,8=2,9=2,10=2,28=1/1;
 99/5=1,9=1/99;
 --------
 Al11-n-d
 --------
 Symbolic Z-matrix:
 Charge =  0 Multiplicity = 2
 Al                    0.        2.8556    1.05998 
 Al                    0.        1.33086  -1.35732 
 Al                    0.       -1.33086  -1.35732 
 Al                    0.        0.        1.06567 
 Al                    0.       -2.8556    1.05998 
 Al                   -2.22669  -1.55625   0.62598 
 Al                   -2.22669   1.55625   0.62598 
 Al                    2.22669   1.55625   0.62598 
 Al                    2.22669  -1.55625   0.62598 
 Al                    2.41591   0.       -1.48452 
 Al                   -2.41591   0.       -1.48452 
 
                          Input orientation:                          
 ---------------------------------------------------------------------
 Center     Atomic      Atomic             Coordinates (Angstroms)
 Number     Number       Type             X           Y           Z
 ---------------------------------------------------------------------
      1         13           0        0.000000    2.855600    1.059976
      2         13           0        0.000000    1.330860   -1.357324
      3         13           0        0.000000   -1.330860   -1.357324
      4         13           0        0.000000    0.000000    1.065673
      5         13           0        0.000000   -2.855600    1.059976
      6         13           0       -2.226687   -1.556245    0.625985
      7         13           0       -2.226687    1.556245    0.625985
      8         13           0        2.226687    1.556245    0.625985
      9         13           0        2.226687   -1.556245    0.625985
     10         13           0        2.415914    0.000000   -1.484520
     11         13           0       -2.415914    0.000000   -1.484520
 ---------------------------------------------------------------------
                    Distance matrix (angstroms):
                    1          2          3          4          5
     1  Al   0.000000
     2  Al   2.858001   0.000000
     3  Al   4.834230   2.661719   0.000000
     4  Al   2.855606   2.764436   2.764436   0.000000
     5  Al   5.711200   4.834230   2.858001   2.855606   0.000000
     6  Al   4.960934   4.150545   2.990393   2.751974   2.614346
     7  Al   2.614346   2.990393   4.150545   2.751974   4.960934
     8  Al   2.614346   2.990393   4.150545   2.751974   4.960934
     9  Al   4.960934   4.150545   2.990393   2.751974   2.614346
    10  Al   4.523887   2.761161   2.761161   3.512852   4.523887
    11  Al   4.523887   2.761161   2.761161   3.512852   4.523887
                    6          7          8          9         10
     6  Al   0.000000
     7  Al   3.112491   0.000000
     8  Al   5.433243   4.453373   0.000000
     9  Al   4.453373   5.433243   3.112491   0.000000
    10  Al   5.331967   5.331967   2.629056   2.629056   0.000000
    11  Al   2.629056   2.629056   5.331967   5.331967   4.831829
                   11
    11  Al   0.000000
 Stoichiometry    Al11(2)
 Framework group  C2V[C2(Al),SGV(Al4),SGV'(Al2),X(Al4)]
 Deg. of freedom     9
 Full point group                 C2V     NOp   4
 Largest Abelian subgroup         C2V     NOp   4
 Largest concise Abelian subgroup C2V     NOp   4
                         Standard orientation:                         
 ---------------------------------------------------------------------
 Center     Atomic      Atomic             Coordinates (Angstroms)
 Number     Number       Type             X           Y           Z
 ---------------------------------------------------------------------
      1         13           0        0.000000    2.855600    1.059441
      2         13           0        0.000000    1.330860   -1.357858
      3         13           0        0.000000   -1.330860   -1.357858
      4         13           0        0.000000    0.000000    1.065139
      5         13           0        0.000000   -2.855600    1.059441
      6         13           0       -2.226687   -1.556245    0.625451
      7         13           0       -2.226687    1.556245    0.625451
      8         13           0        2.226687    1.556245    0.625451
      9         13           0        2.226687   -1.556245    0.625451
     10         13           0        2.415914    0.000000   -1.485054
     11         13           0       -2.415914    0.000000   -1.485054
 ---------------------------------------------------------------------
 Rotational constants (GHZ):      0.4398771      0.4204552      0.3068333
 Standard basis: 6-31G(d) (6D, 7F)
 There are    71 symmetry adapted cartesian basis functions of A1  symmetry.
 There are    35 symmetry adapted cartesian basis functions of A2  symmetry.
 There are    47 symmetry adapted cartesian basis functions of B1  symmetry.
 There are    56 symmetry adapted cartesian basis functions of B2  symmetry.
 There are    71 symmetry adapted basis functions of A1  symmetry.
 There are    35 symmetry adapted basis functions of A2  symmetry.
 There are    47 symmetry adapted basis functions of B1  symmetry.
 There are    56 symmetry adapted basis functions of B2  symmetry.
   209 basis functions,   572 primitive gaussians,   209 cartesian basis functions
    72 alpha electrons       71 beta electrons
       nuclear repulsion energy      1432.6750659860 Hartrees.
 NAtoms=   11 NActive=   11 NUniq=    5 SFac= 4.00D+00 NAtFMM=   60 NAOKFM=F Big=F
 Integral buffers will be    131072 words long.
 Raffenetti 2 integral format.
 Two-electron integral symmetry is turned on.
 One-electron integrals computed using PRISM.
 NBasis=   209 RedAO= T EigKep=  9.73D-04  NBF=    71    35    47    56
 NBsUse=   209 1.00D-06 EigRej= -1.00D+00 NBFU=    71    35    47    56
 ExpMin= 5.57D-02 ExpMax= 1.40D+04 ExpMxC= 2.10D+03 IAcc=2 IRadAn=         4 AccDes= 0.00D+00
 Harris functional with IExCor=  205 and IRadAn=       4 diagonalized for initial guess.
 HarFok:  IExCor=  205 AccDes= 0.00D+00 IRadAn=         4 IDoV= 1 UseB2=F ITyADJ=14
 ICtDFT=  3500011 ScaDFX=  1.000000  1.000000  1.000000  1.000000
 FoFCou: FMM=F IPFlag=           0 FMFlag=      100000 FMFlg1=           0
         NFxFlg=           0 DoJE=T BraDBF=F KetDBF=T FulRan=T
         wScrn=  0.000000 ICntrl=     500 IOpCl=  0 I1Cent=   200000004 NGrid=           0
         NMat0=    1 NMatS0=      1 NMatT0=    0 NMatD0=    1 NMtDS0=    0 NMtDT0=    0
 Petite list used in FoFCou.
 Initial guess orbital symmetries:
 Alpha Orbitals:
       Occupied  (A1) (B2) (A1) (A1) (B1) (B2) (A2) (B1) (A1) (B2)
                 (A1) (A1) (A1) (B2) (B1) (A1) (B2) (A2) (B1) (A1)
                 (B2) (A1) (B2) (B1) (A1) (A1) (B1) (A2) (B2) (A1)
                 (B2) (B1) (A1) (A2) (B2) (A1) (B1) (B2) (A2) (A1)
                 (B1) (A1) (B2) (B1) (A2) (A2) (B1) (A1) (B2) (A2)
                 (B1) (B2) (A1) (B2) (A1) (A1) (B1) (B2) (A1) (A1)
                 (A2) (A1) (B1) (B2) (A1) (B1) (B2) (B1) (B2) (A2)
                 (A1) (A1)
       Virtual   (B1) (B2) (A2) (A1) (B1) (B2) (A1) (A2) (A1) (A1)
                 (B2) (A1) (A1) (B1) (A2) (B2) (B2) (A2) (B1) (B2)
                 (A1) (B1) (B2) (B2) (B1) (A1) (B1) (A2) (A1) (A1)
                 (A1) (B2) (B1) (A2) (A1) (B1) (A2) (A2) (B2) (A1)
                 (B2) (B1) (A1) (B2) (B1) (B2) (A1) (A1) (A2) (A1)
                 (B2) (B1) (A1) (B2) (A2) (B2) (A1) (B1) (B1) (A1)
                 (B2) (A2) (A1) (B1) (B2) (A2) (A2) (B1) (A1) (B2)
                 (B1) (B2) (A1) (A2) (B1) (A1) (B2) (A1) (B1) (A1)
                 (A2) (A2) (B2) (B1) (B1) (B2) (A1) (A2) (A1) (B2)
                 (A1) (A2) (B1) (B1) (A1) (B2) (B2) (A1) (B2) (B1)
                 (A1) (A2) (B2) (B1) (A2) (B1) (A1) (B1) (A1) (B2)
                 (A2) (A1) (A1) (B2) (A2) (B2) (A1) (B2) (B2) (B1)
                 (A2) (A1) (B1) (B2) (A2) (A1) (A1) (B2) (B1) (A1)
                 (A1) (A2) (B2) (A1) (B2) (B1) (A1)
 Beta  Orbitals:
       Occupied  (A1) (B2) (A1) (A1) (B1) (B2) (A2) (B1) (A1) (B2)
                 (A1) (A1) (A1) (B2) (B1) (A1) (B2) (A2) (B1) (A1)
                 (B2) (A1) (B2) (B1) (A1) (A1) (B1) (A2) (B2) (A1)
                 (B2) (B1) (A1) (A2) (B2) (A1) (B1) (B2) (A2) (A1)
                 (B1) (A1) (B2) (B1) (A2) (A2) (B1) (A1) (B2) (A2)
                 (B1) (B2) (A1) (B2) (A1) (A1) (B1) (B2) (A1) (A1)
                 (A2) (A1) (B1) (B2) (A1) (B1) (B2) (B1) (B2) (A2)
                 (A1)
       Virtual   (A1) (B1) (B2) (A2) (A1) (B1) (B2) (A1) (A2) (A1)
                 (A1) (B2) (A1) (A1) (B1) (A2) (B2) (B2) (A2) (B1)
                 (B2) (A1) (B1) (B2) (B2) (B1) (A1) (B1) (A2) (A1)
                 (A1) (A1) (B2) (B1) (A2) (A1) (B1) (A2) (A2) (B2)
                 (A1) (B2) (B1) (A1) (B2) (B1) (B2) (A1) (A1) (A2)
                 (A1) (B2) (B1) (A1) (B2) (A2) (B2) (A1) (B1) (B1)
                 (A1) (B2) (A2) (A1) (B1) (B2) (A2) (A2) (B1) (A1)
                 (B2) (B1) (B2) (A1) (A2) (B1) (A1) (B2) (A1) (B1)
                 (A1) (A2) (A2) (B2) (B1) (B1) (B2) (A1) (A2) (A1)
                 (B2) (A1) (A2) (B1) (B1) (A1) (B2) (B2) (A1) (B2)
                 (B1) (A1) (A2) (B2) (B1) (A2) (B1) (A1) (B1) (A1)
                 (B2) (A2) (A1) (A1) (B2) (A2) (B2) (A1) (B2) (B2)
                 (B1) (A2) (A1) (B1) (B2) (A2) (A1) (A1) (B2) (B1)
                 (A1) (A1) (A2) (B2) (A1) (B2) (B1) (A1)
 The electronic state of the initial guess is 2-A1.
 Initial guess <Sx>= 0.0000 <Sy>= 0.0000 <Sz>= 0.5000 <S**2>= 0.7500 S= 0.5000
 Keep R1 and R2 ints in memory in symmetry-blocked form, NReq=301387552.
 Requested convergence on RMS density matrix=1.00D-08 within  64 cycles.
 Requested convergence on MAX density matrix=1.00D-06.
 Requested convergence on             energy=1.00D-06.
 No special actions if energy rises.
 SCF Done:  E(UHF) =  -2660.85872893     A.U. after   48 cycles
            NFock= 48  Conv=0.34D-08     -V/T= 2.0001
 <Sx>= 0.0000 <Sy>= 0.0000 <Sz>= 0.5000 <S**2>= 1.4025 S= 0.7855
 <L.S>= 0.000000000000E+00
 Annihilation of the first spin contaminant:
 S**2 before annihilation     1.4025,   after     1.3235
 QCSCF skips out because SCF is already converged.

 **********************************************************************

            Population analysis using the SCF density.

 **********************************************************************

 Orbital symmetries:
 Alpha Orbitals:
       Occupied  (B2) (B1) (A2) (A1) (B2) (A1) (B2) (A1) (A1) (B1)
                 (A1) (A1) (B2) (B1) (A2) (A1) (B2) (A1) (B2) (B1)
                 (A1) (A1) (B2) (A1) (B1) (A2) (A1) (B2) (B1) (A2)
                 (A1) (B2) (B1) (A2) (A1) (B2) (A1) (B1) (B2) (A2)
                 (B2) (A1) (A1) (B2) (B1) (A2) (A1) (B1) (A1) (B1)
                 (B2) (A2) (A1) (B1) (B2) (A1) (B1) (B2) (A1) (A1)
                 (A2) (A1) (B2) (B1) (B2) (A1) (B1) (B2) (A1) (B1)
                 (A2) (A1)
       Virtual   (B1) (B2) (A2) (A1) (B2) (B1) (A1) (A1) (A2) (A1)
                 (A1) (B2) (B1) (A1) (A2) (B2) (B2) (B1) (B2) (A1)
                 (A2) (B2) (B1) (A1) (B1) (B2) (A1) (A2) (B1) (A1)
                 (A1) (B2) (B1) (A2) (A1) (B1) (A2) (B2) (A2) (B2)
                 (A1) (A1) (B1) (A1) (B2) (B1) (A1) (B2) (A2) (B2)
                 (A1) (B1) (A2) (A1) (B2) (A1) (B2) (B1) (B1) (A1)
                 (A2) (B2) (B1) (A2) (A1) (B2) (A1) (B2) (B2) (B1)
                 (A2) (B1) (A1) (A1) (B1) (A2) (B2) (B1) (A1) (A2)
                 (A1) (B1) (A2) (B1) (B2) (A1) (B2) (A1) (A2) (B2)
                 (A1) (A2) (B1) (B2) (B1) (A1) (B2) (A1) (B2) (B1)
                 (A2) (A1) (B2) (A1) (B1) (B1) (A2) (B2) (B1) (A1)
                 (A2) (A1) (B2) (A1) (A2) (B2) (B2) (A1) (B2) (B1)
                 (A2) (A1) (B1) (B2) (A2) (A1) (A1) (B2) (B1) (A1)
                 (A2) (A1) (B2) (A1) (B2) (B1) (A1)
 Beta  Orbitals:
       Occupied  (B2) (B1) (A2) (A1) (B2) (A1) (B2) (A1) (A1) (B1)
                 (A1) (A1) (B1) (B2) (A2) (B2) (A1) (A1) (B2) (B1)
                 (A1) (A1) (B1) (A1) (B2) (A2) (B1) (A1) (B2) (A2)
                 (B2) (A1) (B1) (A2) (A1) (B2) (B2) (A1) (A2) (B1)
                 (B1) (A2) (A1) (B2) (A1) (B2) (B1) (A1) (A1) (B1)
                 (B2) (A2) (B2) (B1) (A1) (A1) (B1) (B2) (A1) (A2)
                 (A1) (B1) (A1) (B2) (B2) (A1) (B1) (B1) (B2) (A2)
                 (A1)
       Virtual   (B1) (A1) (A2) (B2) (A1) (B1) (B2) (A1) (A2) (A1)
                 (A1) (A1) (B2) (B1) (A2) (A1) (B2) (B2) (B1) (B2)
                 (A1) (A2) (B1) (B2) (B1) (A1) (B2) (A2) (B1) (A1)
                 (A1) (A1) (B1) (A2) (B2) (B1) (A2) (A1) (B2) (A2)
                 (A1) (B2) (A1) (B1) (B2) (A1) (B1) (A1) (B2) (A2)
                 (A1) (B2) (B1) (A2) (A1) (B2) (B2) (A1) (B1) (A2)
                 (B1) (A1) (B2) (B1) (A1) (A2) (B2) (A1) (B2) (B1)
                 (B2) (A2) (B1) (A1) (A2) (A1) (B1) (B2) (B1) (A1)
                 (A1) (A2) (B1) (A2) (B2) (B1) (A1) (A1) (B2) (A2)
                 (B2) (A1) (A2) (B1) (A1) (B2) (B1) (B2) (A1) (B2)
                 (B1) (A2) (A1) (B2) (A1) (B1) (B1) (A2) (B2) (B1)
                 (A1) (A2) (A1) (B2) (A1) (A2) (B2) (B2) (A1) (B2)
                 (B1) (A2) (A1) (B1) (B2) (A2) (A1) (A1) (B2) (B1)
                 (A1) (A2) (A1) (B2) (A1) (B2) (B1) (A1)
 The electronic state is 2-A1.
 Alpha  occ. eigenvalues --  -58.48179 -58.48179 -58.48179 -58.48178 -58.48047
 Alpha  occ. eigenvalues --  -58.48047 -58.47386 -58.47385 -58.46756 -58.46756
 Alpha  occ. eigenvalues --  -58.44807  -4.90131  -4.90130  -4.90127  -4.90126
 Alpha  occ. eigenvalues --   -4.90117  -4.90117  -4.89706  -4.89697  -4.88905
 Alpha  occ. eigenvalues --   -4.88905  -4.87510  -3.21323  -3.21322  -3.21282
 Alpha  occ. eigenvalues --   -3.21280  -3.21266  -3.21265  -3.21219  -3.21214
 Alpha  occ. eigenvalues --   -3.21214  -3.21210  -3.21145  -3.21145  -3.21080
 Alpha  occ. eigenvalues --   -3.21039  -3.21038  -3.21035  -3.21031  -3.21028
 Alpha  occ. eigenvalues --   -3.20987  -3.20986  -3.20743  -3.20720  -3.20630
 Alpha  occ. eigenvalues --   -3.20622  -3.19945  -3.19945  -3.19887  -3.19886
 Alpha  occ. eigenvalues --   -3.19847  -3.19846  -3.18901  -3.18807  -3.18514
 Alpha  occ. eigenvalues --   -0.70402  -0.58525  -0.58525  -0.53088  -0.44725
 Alpha  occ. eigenvalues --   -0.43658  -0.41244  -0.38744  -0.38676  -0.27651
 Alpha  occ. eigenvalues --   -0.27374  -0.27026  -0.26350  -0.24586  -0.24522
 Alpha  occ. eigenvalues --   -0.23835  -0.21261
 Alpha virt. eigenvalues --   -0.02587  -0.02448  -0.01929  -0.01514   0.00444
 Alpha virt. eigenvalues --    0.01061   0.03958   0.04728   0.04844   0.05965
 Alpha virt. eigenvalues --    0.08068   0.08222   0.08321   0.08800   0.11068
 Alpha virt. eigenvalues --    0.11732   0.13574   0.13930   0.14702   0.15735
 Alpha virt. eigenvalues --    0.15914   0.16277   0.16473   0.17435   0.17572
 Alpha virt. eigenvalues --    0.18576   0.20567   0.20961   0.21292   0.22834
 Alpha virt. eigenvalues --    0.25293   0.25499   0.25538   0.25792   0.26765
 Alpha virt. eigenvalues --    0.27472   0.27894   0.28599   0.30566   0.31718
 Alpha virt. eigenvalues --    0.32021   0.32670   0.33144   0.35241   0.35497
 Alpha virt. eigenvalues --    0.35760   0.36445   0.36708   0.37723   0.39417
 Alpha virt. eigenvalues --    0.39623   0.39706   0.41260   0.41302   0.41631
 Alpha virt. eigenvalues --    0.42020   0.42594   0.45008   0.45554   0.45594
 Alpha virt. eigenvalues --    0.45607   0.46228   0.47302   0.49516   0.49581
 Alpha virt. eigenvalues --    0.50169   0.52376   0.53664   0.55218   0.55350
 Alpha virt. eigenvalues --    0.55395   0.55876   0.59308   0.60855   0.60912
 Alpha virt. eigenvalues --    0.61550   0.62817   0.63216   0.63633   0.65171
 Alpha virt. eigenvalues --    0.65667   0.67284   0.67761   0.68973   0.69081
 Alpha virt. eigenvalues --    0.70529   0.71692   0.72439   0.73750   0.74894
 Alpha virt. eigenvalues --    0.76787   0.77922   0.78712   0.79040   0.79356
 Alpha virt. eigenvalues --    0.79379   0.81017   0.82152   0.84048   0.84704
 Alpha virt. eigenvalues --    0.87165   0.87397   0.88459   0.89289   0.90487
 Alpha virt. eigenvalues --    0.92348   0.93352   0.94470   0.95294   0.95521
 Alpha virt. eigenvalues --    0.97514   0.97859   0.99221   0.99843   1.01236
 Alpha virt. eigenvalues --    1.01966   1.02424   1.03600   1.04108   1.05845
 Alpha virt. eigenvalues --    1.07431   1.07505   1.08660   1.09256   1.14244
 Alpha virt. eigenvalues --    1.32872   2.23888   2.28448   2.29466   2.30754
 Alpha virt. eigenvalues --    2.35625   2.36194   2.36833   2.38186   2.39539
 Alpha virt. eigenvalues --    2.40454   2.46509
  Beta  occ. eigenvalues --  -58.48219 -58.48219 -58.48219 -58.48219 -58.47893
  Beta  occ. eigenvalues --  -58.47893 -58.47151 -58.47151 -58.46808 -58.46808
  Beta  occ. eigenvalues --  -58.44716  -4.90211  -4.90211  -4.90209  -4.90209
  Beta  occ. eigenvalues --   -4.89829  -4.89829  -4.89261  -4.89254  -4.88979
  Beta  occ. eigenvalues --   -4.88979  -4.87370  -3.21379  -3.21379  -3.21376
  Beta  occ. eigenvalues --   -3.21375  -3.21197  -3.21197  -3.21190  -3.21190
  Beta  occ. eigenvalues --   -3.21146  -3.21146  -3.21099  -3.21097  -3.21095
  Beta  occ. eigenvalues --   -3.21094  -3.20849  -3.20848  -3.20753  -3.20753
  Beta  occ. eigenvalues --   -3.20619  -3.20611  -3.20506  -3.20496  -3.20245
  Beta  occ. eigenvalues --   -3.20193  -3.20112  -3.20112  -3.20000  -3.20000
  Beta  occ. eigenvalues --   -3.19916  -3.19915  -3.18615  -3.18519  -3.18518
  Beta  occ. eigenvalues --   -0.69318  -0.58493  -0.58033  -0.51818  -0.43841
  Beta  occ. eigenvalues --   -0.43161  -0.39110  -0.38785  -0.34381  -0.27116
  Beta  occ. eigenvalues --   -0.26360  -0.26105  -0.24987  -0.24548  -0.24382
  Beta  occ. eigenvalues --   -0.23274
  Beta virt. eigenvalues --   -0.03329  -0.02403  -0.01911  -0.00399  -0.00059
  Beta virt. eigenvalues --    0.00223   0.03186   0.03811   0.05045   0.05766
  Beta virt. eigenvalues --    0.06281   0.08759   0.08766   0.09827   0.10788
  Beta virt. eigenvalues --    0.10876   0.12010   0.13965   0.14169   0.15313
  Beta virt. eigenvalues --    0.15619   0.16150   0.16565   0.17130   0.17720
  Beta virt. eigenvalues --    0.17757   0.18902   0.21766   0.22088   0.22730
  Beta virt. eigenvalues --    0.23862   0.24967   0.25336   0.25505   0.25958
  Beta virt. eigenvalues --    0.27240   0.28259   0.28386   0.29603   0.30867
  Beta virt. eigenvalues --    0.32563   0.32675   0.33068   0.33492   0.35778
  Beta virt. eigenvalues --    0.35916   0.36017   0.36800   0.37079   0.37421
  Beta virt. eigenvalues --    0.39988   0.40052   0.40176   0.41332   0.41368
  Beta virt. eigenvalues --    0.41923   0.42876   0.43027   0.44783   0.45408
  Beta virt. eigenvalues --    0.46103   0.46110   0.47122   0.47641   0.49681
  Beta virt. eigenvalues --    0.50028   0.50696   0.52824   0.54387   0.55075
  Beta virt. eigenvalues --    0.55204   0.55795   0.55967   0.60144   0.61010
  Beta virt. eigenvalues --    0.61959   0.62106   0.63486   0.63771   0.64104
  Beta virt. eigenvalues --    0.65885   0.66406   0.67425   0.67646   0.68782
  Beta virt. eigenvalues --    0.68967   0.71314   0.72619   0.72804   0.74535
  Beta virt. eigenvalues --    0.75088   0.77005   0.78382   0.78655   0.79322
  Beta virt. eigenvalues --    0.79364   0.79940   0.81030   0.82690   0.84115
  Beta virt. eigenvalues --    0.84934   0.87065   0.87726   0.88683   0.89783
  Beta virt. eigenvalues --    0.90754   0.92488   0.93310   0.94869   0.95475
  Beta virt. eigenvalues --    0.96065   0.97638   0.98179   0.99743   1.00030
  Beta virt. eigenvalues --    1.01376   1.02378   1.03026   1.03989   1.05400
  Beta virt. eigenvalues --    1.06024   1.07635   1.08004   1.08915   1.09257
  Beta virt. eigenvalues --    1.14452   1.33209   2.24130   2.28616   2.29380
  Beta virt. eigenvalues --    2.30977   2.35512   2.36544   2.37233   2.38488
  Beta virt. eigenvalues --    2.40012   2.40304   2.46593
          Condensed to atoms (all electrons):
               1          2          3          4          5          6
     1  Al  12.888988  -0.011511   0.002842  -0.163376  -0.007124   0.012286
     2  Al  -0.011511  13.564622  -0.003028  -0.250828   0.002842   0.007681
     3  Al   0.002842  -0.003028  13.564622  -0.250828  -0.011511  -0.062663
     4  Al  -0.163376  -0.250828  -0.250828  14.732857  -0.163376  -0.186530
     5  Al  -0.007124   0.002842  -0.011511  -0.163376  12.888988   0.115081
     6  Al   0.012286   0.007681  -0.062663  -0.186530   0.115081  12.923296
     7  Al   0.115081  -0.062663   0.007681  -0.186530   0.012286   0.071217
     8  Al   0.115081  -0.062663   0.007681  -0.186530   0.012286  -0.002347
     9  Al   0.012286   0.007681  -0.062663  -0.186530   0.115081   0.040714
    10  Al  -0.004687  -0.052887  -0.052887   0.060089  -0.004687  -0.007020
    11  Al  -0.004687  -0.052887  -0.052887   0.060089  -0.004687   0.007399
               7          8          9         10         11
     1  Al   0.115081   0.115081   0.012286  -0.004687  -0.004687
     2  Al  -0.062663  -0.062663   0.007681  -0.052887  -0.052887
     3  Al   0.007681   0.007681  -0.062663  -0.052887  -0.052887
     4  Al  -0.186530  -0.186530  -0.186530   0.060089   0.060089
     5  Al   0.012286   0.012286   0.115081  -0.004687  -0.004687
     6  Al   0.071217  -0.002347   0.040714  -0.007020   0.007399
     7  Al  12.923296   0.040714  -0.002347  -0.007020   0.007399
     8  Al   0.040714  12.923296   0.071217   0.007399  -0.007020
     9  Al  -0.002347   0.071217  12.923296   0.007399  -0.007020
    10  Al  -0.007020   0.007399   0.007399  13.015483   0.019795
    11  Al   0.007399  -0.007020  -0.007020   0.019795  13.015483
          Atomic-Atomic Spin Densities.
               1          2          3          4          5          6
     1  Al   0.082792   0.035291  -0.019575   0.022623   0.005079  -0.008232
     2  Al   0.035291   0.367997   0.212692   0.087477  -0.019575   0.027343
     3  Al  -0.019575   0.212692   0.367997   0.087477   0.035291  -0.054986
     4  Al   0.022623   0.087477   0.087477   0.015361   0.022623  -0.043221
     5  Al   0.005079  -0.019575   0.035291   0.022623   0.082792   0.075754
     6  Al  -0.008232   0.027343  -0.054986  -0.043221   0.075754   0.001573
     7  Al   0.075754  -0.054986   0.027343  -0.043221  -0.008232   0.036436
     8  Al   0.075754  -0.054986   0.027343  -0.043221  -0.008232   0.005913
     9  Al  -0.008232   0.027343  -0.054986  -0.043221   0.075754   0.018142
    10  Al  -0.002088  -0.092300  -0.092300   0.066493  -0.002088  -0.004172
    11  Al  -0.002088  -0.092300  -0.092300   0.066493  -0.002088  -0.111988
               7          8          9         10         11
     1  Al   0.075754   0.075754  -0.008232  -0.002088  -0.002088
     2  Al  -0.054986  -0.054986   0.027343  -0.092300  -0.092300
     3  Al   0.027343   0.027343  -0.054986  -0.092300  -0.092300
     4  Al  -0.043221  -0.043221  -0.043221   0.066493   0.066493
     5  Al  -0.008232  -0.008232   0.075754  -0.002088  -0.002088
     6  Al   0.036436   0.005913   0.018142  -0.004172  -0.111988
     7  Al   0.001573   0.018142   0.005913  -0.004172  -0.111988
     8  Al   0.018142   0.001573   0.036436  -0.111988  -0.004172
     9  Al   0.005913   0.036436   0.001573  -0.111988  -0.004172
    10  Al  -0.004172  -0.111988  -0.111988   0.147513   0.023059
    11  Al  -0.111988  -0.004172  -0.004172   0.023059   0.147513
 Mulliken charges and spin densities:
               1          2
     1  Al   0.044820   0.257077
     2  Al  -0.086359   0.443996
     3  Al  -0.086359   0.443996
     4  Al  -0.278508   0.195662
     5  Al   0.044820   0.257077
     6  Al   0.080885  -0.057437
     7  Al   0.080885  -0.057437
     8  Al   0.080885  -0.057437
     9  Al   0.080885  -0.057437
    10  Al   0.019023  -0.184031
    11  Al   0.019023  -0.184031
 Sum of Mulliken charges =   0.00000   1.00000
 Mulliken charges and spin densities with hydrogens summed into heavy atoms:
               1          2
     1  Al   0.044820   0.257077
     2  Al  -0.086359   0.443996
     3  Al  -0.086359   0.443996
     4  Al  -0.278508   0.195662
     5  Al   0.044820   0.257077
     6  Al   0.080885  -0.057437
     7  Al   0.080885  -0.057437
     8  Al   0.080885  -0.057437
     9  Al   0.080885  -0.057437
    10  Al   0.019023  -0.184031
    11  Al   0.019023  -0.184031
 Electronic spatial extent (au):  <R**2>=           3765.1766
 Charge=              0.0000 electrons
 Dipole moment (field-independent basis, Debye):
    X=              0.0000    Y=              0.0000    Z=              0.2808  Tot=              0.2808
 Quadrupole moment (field-independent basis, Debye-Ang):
   XX=           -147.3113   YY=           -147.6329   ZZ=           -143.2238
   XY=              0.0000   XZ=              0.0000   YZ=              0.0000
 Traceless Quadrupole moment (field-independent basis, Debye-Ang):
   XX=             -1.2552   YY=             -1.5769   ZZ=              2.8322
   XY=              0.0000   XZ=              0.0000   YZ=              0.0000
 Octapole moment (field-independent basis, Debye-Ang**2):
  XXX=              0.0000  YYY=              0.0000  ZZZ=             -3.2566  XYY=              0.0000
  XXY=              0.0000  XXZ=              5.0744  XZZ=              0.0000  YZZ=              0.0000
  YYZ=              3.6398  XYZ=              0.0000
 Hexadecapole moment (field-independent basis, Debye-Ang**3):
 XXXX=          -2912.6942 YYYY=          -2764.3714 ZZZZ=          -1378.7355 XXXY=              0.0000
 XXXZ=              0.0000 YYYX=              0.0000 YYYZ=              0.0000 ZZZX=              0.0000
 ZZZY=              0.0000 XXYY=           -961.0392 XXZZ=           -713.4419 YYZZ=           -686.2122
 XXYZ=              0.0000 YYXZ=              0.0000 ZZXY=              0.0000
 N-N= 1.432675065986D+03 E-N=-9.229207843634D+03  KE= 2.660508790863D+03
 Symmetry A1   KE= 1.108963713989D+03
 Symmetry A2   KE= 3.019208026095D+02
 Symmetry B1   KE= 5.245775323983D+02
 Symmetry B2   KE= 7.250467418660D+02
                          Isotropic Fermi Contact Couplings
        Atom                 a.u.       MegaHertz       Gauss      10(-4) cm-1
     1  Al(27)             0.23511     274.04925      97.78758      91.41299
     2  Al(27)             0.34407     401.05168     143.10521     133.77644
     3  Al(27)             0.34407     401.05168     143.10521     133.77644
     4  Al(27)             0.04501      52.46502      18.72082      17.50045
     5  Al(27)             0.23511     274.04925      97.78758      91.41299
     6  Al(27)            -0.08642    -100.72998     -35.94296     -33.59990
     7  Al(27)            -0.08642    -100.72998     -35.94296     -33.59990
     8  Al(27)            -0.08642    -100.72998     -35.94296     -33.59990
     9  Al(27)            -0.08642    -100.72998     -35.94296     -33.59990
    10  Al(27)            -0.01042     -12.14969      -4.33531      -4.05270
    11  Al(27)            -0.01042     -12.14969      -4.33531      -4.05270
 --------------------------------------------------------
       Center         ----  Spin Dipole Couplings  ----
                      3XX-RR        3YY-RR        3ZZ-RR
 --------------------------------------------------------
     1   Atom        0.137821     -0.021302     -0.116519
     2   Atom       -0.316721      0.309198      0.007523
     3   Atom       -0.316721      0.309198      0.007523
     4   Atom        0.084246     -0.259504      0.175259
     5   Atom        0.137821     -0.021302     -0.116519
     6   Atom        0.104334     -0.064335     -0.039999
     7   Atom        0.104334     -0.064335     -0.039999
     8   Atom        0.104334     -0.064335     -0.039999
     9   Atom        0.104334     -0.064335     -0.039999
    10   Atom       -0.024655      0.042892     -0.018237
    11   Atom       -0.024655      0.042892     -0.018237
 --------------------------------------------------------
                        XY            XZ            YZ
 --------------------------------------------------------
     1   Atom        0.000000      0.000000      0.275155
     2   Atom        0.000000      0.000000     -0.211060
     3   Atom        0.000000      0.000000      0.211060
     4   Atom        0.000000      0.000000      0.000000
     5   Atom        0.000000      0.000000     -0.275155
     6   Atom       -0.075920      0.119626      0.113992
     7   Atom        0.075920      0.119626     -0.113992
     8   Atom       -0.075920     -0.119626     -0.113992
     9   Atom        0.075920     -0.119626      0.113992
    10   Atom        0.000000      0.034285      0.000000
    11   Atom        0.000000     -0.034285      0.000000
 --------------------------------------------------------


 ---------------------------------------------------------------------------------
              Anisotropic Spin Dipole Couplings in Principal Axis System
 ---------------------------------------------------------------------------------

       Atom             a.u.   MegaHertz   Gauss  10(-4) cm-1        Axes

              Baa    -0.3482   -48.441   -17.285   -16.158  0.0000 -0.6440  0.7650
     1 Al(27) Bbb     0.1378    19.176     6.842     6.396  1.0000  0.0000  0.0000
              Bcc     0.2103    29.265    10.442     9.762  0.0000  0.7650  0.6440
 
              Baa    -0.3167   -44.067   -15.724   -14.699  1.0000  0.0000  0.0000
     2 Al(27) Bbb    -0.1011   -14.061    -5.017    -4.690  0.0000  0.4575  0.8892
              Bcc     0.4178    58.128    20.742    19.390  0.0000  0.8892 -0.4575
 
              Baa    -0.3167   -44.067   -15.724   -14.699  1.0000  0.0000  0.0000
     3 Al(27) Bbb    -0.1011   -14.061    -5.017    -4.690  0.0000 -0.4575  0.8892
              Bcc     0.4178    58.128    20.742    19.390  0.0000  0.8892  0.4575
 
              Baa    -0.2595   -36.107   -12.884   -12.044  0.0000  1.0000  0.0000
     4 Al(27) Bbb     0.0842    11.722     4.183     3.910  1.0000  0.0000  0.0000
              Bcc     0.1753    24.385     8.701     8.134  0.0000  0.0000  1.0000
 
              Baa    -0.3482   -48.441   -17.285   -16.158  0.0000  0.6440  0.7650
     5 Al(27) Bbb     0.1378    19.176     6.842     6.396  1.0000  0.0000  0.0000
              Bcc     0.2103    29.265    10.442     9.762  0.0000  0.7650 -0.6440
 
              Baa    -0.2243   -31.213   -11.138   -10.412 -0.3880 -0.6498  0.6536
     6 Al(27) Bbb     0.0519     7.216     2.575     2.407 -0.2639  0.7578  0.5967
              Bcc     0.1725    23.997     8.563     8.005  0.8831 -0.0590  0.4655
 
              Baa    -0.2243   -31.213   -11.138   -10.412 -0.3880  0.6498  0.6536
     7 Al(27) Bbb     0.0519     7.216     2.575     2.407  0.2639  0.7578 -0.5967
              Bcc     0.1725    23.997     8.563     8.005  0.8831  0.0590  0.4655
 
              Baa    -0.2243   -31.213   -11.138   -10.412  0.3880  0.6498  0.6536
     8 Al(27) Bbb     0.0519     7.216     2.575     2.407 -0.2639  0.7578 -0.5967
              Bcc     0.1725    23.997     8.563     8.005  0.8831 -0.0590 -0.4655
 
              Baa    -0.2243   -31.213   -11.138   -10.412  0.3880 -0.6498  0.6536
     9 Al(27) Bbb     0.0519     7.216     2.575     2.407  0.2639  0.7578  0.5967
              Bcc     0.1725    23.997     8.563     8.005  0.8831  0.0590 -0.4655
 
              Baa    -0.0559    -7.775    -2.774    -2.593  0.7393  0.0000 -0.6734
    10 Al(27) Bbb     0.0130     1.807     0.645     0.603  0.6734  0.0000  0.7393
              Bcc     0.0429     5.968     2.129     1.991  0.0000  1.0000  0.0000
 
              Baa    -0.0559    -7.775    -2.774    -2.593  0.7393  0.0000  0.6734
    11 Al(27) Bbb     0.0130     1.807     0.645     0.603 -0.6734  0.0000  0.7393
              Bcc     0.0429     5.968     2.129     1.991  0.0000  1.0000  0.0000
 

 ---------------------------------------------------------------------------------


 Test job not archived.
 1\1\GINC-R2I0N16\SP\UHF\6-31G(d)\Al11(2)\VSC31064\03-Oct-2016\0\\# hf/
 6-31G* test scf=xqc\\Al11-n-d\\0,2\Al,0,0.,2.85559999,1.05997554\Al,0,
 0.,1.33085957,-1.35732438\Al,0,0.,-1.33085957,-1.35732438\Al,0,0.,0.,1
 .06567305\Al,0,0.,-2.85559999,1.05997554\Al,0,-2.22668668,-1.5562454,0
 .62598482\Al,0,-2.22668668,1.5562454,0.62598482\Al,0,2.22668668,1.5562
 454,0.62598482\Al,0,2.22668668,-1.5562454,0.62598482\Al,0,2.41591446,0
 .,-1.48451974\Al,0,-2.41591446,0.,-1.48451974\\Version=ES64L-G09RevD.0
 1\State=2-A1\HF=-2660.8587289\S2=1.402529\S2-1=0.\S2A=1.323515\RMSD=3.
 372e-09\Dipole=0.,0.,0.1104738\Quadrupole=-0.9332403,-1.1724141,2.1056
 544,0.,0.,0.\PG=C02V [C2(Al1),SGV(Al4),SGV'(Al2),X(Al4)]\\@


 SCIENCE AT ITS BEST PROVIDES US WITH BETTER QUESTIONS, 
 NOT ABSOLUTE ANSWERS

                                    -- NORMAN COUSINS, 1976
 Job cpu time:       0 days  0 hours  2 minutes  2.1 seconds.
 File lengths (MBytes):  RWF=     29 Int=      0 D2E=      0 Chk=      6 Scr=      1
 Normal termination of Gaussian 09 at Mon Oct  3 06:33:02 2016.
 Initial command:
 /apps/leuven/thinking/software/G09//g09D1/l1.exe "/local_scratch/vsc31064/Gau-19837.inp" -scrdir="/local_scratch/vsc31064/"
 Entering Link 1 = /apps/leuven/thinking/software/G09//g09D1/l1.exe PID=     20090.
  
 Copyright (c) 1988,1990,1992,1993,1995,1998,2003,2009,2013,
            Gaussian, Inc.  All Rights Reserved.
  
 This is part of the Gaussian(R) 09 program.  It is based on
 the Gaussian(R) 03 system (copyright 2003, Gaussian, Inc.),
 the Gaussian(R) 98 system (copyright 1998, Gaussian, Inc.),
 the Gaussian(R) 94 system (copyright 1995, Gaussian, Inc.),
 the Gaussian 92(TM) system (copyright 1992, Gaussian, Inc.),
 the Gaussian 90(TM) system (copyright 1990, Gaussian, Inc.),
 the Gaussian 88(TM) system (copyright 1988, Gaussian, Inc.),
 the Gaussian 86(TM) system (copyright 1986, Carnegie Mellon
 University), and the Gaussian 82(TM) system (copyright 1983,
 Carnegie Mellon University). Gaussian is a federally registered
 trademark of Gaussian, Inc.
  
 This software contains proprietary and confidential information,
 including trade secrets, belonging to Gaussian, Inc.
  
 This software is provided under written license and may be
 used, copied, transmitted, or stored only in accord with that
 written license.
  
 The following legend is applicable only to US Government
 contracts under FAR:
  
                    RESTRICTED RIGHTS LEGEND
  
 Use, reproduction and disclosure by the US Government is
 subject to restrictions as set forth in subparagraphs (a)
 and (c) of the Commercial Computer Software - Restricted
 Rights clause in FAR 52.227-19.
  
 Gaussian, Inc.
 340 Quinnipiac St., Bldg. 40, Wallingford CT 06492
  
  
 ---------------------------------------------------------------
 Warning -- This program may not be used in any manner that
 competes with the business of Gaussian, Inc. or will provide
 assistance to any competitor of Gaussian, Inc.  The licensee
 of this program is prohibited from giving any competitor of
 Gaussian, Inc. access to this program.  By using this program,
 the user acknowledges that Gaussian, Inc. is engaged in the
 business of creating and licensing software in the field of
 computational chemistry and represents and warrants to the
 licensee that it is not a competitor of Gaussian, Inc. and that
 it will not use this program in any manner prohibited above.
 ---------------------------------------------------------------
  

 Cite this work as:
 Gaussian 09, Revision D.01,
 M. J. Frisch, G. W. Trucks, H. B. Schlegel, G. E. Scuseria, 
 M. A. Robb, J. R. Cheeseman, G. Scalmani, V. Barone, B. Mennucci, 
 G. A. Petersson, H. Nakatsuji, M. Caricato, X. Li, H. P. Hratchian, 
 A. F. Izmaylov, J. Bloino, G. Zheng, J. L. Sonnenberg, M. Hada, 
 M. Ehara, K. Toyota, R. Fukuda, J. Hasegawa, M. Ishida, T. Nakajima, 
 Y. Honda, O. Kitao, H. Nakai, T. Vreven, J. A. Montgomery, Jr., 
 J. E. Peralta, F. Ogliaro, M. Bearpark, J. J. Heyd, E. Brothers, 
 K. N. Kudin, V. N. Staroverov, T. Keith, R. Kobayashi, J. Normand, 
 K. Raghavachari, A. Rendell, J. C. Burant, S. S. Iyengar, J. Tomasi, 
 M. Cossi, N. Rega, J. M. Millam, M. Klene, J. E. Knox, J. B. Cross, 
 V. Bakken, C. Adamo, J. Jaramillo, R. Gomperts, R. E. Stratmann, 
 O. Yazyev, A. J. Austin, R. Cammi, C. Pomelli, J. W. Ochterski, 
 R. L. Martin, K. Morokuma, V. G. Zakrzewski, G. A. Voth, 
 P. Salvador, J. J. Dannenberg, S. Dapprich, A. D. Daniels, 
 O. Farkas, J. B. Foresman, J. V. Ortiz, J. Cioslowski, 
 and D. J. Fox, Gaussian, Inc., Wallingford CT, 2013.
 
 ******************************************
 Gaussian 09:  ES64L-G09RevD.01 24-Apr-2013
                 3-Oct-2016 
 ******************************************
 %NprocShared=20
 Will use up to   20 processors via shared memory.
 %mem=55000mb
 %chk=cc-Al11-n-d
 ----------------------------------------------------------------
 # CCSD(T,conver=5)/cc-pVTZ test geom=allcheck guess=read scf=xqc
 ----------------------------------------------------------------
 1/29=7,38=1/1;
 2/12=2,40=1/2;
 3/5=16,6=1,11=9,14=-4,16=1,25=1,30=1,116=-2/1,2,3;
 4/5=1/1;
 5/5=2,8=3,13=1,38=6/2,8;
 8/6=4,9=120000,10=1/1,4;
 9/5=7,9=5,14=2/13;
 6/7=2,8=2,9=2,10=2/1;
 99/5=1,9=1/99;
 Structure from the checkpoint file:  "cc-Al11-n-d.chk"
 --------
 Al11-n-d
 --------
 Charge =  0 Multiplicity = 2
 Z-Matrix found in file.
 Al,0,0.,2.85559999,1.05997554
 Al,0,0.,1.33085957,-1.35732438
 Al,0,0.,-1.33085957,-1.35732438
 Al,0,0.,0.,1.06567305
 Al,0,0.,-2.85559999,1.05997554
 Al,0,-2.22668668,-1.5562454,0.62598482
 Al,0,-2.22668668,1.5562454,0.62598482
 Al,0,2.22668668,1.5562454,0.62598482
 Al,0,2.22668668,-1.5562454,0.62598482
 Al,0,2.41591446,0.,-1.48451974
 Al,0,-2.41591446,0.,-1.48451974
 Recover connectivity data from disk.
                          Input orientation:                          
 ---------------------------------------------------------------------
 Center     Atomic      Atomic             Coordinates (Angstroms)
 Number     Number       Type             X           Y           Z
 ---------------------------------------------------------------------
      1         13           0        0.000000    2.855600    1.059976
      2         13           0        0.000000    1.330860   -1.357324
      3         13           0        0.000000   -1.330860   -1.357324
      4         13           0        0.000000    0.000000    1.065673
      5         13           0        0.000000   -2.855600    1.059976
      6         13           0       -2.226687   -1.556245    0.625985
      7         13           0       -2.226687    1.556245    0.625985
      8         13           0        2.226687    1.556245    0.625985
      9         13           0        2.226687   -1.556245    0.625985
     10         13           0        2.415914    0.000000   -1.484520
     11         13           0       -2.415914    0.000000   -1.484520
 ---------------------------------------------------------------------
                    Distance matrix (angstroms):
                    1          2          3          4          5
     1  Al   0.000000
     2  Al   2.858001   0.000000
     3  Al   4.834230   2.661719   0.000000
     4  Al   2.855606   2.764436   2.764436   0.000000
     5  Al   5.711200   4.834230   2.858001   2.855606   0.000000
     6  Al   4.960934   4.150545   2.990393   2.751974   2.614346
     7  Al   2.614346   2.990393   4.150545   2.751974   4.960934
     8  Al   2.614346   2.990393   4.150545   2.751974   4.960934
     9  Al   4.960934   4.150545   2.990393   2.751974   2.614346
    10  Al   4.523887   2.761161   2.761161   3.512852   4.523887
    11  Al   4.523887   2.761161   2.761161   3.512852   4.523887
                    6          7          8          9         10
     6  Al   0.000000
     7  Al   3.112491   0.000000
     8  Al   5.433243   4.453373   0.000000
     9  Al   4.453373   5.433243   3.112491   0.000000
    10  Al   5.331967   5.331967   2.629056   2.629056   0.000000
    11  Al   2.629056   2.629056   5.331967   5.331967   4.831829
                   11
    11  Al   0.000000
 Stoichiometry    Al11(2)
 Framework group  C2V[C2(Al),SGV(Al4),SGV'(Al2),X(Al4)]
 Deg. of freedom     9
 Full point group                 C2V     NOp   4
 Largest Abelian subgroup         C2V     NOp   4
 Largest concise Abelian subgroup C2V     NOp   4
                         Standard orientation:                         
 ---------------------------------------------------------------------
 Center     Atomic      Atomic             Coordinates (Angstroms)
 Number     Number       Type             X           Y           Z
 ---------------------------------------------------------------------
      1         13           0        0.000000    2.855600    1.059441
      2         13           0        0.000000    1.330860   -1.357858
      3         13           0        0.000000   -1.330860   -1.357858
      4         13           0        0.000000    0.000000    1.065139
      5         13           0        0.000000   -2.855600    1.059441
      6         13           0       -2.226687   -1.556245    0.625451
      7         13           0       -2.226687    1.556245    0.625451
      8         13           0        2.226687    1.556245    0.625451
      9         13           0        2.226687   -1.556245    0.625451
     10         13           0        2.415914    0.000000   -1.485054
     11         13           0       -2.415914    0.000000   -1.485054
 ---------------------------------------------------------------------
 Rotational constants (GHZ):      0.4398771      0.4204552      0.3068333
 Standard basis: CC-pVTZ (5D, 7F)
 There are   138 symmetry adapted cartesian basis functions of A1  symmetry.
 There are    78 symmetry adapted cartesian basis functions of A2  symmetry.
 There are    99 symmetry adapted cartesian basis functions of B1  symmetry.
 There are   114 symmetry adapted cartesian basis functions of B2  symmetry.
 There are   118 symmetry adapted basis functions of A1  symmetry.
 There are    70 symmetry adapted basis functions of A2  symmetry.
 There are    87 symmetry adapted basis functions of B1  symmetry.
 There are    99 symmetry adapted basis functions of B2  symmetry.
   374 basis functions,  1045 primitive gaussians,   429 cartesian basis functions
    72 alpha electrons       71 beta electrons
       nuclear repulsion energy      1432.6750659860 Hartrees.
 NAtoms=   11 NActive=   11 NUniq=    5 SFac= 4.00D+00 NAtFMM=   60 NAOKFM=F Big=F
 Integral buffers will be    131072 words long.
 Raffenetti 2 integral format.
 Two-electron integral symmetry is turned on.
 One-electron integrals computed using PRISM.
 NBasis=   374 RedAO= T EigKep=  2.36D-04  NBF=   118    70    87    99
 NBsUse=   374 1.00D-06 EigRej= -1.00D+00 NBFU=   118    70    87    99
 Initial guess from the checkpoint file:  "cc-Al11-n-d.chk"
 B after Tr=     0.000000    0.000000    0.000000
         Rot=    1.000000    0.000000    0.000000    0.000000 Ang=   0.00 deg.
 Initial guess orbital symmetries:
 Alpha Orbitals:
       Occupied  (B2) (B1) (A2) (A1) (B2) (A1) (B2) (A1) (A1) (B1)
                 (A1) (A1) (B2) (B1) (A2) (A1) (B2) (A1) (B2) (B1)
                 (A1) (A1) (B2) (A1) (B1) (A2) (A1) (B2) (B1) (A2)
                 (A1) (B2) (B1) (A2) (A1) (B2) (A1) (B1) (B2) (A2)
                 (B2) (A1) (A1) (B2) (B1) (A2) (A1) (B1) (A1) (B1)
                 (B2) (A2) (A1) (B1) (B2) (A1) (B1) (B2) (A1) (A1)
                 (A2) (A1) (B2) (B1) (B2) (A1) (B1) (B2) (A1) (B1)
                 (A2) (A1)
       Virtual   (A1) (A1) (A1) (A1) (A1) (A1) (A1) (A1) (A1) (A1)
                 (A1) (A1) (A1) (A1) (A1) (A1) (A1) (A1) (A1) (A1)
                 (A1) (A1) (A1) (A1) (A1) (A1) (A1) (A1) (A1) (A1)
                 (A1) (A1) (A1) (A1) (A1) (A1) (A1) (A1) (A1) (A1)
                 (A1) (A1) (A1) (A1) (A1) (A1) (A1) (A1) (A1) (A1)
                 (A1) (A1) (A1) (A1) (A1) (A1) (A1) (A1) (A1) (A1)
                 (A1) (A1) (A1) (A1) (A1) (A1) (A1) (A1) (A1) (A1)
                 (A1) (A1) (A1) (A1) (A1) (A1) (A1) (A1) (A1) (A1)
                 (A1) (A1) (A1) (A1) (A1) (A1) (A1) (A1) (A1) (A1)
                 (A1) (A2) (A2) (A2) (A2) (A2) (A2) (A2) (A2) (A2)
                 (A2) (A2) (A2) (A2) (A2) (A2) (A2) (A2) (A2) (A2)
                 (A2) (A2) (A2) (A2) (A2) (A2) (A2) (A2) (A2) (A2)
                 (A2) (A2) (A2) (A2) (A2) (A2) (A2) (A2) (A2) (A2)
                 (A2) (A2) (A2) (A2) (A2) (A2) (A2) (A2) (A2) (A2)
                 (A2) (A2) (A2) (A2) (A2) (A2) (A2) (A2) (A2) (A2)
                 (A2) (B1) (B1) (B1) (B1) (B1) (B1) (B1) (B1) (B1)
                 (B1) (B1) (B1) (B1) (B1) (B1) (B1) (B1) (B1) (B1)
                 (B1) (B1) (B1) (B1) (B1) (B1) (B1) (B1) (B1) (B1)
                 (B1) (B1) (B1) (B1) (B1) (B1) (B1) (B1) (B1) (B1)
                 (B1) (B1) (B1) (B1) (B1) (B1) (B1) (B1) (B1) (B1)
                 (B1) (B1) (B1) (B1) (B1) (B1) (B1) (B1) (B1) (B1)
                 (B1) (B1) (B1) (B1) (B1) (B1) (B1) (B1) (B1) (B1)
                 (B1) (B1) (B2) (B2) (B2) (B2) (B2) (B2) (B2) (B2)
                 (B2) (B2) (B2) (B2) (B2) (B2) (B2) (B2) (B2) (B2)
                 (B2) (B2) (B2) (B2) (B2) (B2) (B2) (B2) (B2) (B2)
                 (B2) (B2) (B2) (B2) (B2) (B2) (B2) (B2) (B2) (B2)
                 (B2) (B2) (B2) (B2) (B2) (B2) (B2) (B2) (B2) (B2)
                 (B2) (B2) (B2) (B2) (B2) (B2) (B2) (B2) (B2) (B2)
                 (B2) (B2) (B2) (B2) (B2) (B2) (B2) (B2) (B2) (B2)
                 (B2) (B2) (B2) (B2) (B2) (B2) (B2) (B2) (B2) (B2)
                 (B2) (B2)
 Beta  Orbitals:
       Occupied  (B2) (B1) (A2) (A1) (B2) (A1) (B2) (A1) (A1) (B1)
                 (A1) (A1) (B1) (B2) (A2) (B2) (A1) (A1) (B2) (B1)
                 (A1) (A1) (B1) (A1) (B2) (A2) (B1) (A1) (B2) (A2)
                 (B2) (A1) (B1) (A2) (A1) (B2) (B2) (A1) (A2) (B1)
                 (B1) (A2) (A1) (B2) (A1) (B2) (B1) (A1) (A1) (B1)
                 (B2) (A2) (B2) (B1) (A1) (A1) (B1) (B2) (A1) (A2)
                 (A1) (B1) (A1) (B2) (B2) (A1) (B1) (B1) (B2) (A2)
                 (A1)
       Virtual   (A1) (A1) (A1) (A1) (A1) (A1) (A1) (A1) (A1) (A1)
                 (A1) (A1) (A1) (A1) (A1) (A1) (A1) (A1) (A1) (A1)
                 (A1) (A1) (A1) (A1) (A1) (A1) (A1) (A1) (A1) (A1)
                 (A1) (A1) (A1) (A1) (A1) (A1) (A1) (A1) (A1) (A1)
                 (A1) (A1) (A1) (A1) (A1) (A1) (A1) (A1) (A1) (A1)
                 (A1) (A1) (A1) (A1) (A1) (A1) (A1) (A1) (A1) (A1)
                 (A1) (A1) (A1) (A1) (A1) (A1) (A1) (A1) (A1) (A1)
                 (A1) (A1) (A1) (A1) (A1) (A1) (A1) (A1) (A1) (A1)
                 (A1) (A1) (A1) (A1) (A1) (A1) (A1) (A1) (A1) (A1)
                 (A1) (A1) (A2) (A2) (A2) (A2) (A2) (A2) (A2) (A2)
                 (A2) (A2) (A2) (A2) (A2) (A2) (A2) (A2) (A2) (A2)
                 (A2) (A2) (A2) (A2) (A2) (A2) (A2) (A2) (A2) (A2)
                 (A2) (A2) (A2) (A2) (A2) (A2) (A2) (A2) (A2) (A2)
                 (A2) (A2) (A2) (A2) (A2) (A2) (A2) (A2) (A2) (A2)
                 (A2) (A2) (A2) (A2) (A2) (A2) (A2) (A2) (A2) (A2)
                 (A2) (A2) (B1) (B1) (B1) (B1) (B1) (B1) (B1) (B1)
                 (B1) (B1) (B1) (B1) (B1) (B1) (B1) (B1) (B1) (B1)
                 (B1) (B1) (B1) (B1) (B1) (B1) (B1) (B1) (B1) (B1)
                 (B1) (B1) (B1) (B1) (B1) (B1) (B1) (B1) (B1) (B1)
                 (B1) (B1) (B1) (B1) (B1) (B1) (B1) (B1) (B1) (B1)
                 (B1) (B1) (B1) (B1) (B1) (B1) (B1) (B1) (B1) (B1)
                 (B1) (B1) (B1) (B1) (B1) (B1) (B1) (B1) (B1) (B1)
                 (B1) (B1) (B1) (B2) (B2) (B2) (B2) (B2) (B2) (B2)
                 (B2) (B2) (B2) (B2) (B2) (B2) (B2) (B2) (B2) (B2)
                 (B2) (B2) (B2) (B2) (B2) (B2) (B2) (B2) (B2) (B2)
                 (B2) (B2) (B2) (B2) (B2) (B2) (B2) (B2) (B2) (B2)
                 (B2) (B2) (B2) (B2) (B2) (B2) (B2) (B2) (B2) (B2)
                 (B2) (B2) (B2) (B2) (B2) (B2) (B2) (B2) (B2) (B2)
                 (B2) (B2) (B2) (B2) (B2) (B2) (B2) (B2) (B2) (B2)
                 (B2) (B2) (B2) (B2) (B2) (B2) (B2) (B2) (B2) (B2)
                 (B2) (B2) (B2)
 Initial guess <Sx>= 0.0000 <Sy>= 0.0000 <Sz>= 0.5000 <S**2>= 1.4202 S= 0.7924
 Keep R1 and R2 ints in memory in symmetry-blocked form, NReq=3074820993.
 Requested convergence on RMS density matrix=1.00D-08 within  64 cycles.
 Requested convergence on MAX density matrix=1.00D-06.
 Requested convergence on             energy=1.00D-06.
 No special actions if energy rises.
 >>>>>>>>>> Convergence criterion not met.
 SCF Done:  E(UHF) =  -2661.10165150     A.U. after   65 cycles
            NFock= 64  Conv=0.20D-04     -V/T= 1.9999
 <Sx>= 0.0000 <Sy>= 0.0000 <Sz>= 0.5000 <S**2>= 1.6598 S= 0.8819
 <L.S>= 0.000000000000E+00
 Annihilation of the first spin contaminant:
 S**2 before annihilation     1.6598,   after     1.9856
 Keep R1 and R2 ints in memory in symmetry-blocked form, NReq=3075912326.
 LinEq1:  Iter=  0 NonCon=     1 RMS=4.41D-06 Max=4.58D-04 NDo=     1
 AX will form     1 AO Fock derivatives at one time.
 LinEq1:  Iter=  1 NonCon=     1 RMS=3.99D-06 Max=4.05D-04 NDo=     1
 LinEq1:  Iter=  2 NonCon=     1 RMS=1.84D-06 Max=1.21D-04 NDo=     1
 LinEq1:  Iter=  3 NonCon=     1 RMS=1.00D-06 Max=6.61D-05 NDo=     1
 LinEq1:  Iter=  4 NonCon=     1 RMS=6.41D-07 Max=4.38D-05 NDo=     1
 LinEq1:  Iter=  5 NonCon=     1 RMS=3.21D-07 Max=1.57D-05 NDo=     1
 LinEq1:  Iter=  6 NonCon=     1 RMS=9.64D-08 Max=5.02D-06 NDo=     1
 LinEq1:  Iter=  7 NonCon=     1 RMS=3.57D-08 Max=1.83D-06 NDo=     1
 LinEq1:  Iter=  8 NonCon=     1 RMS=1.55D-08 Max=8.43D-07 NDo=     1
 LinEq1:  Iter=  9 NonCon=     1 RMS=5.81D-09 Max=3.64D-07 NDo=     1
 LinEq1:  Iter= 10 NonCon=     1 RMS=2.65D-09 Max=1.40D-07 NDo=     1
 LinEq1:  Iter= 11 NonCon=     0 RMS=7.99D-10 Max=3.26D-08 NDo=     1
 Linear equations converged to 3.797D-09 3.797D-08 after    11 iterations.
 LinEq1:  Iter=  0 NonCon=     1 RMS=1.98D-05 Max=1.90D-03 NDo=     1
 LinEq1:  Iter=  1 NonCon=     1 RMS=9.80D-06 Max=8.49D-04 NDo=     1
 LinEq1:  Iter=  2 NonCon=     1 RMS=7.71D-06 Max=4.49D-04 NDo=     1
 LinEq1:  Iter=  3 NonCon=     1 RMS=4.84D-06 Max=2.33D-04 NDo=     1
 LinEq1:  Iter=  4 NonCon=     1 RMS=2.77D-06 Max=1.54D-04 NDo=     1
 LinEq1:  Iter=  5 NonCon=     1 RMS=1.84D-06 Max=7.70D-05 NDo=     1
 LinEq1:  Iter=  6 NonCon=     1 RMS=1.09D-06 Max=5.00D-05 NDo=     1
 LinEq1:  Iter=  7 NonCon=     1 RMS=4.47D-07 Max=1.75D-05 NDo=     1
 LinEq1:  Iter=  8 NonCon=     1 RMS=1.48D-07 Max=8.10D-06 NDo=     1
 LinEq1:  Iter=  9 NonCon=     1 RMS=5.60D-08 Max=2.58D-06 NDo=     1
 LinEq1:  Iter= 10 NonCon=     1 RMS=1.70D-08 Max=7.93D-07 NDo=     1
 LinEq1:  Iter= 11 NonCon=     1 RMS=6.40D-09 Max=3.75D-07 NDo=     1
 LinEq1:  Iter= 12 NonCon=     0 RMS=1.70D-09 Max=1.22D-07 NDo=     1
 Linear equations converged to 2.080D-08 2.080D-07 after    12 iterations.
 Incorrect curvature in search direction -- initial direction reversed.
 LinEq1:  Iter=  0 NonCon=     1 RMS=3.89D-05 Max=3.89D-03 NDo=     1
 LinEq1:  Iter=  1 NonCon=     1 RMS=1.90D-05 Max=1.72D-03 NDo=     1
 LinEq1:  Iter=  2 NonCon=     1 RMS=1.48D-05 Max=8.76D-04 NDo=     1
 LinEq1:  Iter=  3 NonCon=     1 RMS=8.80D-06 Max=4.59D-04 NDo=     1
 LinEq1:  Iter=  4 NonCon=     1 RMS=5.34D-06 Max=3.24D-04 NDo=     1
 LinEq1:  Iter=  5 NonCon=     1 RMS=3.51D-06 Max=1.69D-04 NDo=     1
 LinEq1:  Iter=  6 NonCon=     1 RMS=1.91D-06 Max=8.04D-05 NDo=     1
 LinEq1:  Iter=  7 NonCon=     1 RMS=7.81D-07 Max=3.17D-05 NDo=     1
 LinEq1:  Iter=  8 NonCon=     1 RMS=2.58D-07 Max=1.49D-05 NDo=     1
 LinEq1:  Iter=  9 NonCon=     1 RMS=1.51D-07 Max=5.97D-06 NDo=     1
 LinEq1:  Iter= 10 NonCon=     1 RMS=1.48D-07 Max=5.96D-06 NDo=     1
 LinEq1:  Iter= 11 NonCon=     1 RMS=5.47D-08 Max=2.42D-06 NDo=     1
 LinEq1:  Iter= 12 NonCon=     1 RMS=3.56D-08 Max=1.52D-06 NDo=     1
 LinEq1:  Iter= 13 NonCon=     1 RMS=2.84D-08 Max=1.32D-06 NDo=     1
 LinEq1:  Iter= 14 NonCon=     1 RMS=1.10D-08 Max=5.60D-07 NDo=     1
 LinEq1:  Iter= 15 NonCon=     0 RMS=2.85D-09 Max=1.58D-07 NDo=     1
 Linear equations converged to 2.080D-08 2.080D-07 after    15 iterations.
 Incorrect curvature in search direction -- initial direction reversed.
 LinEq1:  Iter=  0 NonCon=     1 RMS=5.89D-05 Max=5.06D-03 NDo=     1
 LinEq1:  Iter=  1 NonCon=     1 RMS=2.76D-05 Max=2.43D-03 NDo=     1
 LinEq1:  Iter=  2 NonCon=     1 RMS=1.92D-05 Max=1.42D-03 NDo=     1
 LinEq1:  Iter=  3 NonCon=     1 RMS=1.08D-05 Max=6.79D-04 NDo=     1
 LinEq1:  Iter=  4 NonCon=     1 RMS=7.15D-06 Max=4.04D-04 NDo=     1
 LinEq1:  Iter=  5 NonCon=     1 RMS=4.45D-06 Max=2.27D-04 NDo=     1
 LinEq1:  Iter=  6 NonCon=     1 RMS=2.16D-06 Max=9.78D-05 NDo=     1
 LinEq1:  Iter=  7 NonCon=     1 RMS=9.34D-07 Max=4.12D-05 NDo=     1
 LinEq1:  Iter=  8 NonCon=     1 RMS=3.44D-07 Max=1.70D-05 NDo=     1
 LinEq1:  Iter=  9 NonCon=     1 RMS=1.96D-07 Max=8.22D-06 NDo=     1
 LinEq1:  Iter= 10 NonCon=     1 RMS=1.78D-07 Max=7.02D-06 NDo=     1
 LinEq1:  Iter= 11 NonCon=     1 RMS=6.65D-08 Max=2.87D-06 NDo=     1
 LinEq1:  Iter= 12 NonCon=     1 RMS=3.78D-08 Max=1.52D-06 NDo=     1
 LinEq1:  Iter= 13 NonCon=     1 RMS=3.45D-08 Max=1.33D-06 NDo=     1
 LinEq1:  Iter= 14 NonCon=     1 RMS=1.47D-08 Max=8.18D-07 NDo=     1
 LinEq1:  Iter= 15 NonCon=     0 RMS=3.94D-09 Max=1.48D-07 NDo=     1
 Linear equations converged to 2.080D-08 2.080D-07 after    15 iterations.
     Minimum is close to point  2 DX=  4.42D-02 DF= -2.86D-07 DXR=  4.23D-02 DFR=  1.79D-03 which will be used.
 LinEq1:  Iter=  0 NonCon=     1 RMS=6.62D-06 Max=4.44D-04 NDo=     1
 LinEq1:  Iter=  1 NonCon=     1 RMS=3.27D-06 Max=1.08D-04 NDo=     1
 LinEq1:  Iter=  2 NonCon=     1 RMS=1.99D-06 Max=9.77D-05 NDo=     1
 LinEq1:  Iter=  3 NonCon=     1 RMS=9.92D-07 Max=4.83D-05 NDo=     1
 LinEq1:  Iter=  4 NonCon=     1 RMS=7.33D-07 Max=4.11D-05 NDo=     1
 LinEq1:  Iter=  5 NonCon=     1 RMS=4.39D-07 Max=1.75D-05 NDo=     1
 LinEq1:  Iter=  6 NonCon=     1 RMS=1.57D-07 Max=8.65D-06 NDo=     1
 LinEq1:  Iter=  7 NonCon=     1 RMS=1.19D-07 Max=5.34D-06 NDo=     1
 LinEq1:  Iter=  8 NonCon=     1 RMS=9.81D-08 Max=3.61D-06 NDo=     1
 LinEq1:  Iter=  9 NonCon=     1 RMS=4.05D-08 Max=1.95D-06 NDo=     1
 LinEq1:  Iter= 10 NonCon=     1 RMS=1.43D-08 Max=5.02D-07 NDo=     1
 LinEq1:  Iter= 11 NonCon=     1 RMS=1.31D-08 Max=5.97D-07 NDo=     1
 LinEq1:  Iter= 12 NonCon=     1 RMS=7.08D-09 Max=4.06D-07 NDo=     1
 LinEq1:  Iter= 13 NonCon=     1 RMS=4.04D-09 Max=2.29D-07 NDo=     1
 LinEq1:  Iter= 14 NonCon=     1 RMS=1.98D-09 Max=1.04D-07 NDo=     1
 LinEq1:  Iter= 15 NonCon=     0 RMS=6.72D-10 Max=2.76D-08 NDo=     1
 Linear equations converged to 6.988D-09 6.988D-08 after    15 iterations.
     Accept linear search using points  1 and  2.
     Minimum is close to point  2 DX= -9.52D-03 DF= -1.51D-10 DXR=  9.62D-03 DFR=  9.23D-05 which will be used.
 LinEq1:  Iter=  0 NonCon=     1 RMS=7.41D-07 Max=3.25D-05 NDo=     1
 LinEq1:  Iter=  1 NonCon=     1 RMS=3.26D-07 Max=1.66D-05 NDo=     1
 LinEq1:  Iter=  2 NonCon=     1 RMS=1.60D-07 Max=7.96D-06 NDo=     1
 LinEq1:  Iter=  3 NonCon=     1 RMS=1.25D-07 Max=6.97D-06 NDo=     1
 LinEq1:  Iter=  4 NonCon=     1 RMS=6.84D-08 Max=3.06D-06 NDo=     1
 LinEq1:  Iter=  5 NonCon=     1 RMS=4.64D-08 Max=2.56D-06 NDo=     1
 LinEq1:  Iter=  6 NonCon=     1 RMS=3.36D-08 Max=1.16D-06 NDo=     1
 LinEq1:  Iter=  7 NonCon=     1 RMS=2.12D-08 Max=8.95D-07 NDo=     1
 LinEq1:  Iter=  8 NonCon=     1 RMS=1.21D-08 Max=6.29D-07 NDo=     1
 LinEq1:  Iter=  9 NonCon=     1 RMS=1.08D-08 Max=5.07D-07 NDo=     1
 LinEq1:  Iter= 10 NonCon=     1 RMS=5.62D-09 Max=2.63D-07 NDo=     1
 LinEq1:  Iter= 11 NonCon=     1 RMS=3.13D-09 Max=1.76D-07 NDo=     1
 LinEq1:  Iter= 12 NonCon=     1 RMS=2.90D-09 Max=1.60D-07 NDo=     1
 LinEq1:  Iter= 13 NonCon=     1 RMS=1.03D-09 Max=4.14D-08 NDo=     1
 LinEq1:  Iter= 14 NonCon=     0 RMS=3.54D-10 Max=1.97D-08 NDo=     1
 Linear equations converged to 2.008D-09 2.008D-08 after    14 iterations.
 LinEq1:  Iter=  0 NonCon=     1 RMS=1.74D-07 Max=9.66D-06 NDo=     1
 LinEq1:  Iter=  1 NonCon=     1 RMS=7.73D-08 Max=5.22D-06 NDo=     1
 LinEq1:  Iter=  2 NonCon=     1 RMS=3.21D-08 Max=1.49D-06 NDo=     1
 LinEq1:  Iter=  3 NonCon=     1 RMS=2.65D-08 Max=1.18D-06 NDo=     1
 LinEq1:  Iter=  4 NonCon=     1 RMS=1.61D-08 Max=7.84D-07 NDo=     1
 LinEq1:  Iter=  5 NonCon=     1 RMS=1.05D-08 Max=5.16D-07 NDo=     1
 LinEq1:  Iter=  6 NonCon=     1 RMS=8.36D-09 Max=3.93D-07 NDo=     1
 LinEq1:  Iter=  7 NonCon=     1 RMS=4.44D-09 Max=1.97D-07 NDo=     1
 LinEq1:  Iter=  8 NonCon=     1 RMS=3.44D-09 Max=1.99D-07 NDo=     1
 LinEq1:  Iter=  9 NonCon=     1 RMS=1.93D-09 Max=8.38D-08 NDo=     1
 LinEq1:  Iter= 10 NonCon=     1 RMS=1.31D-09 Max=5.12D-08 NDo=     1
 LinEq1:  Iter= 11 NonCon=     1 RMS=1.06D-09 Max=5.85D-08 NDo=     1
 LinEq1:  Iter= 12 NonCon=     1 RMS=4.83D-10 Max=3.19D-08 NDo=     1
 LinEq1:  Iter= 13 NonCon=     1 RMS=2.42D-10 Max=1.73D-08 NDo=     1
 LinEq1:  Iter= 14 NonCon=     1 RMS=1.18D-10 Max=5.96D-09 NDo=     1
 LinEq1:  Iter= 15 NonCon=     0 RMS=2.88D-11 Max=1.44D-09 NDo=     1
 Linear equations converged to 3.001D-10 3.001D-09 after    15 iterations.
 LinEq1:  Iter=  0 NonCon=     1 RMS=3.51D-08 Max=1.76D-06 NDo=     1
 LinEq1:  Iter=  1 NonCon=     1 RMS=1.57D-08 Max=8.70D-07 NDo=     1
 LinEq1:  Iter=  2 NonCon=     1 RMS=7.95D-09 Max=3.92D-07 NDo=     1
 LinEq1:  Iter=  3 NonCon=     1 RMS=5.25D-09 Max=2.78D-07 NDo=     1
 LinEq1:  Iter=  4 NonCon=     1 RMS=3.91D-09 Max=2.17D-07 NDo=     1
 LinEq1:  Iter=  5 NonCon=     1 RMS=2.10D-09 Max=1.22D-07 NDo=     1
 LinEq1:  Iter=  6 NonCon=     1 RMS=1.07D-09 Max=5.53D-08 NDo=     1
 LinEq1:  Iter=  7 NonCon=     1 RMS=5.13D-10 Max=2.70D-08 NDo=     1
 LinEq1:  Iter=  8 NonCon=     1 RMS=4.75D-10 Max=2.01D-08 NDo=     1
 LinEq1:  Iter=  9 NonCon=     1 RMS=2.69D-10 Max=1.45D-08 NDo=     1
 LinEq1:  Iter= 10 NonCon=     1 RMS=1.02D-10 Max=4.07D-09 NDo=     1
 LinEq1:  Iter= 11 NonCon=     1 RMS=1.01D-10 Max=3.97D-09 NDo=     1
 LinEq1:  Iter= 12 NonCon=     0 RMS=4.60D-11 Max=1.47D-09 NDo=     1
 Linear equations converged to 1.863D-10 1.863D-09 after    12 iterations.
 LinEq1:  Iter=  0 NonCon=     1 RMS=9.55D-09 Max=3.05D-07 NDo=     1
 LinEq1:  Iter=  1 NonCon=     1 RMS=6.59D-09 Max=3.32D-07 NDo=     1
 LinEq1:  Iter=  2 NonCon=     1 RMS=5.62D-09 Max=3.31D-07 NDo=     1
 LinEq1:  Iter=  3 NonCon=     1 RMS=3.62D-09 Max=1.95D-07 NDo=     1
 LinEq1:  Iter=  4 NonCon=     1 RMS=2.12D-09 Max=1.15D-07 NDo=     1
 LinEq1:  Iter=  5 NonCon=     1 RMS=1.49D-09 Max=5.36D-08 NDo=     1
 LinEq1:  Iter=  6 NonCon=     1 RMS=9.68D-10 Max=3.58D-08 NDo=     1
 LinEq1:  Iter=  7 NonCon=     1 RMS=7.96D-10 Max=4.08D-08 NDo=     1
 LinEq1:  Iter=  8 NonCon=     1 RMS=4.94D-10 Max=3.85D-08 NDo=     1
 LinEq1:  Iter=  9 NonCon=     1 RMS=3.02D-10 Max=1.60D-08 NDo=     1
 LinEq1:  Iter= 10 NonCon=     1 RMS=2.35D-10 Max=1.12D-08 NDo=     1
 LinEq1:  Iter= 11 NonCon=     1 RMS=1.39D-10 Max=8.00D-09 NDo=     1
 LinEq1:  Iter= 12 NonCon=     1 RMS=6.18D-11 Max=3.49D-09 NDo=     1
 LinEq1:  Iter= 13 NonCon=     1 RMS=2.28D-11 Max=1.13D-09 NDo=     1
 LinEq1:  Iter= 14 NonCon=     1 RMS=6.51D-12 Max=3.04D-10 NDo=     1
 LinEq1:  Iter= 15 NonCon=     0 RMS=3.35D-12 Max=2.11D-10 NDo=     1
 Linear equations converged to 2.676D-11 2.676D-10 after    15 iterations.
 QCLLim is confused:  Bigger=T Turned=T
 NLin=  4 IMin12=  1  3 I12=  0  2 IX=  1 XLMin= 0.000D+00 XLMax= 0.000D+00
 X = 0.000D+00 1.000D+00 2.000D+00 4.000D+00
 DE= 0.000D+00 4.820D-11 4.547D-13 9.732D-11
 QCLLim is confused:  Bigger=T Turned=T
 NLin=  5 IMin12=  1  3 I12=  0  2 IX=  1 XLMin= 0.000D+00 XLMax= 0.000D+00
 X = 0.000D+00 1.000D+00 2.000D+00 4.000D+00 8.000D+00
 DE= 0.000D+00 4.820D-11 4.547D-13 9.732D-11 5.557D-10
 QCLLim is confused:  Bigger=T Turned=T
 NLin=  6 IMin12=  1  3 I12=  0  2 IX=  1 XLMin= 0.000D+00 XLMax= 0.000D+00
 X = 0.000D+00 1.000D+00 2.000D+00 4.000D+00 8.000D+00 1.600D+01
 DE= 0.000D+00 4.820D-11 4.547D-13 9.732D-11 5.557D-10 2.040D-09
 QCLLim is confused:  Bigger=T Turned=T
 NLin=  7 IMin12=  1  3 I12=  0  2 IX=  1 XLMin= 0.000D+00 XLMax= 0.000D+00
 X = 0.000D+00 1.000D+00 2.000D+00 4.000D+00 8.000D+00 1.600D+01 3.200D+01
 DE= 0.000D+00 4.820D-11 4.547D-13 9.732D-11 5.557D-10 2.040D-09 8.487D-09
 QCLLim is confused:  Bigger=T Turned=T
 NLin=  8 IMin12=  1  3 I12=  0  2 IX=  1 XLMin= 0.000D+00 XLMax= 0.000D+00
 X = 0.000D+00 1.000D+00 2.000D+00 4.000D+00 8.000D+00 1.600D+01 3.200D+01 6.400D+01
 DE= 0.000D+00 4.820D-11 4.547D-13 9.732D-11 5.557D-10 2.040D-09 8.487D-09 3.507D-08
 Search did not lower the energy significantly.
 No lower point found -- using Newton-Raphson step.
 DSYEVD-2 returned Info=         145 IAlg= 4 N=    72 NDim=    72 NE2=    83007376 trying  DSYEV.
 SCF Done:  E(UHF) =  -2661.10197596     a.u. after   10 cycles
            Convg  =    0.3610D-06                   160 Fock formations.
              S**2 =  1.9572                  -V/T =  1.9999
 <Sx>= 0.0000 <Sy>= 0.0000 <Sz>= 0.5000 <S**2>= 1.9572 S= 0.9857
 <L.S>= 0.000000000000E+00
 Annihilation of the first spin contaminant:
 S**2 before annihilation     1.9572,   after     3.0798
 ExpMin= 5.56D-02 ExpMax= 2.06D+05 ExpMxC= 1.99D+03 IAcc=3 IRadAn=         5 AccDes= 0.00D+00
 HarFok:  IExCor=  205 AccDes= 0.00D+00 IRadAn=         5 IDoV=-2 UseB2=F ITyADJ=14
 ICtDFT= 12500011 ScaDFX=  1.000000  1.000000  1.000000  1.000000
 Range of M.O.s used for correlation:    56   374
 NBasis=   374 NAE=    72 NBE=    71 NFC=    55 NFV=     0
 NROrb=    319 NOA=    17 NOB=    16 NVA=   302 NVB=   303

 **** Warning!!: The largest alpha MO coefficient is  0.19332243D+02


 **** Warning!!: The largest beta MO coefficient is  0.19319192D+02

 Semi-Direct transformation.
 ModeAB=           4 MOrb=            17 LenV=    7205259007
 LASXX=     66697459 LTotXX=    66697459 LenRXX=   134241853
 LTotAB=    67544394 MaxLAS=   164522974 LenRXY=           0
 NonZer=   200939312 LenScr=   302590976 LnRSAI=   164522974
 LnScr1=   247752704 LExtra=           0 Total=    849108507
 MaxDsk=          -1 SrtSym=           T ITran=            4
 JobTyp=1 Pass  1:  I=   1 to  17.
 (rs|ai) integrals will be sorted in core.
 ModeAB=           4 MOrb=            16 LenV=    7205259007
 LASXX=     62888300 LTotXX=    62888300 LenRXX=   119950246
 LTotAB=    57061946 MaxLAS=   154845152 LenRXY=           0
 NonZer=   182838546 LenScr=   275334144 LnRSAI=   154845152
 LnScr1=   233179136 LExtra=           0 Total=    783308678
 MaxDsk=          -1 SrtSym=           T ITran=            4
 JobTyp=2 Pass  1:  I=   1 to  16.
 (rs|ai) integrals will be sorted in core.
 Spin components of T(2) and E(2):
     alpha-alpha T2 =       0.1592791544D+00 E2=     -0.1475132937D+00
     alpha-beta  T2 =       0.6398292872D+00 E2=     -0.6794768789D+00
     beta-beta   T2 =       0.1555529372D+00 E2=     -0.1408187415D+00
 ANorm=    0.1398092049D+01
 E2 =    -0.9678089142D+00 EUMP2 =    -0.26620697848737D+04
 (S**2,0)=  0.19572D+01           (S**2,1)=  0.17437D+01
 E(PUHF)=      -0.26611440646D+04        E(PMP2)=      -0.26621101237D+04
 Keep R2 and R3 ints in memory in symmetry-blocked form, NReq=3074252170.
 Iterations=  50 Convergence= 0.100D-04
 Iteration Nr.   1
 **********************
 DD1Dir will call FoFMem   1 times, MxPair=       800
 NAB=   272 NAA=   136 NBB=   120.
 E(PMP3)=      -0.26620123844D+04
 MP4(R+Q)=  0.70392856D-01
 E3=        0.93160563D-01        EUMP3=      -0.26619766243D+04
 E4(DQ)=   -0.36877791D-01        UMP4(DQ)=   -0.26620135021D+04
 E4(SDQ)=  -0.62127961D-01        UMP4(SDQ)=  -0.26620387523D+04
 DE(Corr)= -0.80532049     E(Corr)=     -2661.9072964    
 NORM(A)=   0.13038952D+01
 Iteration Nr.   2
 **********************
 DD1Dir will call FoFMem   1 times, MxPair=       800
 NAB=   272 NAA=   136 NBB=   120.
 DE(Corr)= -0.92346224     E(CORR)=     -2662.0254382     Delta=-1.18D-01
 NORM(A)=   0.13674927D+01
 Iteration Nr.   3
 **********************
 DD1Dir will call FoFMem   1 times, MxPair=       800
 NAB=   272 NAA=   136 NBB=   120.
 DE(Corr)= -0.89991113     E(CORR)=     -2662.0018871     Delta= 2.36D-02
 NORM(A)=   0.13989439D+01
 Iteration Nr.   4
 **********************
 DD1Dir will call FoFMem   1 times, MxPair=       800
 NAB=   272 NAA=   136 NBB=   120.
 DE(Corr)= -0.91128417     E(CORR)=     -2662.0132601     Delta=-1.14D-02
 NORM(A)=   0.14297236D+01
 Iteration Nr.   5
 **********************
 DD1Dir will call FoFMem   1 times, MxPair=       800
 NAB=   272 NAA=   136 NBB=   120.
 DE(Corr)= -0.91690986     E(CORR)=     -2662.0188858     Delta=-5.63D-03
 NORM(A)=   0.14679255D+01
 Iteration Nr.   6
 **********************
 DD1Dir will call FoFMem   1 times, MxPair=       800
 NAB=   272 NAA=   136 NBB=   120.
 DE(Corr)= -0.91922368     E(CORR)=     -2662.0211996     Delta=-2.31D-03
 NORM(A)=   0.14789910D+01
 Iteration Nr.   7
 **********************
 DD1Dir will call FoFMem   1 times, MxPair=       800
 NAB=   272 NAA=   136 NBB=   120.
 DE(Corr)= -0.91996593     E(CORR)=     -2662.0219419     Delta=-7.42D-04
 NORM(A)=   0.14799373D+01
 Iteration Nr.   8
 **********************
 DD1Dir will call FoFMem   1 times, MxPair=       800
 NAB=   272 NAA=   136 NBB=   120.
 DE(Corr)= -0.92052506     E(CORR)=     -2662.0225010     Delta=-5.59D-04
 NORM(A)=   0.14832582D+01
 Iteration Nr.   9
 **********************
 DD1Dir will call FoFMem   1 times, MxPair=       800
 NAB=   272 NAA=   136 NBB=   120.
 DE(Corr)= -0.92015110     E(CORR)=     -2662.0221271     Delta= 3.74D-04
 NORM(A)=   0.14828382D+01
 Iteration Nr.  10
 **********************
 DD1Dir will call FoFMem   1 times, MxPair=       800
 NAB=   272 NAA=   136 NBB=   120.
 DE(Corr)= -0.92042445     E(CORR)=     -2662.0224004     Delta=-2.73D-04
 NORM(A)=   0.14830445D+01
 Iteration Nr.  11
 **********************
 DD1Dir will call FoFMem   1 times, MxPair=       800
 NAB=   272 NAA=   136 NBB=   120.
 DE(Corr)= -0.92027463     E(CORR)=     -2662.0222506     Delta= 1.50D-04
 NORM(A)=   0.14831315D+01
 Iteration Nr.  12
 **********************
 DD1Dir will call FoFMem   1 times, MxPair=       800
 NAB=   272 NAA=   136 NBB=   120.
 DE(Corr)= -0.92033955     E(CORR)=     -2662.0223155     Delta=-6.49D-05
 NORM(A)=   0.14832170D+01
 Iteration Nr.  13
 **********************
 DD1Dir will call FoFMem   1 times, MxPair=       800
 NAB=   272 NAA=   136 NBB=   120.
 DE(Corr)= -0.92033287     E(CORR)=     -2662.0223088     Delta= 6.68D-06
 NORM(A)=   0.14834125D+01
 Iteration Nr.  14
 **********************
 DD1Dir will call FoFMem   1 times, MxPair=       800
 NAB=   272 NAA=   136 NBB=   120.
 DE(Corr)= -0.92034116     E(CORR)=     -2662.0223171     Delta=-8.29D-06
 NORM(A)=   0.14835311D+01
 Iteration Nr.  15
 **********************
 DD1Dir will call FoFMem   1 times, MxPair=       800
 NAB=   272 NAA=   136 NBB=   120.
 DE(Corr)= -0.92035482     E(CORR)=     -2662.0223308     Delta=-1.37D-05
 NORM(A)=   0.14836327D+01
 Iteration Nr.  16
 **********************
 DD1Dir will call FoFMem   1 times, MxPair=       800
 NAB=   272 NAA=   136 NBB=   120.
 DE(Corr)= -0.92036131     E(CORR)=     -2662.0223373     Delta=-6.48D-06
 NORM(A)=   0.14837196D+01
 Iteration Nr.  17
 **********************
 DD1Dir will call FoFMem   1 times, MxPair=       800
 NAB=   272 NAA=   136 NBB=   120.
 DE(Corr)= -0.92036463     E(CORR)=     -2662.0223406     Delta=-3.33D-06
 NORM(A)=   0.14837496D+01
 Iteration Nr.  18
 **********************
 DD1Dir will call FoFMem   1 times, MxPair=       800
 NAB=   272 NAA=   136 NBB=   120.
 DE(Corr)= -0.92036865     E(CORR)=     -2662.0223446     Delta=-4.01D-06
 NORM(A)=   0.14837715D+01
 Dominant configurations:
 ***********************
 Spin Case        I    J    A    B          Value
    AA           72        75            0.184648D+00
    AA           71        76            0.196721D+00
    AA           70        73            0.158875D+00
    AA           70        78            0.124883D+00
    AA           68        77           -0.109186D+00
    BB           71        76           -0.134968D+00
    BB           70        72           -0.145956D+00
    BB           67        77           -0.108666D+00
    BB           69        75           -0.149046D+00
 Largest amplitude= 1.97D-01
 Time for triples=    34264.19 seconds.
 T4(CCSD)= -0.13591336D+00
 T5(CCSD)=  0.83807144D-02
 CCSD(T)= -0.26621498772D+04

 S**2, projected HF & approx projected MPn energies after annihilation of
 unwanted spin states (see manual for definitions):

 spins       (S**2,0) (S**2,1)    PUHF        PMP2        PMP3        PMP4
 annihilated
 s+1        -0.61047 -0.00541-2661.144065-2662.110124-2662.012384
 s+1,s+2     1.10859  0.90375-2661.119250-2662.086293-2661.991136
 s+1 to s+3  0.68659  0.73605-2661.124630-2662.091035-2661.994214
 s+1 to s+4  0.75646  0.74987-2661.123806-2662.090124-2661.993075
 s+1 to s+5  0.74960  0.74987-2661.123884
 s+1 to s+6  0.75000  0.74987-2661.123879

 Discarding MO integrals.

 **********************************************************************

            Population analysis using the SCF density.

 **********************************************************************

 Orbital symmetries:
 Alpha Orbitals:
       Occupied  (B1) (A1) (B2) (A2) (B2) (A1) (A1) (B2) (B1) (A1)
                 (A1) (A1) (B2) (B1) (A2) (A1) (B2) (A1) (B2) (B1)
                 (A1) (A1) (A1) (B2) (B1) (A2) (A1) (B2) (B1) (A2)
                 (A1) (B1) (B2) (A2) (A1) (B1) (B2) (A2) (A1) (B2)
                 (B2) (A1) (A1) (B2) (B1) (A2) (A1) (B1) (A1) (B1)
                 (B2) (A2) (A1) (B2) (B1) (A1) (B2) (B1) (A1) (A1)
                 (A2) (A1) (B2) (B1) (B1) (A1) (B2) (B2) (A1) (B1)
                 (A2) (A1)
       Virtual   (B1) (B2) (A1) (A2) (B2) (B1) (A1) (A1) (A2) (A1)
                 (A1) (B2) (B1) (A1) (B2) (A2) (B1) (B2) (B2) (A1)
                 (A2) (B1) (B2) (B1) (A1) (A1) (B2) (B1) (A1) (A2)
                 (B2) (B1) (A2) (A1) (B1) (A1) (B2) (A1) (B1) (A2)
                 (A1) (B2) (A2) (A2) (A1) (B1) (A1) (B2) (B2) (B1)
                 (A1) (B2) (A2) (A1) (B2) (B1) (A1) (B1) (A2) (B1)
                 (B2) (B2) (A2) (A1) (B1) (A1) (B2) (A2) (A1) (A1)
                 (B1) (B2) (B2) (A1) (B1) (A2) (A2) (A1) (B1) (A2)
                 (A1) (B2) (B1) (B2) (A1) (A2) (B2) (A1) (B1) (B2)
                 (B1) (A1) (B2) (A2) (B1) (A1) (B1) (B2) (B2) (A1)
                 (A1) (A2) (B1) (B2) (A2) (A1) (B1) (B2) (A2) (A1)
                 (B2) (A1) (B1) (B1) (A2) (B2) (A1) (B1) (B2) (A1)
                 (A2) (A1) (B2) (A2) (B1) (B2) (A1) (A1) (B1) (A2)
                 (A1) (A2) (B1) (B2) (B1) (A1) (A2) (A2) (B2) (A1)
                 (A1) (B2) (A1) (B2) (B1) (B2) (A2) (B1) (A1) (B1)
                 (A2) (B2) (A1) (A2) (B2) (B2) (A1) (B1) (A1) (B1)
                 (B2) (A1) (A2) (B1) (B1) (A1) (B2) (A2) (B1) (B2)
                 (A1) (B2) (B1) (A1) (A2) (B2) (A1) (A2) (B1) (A1)
                 (B1) (A2) (A1) (B2) (B2) (A2) (B1) (A1) (B2) (A2)
                 (B2) (B1) (A1) (A2) (B1) (A1) (A1) (B2) (B1) (A2)
                 (A1) (A2) (B1) (B2) (A1) (B2) (B1) (A1) (A1) (A2)
                 (A2) (B2) (B1) (A1) (A1) (A2) (B2) (A2) (B1) (B2)
                 (A1) (B2) (B1) (B1) (B2) (B1) (A2) (B2) (A1) (B1)
                 (B2) (A1) (A2) (A1) (B1) (A1) (B1) (B2) (A1) (A2)
                 (A2) (B2) (A1) (B1) (B2) (B1) (A1) (B2) (A1) (A2)
                 (A2) (A2) (A1) (B1) (A2) (B2) (B2) (B2) (A1) (B1)
                 (B2) (A1) (A2) (B1) (B1) (A1) (B2) (A1) (B1) (B2)
                 (A2) (A2) (A1) (B2) (A1) (A1) (B1) (B2) (A1) (A2)
                 (B2) (A1) (B1) (B2) (A1) (A2) (B2) (B1) (A2) (B2)
                 (B1) (A1) (B2) (A1) (A2) (B1) (B1) (A1) (B2) (A1)
                 (B2) (A1)
 Beta  Orbitals:
       Occupied  (B1) (A1) (B2) (A2) (B2) (A1) (A1) (B2) (B1) (A1)
                 (A1) (A1) (B1) (B2) (A2) (B2) (A1) (A1) (B2) (B1)
                 (A1) (A1) (B1) (A1) (B2) (A2) (B1) (A1) (B2) (A2)
                 (B1) (A1) (A2) (B2) (B2) (A1) (B2) (A1) (A2) (B1)
                 (B1) (A2) (A1) (B2) (A1) (B2) (A1) (B1) (B2) (A2)
                 (A1) (B1) (B1) (B2) (A1) (A1) (B1) (B2) (A1) (A2)
                 (A1) (A1) (B1) (B2) (B2) (A1) (B1) (B1) (B2) (A2)
                 (A1)
       Virtual   (A2) (A1) (B1) (B2) (A1) (B1) (B2) (A1) (A2) (A1)
                 (A1) (B2) (A1) (B1) (A2) (A1) (B2) (B1) (B2) (B2)
                 (A1) (B1) (B2) (B1) (A2) (A1) (B1) (B2) (A1) (A2)
                 (A1) (B2) (B1) (A2) (A1) (B1) (A1) (B2) (A1) (A2)
                 (B1) (A1) (A2) (B2) (A2) (B1) (A1) (A1) (B2) (B2)
                 (A1) (B1) (B2) (A2) (B2) (A1) (B1) (A1) (B1) (A2)
                 (B2) (A1) (A2) (B1) (B2) (B1) (A1) (B2) (A2) (A1)
                 (A1) (B1) (B2) (A2) (B2) (B1) (A1) (A2) (A1) (B1)
                 (A1) (B2) (A2) (B1) (B2) (A1) (A2) (B2) (A1) (B1)
                 (B2) (B1) (A1) (A2) (B2) (B1) (A1) (B1) (B2) (B2)
                 (A1) (A2) (A1) (B1) (A2) (B2) (A2) (A1) (B2) (B1)
                 (A1) (B2) (B1) (A1) (A2) (B1) (B2) (A1) (B1) (B2)
                 (A1) (A2) (B2) (A1) (A2) (B1) (B2) (A1) (A1) (B1)
                 (A2) (A1) (A2) (B1) (B2) (B1) (A1) (A2) (B2) (A2)
                 (A1) (A1) (B2) (A1) (B1) (B2) (B2) (A2) (B1) (B1)
                 (A1) (A2) (B2) (A1) (A2) (B2) (B2) (B1) (A1) (A1)
                 (B1) (B2) (A2) (A1) (B1) (B1) (A1) (A2) (B2) (B1)
                 (B2) (A1) (B2) (B1) (A2) (A1) (B2) (A2) (A1) (B1)
                 (A1) (B1) (A2) (A1) (B2) (B2) (A2) (B1) (A1) (B2)
                 (A2) (B2) (B1) (A1) (A2) (B1) (A1) (A1) (B2) (B1)
                 (A1) (A2) (B2) (A2) (B1) (B2) (A1) (B1) (A1) (A1)
                 (A2) (A2) (B2) (B1) (A1) (A1) (A2) (B2) (A2) (B2)
                 (B1) (A1) (B2) (B1) (B1) (B2) (A2) (B1) (A1) (B2)
                 (B1) (B2) (A1) (A2) (A1) (B1) (A1) (B1) (A2) (A1)
                 (B2) (A2) (B2) (B1) (A1) (B2) (B1) (A1) (B2) (A1)
                 (A2) (A2) (A2) (A1) (B1) (A2) (B2) (B2) (B2) (A1)
                 (B1) (B2) (A2) (A1) (B1) (B1) (A1) (A1) (B2) (B1)
                 (B2) (A2) (A2) (A1) (B2) (A1) (A1) (B1) (B2) (A1)
                 (A2) (B2) (A1) (B1) (B2) (A1) (A2) (B2) (B1) (A2)
                 (B2) (B1) (A1) (B2) (A1) (A2) (B1) (B1) (A1) (B2)
                 (A1) (B2) (A1)
 The electronic state is 2-A1.
 Alpha  occ. eigenvalues --  -58.49159 -58.49159 -58.49159 -58.49159 -58.48961
 Alpha  occ. eigenvalues --  -58.48961 -58.48369 -58.48369 -58.47550 -58.47550
 Alpha  occ. eigenvalues --  -58.46350  -4.90251  -4.90250  -4.90248  -4.90247
 Alpha  occ. eigenvalues --   -4.90234  -4.90233  -4.89783  -4.89774  -4.88895
 Alpha  occ. eigenvalues --   -4.88895  -4.87981  -3.21506  -3.21505  -3.21498
 Alpha  occ. eigenvalues --   -3.21495  -3.21455  -3.21454  -3.21406  -3.21405
 Alpha  occ. eigenvalues --   -3.21349  -3.21349  -3.21344  -3.21344  -3.21210
 Alpha  occ. eigenvalues --   -3.21209  -3.21202  -3.21202  -3.21193  -3.21151
 Alpha  occ. eigenvalues --   -3.21093  -3.21093  -3.20889  -3.20870  -3.20760
 Alpha  occ. eigenvalues --   -3.20752  -3.20133  -3.20132  -3.19885  -3.19885
 Alpha  occ. eigenvalues --   -3.19884  -3.19884  -3.19359  -3.19101  -3.19053
 Alpha  occ. eigenvalues --   -0.69792  -0.58568  -0.58171  -0.52787  -0.44674
 Alpha  occ. eigenvalues --   -0.43038  -0.40550  -0.38747  -0.38590  -0.27475
 Alpha  occ. eigenvalues --   -0.27453  -0.27125  -0.26198  -0.24546  -0.24543
 Alpha  occ. eigenvalues --   -0.24154  -0.23223
 Alpha virt. eigenvalues --   -0.03703  -0.02346  -0.01075  -0.00691   0.01117
 Alpha virt. eigenvalues --    0.01377   0.03521   0.04644   0.05147   0.06124
 Alpha virt. eigenvalues --    0.07874   0.07966   0.08249   0.08729   0.10769
 Alpha virt. eigenvalues --    0.10849   0.12218   0.12736   0.14121   0.14455
 Alpha virt. eigenvalues --    0.14911   0.15025   0.15315   0.16089   0.16326
 Alpha virt. eigenvalues --    0.16603   0.17800   0.17922   0.18715   0.18833
 Alpha virt. eigenvalues --    0.19467   0.19793   0.19995   0.20644   0.20693
 Alpha virt. eigenvalues --    0.21487   0.22326   0.23170   0.24138   0.24146
 Alpha virt. eigenvalues --    0.25457   0.25658   0.26563   0.26914   0.27190
 Alpha virt. eigenvalues --    0.28030   0.28274   0.28599   0.28931   0.29198
 Alpha virt. eigenvalues --    0.29244   0.30310   0.30709   0.31913   0.32190
 Alpha virt. eigenvalues --    0.32777   0.33129   0.33763   0.34363   0.34395
 Alpha virt. eigenvalues --    0.34760   0.35429   0.35556   0.35695   0.37139
 Alpha virt. eigenvalues --    0.37161   0.38003   0.38443   0.40344   0.42197
 Alpha virt. eigenvalues --    0.42385   0.42728   0.43014   0.44401   0.44519
 Alpha virt. eigenvalues --    0.44567   0.45409   0.46414   0.47305   0.47942
 Alpha virt. eigenvalues --    0.48184   0.48312   0.49454   0.49899   0.50128
 Alpha virt. eigenvalues --    0.50316   0.50731   0.50755   0.51194   0.52507
 Alpha virt. eigenvalues --    0.53006   0.55068   0.56147   0.56249   0.56777
 Alpha virt. eigenvalues --    0.58255   0.58793   0.58913   0.59645   0.59766
 Alpha virt. eigenvalues --    0.60933   0.60948   0.61758   0.62324   0.62785
 Alpha virt. eigenvalues --    0.63575   0.63877   0.64085   0.64204   0.64267
 Alpha virt. eigenvalues --    0.64543   0.65873   0.66540   0.67880   0.67919
 Alpha virt. eigenvalues --    0.68381   0.68986   0.70321   0.70524   0.71112
 Alpha virt. eigenvalues --    0.71190   0.72644   0.72845   0.73632   0.75559
 Alpha virt. eigenvalues --    0.77306   0.79216   0.79669   0.80812   0.81272
 Alpha virt. eigenvalues --    0.82414   0.83276   0.83629   0.83971   0.85654
 Alpha virt. eigenvalues --    0.86007   0.86819   0.86854   0.86865   0.87861
 Alpha virt. eigenvalues --    0.88982   0.89478   0.90060   0.90932   0.91073
 Alpha virt. eigenvalues --    0.91343   0.91641   0.91757   0.93077   0.93100
 Alpha virt. eigenvalues --    0.93403   0.94131   0.94398   0.95678   0.97339
 Alpha virt. eigenvalues --    0.97633   0.98022   0.98131   0.98290   0.99082
 Alpha virt. eigenvalues --    1.00428   1.01022   1.01229   1.01397   1.01955
 Alpha virt. eigenvalues --    1.02689   1.02821   1.02906   1.03836   1.04248
 Alpha virt. eigenvalues --    1.04737   1.04770   1.05961   1.06004   1.06172
 Alpha virt. eigenvalues --    1.06451   1.06597   1.06696   1.07442   1.08609
 Alpha virt. eigenvalues --    1.08893   1.09284   1.10107   1.11613   1.13166
 Alpha virt. eigenvalues --    1.13932   1.14180   1.14211   1.15583   1.15935
 Alpha virt. eigenvalues --    1.17926   1.18339   1.18584   1.20700   1.21343
 Alpha virt. eigenvalues --    1.21675   1.21766   1.23222   1.24241   1.24330
 Alpha virt. eigenvalues --    1.24349   1.25477   1.25570   1.25615   1.28064
 Alpha virt. eigenvalues --    1.28489   1.29064   1.29704   1.29935   1.30975
 Alpha virt. eigenvalues --    1.32174   1.32557   1.33168   1.33448   1.35235
 Alpha virt. eigenvalues --    1.35371   1.37192   1.37513   1.37947   1.38316
 Alpha virt. eigenvalues --    1.38541   1.38805   1.39675   1.41544   1.41592
 Alpha virt. eigenvalues --    1.42789   1.42831   1.43413   1.43491   1.43793
 Alpha virt. eigenvalues --    1.44834   1.45547   1.45876   1.45929   1.47423
 Alpha virt. eigenvalues --    1.47599   1.49349   1.50629   1.50634   1.50893
 Alpha virt. eigenvalues --    1.52429   1.53644   1.53852   1.54194   1.55818
 Alpha virt. eigenvalues --    1.56910   1.57377   1.57490   1.57626   1.57832
 Alpha virt. eigenvalues --    1.59816   1.59884   1.60755   1.62630   1.63657
 Alpha virt. eigenvalues --    1.64254   1.67930   1.76306   2.35904   2.43127
 Alpha virt. eigenvalues --    2.43565   2.44101   2.44294   2.45556   2.50065
 Alpha virt. eigenvalues --    2.53988   2.59296   2.59331   2.61564   2.63198
 Alpha virt. eigenvalues --    2.64004   2.66218   2.67139   2.68303   2.68594
 Alpha virt. eigenvalues --    2.70343   2.72201   2.73939   2.77721   2.81682
 Alpha virt. eigenvalues --    2.83867   2.83894   2.84533   2.87658   2.99058
 Alpha virt. eigenvalues --    3.02669   3.03821   3.10882   3.13422   3.14095
 Alpha virt. eigenvalues --    3.14608   3.22575   3.32252   3.41355   3.43110
 Alpha virt. eigenvalues --    3.48047   3.62095   3.63387   3.63738   3.68591
 Alpha virt. eigenvalues --    4.02993   4.81318
  Beta  occ. eigenvalues --  -58.49297 -58.49297 -58.49297 -58.49297 -58.48754
  Beta  occ. eigenvalues --  -58.48754 -58.48115 -58.48115 -58.47423 -58.47423
  Beta  occ. eigenvalues --  -58.46438  -4.90501  -4.90501  -4.90499  -4.90499
  Beta  occ. eigenvalues --   -4.89906  -4.89906  -4.89326  -4.89320  -4.88690
  Beta  occ. eigenvalues --   -4.88690  -4.88074  -3.21711  -3.21711  -3.21707
  Beta  occ. eigenvalues --   -3.21707  -3.21538  -3.21537  -3.21534  -3.21534
  Beta  occ. eigenvalues --   -3.21385  -3.21383  -3.21380  -3.21379  -3.21211
  Beta  occ. eigenvalues --   -3.21210  -3.20868  -3.20868  -3.20792  -3.20792
  Beta  occ. eigenvalues --   -3.20714  -3.20707  -3.20601  -3.20588  -3.20353
  Beta  occ. eigenvalues --   -3.20302  -3.19837  -3.19836  -3.19743  -3.19743
  Beta  occ. eigenvalues --   -3.19638  -3.19638  -3.19553  -3.19360  -3.19277
  Beta  occ. eigenvalues --   -0.69120  -0.58152  -0.57553  -0.51600  -0.44134
  Beta  occ. eigenvalues --   -0.42754  -0.39374  -0.38813  -0.34117  -0.28241
  Beta  occ. eigenvalues --   -0.26481  -0.25983  -0.25358  -0.24635  -0.24320
  Beta  occ. eigenvalues --   -0.22171
  Beta virt. eigenvalues --   -0.02590  -0.02362  -0.02258  -0.00466  -0.00197
  Beta virt. eigenvalues --    0.01053   0.03076   0.04308   0.04498   0.05478
  Beta virt. eigenvalues --    0.05618   0.08562   0.08626   0.09359   0.10387
  Beta virt. eigenvalues --    0.10443   0.10912   0.12457   0.13088   0.14495
  Beta virt. eigenvalues --    0.14550   0.15241   0.15793   0.16108   0.16141
  Beta virt. eigenvalues --    0.17288   0.17931   0.18029   0.18183   0.18523
  Beta virt. eigenvalues --    0.19060   0.19742   0.19801   0.20130   0.20553
  Beta virt. eigenvalues --    0.21291   0.22672   0.23259   0.23571   0.24538
  Beta virt. eigenvalues --    0.25032   0.25929   0.25973   0.26043   0.26543
  Beta virt. eigenvalues --    0.27788   0.28088   0.28848   0.28984   0.29534
  Beta virt. eigenvalues --    0.29571   0.29579   0.30722   0.30866   0.32021
  Beta virt. eigenvalues --    0.32370   0.32557   0.33861   0.34182   0.34622
  Beta virt. eigenvalues --    0.34718   0.35309   0.35348   0.35350   0.36295
  Beta virt. eigenvalues --    0.37956   0.38003   0.38409   0.39390   0.41400
  Beta virt. eigenvalues --    0.42209   0.42360   0.43004   0.43507   0.43626
  Beta virt. eigenvalues --    0.44999   0.45017   0.45722   0.46963   0.47054
  Beta virt. eigenvalues --    0.48045   0.48419   0.48520   0.49071   0.50165
  Beta virt. eigenvalues --    0.50796   0.50841   0.51056   0.51587   0.51988
  Beta virt. eigenvalues --    0.52464   0.53271   0.55857   0.56747   0.56770
  Beta virt. eigenvalues --    0.57146   0.58720   0.58799   0.59299   0.59617
  Beta virt. eigenvalues --    0.60570   0.60958   0.61472   0.61918   0.62874
  Beta virt. eigenvalues --    0.62981   0.64022   0.64031   0.64208   0.64551
  Beta virt. eigenvalues --    0.64616   0.65546   0.66447   0.66494   0.67794
  Beta virt. eigenvalues --    0.68094   0.68630   0.68961   0.70059   0.70947
  Beta virt. eigenvalues --    0.70962   0.71119   0.73029   0.73530   0.74137
  Beta virt. eigenvalues --    0.75810   0.77992   0.79307   0.79870   0.80997
  Beta virt. eigenvalues --    0.81012   0.82815   0.83235   0.83902   0.84128
  Beta virt. eigenvalues --    0.85785   0.85892   0.86563   0.87018   0.87155
  Beta virt. eigenvalues --    0.88027   0.89196   0.89557   0.90506   0.91001
  Beta virt. eigenvalues --    0.91255   0.91658   0.91887   0.92295   0.93356
  Beta virt. eigenvalues --    0.93431   0.93919   0.94193   0.94748   0.95681
  Beta virt. eigenvalues --    0.97457   0.97929   0.98281   0.98356   0.98659
  Beta virt. eigenvalues --    0.99199   1.00644   1.01215   1.01327   1.01645
  Beta virt. eigenvalues --    1.02357   1.02694   1.02915   1.03228   1.04281
  Beta virt. eigenvalues --    1.04457   1.04869   1.05001   1.06144   1.06246
  Beta virt. eigenvalues --    1.06439   1.06719   1.06779   1.07083   1.07651
  Beta virt. eigenvalues --    1.09067   1.09323   1.09804   1.10220   1.12094
  Beta virt. eigenvalues --    1.13493   1.14018   1.14579   1.14718   1.16202
  Beta virt. eigenvalues --    1.16222   1.18073   1.18126   1.18890   1.20711
  Beta virt. eigenvalues --    1.21271   1.21546   1.21999   1.23363   1.24353
  Beta virt. eigenvalues --    1.24504   1.24526   1.25251   1.25509   1.25534
  Beta virt. eigenvalues --    1.28638   1.28722   1.29289   1.30091   1.30670
  Beta virt. eigenvalues --    1.31206   1.32173   1.32550   1.33283   1.33626
  Beta virt. eigenvalues --    1.35291   1.35440   1.37364   1.37616   1.38302
  Beta virt. eigenvalues --    1.38400   1.38841   1.39144   1.40111   1.41485
  Beta virt. eigenvalues --    1.41921   1.42971   1.43314   1.43621   1.43746
  Beta virt. eigenvalues --    1.44240   1.45232   1.45933   1.46029   1.46349
  Beta virt. eigenvalues --    1.47490   1.47797   1.49118   1.50773   1.51043
  Beta virt. eigenvalues --    1.51238   1.52731   1.54142   1.54175   1.54376
  Beta virt. eigenvalues --    1.56006   1.57214   1.57518   1.57674   1.57777
  Beta virt. eigenvalues --    1.57801   1.59966   1.60174   1.60818   1.62758
  Beta virt. eigenvalues --    1.63848   1.64488   1.68031   1.76109   2.36187
  Beta virt. eigenvalues --    2.43200   2.43731   2.44348   2.44693   2.45384
  Beta virt. eigenvalues --    2.49974   2.54305   2.59398   2.60021   2.61816
  Beta virt. eigenvalues --    2.63414   2.64076   2.65696   2.67216   2.68490
  Beta virt. eigenvalues --    2.68832   2.70546   2.72212   2.73542   2.78003
  Beta virt. eigenvalues --    2.81540   2.84033   2.84565   2.84769   2.87921
  Beta virt. eigenvalues --    2.99274   3.02795   3.04449   3.11079   3.13643
  Beta virt. eigenvalues --    3.14119   3.14362   3.22650   3.32240   3.41307
  Beta virt. eigenvalues --    3.43256   3.48049   3.62077   3.63540   3.63750
  Beta virt. eigenvalues --    3.68578   4.03101   4.81340
          Condensed to atoms (all electrons):
               1          2          3          4          5          6
     1  Al  12.238982   0.133444  -0.001040   0.093017   0.002801  -0.012188
     2  Al   0.133444  12.252284   0.194527   0.068726  -0.001040  -0.030483
     3  Al  -0.001040   0.194527  12.252284   0.068726   0.133444   0.051638
     4  Al   0.093017   0.068726   0.068726  12.270790   0.093017   0.123131
     5  Al   0.002801  -0.001040   0.133444   0.093017  12.238982   0.286174
     6  Al  -0.012188  -0.030483   0.051638   0.123131   0.286174  12.213516
     7  Al   0.286174   0.051638  -0.030483   0.123131  -0.012188   0.106997
     8  Al   0.286174   0.051638  -0.030483   0.123131  -0.012188   0.000378
     9  Al  -0.012188  -0.030483   0.051638   0.123131   0.286174  -0.024783
    10  Al  -0.020941   0.172414   0.172414  -0.020580  -0.020941   0.001743
    11  Al  -0.020941   0.172414   0.172414  -0.020580  -0.020941   0.250052
               7          8          9         10         11
     1  Al   0.286174   0.286174  -0.012188  -0.020941  -0.020941
     2  Al   0.051638   0.051638  -0.030483   0.172414   0.172414
     3  Al  -0.030483  -0.030483   0.051638   0.172414   0.172414
     4  Al   0.123131   0.123131   0.123131  -0.020580  -0.020580
     5  Al  -0.012188  -0.012188   0.286174  -0.020941  -0.020941
     6  Al   0.106997   0.000378  -0.024783   0.001743   0.250052
     7  Al  12.213516  -0.024783   0.000378   0.001743   0.250052
     8  Al  -0.024783  12.213516   0.106997   0.250052   0.001743
     9  Al   0.000378   0.106997  12.213516   0.250052   0.001743
    10  Al   0.001743   0.250052   0.250052  12.267222  -0.016723
    11  Al   0.250052   0.001743   0.001743  -0.016723  12.267222
          Atomic-Atomic Spin Densities.
               1          2          3          4          5          6
     1  Al   0.406125  -0.035923   0.005088  -0.047077   0.000020  -0.002224
     2  Al  -0.035923   0.535421  -0.008641   0.010938   0.005088   0.007823
     3  Al   0.005088  -0.008641   0.535421   0.010938  -0.035923  -0.014412
     4  Al  -0.047077   0.010938   0.010938  -0.134144  -0.047077   0.011227
     5  Al   0.000020   0.005088  -0.035923  -0.047077   0.406125   0.022854
     6  Al  -0.002224   0.007823  -0.014412   0.011227   0.022854  -0.317328
     7  Al   0.022854  -0.014412   0.007823   0.011227  -0.002224   0.024472
     8  Al   0.022854  -0.014412   0.007823   0.011227  -0.002224   0.001747
     9  Al  -0.002224   0.007823  -0.014412   0.011227   0.022854   0.001018
    10  Al  -0.004224  -0.032931  -0.032931   0.007768  -0.004224  -0.000594
    11  Al  -0.004224  -0.032931  -0.032931   0.007768  -0.004224   0.011744
               7          8          9         10         11
     1  Al   0.022854   0.022854  -0.002224  -0.004224  -0.004224
     2  Al  -0.014412  -0.014412   0.007823  -0.032931  -0.032931
     3  Al   0.007823   0.007823  -0.014412  -0.032931  -0.032931
     4  Al   0.011227   0.011227   0.011227   0.007768   0.007768
     5  Al  -0.002224  -0.002224   0.022854  -0.004224  -0.004224
     6  Al   0.024472   0.001747   0.001018  -0.000594   0.011744
     7  Al  -0.317328   0.001018   0.001747  -0.000594   0.011744
     8  Al   0.001018  -0.317328   0.024472   0.011744  -0.000594
     9  Al   0.001747   0.024472  -0.317328   0.011744  -0.000594
    10  Al  -0.000594   0.011744   0.011744   0.334753   0.000937
    11  Al   0.011744  -0.000594  -0.000594   0.000937   0.334753
 Mulliken charges and spin densities:
               1          2
     1  Al   0.026705   0.361045
     2  Al  -0.035080   0.427844
     3  Al  -0.035080   0.427844
     4  Al  -0.045640  -0.145980
     5  Al   0.026705   0.361045
     6  Al   0.033826  -0.253674
     7  Al   0.033826  -0.253674
     8  Al   0.033826  -0.253674
     9  Al   0.033826  -0.253674
    10  Al  -0.036456   0.291448
    11  Al  -0.036456   0.291449
 Sum of Mulliken charges =   0.00000   1.00000
 Mulliken charges and spin densities with hydrogens summed into heavy atoms:
               1          2
     1  Al   0.026705   0.361045
     2  Al  -0.035080   0.427844
     3  Al  -0.035080   0.427844
     4  Al  -0.045640  -0.145980
     5  Al   0.026705   0.361045
     6  Al   0.033826  -0.253674
     7  Al   0.033826  -0.253674
     8  Al   0.033826  -0.253674
     9  Al   0.033826  -0.253674
    10  Al  -0.036456   0.291448
    11  Al  -0.036456   0.291449
 Electronic spatial extent (au):  <R**2>=           3764.6948
 Charge=              0.0000 electrons
 Dipole moment (field-independent basis, Debye):
    X=              0.0000    Y=              0.0000    Z=              0.4760  Tot=              0.4760
 Quadrupole moment (field-independent basis, Debye-Ang):
   XX=           -148.0525   YY=           -147.1859   ZZ=           -142.2815
   XY=              0.0000   XZ=              0.0000   YZ=              0.0000
 Traceless Quadrupole moment (field-independent basis, Debye-Ang):
   XX=             -2.2126   YY=             -1.3459   ZZ=              3.5585
   XY=              0.0000   XZ=              0.0000   YZ=              0.0000
 Octapole moment (field-independent basis, Debye-Ang**2):
  XXX=              0.0000  YYY=              0.0000  ZZZ=             -1.7716  XYY=              0.0000
  XXY=              0.0000  XXZ=              8.0517  XZZ=              0.0000  YZZ=              0.0000
  YYZ=              0.0002  XYZ=              0.0000
 Hexadecapole moment (field-independent basis, Debye-Ang**3):
 XXXX=          -2940.0644 YYYY=          -2778.5073 ZZZZ=          -1370.1636 XXXY=              0.0000
 XXXZ=              0.0000 YYYX=              0.0000 YYYZ=              0.0000 ZZZX=              0.0000
 ZZZY=              0.0000 XXYY=           -966.4828 XXZZ=           -718.3834 YYZZ=           -690.9823
 XXYZ=              0.0000 YYXZ=              0.0000 ZZXY=              0.0000
 N-N= 1.432675065986D+03 E-N=-9.230239067270D+03  KE= 2.661397839085D+03
 Symmetry A1   KE= 1.109297278998D+03
 Symmetry A2   KE= 3.020476806459D+02
 Symmetry B1   KE= 5.247165961276D+02
 Symmetry B2   KE= 7.253362833138D+02

 Test job not archived.
 1\1\GINC-R2I0N16\SP\UCCSD(T)-FC\CC-pVTZ\Al11(2)\VSC31064\03-Oct-2016\0
 \\# CCSD(T,conver=5)/cc-pVTZ test geom=allcheck guess=read scf=xqc\\Al
 11-n-d\\0,2\Al,0,0.,2.85559999,1.05997554\Al,0,0.,1.33085957,-1.357324
 38\Al,0,0.,-1.33085957,-1.35732438\Al,0,0.,0.,1.06567305\Al,0,0.,-2.85
 559999,1.05997554\Al,0,-2.22668668,-1.5562454,0.62598482\Al,0,-2.22668
 668,1.5562454,0.62598482\Al,0,2.22668668,1.5562454,0.62598482\Al,0,2.2
 2668668,-1.5562454,0.62598482\Al,0,2.41591446,0.,-1.48451974\Al,0,-2.4
 1591446,0.,-1.48451974\\Version=ES64L-G09RevD.01\State=2-A1\HF=-2661.1
 01976\MP2=-2662.0697849\MP3=-2661.9766243\MP4D=-2662.083895\MP4DQ=-266
 2.0135021\PUHF=-2661.1440646\PMP2-0=-2662.1101237\PMP3-0=-2662.0123844
 \MP4SDQ=-2662.0387523\CCSD=-2662.0223446\CCSD(T)=-2662.1498772\S2=1.95
 7233\S2-1=1.743736\S2A=3.079782\RMSD=2.019e-05\PG=C02V [C2(Al1),SGV(Al
 4),SGV'(Al2),X(Al4)]\\@


 BLESSED ARE THOSE WHO NOUGHT EXPECT,
 FOR THEY SHALL NOT BE DISAPPOINTED..  WALCOT - ODE TO PITT
 Job cpu time:       0 days 19 hours 32 minutes  5.4 seconds.
 File lengths (MBytes):  RWF=   7092 Int=      0 D2E=      0 Chk=     11 Scr=      1
 Normal termination of Gaussian 09 at Mon Oct  3 07:37:11 2016.
