 Entering Gaussian System, Link 0=g09
 Initial command:
 /apps/leuven/thinking/software/G09//g09D1/l1.exe "/local_scratch/vsc31064/Gau-22429.inp" -scrdir="/local_scratch/vsc31064/"
 Entering Link 1 = /apps/leuven/thinking/software/G09//g09D1/l1.exe PID=     22433.
  
 Copyright (c) 1988,1990,1992,1993,1995,1998,2003,2009,2013,
            Gaussian, Inc.  All Rights Reserved.
  
 This is part of the Gaussian(R) 09 program.  It is based on
 the Gaussian(R) 03 system (copyright 2003, Gaussian, Inc.),
 the Gaussian(R) 98 system (copyright 1998, Gaussian, Inc.),
 the Gaussian(R) 94 system (copyright 1995, Gaussian, Inc.),
 the Gaussian 92(TM) system (copyright 1992, Gaussian, Inc.),
 the Gaussian 90(TM) system (copyright 1990, Gaussian, Inc.),
 the Gaussian 88(TM) system (copyright 1988, Gaussian, Inc.),
 the Gaussian 86(TM) system (copyright 1986, Carnegie Mellon
 University), and the Gaussian 82(TM) system (copyright 1983,
 Carnegie Mellon University). Gaussian is a federally registered
 trademark of Gaussian, Inc.
  
 This software contains proprietary and confidential information,
 including trade secrets, belonging to Gaussian, Inc.
  
 This software is provided under written license and may be
 used, copied, transmitted, or stored only in accord with that
 written license.
  
 The following legend is applicable only to US Government
 contracts under FAR:
  
                    RESTRICTED RIGHTS LEGEND
  
 Use, reproduction and disclosure by the US Government is
 subject to restrictions as set forth in subparagraphs (a)
 and (c) of the Commercial Computer Software - Restricted
 Rights clause in FAR 52.227-19.
  
 Gaussian, Inc.
 340 Quinnipiac St., Bldg. 40, Wallingford CT 06492
  
  
 ---------------------------------------------------------------
 Warning -- This program may not be used in any manner that
 competes with the business of Gaussian, Inc. or will provide
 assistance to any competitor of Gaussian, Inc.  The licensee
 of this program is prohibited from giving any competitor of
 Gaussian, Inc. access to this program.  By using this program,
 the user acknowledges that Gaussian, Inc. is engaged in the
 business of creating and licensing software in the field of
 computational chemistry and represents and warrants to the
 licensee that it is not a competitor of Gaussian, Inc. and that
 it will not use this program in any manner prohibited above.
 ---------------------------------------------------------------
  

 Cite this work as:
 Gaussian 09, Revision D.01,
 M. J. Frisch, G. W. Trucks, H. B. Schlegel, G. E. Scuseria, 
 M. A. Robb, J. R. Cheeseman, G. Scalmani, V. Barone, B. Mennucci, 
 G. A. Petersson, H. Nakatsuji, M. Caricato, X. Li, H. P. Hratchian, 
 A. F. Izmaylov, J. Bloino, G. Zheng, J. L. Sonnenberg, M. Hada, 
 M. Ehara, K. Toyota, R. Fukuda, J. Hasegawa, M. Ishida, T. Nakajima, 
 Y. Honda, O. Kitao, H. Nakai, T. Vreven, J. A. Montgomery, Jr., 
 J. E. Peralta, F. Ogliaro, M. Bearpark, J. J. Heyd, E. Brothers, 
 K. N. Kudin, V. N. Staroverov, T. Keith, R. Kobayashi, J. Normand, 
 K. Raghavachari, A. Rendell, J. C. Burant, S. S. Iyengar, J. Tomasi, 
 M. Cossi, N. Rega, J. M. Millam, M. Klene, J. E. Knox, J. B. Cross, 
 V. Bakken, C. Adamo, J. Jaramillo, R. Gomperts, R. E. Stratmann, 
 O. Yazyev, A. J. Austin, R. Cammi, C. Pomelli, J. W. Ochterski, 
 R. L. Martin, K. Morokuma, V. G. Zakrzewski, G. A. Voth, 
 P. Salvador, J. J. Dannenberg, S. Dapprich, A. D. Daniels, 
 O. Farkas, J. B. Foresman, J. V. Ortiz, J. Cioslowski, 
 and D. J. Fox, Gaussian, Inc., Wallingford CT, 2013.
 
 ******************************************
 Gaussian 09:  ES64L-G09RevD.01 24-Apr-2013
                 3-Oct-2016 
 ******************************************
 %NprocShared=20
 Will use up to   20 processors via shared memory.
 %mem=55000mb
 %chk=cc-Al12-c-d
 ------------------------
 # hf/6-31G* test scf=xqc
 ------------------------
 1/38=1/1;
 2/12=2,17=6,18=5,40=1/2;
 3/5=1,6=6,7=1,11=9,16=1,25=1,30=1/1,2,3;
 4//1;
 5/5=2,8=3,13=1,38=5/2,8;
 6/7=2,8=2,9=2,10=2,28=1/1;
 99/5=1,9=1/99;
 --------
 Al12-c-d
 --------
 Symbolic Z-matrix:
 Charge =  1 Multiplicity = 2
 Al                    0.18471   1.68672  -2.19016 
 Al                    0.25708   3.0742    0. 
 Al                   -1.35198  -0.42523  -2.21619 
 Al                    0.54628  -2.25278  -1.33975 
 Al                    0.18471   1.68672   2.19016 
 Al                   -1.62532   1.09996   0. 
 Al                   -1.77075  -1.59571   0. 
 Al                   -1.35198  -0.42523   2.21619 
 Al                    1.74441  -0.35671  -2.72881 
 Al                    1.74441  -0.35671   2.72881 
 Al                    0.54628  -2.25278   1.33975 
 Al                    0.89196   0.11857   0. 
 
                          Input orientation:                          
 ---------------------------------------------------------------------
 Center     Atomic      Atomic             Coordinates (Angstroms)
 Number     Number       Type             X           Y           Z
 ---------------------------------------------------------------------
      1         13           0        0.184712    1.686725   -2.190164
      2         13           0        0.257076    3.074196    0.000000
      3         13           0       -1.351979   -0.425234   -2.216190
      4         13           0        0.546283   -2.252776   -1.339750
      5         13           0        0.184712    1.686725    2.190164
      6         13           0       -1.625320    1.099964    0.000000
      7         13           0       -1.770752   -1.595710    0.000000
      8         13           0       -1.351979   -0.425234    2.216190
      9         13           0        1.744413   -0.356706   -2.728810
     10         13           0        1.744413   -0.356706    2.728810
     11         13           0        0.546283   -2.252776    1.339750
     12         13           0        0.891964    0.118572    0.000000
 ---------------------------------------------------------------------
                    Distance matrix (angstroms):
                    1          2          3          4          5
     1  Al   0.000000
     2  Al   2.593671   0.000000
     3  Al   2.611985   4.443711   0.000000
     4  Al   4.046430   5.500473   2.776950   0.000000
     5  Al   4.380327   2.593671   5.122279   5.301951   0.000000
     6  Al   2.901262   2.727821   2.704153   4.213271   2.901262
     7  Al   4.403979   5.091179   2.541040   2.755961   4.403979
     8  Al   5.122279   4.443711   4.432381   4.425835   2.611985
     9  Al   2.626484   4.629219   3.139286   2.638197   5.550187
    10  Al   5.550187   4.629219   5.834841   4.645835   2.626484
    11  Al   5.301951   5.500473   4.425835   2.679501   4.046430
    12  Al   2.784982   3.023044   3.200391   2.745490   2.784982
                    6          7          8          9         10
     6  Al   0.000000
     7  Al   2.699594   0.000000
     8  Al   2.704153   2.541040   0.000000
     9  Al   4.574210   4.619299   5.834841   0.000000
    10  Al   4.574210   4.619299   3.139286   5.457620   0.000000
    11  Al   4.213271   2.755961   2.776950   4.645835   2.638197
    12  Al   2.701823   3.166831   3.200391   2.898096   2.898096
                   11         12
    11  Al   0.000000
    12  Al   2.745490   0.000000
 Stoichiometry    Al12(1+,2)
 Framework group  CS[SG(Al4),X(Al8)]
 Deg. of freedom    17
 Full point group                 CS      NOp   2
 Largest Abelian subgroup         CS      NOp   2
 Largest concise Abelian subgroup CS      NOp   2
                         Standard orientation:                         
 ---------------------------------------------------------------------
 Center     Atomic      Atomic             Coordinates (Angstroms)
 Number     Number       Type             X           Y           Z
 ---------------------------------------------------------------------
      1         13           0        1.682138    0.222000    2.190164
      2         13           0        3.067669    0.325046    0.000000
      3         13           0       -0.395303   -1.361044    2.216190
      4         13           0       -2.264398    0.496317    1.339750
      5         13           0        1.682138    0.222000   -2.190164
      6         13           0        1.135570   -1.600572    0.000000
      7         13           0       -1.556226   -1.805613    0.000000
      8         13           0       -0.395303   -1.361044   -2.216190
      9         13           0       -0.395303    1.736106    2.728810
     10         13           0       -0.395303    1.736106   -2.728810
     11         13           0       -2.264398    0.496317   -1.339750
     12         13           0        0.098720    0.894382    0.000000
 ---------------------------------------------------------------------
 Rotational constants (GHZ):      0.4008866      0.3408966      0.2771756
 Standard basis: 6-31G(d) (6D, 7F)
 There are   132 symmetry adapted cartesian basis functions of A'  symmetry.
 There are    96 symmetry adapted cartesian basis functions of A"  symmetry.
 There are   132 symmetry adapted basis functions of A'  symmetry.
 There are    96 symmetry adapted basis functions of A"  symmetry.
   228 basis functions,   624 primitive gaussians,   228 cartesian basis functions
    78 alpha electrons       77 beta electrons
       nuclear repulsion energy      1696.4777472518 Hartrees.
 NAtoms=   12 NActive=   12 NUniq=    8 SFac= 2.25D+00 NAtFMM=   60 NAOKFM=F Big=F
 Integral buffers will be    131072 words long.
 Raffenetti 2 integral format.
 Two-electron integral symmetry is turned on.
 One-electron integrals computed using PRISM.
 NBasis=   228 RedAO= T EigKep=  9.74D-04  NBF=   132    96
 NBsUse=   228 1.00D-06 EigRej= -1.00D+00 NBFU=   132    96
 ExpMin= 5.57D-02 ExpMax= 1.40D+04 ExpMxC= 2.10D+03 IAcc=2 IRadAn=         4 AccDes= 0.00D+00
 Harris functional with IExCor=  205 and IRadAn=       4 diagonalized for initial guess.
 HarFok:  IExCor=  205 AccDes= 0.00D+00 IRadAn=         4 IDoV= 1 UseB2=F ITyADJ=14
 ICtDFT=  3500011 ScaDFX=  1.000000  1.000000  1.000000  1.000000
 FoFCou: FMM=F IPFlag=           0 FMFlag=      100000 FMFlg1=           0
         NFxFlg=           0 DoJE=T BraDBF=F KetDBF=T FulRan=T
         wScrn=  0.000000 ICntrl=     500 IOpCl=  0 I1Cent=   200000004 NGrid=           0
         NMat0=    1 NMatS0=      1 NMatT0=    0 NMatD0=    1 NMtDS0=    0 NMtDT0=    0
 Petite list used in FoFCou.
 Initial guess orbital symmetries:
 Alpha Orbitals:
       Occupied  (A') (A') (A') (A") (A') (A") (A') (A") (A') (A')
                 (A") (A') (A') (A') (A') (A") (A') (A') (A") (A')
                 (A") (A') (A") (A') (A") (A') (A') (A") (A') (A")
                 (A') (A') (A') (A') (A") (A') (A") (A') (A") (A')
                 (A") (A') (A") (A') (A") (A') (A") (A') (A") (A')
                 (A") (A") (A') (A') (A") (A') (A") (A') (A") (A')
                 (A') (A") (A') (A') (A') (A") (A") (A') (A') (A')
                 (A") (A') (A") (A') (A") (A') (A") (A')
       Virtual   (A') (A') (A") (A") (A') (A') (A") (A') (A') (A")
                 (A') (A") (A") (A') (A') (A') (A") (A") (A') (A')
                 (A') (A") (A') (A") (A') (A') (A') (A") (A") (A')
                 (A") (A') (A") (A') (A") (A") (A') (A') (A') (A")
                 (A') (A') (A") (A') (A") (A') (A') (A") (A') (A")
                 (A') (A") (A") (A') (A') (A") (A') (A') (A") (A')
                 (A") (A') (A") (A') (A') (A") (A") (A') (A') (A')
                 (A") (A") (A') (A") (A') (A") (A') (A") (A') (A")
                 (A') (A") (A') (A") (A') (A") (A') (A") (A') (A')
                 (A') (A") (A") (A') (A') (A") (A') (A") (A') (A")
                 (A') (A") (A') (A') (A") (A') (A") (A') (A") (A')
                 (A') (A") (A") (A') (A') (A') (A") (A') (A') (A")
                 (A") (A') (A") (A") (A') (A') (A") (A') (A') (A')
                 (A") (A') (A") (A") (A') (A") (A") (A') (A') (A')
                 (A') (A") (A") (A') (A') (A") (A') (A') (A") (A')
 Beta  Orbitals:
       Occupied  (A') (A') (A') (A") (A') (A") (A') (A") (A') (A')
                 (A") (A') (A') (A') (A') (A") (A') (A') (A") (A')
                 (A") (A') (A") (A') (A") (A') (A') (A") (A') (A")
                 (A') (A') (A') (A') (A") (A') (A") (A') (A") (A')
                 (A") (A') (A") (A') (A") (A') (A") (A') (A") (A')
                 (A") (A") (A') (A') (A") (A') (A") (A') (A") (A')
                 (A') (A") (A') (A') (A') (A") (A") (A') (A') (A')
                 (A") (A') (A") (A') (A") (A') (A")
       Virtual   (A') (A') (A') (A") (A") (A') (A') (A") (A') (A')
                 (A") (A') (A") (A") (A') (A') (A') (A") (A") (A')
                 (A') (A') (A") (A') (A") (A') (A') (A') (A") (A")
                 (A') (A") (A') (A") (A') (A") (A") (A') (A') (A')
                 (A") (A') (A') (A") (A') (A") (A') (A') (A") (A')
                 (A") (A') (A") (A") (A') (A') (A") (A') (A') (A")
                 (A') (A") (A') (A") (A') (A') (A") (A") (A') (A')
                 (A') (A") (A") (A') (A") (A') (A") (A') (A") (A')
                 (A") (A') (A") (A') (A") (A') (A") (A') (A") (A')
                 (A') (A') (A") (A") (A') (A') (A") (A') (A") (A')
                 (A") (A') (A") (A') (A') (A") (A') (A") (A') (A")
                 (A') (A') (A") (A") (A') (A') (A') (A") (A') (A')
                 (A") (A") (A') (A") (A") (A') (A') (A") (A') (A')
                 (A') (A") (A') (A") (A") (A') (A") (A") (A') (A')
                 (A') (A') (A") (A") (A') (A') (A") (A') (A') (A")
                 (A')
 The electronic state of the initial guess is 2-A'.
 Initial guess <Sx>= 0.0000 <Sy>= 0.0000 <Sz>= 0.5000 <S**2>= 0.7500 S= 0.5000
 Keep R1 and R2 ints in memory in symmetry-blocked form, NReq=511839987.
 Requested convergence on RMS density matrix=1.00D-08 within  64 cycles.
 Requested convergence on MAX density matrix=1.00D-06.
 Requested convergence on             energy=1.00D-06.
 No special actions if energy rises.
 Rare condition: small coef for last iteration:  0.000D+00
 Rare condition: small coef for last iteration:  0.000D+00
 Rare condition: small coef for last iteration:  0.000D+00
 Rare condition: small coef for last iteration:  0.000D+00
 SCF Done:  E(UHF) =  -2902.58829871     A.U. after   47 cycles
            NFock= 47  Conv=0.95D-08     -V/T= 2.0002
 <Sx>= 0.0000 <Sy>= 0.0000 <Sz>= 0.5000 <S**2>= 1.1853 S= 0.6980
 <L.S>= 0.000000000000E+00
 Annihilation of the first spin contaminant:
 S**2 before annihilation     1.1853,   after     0.9640
 QCSCF skips out because SCF is already converged.

 **********************************************************************

            Population analysis using the SCF density.

 **********************************************************************

 Orbital symmetries:
 Alpha Orbitals:
       Occupied  (A') (A") (A') (A") (A') (A') (A") (A') (A') (A")
                 (A') (A') (A') (A') (A") (A') (A") (A') (A') (A")
                 (A') (A") (A') (A') (A') (A') (A") (A') (A') (A")
                 (A') (A") (A') (A") (A') (A') (A') (A") (A') (A")
                 (A') (A") (A") (A') (A") (A") (A') (A') (A") (A")
                 (A') (A') (A") (A") (A') (A') (A") (A') (A") (A')
                 (A') (A") (A') (A') (A') (A") (A") (A') (A') (A')
                 (A") (A') (A') (A") (A") (A') (A') (A")
       Virtual   (A') (A') (A") (A') (A") (A') (A") (A') (A') (A")
                 (A') (A') (A") (A") (A') (A') (A") (A') (A") (A')
                 (A') (A") (A') (A') (A') (A") (A') (A") (A") (A')
                 (A") (A") (A') (A') (A") (A') (A') (A") (A") (A')
                 (A") (A') (A') (A') (A") (A') (A') (A") (A') (A")
                 (A") (A') (A') (A") (A") (A') (A') (A') (A') (A")
                 (A') (A") (A") (A') (A') (A') (A") (A') (A") (A")
                 (A') (A") (A") (A') (A') (A") (A') (A") (A') (A")
                 (A') (A") (A') (A") (A') (A') (A") (A') (A") (A')
                 (A') (A") (A') (A") (A') (A") (A') (A") (A') (A')
                 (A") (A") (A') (A') (A') (A") (A") (A') (A') (A")
                 (A') (A") (A') (A") (A') (A') (A") (A') (A') (A")
                 (A") (A') (A") (A") (A') (A") (A') (A') (A') (A')
                 (A') (A") (A") (A") (A') (A") (A") (A') (A') (A')
                 (A") (A') (A") (A') (A') (A") (A') (A') (A") (A')
 Beta  Orbitals:
       Occupied  (A') (A") (A') (A") (A') (A") (A') (A') (A') (A")
                 (A') (A') (A') (A") (A') (A') (A") (A') (A") (A')
                 (A') (A") (A') (A') (A') (A") (A') (A") (A') (A')
                 (A") (A') (A") (A') (A') (A") (A") (A') (A") (A')
                 (A") (A') (A") (A') (A') (A") (A') (A") (A') (A")
                 (A') (A") (A') (A') (A") (A') (A") (A') (A") (A')
                 (A') (A") (A') (A') (A') (A") (A") (A') (A') (A')
                 (A") (A') (A") (A") (A') (A") (A')
       Virtual   (A') (A') (A') (A") (A") (A') (A') (A") (A') (A')
                 (A") (A') (A") (A') (A") (A') (A") (A') (A') (A")
                 (A') (A') (A") (A') (A') (A") (A') (A") (A') (A")
                 (A") (A') (A") (A') (A') (A") (A') (A") (A') (A")
                 (A') (A") (A') (A') (A") (A') (A') (A') (A") (A")
                 (A') (A") (A") (A') (A') (A") (A') (A') (A') (A")
                 (A') (A") (A') (A") (A') (A') (A") (A') (A') (A")
                 (A") (A') (A") (A") (A') (A') (A") (A") (A') (A')
                 (A") (A') (A") (A') (A") (A') (A') (A") (A') (A")
                 (A') (A') (A") (A") (A') (A') (A") (A') (A") (A')
                 (A') (A") (A") (A') (A') (A') (A") (A") (A') (A')
                 (A") (A') (A") (A') (A") (A') (A') (A") (A') (A')
                 (A") (A") (A") (A') (A") (A') (A") (A') (A') (A')
                 (A') (A') (A") (A") (A") (A') (A") (A") (A') (A')
                 (A') (A") (A') (A") (A') (A') (A") (A') (A') (A")
                 (A')
 The electronic state is 2-A'.
 Alpha  occ. eigenvalues --  -58.61689 -58.60912 -58.60912 -58.60866 -58.60866
 Alpha  occ. eigenvalues --  -58.60596 -58.60373 -58.60373 -58.60360 -58.59712
 Alpha  occ. eigenvalues --  -58.59711 -58.56640  -5.03677  -5.02865  -5.02859
 Alpha  occ. eigenvalues --   -5.02842  -5.02825  -5.02825  -5.02621  -5.02180
 Alpha  occ. eigenvalues --   -5.02180  -5.01874  -5.01874  -4.99271  -3.34910
 Alpha  occ. eigenvalues --   -3.34784  -3.34494  -3.34348  -3.34155  -3.34135
 Alpha  occ. eigenvalues --   -3.34095  -3.34095  -3.34009  -3.34009  -3.33968
 Alpha  occ. eigenvalues --   -3.33965  -3.33948  -3.33943  -3.33864  -3.33864
 Alpha  occ. eigenvalues --   -3.33855  -3.33850  -3.33830  -3.33780  -3.33692
 Alpha  occ. eigenvalues --   -3.33221  -3.33220  -3.33162  -3.33161  -3.33148
 Alpha  occ. eigenvalues --   -3.33148  -3.33014  -3.33014  -3.32988  -3.32988
 Alpha  occ. eigenvalues --   -3.32935  -3.32933  -3.30616  -3.30480  -3.30420
 Alpha  occ. eigenvalues --   -0.83525  -0.72584  -0.72392  -0.67180  -0.59218
 Alpha  occ. eigenvalues --   -0.57411  -0.56017  -0.53674  -0.50160  -0.45225
 Alpha  occ. eigenvalues --   -0.42112  -0.40546  -0.39118  -0.37677  -0.37159
 Alpha  occ. eigenvalues --   -0.37000  -0.35711  -0.34564
 Alpha virt. eigenvalues --   -0.15200  -0.14226  -0.14184  -0.13075  -0.12417
 Alpha virt. eigenvalues --   -0.10887  -0.09617  -0.09428  -0.06523  -0.06103
 Alpha virt. eigenvalues --   -0.04226  -0.03761  -0.03194  -0.03130  -0.01517
 Alpha virt. eigenvalues --    0.00469   0.00679   0.01706   0.02018   0.02080
 Alpha virt. eigenvalues --    0.02852   0.02994   0.03587   0.05254   0.05547
 Alpha virt. eigenvalues --    0.05719   0.07956   0.08515   0.09281   0.10150
 Alpha virt. eigenvalues --    0.10811   0.11382   0.11718   0.13385   0.13682
 Alpha virt. eigenvalues --    0.14027   0.14541   0.14655   0.15886   0.16051
 Alpha virt. eigenvalues --    0.16640   0.17297   0.17379   0.20478   0.20656
 Alpha virt. eigenvalues --    0.21619   0.22461   0.23319   0.23820   0.24253
 Alpha virt. eigenvalues --    0.25142   0.25279   0.25742   0.25965   0.27166
 Alpha virt. eigenvalues --    0.27666   0.28065   0.30149   0.30587   0.30823
 Alpha virt. eigenvalues --    0.31447   0.31578   0.33283   0.33893   0.34626
 Alpha virt. eigenvalues --    0.35134   0.35268   0.35637   0.36185   0.38479
 Alpha virt. eigenvalues --    0.39281   0.39900   0.40182   0.40555   0.44118
 Alpha virt. eigenvalues --    0.45401   0.45407   0.45670   0.47073   0.47922
 Alpha virt. eigenvalues --    0.48482   0.49779   0.50201   0.51638   0.51792
 Alpha virt. eigenvalues --    0.52443   0.53517   0.54226   0.54585   0.55817
 Alpha virt. eigenvalues --    0.57461   0.58707   0.60445   0.60465   0.61526
 Alpha virt. eigenvalues --    0.61979   0.62293   0.64142   0.64779   0.65267
 Alpha virt. eigenvalues --    0.66411   0.67660   0.67711   0.68423   0.69268
 Alpha virt. eigenvalues --    0.69366   0.70871   0.71514   0.72165   0.73200
 Alpha virt. eigenvalues --    0.75176   0.75363   0.77857   0.78337   0.79713
 Alpha virt. eigenvalues --    0.81089   0.81621   0.82693   0.85159   0.85349
 Alpha virt. eigenvalues --    0.85890   0.86481   0.86886   0.88280   0.89023
 Alpha virt. eigenvalues --    0.89827   0.90849   0.92229   0.93512   0.94500
 Alpha virt. eigenvalues --    0.95068   0.95587   0.96708   0.97684   0.99465
 Alpha virt. eigenvalues --    0.99611   1.04820   1.27267   2.09057   2.16609
 Alpha virt. eigenvalues --    2.17442   2.17647   2.22958   2.24702   2.25114
 Alpha virt. eigenvalues --    2.25585   2.26268   2.28068   2.29749   2.39410
  Beta  occ. eigenvalues --  -58.61476 -58.61003 -58.61003 -58.60725 -58.60725
  Beta  occ. eigenvalues --  -58.60458 -58.60458 -58.60409 -58.60182 -58.59703
  Beta  occ. eigenvalues --  -58.59703 -58.56633  -5.03287  -5.02978  -5.02978
  Beta  occ. eigenvalues --   -5.02596  -5.02590  -5.02541  -5.02337  -5.02337
  Beta  occ. eigenvalues --   -5.02294  -5.01862  -5.01862  -4.99248  -3.34483
  Beta  occ. eigenvalues --   -3.34361  -3.34321  -3.34267  -3.34266  -3.34166
  Beta  occ. eigenvalues --   -3.34166  -3.34047  -3.34043  -3.33921  -3.33914
  Beta  occ. eigenvalues --   -3.33914  -3.33777  -3.33739  -3.33721  -3.33684
  Beta  occ. eigenvalues --   -3.33640  -3.33589  -3.33498  -3.33476  -3.33351
  Beta  occ. eigenvalues --   -3.33338  -3.33338  -3.33258  -3.33257  -3.33168
  Beta  occ. eigenvalues --   -3.33168  -3.33120  -3.33120  -3.32981  -3.32978
  Beta  occ. eigenvalues --   -3.32953  -3.32953  -3.30641  -3.30468  -3.30425
  Beta  occ. eigenvalues --   -0.82797  -0.72709  -0.70988  -0.65822  -0.58044
  Beta  occ. eigenvalues --   -0.57575  -0.56270  -0.52477  -0.46215  -0.44974
  Beta  occ. eigenvalues --   -0.42000  -0.40470  -0.38068  -0.37113  -0.37000
  Beta  occ. eigenvalues --   -0.35770  -0.35185
  Beta virt. eigenvalues --   -0.15584  -0.14423  -0.13707  -0.13293  -0.12205
  Beta virt. eigenvalues --   -0.11077  -0.10123  -0.09951  -0.07861  -0.06182
  Beta virt. eigenvalues --   -0.05624  -0.03852  -0.02576  -0.02560  -0.02102
  Beta virt. eigenvalues --    0.00301   0.00497   0.00741   0.01967   0.02402
  Beta virt. eigenvalues --    0.02807   0.03013   0.03376   0.03924   0.06000
  Beta virt. eigenvalues --    0.06163   0.06367   0.08626   0.08977   0.09482
  Beta virt. eigenvalues --    0.10915   0.11225   0.11606   0.12303   0.13731
  Beta virt. eigenvalues --    0.14121   0.14267   0.14776   0.15184   0.15782
  Beta virt. eigenvalues --    0.16340   0.16990   0.17305   0.17679   0.20775
  Beta virt. eigenvalues --    0.21542   0.21935   0.23166   0.23794   0.24254
  Beta virt. eigenvalues --    0.24303   0.25017   0.25813   0.25929   0.27020
  Beta virt. eigenvalues --    0.27248   0.27979   0.28685   0.30463   0.30950
  Beta virt. eigenvalues --    0.31324   0.31588   0.32253   0.33021   0.34141
  Beta virt. eigenvalues --    0.34781   0.35355   0.35666   0.36017   0.36497
  Beta virt. eigenvalues --    0.38821   0.39588   0.40099   0.40684   0.40862
  Beta virt. eigenvalues --    0.44323   0.45384   0.46129   0.46229   0.47817
  Beta virt. eigenvalues --    0.48192   0.49024   0.50180   0.50615   0.51973
  Beta virt. eigenvalues --    0.52318   0.52918   0.53442   0.54632   0.54702
  Beta virt. eigenvalues --    0.55922   0.57841   0.59138   0.60589   0.60948
  Beta virt. eigenvalues --    0.62070   0.62495   0.62761   0.64359   0.65076
  Beta virt. eigenvalues --    0.65444   0.66473   0.67981   0.68106   0.68789
  Beta virt. eigenvalues --    0.69435   0.69527   0.71041   0.71665   0.72659
  Beta virt. eigenvalues --    0.73172   0.75240   0.75530   0.78510   0.78523
  Beta virt. eigenvalues --    0.80198   0.81468   0.81609   0.82871   0.85175
  Beta virt. eigenvalues --    0.85560   0.85977   0.87017   0.87343   0.88726
  Beta virt. eigenvalues --    0.89241   0.89984   0.90932   0.92773   0.93809
  Beta virt. eigenvalues --    0.94760   0.95375   0.96004   0.96730   0.97617
  Beta virt. eigenvalues --    0.99565   0.99665   1.04904   1.27327   2.09305
  Beta virt. eigenvalues --    2.16961   2.17302   2.17688   2.22877   2.24990
  Beta virt. eigenvalues --    2.25458   2.25843   2.26699   2.28081   2.29710
  Beta virt. eigenvalues --    2.39497
          Condensed to atoms (all electrons):
               1          2          3          4          5          6
     1  Al  12.712618   0.305634   0.147582  -0.025226   0.005906  -0.089523
     2  Al   0.305634  12.485364   0.020914  -0.000440   0.305634  -0.192314
     3  Al   0.147582   0.020914  13.114369   0.082426   0.015775  -0.192214
     4  Al  -0.025226  -0.000440   0.082426  12.895736   0.015709   0.076274
     5  Al   0.005906   0.305634   0.015775   0.015709  12.712618  -0.089523
     6  Al  -0.089523  -0.192314  -0.192214   0.076274  -0.089523  14.020239
     7  Al  -0.041675   0.007127  -0.068276  -0.156639  -0.041675  -0.023178
     8  Al   0.015775   0.020914   0.066189  -0.030895   0.147582  -0.192214
     9  Al   0.178684  -0.007729  -0.190656   0.161999  -0.010585   0.063018
    10  Al  -0.010585  -0.007729  -0.000049   0.013842   0.178684   0.063018
    11  Al   0.015709  -0.000440  -0.030895   0.284665  -0.025226   0.076274
    12  Al  -0.326549  -0.162869   0.013260  -0.414975  -0.326549  -0.541312
               7          8          9         10         11         12
     1  Al  -0.041675   0.015775   0.178684  -0.010585   0.015709  -0.326549
     2  Al   0.007127   0.020914  -0.007729  -0.007729  -0.000440  -0.162869
     3  Al  -0.068276   0.066189  -0.190656  -0.000049  -0.030895   0.013260
     4  Al  -0.156639  -0.030895   0.161999   0.013842   0.284665  -0.414975
     5  Al  -0.041675   0.147582  -0.010585   0.178684  -0.025226  -0.326549
     6  Al  -0.023178  -0.192214   0.063018   0.063018   0.076274  -0.541312
     7  Al  13.207674  -0.068276   0.050996   0.050996  -0.156639   0.125608
     8  Al  -0.068276  13.114369  -0.000049  -0.190656   0.082426   0.013260
     9  Al   0.050996  -0.000049  12.896785  -0.024280   0.013842  -0.458289
    10  Al   0.050996  -0.190656  -0.024280  12.896785   0.161999  -0.458289
    11  Al  -0.156639   0.082426   0.013842   0.161999  12.895736  -0.414975
    12  Al   0.125608   0.013260  -0.458289  -0.458289  -0.414975  16.427052
          Atomic-Atomic Spin Densities.
               1          2          3          4          5          6
     1  Al  -0.046728  -0.054379   0.011884   0.010139  -0.006330  -0.088212
     2  Al  -0.054379   0.401334  -0.010367  -0.000546  -0.054379   0.164565
     3  Al   0.011884  -0.010367   0.048847   0.005275   0.011176  -0.045672
     4  Al   0.010139  -0.000546   0.005275   0.222702  -0.011302  -0.047700
     5  Al  -0.006330  -0.054379   0.011176  -0.011302  -0.046728  -0.088212
     6  Al  -0.088212   0.164565  -0.045672  -0.047700  -0.088212   0.286148
     7  Al  -0.005354  -0.000268  -0.015070   0.076520  -0.005354   0.241123
     8  Al   0.011176  -0.010367  -0.008608   0.001281   0.011884  -0.045672
     9  Al  -0.048131  -0.001024  -0.053095  -0.034250  -0.002463   0.020918
    10  Al  -0.002463  -0.001024   0.001580   0.000672  -0.048131   0.020918
    11  Al  -0.011302  -0.000546   0.001281  -0.011909   0.010139  -0.047700
    12  Al   0.009916   0.017804   0.061077   0.035900   0.009916   0.062212
               7          8          9         10         11         12
     1  Al  -0.005354   0.011176  -0.048131  -0.002463  -0.011302   0.009916
     2  Al  -0.000268  -0.010367  -0.001024  -0.001024  -0.000546   0.017804
     3  Al  -0.015070  -0.008608  -0.053095   0.001580   0.001281   0.061077
     4  Al   0.076520   0.001281  -0.034250   0.000672  -0.011909   0.035900
     5  Al  -0.005354   0.011884  -0.002463  -0.048131   0.010139   0.009916
     6  Al   0.241123  -0.045672   0.020918   0.020918  -0.047700   0.062212
     7  Al   0.226584  -0.015070   0.023088   0.023088   0.076520  -0.227959
     8  Al  -0.015070   0.048847   0.001580  -0.053095   0.005275   0.061077
     9  Al   0.023088   0.001580  -0.090295  -0.000669   0.000672   0.029743
    10  Al   0.023088  -0.053095  -0.000669  -0.090295  -0.034250   0.029743
    11  Al   0.076520   0.005275   0.000672  -0.034250   0.222702   0.035900
    12  Al  -0.227959   0.061077   0.029743   0.029743   0.035900  -0.169445
 Mulliken charges and spin densities:
               1          2
     1  Al   0.111651  -0.219785
     2  Al   0.225935   0.450802
     3  Al   0.021576   0.008308
     4  Al   0.097523   0.246782
     5  Al   0.111651  -0.219785
     6  Al   0.021455   0.432713
     7  Al   0.113956   0.397848
     8  Al   0.021576   0.008308
     9  Al   0.326263  -0.153927
    10  Al   0.326263  -0.153927
    11  Al   0.097523   0.246782
    12  Al  -0.475373  -0.044119
 Sum of Mulliken charges =   1.00000   1.00000
 Mulliken charges and spin densities with hydrogens summed into heavy atoms:
               1          2
     1  Al   0.111651  -0.219785
     2  Al   0.225935   0.450802
     3  Al   0.021576   0.008308
     4  Al   0.097523   0.246782
     5  Al   0.111651  -0.219785
     6  Al   0.021455   0.432713
     7  Al   0.113956   0.397848
     8  Al   0.021576   0.008308
     9  Al   0.326263  -0.153927
    10  Al   0.326263  -0.153927
    11  Al   0.097523   0.246782
    12  Al  -0.475373  -0.044119
 Electronic spatial extent (au):  <R**2>=           4212.5777
 Charge=              1.0000 electrons
 Dipole moment (field-independent basis, Debye):
    X=              0.5482    Y=             -1.0749    Z=              0.0000  Tot=              1.2066
 Quadrupole moment (field-independent basis, Debye-Ang):
   XX=           -123.8681   YY=           -136.0635   ZZ=           -122.1847
   XY=              0.8413   XZ=              0.0000   YZ=              0.0000
 Traceless Quadrupole moment (field-independent basis, Debye-Ang):
   XX=              3.5040   YY=             -8.6914   ZZ=              5.1874
   XY=              0.8413   XZ=              0.0000   YZ=              0.0000
 Octapole moment (field-independent basis, Debye-Ang**2):
  XXX=             20.5747  YYY=             -9.5062  ZZZ=              0.0000  XYY=             -3.8732
  XXY=             -3.7140  XXZ=              0.0000  XZZ=             -1.7502  YZZ=              0.6682
  YYZ=              0.0000  XYZ=              0.0000
 Hexadecapole moment (field-independent basis, Debye-Ang**3):
 XXXX=          -2290.2788 YYYY=          -1547.2236 ZZZZ=          -2906.8467 XXXY=              6.5074
 XXXZ=              0.0000 YYYX=             -6.4325 YYYZ=              0.0000 ZZZX=              0.0000
 ZZZY=              0.0000 XXYY=           -675.6950 XXZZ=           -899.4356 YYZZ=           -723.5313
 XXYZ=              0.0000 YYXZ=              0.0000 ZZXY=             -7.8793
 N-N= 1.696477747252D+03 E-N=-1.031515402281D+04  KE= 2.902027825320D+03
 Symmetry A'   KE= 1.853729016502D+03
 Symmetry A"   KE= 1.048298808818D+03
                          Isotropic Fermi Contact Couplings
        Atom                 a.u.       MegaHertz       Gauss      10(-4) cm-1
     1  Al(27)            -0.07786     -90.75055     -32.38205     -30.27112
     2  Al(27)             0.28170     328.35555     117.16542     109.52762
     3  Al(27)             0.00148       1.72654       0.61607       0.57591
     4  Al(27)             0.21767     253.72097      90.53395      84.63220
     5  Al(27)            -0.07786     -90.75055     -32.38205     -30.27112
     6  Al(27)             0.11982     139.66365      49.83546      46.58678
     7  Al(27)             0.22222     259.02823      92.42771      86.40252
     8  Al(27)             0.00148       1.72654       0.61607       0.57591
     9  Al(27)            -0.12008    -139.97194     -49.94547     -46.68961
    10  Al(27)            -0.12008    -139.97194     -49.94547     -46.68961
    11  Al(27)             0.21767     253.72097      90.53395      84.63220
    12  Al(27)             0.04335      50.53180      18.03100      16.85559
 --------------------------------------------------------
       Center         ----  Spin Dipole Couplings  ----
                      3XX-RR        3YY-RR        3ZZ-RR
 --------------------------------------------------------
     1   Atom       -0.108730      0.014223      0.094507
     2   Atom       -0.005759      0.196073     -0.190314
     3   Atom       -0.024810      0.046592     -0.021782
     4   Atom       -0.042049     -0.005800      0.047849
     5   Atom       -0.108730      0.014223      0.094507
     6   Atom        0.558235     -0.293549     -0.264686
     7   Atom        0.141957     -0.049359     -0.092599
     8   Atom       -0.024810      0.046592     -0.021782
     9   Atom       -0.064210      0.024152      0.040057
    10   Atom       -0.064210      0.024152      0.040057
    11   Atom       -0.042049     -0.005800      0.047849
    12   Atom       -0.008818     -0.000953      0.009771
 --------------------------------------------------------
                        XY            XZ            YZ
 --------------------------------------------------------
     1   Atom        0.078744     -0.003441     -0.016691
     2   Atom        0.083642      0.000000      0.000000
     3   Atom       -0.064352      0.021373     -0.035063
     4   Atom       -0.180214     -0.112694      0.047497
     5   Atom        0.078744      0.003441      0.016691
     6   Atom       -0.021829      0.000000      0.000000
     7   Atom        0.090766      0.000000      0.000000
     8   Atom       -0.064352     -0.021373      0.035063
     9   Atom        0.026886      0.061920     -0.064151
    10   Atom        0.026886     -0.061920      0.064151
    11   Atom       -0.180214      0.112694     -0.047497
    12   Atom       -0.171602      0.000000      0.000000
 --------------------------------------------------------


 ---------------------------------------------------------------------------------
              Anisotropic Spin Dipole Couplings in Principal Axis System
 ---------------------------------------------------------------------------------

       Atom             a.u.   MegaHertz   Gauss  10(-4) cm-1        Axes

              Baa    -0.1472   -20.485    -7.309    -6.833  0.8979 -0.4398 -0.0176
     1 Al(27) Bbb     0.0469     6.529     2.330     2.178  0.4208  0.8461  0.3272
              Bcc     0.1003    13.955     4.980     4.655 -0.1290 -0.3012  0.9448
 
              Baa    -0.1903   -26.480    -9.449    -8.833  0.0000  0.0000  1.0000
     2 Al(27) Bbb    -0.0359    -4.997    -1.783    -1.667  0.9407 -0.3392  0.0000
              Bcc     0.2262    31.477    11.232    10.500  0.3392  0.9407  0.0000
 
              Baa    -0.0627    -8.726    -3.114    -2.911  0.8645  0.5022 -0.0213
     3 Al(27) Bbb    -0.0358    -4.979    -1.777    -1.661 -0.1449  0.2895  0.9461
              Bcc     0.0985    13.705     4.890     4.571 -0.4813  0.8149 -0.3231
 
              Baa    -0.2166   -30.137   -10.753   -10.052  0.7656  0.6055  0.2175
     4 Al(27) Bbb    -0.0113    -1.566    -0.559    -0.522  0.1984 -0.5438  0.8154
              Bcc     0.2279    31.702    11.312    10.575  0.6120 -0.5811 -0.5365
 
              Baa    -0.1472   -20.485    -7.309    -6.833  0.8979 -0.4398  0.0176
     5 Al(27) Bbb     0.0469     6.529     2.330     2.178  0.4208  0.8461 -0.3272
              Bcc     0.1003    13.955     4.980     4.655  0.1290  0.3012  0.9448
 
              Baa    -0.2941   -40.921   -14.602   -13.650  0.0256  0.9997  0.0000
     6 Al(27) Bbb    -0.2647   -36.827   -13.141   -12.284  0.0000  0.0000  1.0000
              Bcc     0.5588    77.749    27.743    25.934  0.9997 -0.0256  0.0000
 
              Baa    -0.0926   -12.884    -4.597    -4.298  0.0000  0.0000  1.0000
     7 Al(27) Bbb    -0.0856   -11.906    -4.248    -3.971 -0.3705  0.9288  0.0000
              Bcc     0.1782    24.789     8.846     8.269  0.9288  0.3705  0.0000
 
              Baa    -0.0627    -8.726    -3.114    -2.911  0.8645  0.5022  0.0213
     8 Al(27) Bbb    -0.0358    -4.979    -1.777    -1.661  0.1449 -0.2895  0.9461
              Bcc     0.0985    13.705     4.890     4.571 -0.4813  0.8149  0.3231
 
              Baa    -0.1140   -15.861    -5.660    -5.291  0.7951 -0.3758 -0.4761
     9 Al(27) Bbb     0.0114     1.582     0.565     0.528  0.5724  0.7243  0.3842
              Bcc     0.1026    14.279     5.095     4.763  0.2004 -0.5780  0.7910
 
              Baa    -0.1140   -15.861    -5.660    -5.291  0.7951 -0.3758  0.4761
    10 Al(27) Bbb     0.0114     1.582     0.565     0.528  0.5724  0.7243 -0.3842
              Bcc     0.1026    14.279     5.095     4.763 -0.2004  0.5780  0.7910
 
              Baa    -0.2166   -30.137   -10.753   -10.052  0.7656  0.6055 -0.2175
    11 Al(27) Bbb    -0.0113    -1.566    -0.559    -0.522 -0.1984  0.5438  0.8154
              Bcc     0.2279    31.702    11.312    10.575  0.6120 -0.5811  0.5365
 
              Baa    -0.1765   -24.562    -8.764    -8.193  0.7152  0.6990  0.0000
    12 Al(27) Bbb     0.0098     1.360     0.485     0.453  0.0000  0.0000  1.0000
              Bcc     0.1668    23.203     8.279     7.740 -0.6990  0.7152  0.0000
 

 ---------------------------------------------------------------------------------


 Test job not archived.
 1\1\GINC-R1I1N8\SP\UHF\6-31G(d)\Al12(1+,2)\VSC31064\03-Oct-2016\0\\# h
 f/6-31G* test scf=xqc\\Al12-c-d\\1,2\Al,0,0.18471231,1.6867245,-2.1901
 6374\Al,0,0.25707609,3.07419608,0.\Al,0,-1.35197869,-0.42523449,-2.216
 1903\Al,0,0.54628321,-2.25277566,-1.33975046\Al,0,0.18471231,1.6867245
 ,2.19016374\Al,0,-1.62531991,1.09996409,0.\Al,0,-1.77075192,-1.5957099
 1,0.\Al,0,-1.35197869,-0.42523449,2.2161903\Al,0,1.74441336,-0.3567064
 ,-2.72880998\Al,0,1.74441336,-0.3567064,2.72880998\Al,0,0.54628321,-2.
 25277566,1.33975046\Al,0,0.89196408,0.11857208,0.\\Version=ES64L-G09Re
 vD.01\State=2-A'\HF=-2902.5882987\S2=1.185261\S2-1=0.\S2A=0.964012\RMS
 D=9.486e-09\Dipole=-0.4275562,0.2062743,0.\Quadrupole=-6.4850659,2.628
 3644,3.8567015,0.4243114,0.,0.\PG=CS [SG(Al4),X(Al8)]\\@


 THOSE WHO TRY TO PASS CHEMISTRY OFF AS A NEW SCIENCE
 SHOW HOW LITTLE KNOWLEDGE THEY HAVE OF THE CHARACTER
 AND LITERATURE OF THE ANCIENTS.
   -- NICOLAS LEFEVRE
 "COURS DE CHYMIE" J.-N.LELOUP, PARIS, 1751
 Job cpu time:       0 days  0 hours  2 minutes 57.0 seconds.
 File lengths (MBytes):  RWF=     34 Int=      0 D2E=      0 Chk=      3 Scr=      1
 Normal termination of Gaussian 09 at Mon Oct  3 19:33:10 2016.
 Initial command:
 /apps/leuven/thinking/software/G09//g09D1/l1.exe "/local_scratch/vsc31064/Gau-22429.inp" -scrdir="/local_scratch/vsc31064/"
 Entering Link 1 = /apps/leuven/thinking/software/G09//g09D1/l1.exe PID=     22758.
  
 Copyright (c) 1988,1990,1992,1993,1995,1998,2003,2009,2013,
            Gaussian, Inc.  All Rights Reserved.
  
 This is part of the Gaussian(R) 09 program.  It is based on
 the Gaussian(R) 03 system (copyright 2003, Gaussian, Inc.),
 the Gaussian(R) 98 system (copyright 1998, Gaussian, Inc.),
 the Gaussian(R) 94 system (copyright 1995, Gaussian, Inc.),
 the Gaussian 92(TM) system (copyright 1992, Gaussian, Inc.),
 the Gaussian 90(TM) system (copyright 1990, Gaussian, Inc.),
 the Gaussian 88(TM) system (copyright 1988, Gaussian, Inc.),
 the Gaussian 86(TM) system (copyright 1986, Carnegie Mellon
 University), and the Gaussian 82(TM) system (copyright 1983,
 Carnegie Mellon University). Gaussian is a federally registered
 trademark of Gaussian, Inc.
  
 This software contains proprietary and confidential information,
 including trade secrets, belonging to Gaussian, Inc.
  
 This software is provided under written license and may be
 used, copied, transmitted, or stored only in accord with that
 written license.
  
 The following legend is applicable only to US Government
 contracts under FAR:
  
                    RESTRICTED RIGHTS LEGEND
  
 Use, reproduction and disclosure by the US Government is
 subject to restrictions as set forth in subparagraphs (a)
 and (c) of the Commercial Computer Software - Restricted
 Rights clause in FAR 52.227-19.
  
 Gaussian, Inc.
 340 Quinnipiac St., Bldg. 40, Wallingford CT 06492
  
  
 ---------------------------------------------------------------
 Warning -- This program may not be used in any manner that
 competes with the business of Gaussian, Inc. or will provide
 assistance to any competitor of Gaussian, Inc.  The licensee
 of this program is prohibited from giving any competitor of
 Gaussian, Inc. access to this program.  By using this program,
 the user acknowledges that Gaussian, Inc. is engaged in the
 business of creating and licensing software in the field of
 computational chemistry and represents and warrants to the
 licensee that it is not a competitor of Gaussian, Inc. and that
 it will not use this program in any manner prohibited above.
 ---------------------------------------------------------------
  

 Cite this work as:
 Gaussian 09, Revision D.01,
 M. J. Frisch, G. W. Trucks, H. B. Schlegel, G. E. Scuseria, 
 M. A. Robb, J. R. Cheeseman, G. Scalmani, V. Barone, B. Mennucci, 
 G. A. Petersson, H. Nakatsuji, M. Caricato, X. Li, H. P. Hratchian, 
 A. F. Izmaylov, J. Bloino, G. Zheng, J. L. Sonnenberg, M. Hada, 
 M. Ehara, K. Toyota, R. Fukuda, J. Hasegawa, M. Ishida, T. Nakajima, 
 Y. Honda, O. Kitao, H. Nakai, T. Vreven, J. A. Montgomery, Jr., 
 J. E. Peralta, F. Ogliaro, M. Bearpark, J. J. Heyd, E. Brothers, 
 K. N. Kudin, V. N. Staroverov, T. Keith, R. Kobayashi, J. Normand, 
 K. Raghavachari, A. Rendell, J. C. Burant, S. S. Iyengar, J. Tomasi, 
 M. Cossi, N. Rega, J. M. Millam, M. Klene, J. E. Knox, J. B. Cross, 
 V. Bakken, C. Adamo, J. Jaramillo, R. Gomperts, R. E. Stratmann, 
 O. Yazyev, A. J. Austin, R. Cammi, C. Pomelli, J. W. Ochterski, 
 R. L. Martin, K. Morokuma, V. G. Zakrzewski, G. A. Voth, 
 P. Salvador, J. J. Dannenberg, S. Dapprich, A. D. Daniels, 
 O. Farkas, J. B. Foresman, J. V. Ortiz, J. Cioslowski, 
 and D. J. Fox, Gaussian, Inc., Wallingford CT, 2013.
 
 ******************************************
 Gaussian 09:  ES64L-G09RevD.01 24-Apr-2013
                 3-Oct-2016 
 ******************************************
 %NprocShared=20
 Will use up to   20 processors via shared memory.
 %mem=55000mb
 %chk=cc-Al12-c-d
 --------------------------------------------------------
 # CCSD(T,conver=5)/cc-pVTZ test geom=allcheck guess=read
 --------------------------------------------------------
 1/29=7,38=1/1;
 2/12=2,40=1/2;
 3/5=16,6=1,11=9,14=-4,16=1,25=1,30=1,116=-2/1,2,3;
 4/5=1/1;
 5/5=2,38=6/2;
 8/6=4,9=120000,10=1/1,4;
 9/5=7,9=5,14=2/13;
 6/7=2,8=2,9=2,10=2/1;
 99/5=1,9=1/99;
 Structure from the checkpoint file:  "cc-Al12-c-d.chk"
 --------
 Al12-c-d
 --------
 Charge =  1 Multiplicity = 2
 Z-Matrix found in file.
 Al,0,0.18471231,1.6867245,-2.19016374
 Al,0,0.25707609,3.07419608,0.
 Al,0,-1.35197869,-0.42523449,-2.2161903
 Al,0,0.54628321,-2.25277566,-1.33975046
 Al,0,0.18471231,1.6867245,2.19016374
 Al,0,-1.62531991,1.09996409,0.
 Al,0,-1.77075192,-1.59570991,0.
 Al,0,-1.35197869,-0.42523449,2.2161903
 Al,0,1.74441336,-0.3567064,-2.72880998
 Al,0,1.74441336,-0.3567064,2.72880998
 Al,0,0.54628321,-2.25277566,1.33975046
 Al,0,0.89196408,0.11857208,0.
 Recover connectivity data from disk.
                          Input orientation:                          
 ---------------------------------------------------------------------
 Center     Atomic      Atomic             Coordinates (Angstroms)
 Number     Number       Type             X           Y           Z
 ---------------------------------------------------------------------
      1         13           0        0.184712    1.686725   -2.190164
      2         13           0        0.257076    3.074196    0.000000
      3         13           0       -1.351979   -0.425234   -2.216190
      4         13           0        0.546283   -2.252776   -1.339750
      5         13           0        0.184712    1.686725    2.190164
      6         13           0       -1.625320    1.099964    0.000000
      7         13           0       -1.770752   -1.595710    0.000000
      8         13           0       -1.351979   -0.425234    2.216190
      9         13           0        1.744413   -0.356706   -2.728810
     10         13           0        1.744413   -0.356706    2.728810
     11         13           0        0.546283   -2.252776    1.339750
     12         13           0        0.891964    0.118572    0.000000
 ---------------------------------------------------------------------
                    Distance matrix (angstroms):
                    1          2          3          4          5
     1  Al   0.000000
     2  Al   2.593671   0.000000
     3  Al   2.611985   4.443711   0.000000
     4  Al   4.046430   5.500473   2.776950   0.000000
     5  Al   4.380327   2.593671   5.122279   5.301951   0.000000
     6  Al   2.901262   2.727821   2.704153   4.213271   2.901262
     7  Al   4.403979   5.091179   2.541040   2.755961   4.403979
     8  Al   5.122279   4.443711   4.432381   4.425835   2.611985
     9  Al   2.626484   4.629219   3.139286   2.638197   5.550187
    10  Al   5.550187   4.629219   5.834841   4.645835   2.626484
    11  Al   5.301951   5.500473   4.425835   2.679501   4.046430
    12  Al   2.784982   3.023044   3.200391   2.745490   2.784982
                    6          7          8          9         10
     6  Al   0.000000
     7  Al   2.699594   0.000000
     8  Al   2.704153   2.541040   0.000000
     9  Al   4.574210   4.619299   5.834841   0.000000
    10  Al   4.574210   4.619299   3.139286   5.457620   0.000000
    11  Al   4.213271   2.755961   2.776950   4.645835   2.638197
    12  Al   2.701823   3.166831   3.200391   2.898096   2.898096
                   11         12
    11  Al   0.000000
    12  Al   2.745490   0.000000
 Stoichiometry    Al12(1+,2)
 Framework group  CS[SG(Al4),X(Al8)]
 Deg. of freedom    17
 Full point group                 CS      NOp   2
 Largest Abelian subgroup         CS      NOp   2
 Largest concise Abelian subgroup CS      NOp   2
                         Standard orientation:                         
 ---------------------------------------------------------------------
 Center     Atomic      Atomic             Coordinates (Angstroms)
 Number     Number       Type             X           Y           Z
 ---------------------------------------------------------------------
      1         13           0        1.682138    0.222000    2.190164
      2         13           0        3.067669    0.325046    0.000000
      3         13           0       -0.395303   -1.361044    2.216190
      4         13           0       -2.264398    0.496317    1.339750
      5         13           0        1.682138    0.222000   -2.190164
      6         13           0        1.135570   -1.600572    0.000000
      7         13           0       -1.556226   -1.805613    0.000000
      8         13           0       -0.395303   -1.361044   -2.216190
      9         13           0       -0.395303    1.736106    2.728810
     10         13           0       -0.395303    1.736106   -2.728810
     11         13           0       -2.264398    0.496317   -1.339750
     12         13           0        0.098720    0.894382    0.000000
 ---------------------------------------------------------------------
 Rotational constants (GHZ):      0.4008866      0.3408966      0.2771756
 Standard basis: CC-pVTZ (5D, 7F)
 There are   264 symmetry adapted cartesian basis functions of A'  symmetry.
 There are   204 symmetry adapted cartesian basis functions of A"  symmetry.
 There are   228 symmetry adapted basis functions of A'  symmetry.
 There are   180 symmetry adapted basis functions of A"  symmetry.
   408 basis functions,  1140 primitive gaussians,   468 cartesian basis functions
    78 alpha electrons       77 beta electrons
       nuclear repulsion energy      1696.4777472518 Hartrees.
 NAtoms=   12 NActive=   12 NUniq=    8 SFac= 2.25D+00 NAtFMM=   60 NAOKFM=F Big=F
 Integral buffers will be    131072 words long.
 Raffenetti 2 integral format.
 Two-electron integral symmetry is turned on.
 One-electron integrals computed using PRISM.
 NBasis=   408 RedAO= T EigKep=  2.39D-04  NBF=   228   180
 NBsUse=   408 1.00D-06 EigRej= -1.00D+00 NBFU=   228   180
 Initial guess from the checkpoint file:  "cc-Al12-c-d.chk"
 B after Tr=     0.000000    0.000000    0.000000
         Rot=    1.000000    0.000000    0.000000    0.000000 Ang=   0.00 deg.
 Initial guess orbital symmetries:
 Alpha Orbitals:
       Occupied  (A') (A") (A') (A") (A') (A') (A") (A') (A') (A")
                 (A') (A') (A') (A') (A") (A') (A") (A') (A') (A")
                 (A') (A") (A') (A') (A') (A') (A") (A') (A') (A")
                 (A') (A") (A') (A") (A') (A') (A') (A") (A') (A")
                 (A') (A") (A") (A') (A") (A") (A') (A') (A") (A")
                 (A') (A') (A") (A") (A') (A') (A") (A') (A") (A')
                 (A') (A") (A') (A') (A') (A") (A") (A') (A') (A')
                 (A") (A') (A') (A") (A") (A') (A') (A")
       Virtual   (A') (A') (A') (A') (A') (A') (A') (A') (A') (A')
                 (A') (A') (A') (A') (A') (A') (A') (A') (A') (A')
                 (A') (A') (A') (A') (A') (A') (A') (A') (A') (A')
                 (A') (A') (A') (A') (A') (A') (A') (A') (A') (A')
                 (A') (A') (A') (A') (A') (A') (A') (A') (A') (A')
                 (A') (A') (A') (A') (A') (A') (A') (A') (A') (A')
                 (A') (A') (A') (A') (A') (A') (A') (A') (A') (A')
                 (A') (A') (A') (A') (A') (A') (A') (A') (A') (A')
                 (A') (A') (A') (A') (A') (A') (A') (A') (A') (A')
                 (A') (A') (A') (A') (A') (A') (A') (A') (A') (A')
                 (A') (A') (A') (A') (A') (A') (A') (A') (A') (A')
                 (A') (A') (A') (A') (A') (A') (A') (A') (A') (A')
                 (A') (A') (A') (A') (A') (A') (A') (A') (A') (A')
                 (A') (A') (A') (A') (A') (A') (A') (A') (A') (A')
                 (A') (A') (A') (A') (A') (A') (A') (A') (A') (A')
                 (A') (A') (A') (A') (A') (A') (A') (A') (A') (A')
                 (A') (A') (A') (A') (A') (A') (A') (A') (A') (A')
                 (A') (A') (A') (A') (A') (A') (A') (A') (A') (A')
                 (A') (A") (A") (A") (A") (A") (A") (A") (A") (A")
                 (A") (A") (A") (A") (A") (A") (A") (A") (A") (A")
                 (A") (A") (A") (A") (A") (A") (A") (A") (A") (A")
                 (A") (A") (A") (A") (A") (A") (A") (A") (A") (A")
                 (A") (A") (A") (A") (A") (A") (A") (A") (A") (A")
                 (A") (A") (A") (A") (A") (A") (A") (A") (A") (A")
                 (A") (A") (A") (A") (A") (A") (A") (A") (A") (A")
                 (A") (A") (A") (A") (A") (A") (A") (A") (A") (A")
                 (A") (A") (A") (A") (A") (A") (A") (A") (A") (A")
                 (A") (A") (A") (A") (A") (A") (A") (A") (A") (A")
                 (A") (A") (A") (A") (A") (A") (A") (A") (A") (A")
                 (A") (A") (A") (A") (A") (A") (A") (A") (A") (A")
                 (A") (A") (A") (A") (A") (A") (A") (A") (A") (A")
                 (A") (A") (A") (A") (A") (A") (A") (A") (A") (A")
                 (A") (A") (A") (A") (A") (A") (A") (A") (A") (A")
 Beta  Orbitals:
       Occupied  (A') (A") (A') (A") (A') (A") (A') (A') (A') (A")
                 (A') (A') (A') (A") (A') (A') (A") (A') (A") (A')
                 (A') (A") (A') (A') (A') (A") (A') (A") (A') (A')
                 (A") (A') (A") (A') (A') (A") (A") (A') (A") (A')
                 (A") (A') (A") (A') (A') (A") (A') (A") (A') (A")
                 (A') (A") (A') (A') (A") (A') (A") (A') (A") (A')
                 (A') (A") (A') (A') (A') (A") (A") (A') (A') (A')
                 (A") (A') (A") (A") (A') (A") (A')
       Virtual   (A') (A') (A') (A') (A') (A') (A') (A') (A') (A')
                 (A') (A') (A') (A') (A') (A') (A') (A') (A') (A')
                 (A') (A') (A') (A') (A') (A') (A') (A') (A') (A')
                 (A') (A') (A') (A') (A') (A') (A') (A') (A') (A')
                 (A') (A') (A') (A') (A') (A') (A') (A') (A') (A')
                 (A') (A') (A') (A') (A') (A') (A') (A') (A') (A')
                 (A') (A') (A') (A') (A') (A') (A') (A') (A') (A')
                 (A') (A') (A') (A') (A') (A') (A') (A') (A') (A')
                 (A') (A') (A') (A') (A') (A') (A') (A') (A') (A')
                 (A') (A') (A') (A') (A') (A') (A') (A') (A') (A')
                 (A') (A') (A') (A') (A') (A') (A') (A') (A') (A')
                 (A') (A') (A') (A') (A') (A') (A') (A') (A') (A')
                 (A') (A') (A') (A') (A') (A') (A') (A') (A') (A')
                 (A') (A') (A') (A') (A') (A') (A') (A') (A') (A')
                 (A') (A') (A') (A') (A') (A') (A') (A') (A') (A')
                 (A') (A') (A') (A') (A') (A') (A') (A') (A') (A')
                 (A') (A') (A') (A') (A') (A') (A') (A') (A') (A')
                 (A') (A') (A') (A') (A') (A') (A') (A') (A') (A')
                 (A') (A') (A") (A") (A") (A") (A") (A") (A") (A")
                 (A") (A") (A") (A") (A") (A") (A") (A") (A") (A")
                 (A") (A") (A") (A") (A") (A") (A") (A") (A") (A")
                 (A") (A") (A") (A") (A") (A") (A") (A") (A") (A")
                 (A") (A") (A") (A") (A") (A") (A") (A") (A") (A")
                 (A") (A") (A") (A") (A") (A") (A") (A") (A") (A")
                 (A") (A") (A") (A") (A") (A") (A") (A") (A") (A")
                 (A") (A") (A") (A") (A") (A") (A") (A") (A") (A")
                 (A") (A") (A") (A") (A") (A") (A") (A") (A") (A")
                 (A") (A") (A") (A") (A") (A") (A") (A") (A") (A")
                 (A") (A") (A") (A") (A") (A") (A") (A") (A") (A")
                 (A") (A") (A") (A") (A") (A") (A") (A") (A") (A")
                 (A") (A") (A") (A") (A") (A") (A") (A") (A") (A")
                 (A") (A") (A") (A") (A") (A") (A") (A") (A") (A")
                 (A") (A") (A") (A") (A") (A") (A") (A") (A") (A")
                 (A")
 Initial guess <Sx>= 0.0000 <Sy>= 0.0000 <Sz>= 0.5000 <S**2>= 1.1920 S= 0.7008
 Keep R1 and R2 ints in memory in symmetry-blocked form, NReq=5223538652.
 Requested convergence on RMS density matrix=1.00D-08 within 128 cycles.
 Requested convergence on MAX density matrix=1.00D-06.
 Requested convergence on             energy=1.00D-06.
 No special actions if energy rises.
 SCF Done:  E(UHF) =  -2902.85006332     A.U. after   40 cycles
            NFock= 40  Conv=0.65D-08     -V/T= 1.9999
 <Sx>= 0.0000 <Sy>= 0.0000 <Sz>= 0.5000 <S**2>= 1.3007 S= 0.7453
 <L.S>= 0.000000000000E+00
 Annihilation of the first spin contaminant:
 S**2 before annihilation     1.3007,   after     1.1159
 ExpMin= 5.56D-02 ExpMax= 2.06D+05 ExpMxC= 1.99D+03 IAcc=3 IRadAn=         5 AccDes= 0.00D+00
 HarFok:  IExCor=  205 AccDes= 0.00D+00 IRadAn=         5 IDoV=-2 UseB2=F ITyADJ=14
 ICtDFT= 12500011 ScaDFX=  1.000000  1.000000  1.000000  1.000000
 Range of M.O.s used for correlation:    61   408
 NBasis=   408 NAE=    78 NBE=    77 NFC=    60 NFV=     0
 NROrb=    348 NOA=    18 NOB=    17 NVA=   330 NVB=   331

 **** Warning!!: The largest alpha MO coefficient is  0.22871697D+02


 **** Warning!!: The largest beta MO coefficient is  0.22864460D+02

 Semi-Direct transformation.
 ModeAB=           4 MOrb=            18 LenV=    7204582440
 LASXX=    183511554 LTotXX=   183511554 LenRXX=   369119442
 LTotAB=   185607888 MaxLAS=   382122792 LenRXY=           0
 NonZer=   552630996 LenScr=   832197632 LnRSAI=   382122792
 LnScr1=   575432704 LExtra=           0 Total=   2158872570
 MaxDsk=          -1 SrtSym=           T ITran=            4
 JobTyp=1 Pass  1:  I=   1 to  18.
 (rs|ai) integrals will be sorted in core.
 ModeAB=           4 MOrb=            17 LenV=    7204582440
 LASXX=    173614724 LTotXX=   173614724 LenRXX=   331489986
 LTotAB=   157875262 MaxLAS=   360893748 LenRXY=           0
 NonZer=   505104710 LenScr=   760629248 LnRSAI=   360893748
 LnScr1=   543464448 LExtra=           0 Total=   1996477430
 MaxDsk=          -1 SrtSym=           T ITran=            4
 JobTyp=2 Pass  1:  I=   1 to  17.
 (rs|ai) integrals will be sorted in core.
 Spin components of T(2) and E(2):
     alpha-alpha T2 =       0.1754582497D+00 E2=     -0.1633426906D+00
     alpha-beta  T2 =       0.6827944680D+00 E2=     -0.7376283909D+00
     beta-beta   T2 =       0.1586763660D+00 E2=     -0.1486674721D+00
 ANorm=    0.1420186285D+01
 E2 =    -0.1049638554D+01 EUMP2 =    -0.29038997018781D+04
 (S**2,0)=  0.13007D+01           (S**2,1)=  0.11773D+01
 E(PUHF)=      -0.29028680035D+04        E(PMP2)=      -0.29039161584D+04
 Keep R2 and R3 ints in memory in symmetry-blocked form, NReq=5222852012.
 Iterations=  50 Convergence= 0.100D-04
 Iteration Nr.   1
 **********************
 DD1Dir will call FoFMem   1 times, MxPair=       902
 NAB=   306 NAA=   153 NBB=   136.
 E(PMP3)=      -0.29038060058D+04
 MP4(R+Q)=  0.75084743D-01
 E3=        0.10681289D+00        EUMP3=      -0.29037928890D+04
 E4(DQ)=   -0.43531713D-01        UMP4(DQ)=   -0.29038364207D+04
 E4(SDQ)=  -0.69175773D-01        UMP4(SDQ)=  -0.29038620648D+04
 DE(Corr)= -0.86878848     E(Corr)=     -2903.7188518    
 NORM(A)=   0.13173528D+01
 Iteration Nr.   2
 **********************
 DD1Dir will call FoFMem   1 times, MxPair=       902
 NAB=   306 NAA=   153 NBB=   136.
 DE(Corr)= -0.99622454     E(CORR)=     -2903.8462879     Delta=-1.27D-01
 NORM(A)=   0.13761544D+01
 Iteration Nr.   3
 **********************
 DD1Dir will call FoFMem   1 times, MxPair=       902
 NAB=   306 NAA=   153 NBB=   136.
 DE(Corr)= -0.96857387     E(CORR)=     -2903.8186372     Delta= 2.77D-02
 NORM(A)=   0.13976573D+01
 Iteration Nr.   4
 **********************
 DD1Dir will call FoFMem   1 times, MxPair=       902
 NAB=   306 NAA=   153 NBB=   136.
 DE(Corr)= -0.97802750     E(CORR)=     -2903.8280908     Delta=-9.45D-03
 NORM(A)=   0.14129935D+01
 Iteration Nr.   5
 **********************
 DD1Dir will call FoFMem   1 times, MxPair=       902
 NAB=   306 NAA=   153 NBB=   136.
 DE(Corr)= -0.98173232     E(CORR)=     -2903.8317956     Delta=-3.70D-03
 NORM(A)=   0.14331107D+01
 Iteration Nr.   6
 **********************
 DD1Dir will call FoFMem   1 times, MxPair=       902
 NAB=   306 NAA=   153 NBB=   136.
 DE(Corr)= -0.98279484     E(CORR)=     -2903.8328582     Delta=-1.06D-03
 NORM(A)=   0.14411815D+01
 Iteration Nr.   7
 **********************
 DD1Dir will call FoFMem   1 times, MxPair=       902
 NAB=   306 NAA=   153 NBB=   136.
 DE(Corr)= -0.98317174     E(CORR)=     -2903.8332351     Delta=-3.77D-04
 NORM(A)=   0.14414359D+01
 Iteration Nr.   8
 **********************
 DD1Dir will call FoFMem   1 times, MxPair=       902
 NAB=   306 NAA=   153 NBB=   136.
 DE(Corr)= -0.98384264     E(CORR)=     -2903.8339060     Delta=-6.71D-04
 NORM(A)=   0.14435315D+01
 Iteration Nr.   9
 **********************
 DD1Dir will call FoFMem   1 times, MxPair=       902
 NAB=   306 NAA=   153 NBB=   136.
 DE(Corr)= -0.98334023     E(CORR)=     -2903.8334036     Delta= 5.02D-04
 NORM(A)=   0.14435874D+01
 Iteration Nr.  10
 **********************
 DD1Dir will call FoFMem   1 times, MxPair=       902
 NAB=   306 NAA=   153 NBB=   136.
 DE(Corr)= -0.98368217     E(CORR)=     -2903.8337455     Delta=-3.42D-04
 NORM(A)=   0.14436012D+01
 Iteration Nr.  11
 **********************
 DD1Dir will call FoFMem   1 times, MxPair=       902
 NAB=   306 NAA=   153 NBB=   136.
 DE(Corr)= -0.98353861     E(CORR)=     -2903.8336019     Delta= 1.44D-04
 NORM(A)=   0.14437807D+01
 Iteration Nr.  12
 **********************
 DD1Dir will call FoFMem   1 times, MxPair=       902
 NAB=   306 NAA=   153 NBB=   136.
 DE(Corr)= -0.98357903     E(CORR)=     -2903.8336424     Delta=-4.04D-05
 NORM(A)=   0.14437497D+01
 Iteration Nr.  13
 **********************
 DD1Dir will call FoFMem   1 times, MxPair=       902
 NAB=   306 NAA=   153 NBB=   136.
 DE(Corr)= -0.98358942     E(CORR)=     -2903.8336527     Delta=-1.04D-05
 NORM(A)=   0.14438136D+01
 Iteration Nr.  14
 **********************
 DD1Dir will call FoFMem   1 times, MxPair=       902
 NAB=   306 NAA=   153 NBB=   136.
 DE(Corr)= -0.98358898     E(CORR)=     -2903.8336523     Delta= 4.38D-07
 NORM(A)=   0.14438775D+01
 Iteration Nr.  15
 **********************
 DD1Dir will call FoFMem   1 times, MxPair=       902
 NAB=   306 NAA=   153 NBB=   136.
 DE(Corr)= -0.98358391     E(CORR)=     -2903.8336472     Delta= 5.08D-06
 NORM(A)=   0.14438965D+01
 Iteration Nr.  16
 **********************
 DD1Dir will call FoFMem   1 times, MxPair=       902
 NAB=   306 NAA=   153 NBB=   136.
 DE(Corr)= -0.98360385     E(CORR)=     -2903.8336672     Delta=-1.99D-05
 NORM(A)=   0.14439358D+01
 Iteration Nr.  17
 **********************
 DD1Dir will call FoFMem   1 times, MxPair=       902
 NAB=   306 NAA=   153 NBB=   136.
 DE(Corr)= -0.98359106     E(CORR)=     -2903.8336544     Delta= 1.28D-05
 NORM(A)=   0.14439620D+01
 Iteration Nr.  18
 **********************
 DD1Dir will call FoFMem   1 times, MxPair=       902
 NAB=   306 NAA=   153 NBB=   136.
 DE(Corr)= -0.98360119     E(CORR)=     -2903.8336645     Delta=-1.01D-05
 NORM(A)=   0.14439674D+01
 Iteration Nr.  19
 **********************
 DD1Dir will call FoFMem   1 times, MxPair=       902
 NAB=   306 NAA=   153 NBB=   136.
 DE(Corr)= -0.98359842     E(CORR)=     -2903.8336617     Delta= 2.77D-06
 NORM(A)=   0.14439769D+01
 Dominant configurations:
 ***********************
 Spin Case        I    J    A    B          Value
    BB           75        79           -0.111562D+00
    BB           77        80            0.103427D+00
 Largest amplitude= 1.12D-01
 Time for triples=   140384.78 seconds.
 T4(CCSD)= -0.14175113D+00
 T5(CCSD)=  0.68350288D-02
 CCSD(T)= -0.29039685778D+04

 S**2, projected HF & approx projected MPn energies after annihilation of
 unwanted spin states (see manual for definitions):

 spins       (S**2,0) (S**2,1)    PUHF        PMP2        PMP3        PMP4
 annihilated
 s+1         0.55488  0.65319-2902.868004-2903.916158-2903.806006
 s+1,s+2     0.77363  0.75569-2902.863521-2903.911889-2903.802190
 s+1 to s+3  0.74845  0.75009-2902.863980-2903.912241-2903.802307
 s+1 to s+4  0.75006  0.74998-2902.863953-2903.912309-2903.802590
 s+1 to s+5  0.75000  0.74998-2902.863954
 s+1 to s+6  0.75005  0.74998-2902.863954

 Discarding MO integrals.

 **********************************************************************

            Population analysis using the SCF density.

 **********************************************************************

 Orbital symmetries:
 Alpha Orbitals:
       Occupied  (A') (A') (A") (A") (A') (A') (A') (A") (A') (A")
                 (A') (A') (A') (A') (A') (A") (A") (A') (A') (A")
                 (A') (A") (A') (A') (A') (A') (A") (A') (A') (A")
                 (A') (A") (A') (A') (A') (A") (A") (A') (A") (A')
                 (A") (A') (A') (A") (A") (A") (A') (A") (A') (A')
                 (A") (A') (A") (A") (A') (A') (A") (A') (A") (A')
                 (A') (A") (A') (A') (A') (A") (A") (A') (A') (A')
                 (A") (A') (A') (A") (A') (A") (A') (A")
       Virtual   (A') (A') (A") (A') (A") (A') (A") (A') (A') (A")
                 (A') (A') (A") (A") (A') (A") (A') (A') (A') (A")
                 (A') (A") (A') (A') (A') (A") (A') (A") (A') (A")
                 (A') (A") (A") (A") (A') (A') (A") (A') (A") (A')
                 (A') (A") (A') (A") (A') (A') (A') (A") (A") (A')
                 (A") (A') (A') (A") (A') (A") (A') (A") (A') (A')
                 (A") (A") (A') (A") (A') (A') (A") (A') (A") (A')
                 (A') (A') (A") (A') (A") (A") (A") (A') (A') (A")
                 (A') (A") (A') (A') (A") (A') (A") (A') (A") (A')
                 (A") (A') (A') (A") (A') (A") (A") (A') (A") (A')
                 (A') (A") (A') (A') (A") (A') (A") (A') (A") (A')
                 (A") (A') (A") (A') (A') (A") (A') (A") (A") (A')
                 (A') (A") (A') (A") (A') (A") (A') (A') (A") (A')
                 (A") (A') (A') (A") (A") (A') (A") (A") (A') (A')
                 (A") (A') (A") (A') (A') (A") (A") (A') (A") (A')
                 (A') (A') (A") (A') (A') (A") (A") (A') (A') (A")
                 (A') (A") (A') (A") (A') (A') (A") (A") (A') (A')
                 (A") (A') (A") (A') (A") (A') (A") (A") (A') (A')
                 (A") (A') (A") (A") (A') (A') (A") (A') (A") (A')
                 (A") (A') (A") (A') (A') (A') (A") (A") (A') (A')
                 (A") (A") (A') (A') (A") (A') (A') (A") (A") (A")
                 (A') (A") (A') (A') (A") (A') (A") (A') (A') (A")
                 (A") (A') (A") (A') (A') (A") (A') (A") (A") (A")
                 (A') (A') (A") (A') (A') (A") (A') (A') (A') (A")
                 (A') (A") (A') (A") (A") (A") (A') (A') (A") (A')
                 (A") (A") (A') (A') (A') (A') (A') (A") (A") (A")
                 (A') (A") (A") (A') (A') (A") (A') (A") (A') (A")
                 (A') (A') (A") (A') (A") (A") (A") (A') (A") (A')
                 (A') (A") (A') (A') (A") (A') (A") (A') (A") (A')
                 (A") (A') (A') (A") (A') (A") (A') (A") (A') (A')
                 (A") (A') (A") (A') (A") (A') (A') (A') (A') (A")
                 (A") (A') (A") (A') (A") (A') (A") (A") (A') (A")
                 (A') (A') (A') (A") (A") (A') (A") (A') (A') (A')
 Beta  Orbitals:
       Occupied  (A') (A") (A') (A') (A") (A') (A") (A') (A') (A")
                 (A') (A') (A') (A") (A') (A') (A') (A") (A') (A")
                 (A') (A") (A') (A') (A') (A") (A') (A") (A') (A")
                 (A') (A') (A") (A') (A') (A") (A") (A') (A") (A')
                 (A") (A') (A") (A') (A') (A") (A') (A') (A") (A")
                 (A') (A") (A') (A') (A") (A') (A") (A') (A") (A')
                 (A') (A") (A') (A') (A') (A") (A") (A') (A') (A')
                 (A") (A') (A") (A") (A') (A") (A')
       Virtual   (A') (A') (A') (A") (A") (A') (A') (A") (A') (A')
                 (A") (A') (A') (A") (A") (A") (A') (A') (A') (A")
                 (A') (A') (A") (A') (A') (A") (A') (A") (A') (A")
                 (A') (A") (A') (A") (A') (A") (A') (A") (A') (A")
                 (A') (A') (A") (A') (A") (A') (A') (A") (A') (A")
                 (A") (A') (A') (A") (A') (A') (A") (A') (A") (A')
                 (A") (A') (A") (A") (A') (A') (A') (A") (A") (A')
                 (A') (A') (A') (A") (A') (A") (A") (A") (A') (A")
                 (A') (A') (A") (A') (A') (A") (A') (A") (A') (A")
                 (A') (A") (A') (A') (A") (A') (A") (A") (A") (A')
                 (A') (A') (A") (A') (A') (A") (A") (A') (A') (A")
                 (A") (A') (A") (A') (A') (A") (A') (A") (A') (A")
                 (A') (A") (A') (A') (A") (A") (A') (A') (A') (A")
                 (A") (A') (A') (A') (A") (A") (A") (A') (A") (A')
                 (A') (A") (A') (A") (A') (A") (A') (A") (A') (A")
                 (A') (A') (A') (A") (A') (A') (A") (A") (A') (A')
                 (A") (A') (A") (A') (A") (A') (A') (A") (A") (A')
                 (A") (A') (A') (A") (A") (A') (A') (A") (A") (A')
                 (A') (A") (A') (A") (A') (A") (A') (A") (A') (A")
                 (A') (A") (A') (A") (A') (A') (A") (A') (A") (A')
                 (A') (A") (A") (A') (A') (A") (A') (A') (A") (A")
                 (A") (A') (A") (A') (A') (A") (A') (A") (A') (A')
                 (A") (A") (A') (A") (A') (A') (A") (A') (A") (A")
                 (A") (A') (A') (A") (A') (A') (A") (A') (A') (A')
                 (A") (A') (A") (A') (A") (A") (A") (A') (A') (A")
                 (A') (A") (A") (A') (A') (A') (A') (A') (A") (A")
                 (A") (A') (A") (A") (A') (A') (A") (A') (A") (A')
                 (A") (A') (A') (A") (A') (A") (A") (A") (A') (A")
                 (A') (A') (A") (A') (A') (A") (A') (A") (A') (A")
                 (A') (A") (A') (A') (A") (A') (A") (A') (A") (A')
                 (A') (A") (A') (A") (A') (A") (A') (A') (A') (A')
                 (A") (A") (A') (A") (A') (A") (A') (A") (A") (A')
                 (A") (A') (A') (A') (A") (A") (A') (A") (A') (A')
                 (A')
 The electronic state is 2-A'.
 Alpha  occ. eigenvalues --  -58.62444 -58.61664 -58.61664 -58.61638 -58.61638
 Alpha  occ. eigenvalues --  -58.61542 -58.61301 -58.61140 -58.61140 -58.60578
 Alpha  occ. eigenvalues --  -58.60578 -58.57959  -5.03633  -5.02888  -5.02887
 Alpha  occ. eigenvalues --   -5.02880  -5.02771  -5.02771  -5.02673  -5.02174
 Alpha  occ. eigenvalues --   -5.02174  -5.01853  -5.01852  -4.99573  -3.34890
 Alpha  occ. eigenvalues --   -3.34751  -3.34508  -3.34454  -3.34216  -3.34195
 Alpha  occ. eigenvalues --   -3.34053  -3.34051  -3.34039  -3.34018  -3.34017
 Alpha  occ. eigenvalues --   -3.33990  -3.33988  -3.33986  -3.33948  -3.33900
 Alpha  occ. eigenvalues --   -3.33881  -3.33854  -3.33835  -3.33835  -3.33823
 Alpha  occ. eigenvalues --   -3.33220  -3.33220  -3.33179  -3.33179  -3.33151
 Alpha  occ. eigenvalues --   -3.33150  -3.33043  -3.33042  -3.33015  -3.33015
 Alpha  occ. eigenvalues --   -3.32985  -3.32983  -3.30961  -3.30850  -3.30761
 Alpha  occ. eigenvalues --   -0.83072  -0.72166  -0.72046  -0.66873  -0.58937
 Alpha  occ. eigenvalues --   -0.57110  -0.55682  -0.53378  -0.49995  -0.45075
 Alpha  occ. eigenvalues --   -0.41830  -0.40326  -0.39061  -0.37525  -0.37220
 Alpha  occ. eigenvalues --   -0.37049  -0.35709  -0.34558
 Alpha virt. eigenvalues --   -0.14962  -0.14043  -0.13982  -0.12938  -0.12245
 Alpha virt. eigenvalues --   -0.10773  -0.09429  -0.09367  -0.06473  -0.06253
 Alpha virt. eigenvalues --   -0.04200  -0.03785  -0.03235  -0.03154  -0.01626
 Alpha virt. eigenvalues --   -0.00051   0.00304   0.00952   0.01793   0.01872
 Alpha virt. eigenvalues --    0.02355   0.02553   0.02962   0.04300   0.04873
 Alpha virt. eigenvalues --    0.04951   0.05840   0.06621   0.06998   0.07562
 Alpha virt. eigenvalues --    0.07851   0.07972   0.08450   0.08831   0.08968
 Alpha virt. eigenvalues --    0.09148   0.10525   0.10703   0.11548   0.11596
 Alpha virt. eigenvalues --    0.11797   0.11972   0.13111   0.13755   0.13852
 Alpha virt. eigenvalues --    0.14955   0.15507   0.15811   0.15908   0.16243
 Alpha virt. eigenvalues --    0.16327   0.16834   0.17531   0.18098   0.18133
 Alpha virt. eigenvalues --    0.18717   0.19988   0.20570   0.21440   0.21863
 Alpha virt. eigenvalues --    0.21871   0.22660   0.23125   0.23303   0.23674
 Alpha virt. eigenvalues --    0.24491   0.24894   0.25253   0.25327   0.25616
 Alpha virt. eigenvalues --    0.26588   0.27158   0.27961   0.28446   0.28629
 Alpha virt. eigenvalues --    0.29124   0.29566   0.30606   0.31242   0.31504
 Alpha virt. eigenvalues --    0.31636   0.33033   0.34438   0.34786   0.35199
 Alpha virt. eigenvalues --    0.35707   0.36632   0.36729   0.38030   0.38299
 Alpha virt. eigenvalues --    0.38467   0.38745   0.39931   0.40102   0.40268
 Alpha virt. eigenvalues --    0.40605   0.41099   0.42689   0.43365   0.43571
 Alpha virt. eigenvalues --    0.44211   0.44799   0.45544   0.46254   0.46860
 Alpha virt. eigenvalues --    0.47653   0.48006   0.48950   0.49460   0.49576
 Alpha virt. eigenvalues --    0.49755   0.50036   0.50282   0.51629   0.52083
 Alpha virt. eigenvalues --    0.52274   0.52499   0.52509   0.53850   0.54139
 Alpha virt. eigenvalues --    0.54754   0.54769   0.55479   0.56428   0.56604
 Alpha virt. eigenvalues --    0.56771   0.58255   0.58676   0.59467   0.59835
 Alpha virt. eigenvalues --    0.59930   0.60849   0.61703   0.62624   0.63304
 Alpha virt. eigenvalues --    0.64929   0.64981   0.67231   0.67669   0.68977
 Alpha virt. eigenvalues --    0.69262   0.70126   0.70169   0.71003   0.71705
 Alpha virt. eigenvalues --    0.71795   0.71995   0.72630   0.73928   0.74204
 Alpha virt. eigenvalues --    0.75274   0.76122   0.76344   0.77058   0.77782
 Alpha virt. eigenvalues --    0.78413   0.79006   0.79321   0.80004   0.80340
 Alpha virt. eigenvalues --    0.80854   0.81009   0.82354   0.82721   0.82851
 Alpha virt. eigenvalues --    0.83729   0.84154   0.84731   0.85046   0.85779
 Alpha virt. eigenvalues --    0.85970   0.86555   0.86650   0.87256   0.87483
 Alpha virt. eigenvalues --    0.88577   0.88691   0.88935   0.89398   0.89649
 Alpha virt. eigenvalues --    0.90333   0.90842   0.91121   0.91801   0.91818
 Alpha virt. eigenvalues --    0.92754   0.93045   0.93109   0.93678   0.94323
 Alpha virt. eigenvalues --    0.95793   0.96164   0.97115   0.97286   0.98163
 Alpha virt. eigenvalues --    0.98686   0.98730   0.99216   1.00941   1.02205
 Alpha virt. eigenvalues --    1.03071   1.03448   1.04113   1.04767   1.04956
 Alpha virt. eigenvalues --    1.04976   1.05836   1.06168   1.06495   1.07356
 Alpha virt. eigenvalues --    1.08777   1.09362   1.09718   1.09915   1.10381
 Alpha virt. eigenvalues --    1.10720   1.12435   1.12738   1.12923   1.13861
 Alpha virt. eigenvalues --    1.15265   1.15639   1.16648   1.17118   1.17974
 Alpha virt. eigenvalues --    1.18396   1.19015   1.19638   1.20364   1.22312
 Alpha virt. eigenvalues --    1.22577   1.22804   1.22830   1.24208   1.24603
 Alpha virt. eigenvalues --    1.24971   1.25680   1.26340   1.27280   1.28748
 Alpha virt. eigenvalues --    1.29049   1.29449   1.31217   1.31515   1.31876
 Alpha virt. eigenvalues --    1.32561   1.32639   1.33698   1.34784   1.35502
 Alpha virt. eigenvalues --    1.36237   1.36663   1.36736   1.37112   1.37647
 Alpha virt. eigenvalues --    1.38358   1.38858   1.39333   1.39824   1.40016
 Alpha virt. eigenvalues --    1.42089   1.42316   1.42649   1.42671   1.42798
 Alpha virt. eigenvalues --    1.43718   1.44454   1.44557   1.45727   1.47456
 Alpha virt. eigenvalues --    1.47784   1.49342   1.49534   1.49896   1.49986
 Alpha virt. eigenvalues --    1.51237   1.52348   1.53970   1.55240   1.55680
 Alpha virt. eigenvalues --    1.56876   1.61708   2.23792   2.30775   2.36344
 Alpha virt. eigenvalues --    2.37226   2.38863   2.40173   2.41183   2.43704
 Alpha virt. eigenvalues --    2.46030   2.47389   2.48994   2.49346   2.52142
 Alpha virt. eigenvalues --    2.54387   2.55565   2.56710   2.57684   2.58282
 Alpha virt. eigenvalues --    2.59926   2.61138   2.62479   2.64279   2.67643
 Alpha virt. eigenvalues --    2.71374   2.74475   2.75354   2.81382   2.85493
 Alpha virt. eigenvalues --    2.91035   2.92615   2.93803   2.98526   3.00078
 Alpha virt. eigenvalues --    3.01027   3.06411   3.10216   3.11430   3.21934
 Alpha virt. eigenvalues --    3.31075   3.40260   3.47725   3.57393   3.62190
 Alpha virt. eigenvalues --    3.67006   3.80172   3.84191   3.88746   5.07888
  Beta  occ. eigenvalues --  -58.62188 -58.61745 -58.61745 -58.61486 -58.61486
  Beta  occ. eigenvalues --  -58.61356 -58.61232 -58.61232 -58.61113 -58.60592
  Beta  occ. eigenvalues --  -58.60592 -58.57957  -5.03181  -5.02939  -5.02939
  Beta  occ. eigenvalues --   -5.02603  -5.02562  -5.02556  -5.02346  -5.02335
  Beta  occ. eigenvalues --   -5.02335  -5.01884  -5.01883  -4.99561  -3.34378
  Beta  occ. eigenvalues --   -3.34362  -3.34274  -3.34272  -3.34213  -3.34150
  Beta  occ. eigenvalues --   -3.34149  -3.34048  -3.34045  -3.33985  -3.33919
  Beta  occ. eigenvalues --   -3.33911  -3.33901  -3.33757  -3.33730  -3.33676
  Beta  occ. eigenvalues --   -3.33630  -3.33630  -3.33601  -3.33547  -3.33438
  Beta  occ. eigenvalues --   -3.33363  -3.33363  -3.33278  -3.33278  -3.33200
  Beta  occ. eigenvalues --   -3.33200  -3.33156  -3.33155  -3.33057  -3.33055
  Beta  occ. eigenvalues --   -3.32998  -3.32998  -3.30981  -3.30834  -3.30786
  Beta  occ. eigenvalues --   -0.82364  -0.72351  -0.70569  -0.65514  -0.57693
  Beta  occ. eigenvalues --   -0.57268  -0.56045  -0.52302  -0.46014  -0.44742
  Beta  occ. eigenvalues --   -0.41737  -0.40318  -0.38032  -0.37013  -0.36911
  Beta  occ. eigenvalues --   -0.35678  -0.35348
  Beta virt. eigenvalues --   -0.15232  -0.14299  -0.13597  -0.13275  -0.12096
  Beta virt. eigenvalues --   -0.10959  -0.10004  -0.09790  -0.07736  -0.06106
  Beta virt. eigenvalues --   -0.05569  -0.03970  -0.02699  -0.02609  -0.02167
  Beta virt. eigenvalues --   -0.00142  -0.00034   0.00468   0.01199   0.02171
  Beta virt. eigenvalues --    0.02373   0.02680   0.02931   0.03387   0.04939
  Beta virt. eigenvalues --    0.05163   0.05772   0.06594   0.06762   0.07453
  Beta virt. eigenvalues --    0.07632   0.08150   0.08363   0.08522   0.09154
  Beta virt. eigenvalues --    0.09230   0.09752   0.10509   0.11057   0.11793
  Beta virt. eigenvalues --    0.11943   0.12093   0.12422   0.13083   0.14056
  Beta virt. eigenvalues --    0.14183   0.15511   0.15769   0.15785   0.16169
  Beta virt. eigenvalues --    0.16403   0.16922   0.17618   0.17879   0.18038
  Beta virt. eigenvalues --    0.18673   0.18720   0.20451   0.20745   0.21851
  Beta virt. eigenvalues --    0.21977   0.22458   0.23015   0.23495   0.23880
  Beta virt. eigenvalues --    0.24150   0.24642   0.24818   0.25586   0.25669
  Beta virt. eigenvalues --    0.26342   0.26676   0.27076   0.28421   0.28561
  Beta virt. eigenvalues --    0.29132   0.29302   0.29764   0.31197   0.31702
  Beta virt. eigenvalues --    0.32214   0.32616   0.33582   0.34681   0.35159
  Beta virt. eigenvalues --    0.35244   0.36034   0.36646   0.36955   0.38293
  Beta virt. eigenvalues --    0.38498   0.38811   0.38879   0.40305   0.40438
  Beta virt. eigenvalues --    0.40659   0.40766   0.41430   0.43401   0.43449
  Beta virt. eigenvalues --    0.43982   0.44484   0.44510   0.45822   0.46712
  Beta virt. eigenvalues --    0.46963   0.48168   0.48212   0.49114   0.49234
  Beta virt. eigenvalues --    0.49949   0.50091   0.50421   0.50436   0.51958
  Beta virt. eigenvalues --    0.52366   0.52445   0.52728   0.52812   0.54270
  Beta virt. eigenvalues --    0.54461   0.54890   0.54961   0.56047   0.56595
  Beta virt. eigenvalues --    0.56924   0.57126   0.58218   0.59038   0.59486
  Beta virt. eigenvalues --    0.60054   0.60115   0.61005   0.62105   0.62906
  Beta virt. eigenvalues --    0.63505   0.65157   0.65278   0.67330   0.68066
  Beta virt. eigenvalues --    0.69030   0.69451   0.70257   0.70334   0.71266
  Beta virt. eigenvalues --    0.72031   0.72075   0.72117   0.72945   0.74049
  Beta virt. eigenvalues --    0.74327   0.75825   0.76269   0.76525   0.77395
  Beta virt. eigenvalues --    0.78276   0.78543   0.78938   0.79465   0.80214
  Beta virt. eigenvalues --    0.80628   0.81038   0.81321   0.82453   0.82717
  Beta virt. eigenvalues --    0.83329   0.84073   0.84237   0.85042   0.85319
  Beta virt. eigenvalues --    0.85824   0.86256   0.86757   0.86842   0.87418
  Beta virt. eigenvalues --    0.87515   0.88715   0.88835   0.89348   0.89463
  Beta virt. eigenvalues --    0.90062   0.90624   0.91248   0.91347   0.91967
  Beta virt. eigenvalues --    0.92061   0.92812   0.93060   0.93227   0.93942
  Beta virt. eigenvalues --    0.94462   0.95942   0.96536   0.97062   0.97465
  Beta virt. eigenvalues --    0.98494   0.98846   0.99193   0.99410   1.01277
  Beta virt. eigenvalues --    1.02365   1.03224   1.03536   1.04516   1.04761
  Beta virt. eigenvalues --    1.05177   1.05228   1.05960   1.06186   1.06614
  Beta virt. eigenvalues --    1.07303   1.09005   1.09554   1.09835   1.10019
  Beta virt. eigenvalues --    1.10608   1.10984   1.12633   1.12957   1.13342
  Beta virt. eigenvalues --    1.13954   1.15422   1.15813   1.16805   1.17567
  Beta virt. eigenvalues --    1.18147   1.18531   1.19485   1.19977   1.20413
  Beta virt. eigenvalues --    1.22333   1.22792   1.22854   1.23059   1.24338
  Beta virt. eigenvalues --    1.24838   1.25029   1.25970   1.26447   1.27673
  Beta virt. eigenvalues --    1.28841   1.29262   1.29607   1.31437   1.31567
  Beta virt. eigenvalues --    1.31894   1.32583   1.32707   1.33899   1.35012
  Beta virt. eigenvalues --    1.35632   1.36488   1.36804   1.36977   1.37312
  Beta virt. eigenvalues --    1.37912   1.38562   1.39205   1.39589   1.40073
  Beta virt. eigenvalues --    1.40268   1.42371   1.42468   1.42825   1.42863
  Beta virt. eigenvalues --    1.42938   1.43811   1.44631   1.44751   1.45856
  Beta virt. eigenvalues --    1.47407   1.48090   1.49562   1.49664   1.50012
  Beta virt. eigenvalues --    1.50049   1.51316   1.52439   1.54126   1.55435
  Beta virt. eigenvalues --    1.55769   1.57227   1.61701   2.24022   2.30969
  Beta virt. eigenvalues --    2.36306   2.37695   2.38857   2.40378   2.41154
  Beta virt. eigenvalues --    2.43969   2.45912   2.47499   2.49088   2.49274
  Beta virt. eigenvalues --    2.52447   2.54047   2.56123   2.56799   2.57780
  Beta virt. eigenvalues --    2.58597   2.60219   2.61243   2.62535   2.64259
  Beta virt. eigenvalues --    2.67705   2.71493   2.74688   2.75478   2.81515
  Beta virt. eigenvalues --    2.85691   2.91226   2.92769   2.93858   2.99029
  Beta virt. eigenvalues --    3.00093   3.01143   3.06383   3.10271   3.11456
  Beta virt. eigenvalues --    3.21952   3.31110   3.40393   3.47787   3.57349
  Beta virt. eigenvalues --    3.62236   3.67049   3.80251   3.84353   3.88876
  Beta virt. eigenvalues --    5.07939
          Condensed to atoms (all electrons):
               1          2          3          4          5          6
     1  Al  11.970260   0.324766   0.299732  -0.029774  -0.027540   0.042161
     2  Al   0.324766  12.124559  -0.020315   0.001401   0.324766   0.109518
     3  Al   0.299732  -0.020315  12.068346   0.183089   0.005518   0.184359
     4  Al  -0.029774   0.001401   0.183089  12.150829   0.000575  -0.003702
     5  Al  -0.027540   0.324766   0.005518   0.000575  11.970260   0.042161
     6  Al   0.042161   0.109518   0.184359  -0.003702   0.042161  12.228611
     7  Al  -0.017439   0.003867   0.284955   0.111454  -0.017439   0.127647
     8  Al   0.005518  -0.020315  -0.018876  -0.011410   0.299732   0.184359
     9  Al   0.255213  -0.013717  -0.007935   0.230303   0.001298  -0.003849
    10  Al   0.001298  -0.013717   0.000818  -0.010701   0.255213  -0.003849
    11  Al   0.000575   0.001401  -0.011410   0.251794  -0.029774  -0.003702
    12  Al   0.062618   0.021318  -0.026044   0.064223   0.062618   0.084474
               7          8          9         10         11         12
     1  Al  -0.017439   0.005518   0.255213   0.001298   0.000575   0.062618
     2  Al   0.003867  -0.020315  -0.013717  -0.013717   0.001401   0.021318
     3  Al   0.284955  -0.018876  -0.007935   0.000818  -0.011410  -0.026044
     4  Al   0.111454  -0.011410   0.230303  -0.010701   0.251794   0.064223
     5  Al  -0.017439   0.299732   0.001298   0.255213  -0.029774   0.062618
     6  Al   0.127647   0.184359  -0.003849  -0.003849  -0.003702   0.084474
     7  Al  11.994865   0.284955  -0.003476  -0.003476   0.111454   0.064290
     8  Al   0.284955  12.068346   0.000818  -0.007935   0.183089  -0.026044
     9  Al  -0.003476   0.000818  12.361193  -0.001817  -0.010701   0.020120
    10  Al  -0.003476  -0.007935  -0.001817  12.361193   0.230303   0.020120
    11  Al   0.111454   0.183089  -0.010701   0.230303  12.150829   0.064223
    12  Al   0.064290  -0.026044   0.020120   0.020120   0.064223  12.624392
          Atomic-Atomic Spin Densities.
               1          2          3          4          5          6
     1  Al  -0.177170  -0.036156   0.018121  -0.000133   0.005110  -0.010873
     2  Al  -0.036156   0.473716  -0.000891  -0.000803  -0.036156   0.049342
     3  Al   0.018121  -0.000891  -0.029053  -0.016507  -0.000126  -0.005252
     4  Al  -0.000133  -0.000803  -0.016507   0.365516  -0.001175   0.007264
     5  Al   0.005110  -0.036156  -0.000126  -0.001175  -0.177170  -0.010873
     6  Al  -0.010873   0.049342  -0.005252   0.007264  -0.010873   0.372441
     7  Al   0.001437   0.000615   0.002025  -0.023537   0.001437  -0.003250
     8  Al  -0.000126  -0.000891   0.003870   0.002457   0.018121  -0.005252
     9  Al   0.022107  -0.002114  -0.004631   0.006071   0.000500  -0.001317
    10  Al   0.000500  -0.002114  -0.000466   0.001347   0.022107  -0.001317
    11  Al  -0.001175  -0.000803   0.002457  -0.019710  -0.000133   0.007264
    12  Al  -0.005943  -0.011767   0.017070  -0.040377  -0.005943  -0.028172
               7          8          9         10         11         12
     1  Al   0.001437  -0.000126   0.022107   0.000500  -0.001175  -0.005943
     2  Al   0.000615  -0.000891  -0.002114  -0.002114  -0.000803  -0.011767
     3  Al   0.002025   0.003870  -0.004631  -0.000466   0.002457   0.017070
     4  Al  -0.023537   0.002457   0.006071   0.001347  -0.019710  -0.040377
     5  Al   0.001437   0.018121   0.000500   0.022107  -0.000133  -0.005943
     6  Al  -0.003250  -0.005252  -0.001317  -0.001317   0.007264  -0.028172
     7  Al   0.375009   0.002025   0.002459   0.002459  -0.023537  -0.013032
     8  Al   0.002025  -0.029053  -0.000466  -0.004631  -0.016507   0.017070
     9  Al   0.002459  -0.000466  -0.188211  -0.000665   0.001347   0.037881
    10  Al   0.002459  -0.004631  -0.000665  -0.188211   0.006071   0.037881
    11  Al  -0.023537  -0.016507   0.001347   0.006071   0.365516  -0.040377
    12  Al  -0.013032   0.017070   0.037881   0.037881  -0.040377  -0.001766
 Mulliken charges and spin densities:
               1          2
     1  Al   0.112614  -0.184299
     2  Al   0.156469   0.431977
     3  Al   0.057762  -0.013384
     4  Al   0.061919   0.280412
     5  Al   0.112614  -0.184299
     6  Al   0.011811   0.370006
     7  Al   0.058342   0.324108
     8  Al   0.057762  -0.013384
     9  Al   0.172548  -0.127038
    10  Al   0.172548  -0.127038
    11  Al   0.061919   0.280412
    12  Al  -0.036308  -0.037474
 Sum of Mulliken charges =   1.00000   1.00000
 Mulliken charges and spin densities with hydrogens summed into heavy atoms:
               1          2
     1  Al   0.112614  -0.184299
     2  Al   0.156469   0.431977
     3  Al   0.057762  -0.013384
     4  Al   0.061919   0.280412
     5  Al   0.112614  -0.184299
     6  Al   0.011811   0.370006
     7  Al   0.058342   0.324108
     8  Al   0.057762  -0.013384
     9  Al   0.172548  -0.127038
    10  Al   0.172548  -0.127038
    11  Al   0.061919   0.280412
    12  Al  -0.036308  -0.037474
 Electronic spatial extent (au):  <R**2>=           4210.6043
 Charge=              1.0000 electrons
 Dipole moment (field-independent basis, Debye):
    X=              0.4605    Y=             -1.1454    Z=              0.0000  Tot=              1.2345
 Quadrupole moment (field-independent basis, Debye-Ang):
   XX=           -123.6362   YY=           -133.7644   ZZ=           -122.0614
   XY=              0.8162   XZ=              0.0000   YZ=              0.0000
 Traceless Quadrupole moment (field-independent basis, Debye-Ang):
   XX=              2.8511   YY=             -7.2770   ZZ=              4.4259
   XY=              0.8162   XZ=              0.0000   YZ=              0.0000
 Octapole moment (field-independent basis, Debye-Ang**2):
  XXX=             17.5785  YYY=            -12.3353  ZZZ=              0.0000  XYY=             -3.8096
  XXY=             -5.6663  XXZ=              0.0000  XZZ=             -1.7178  YZZ=             -2.2382
  YYZ=              0.0000  XYZ=              0.0000
 Hexadecapole moment (field-independent basis, Debye-Ang**3):
 XXXX=          -2296.9994 YYYY=          -1517.3952 ZZZZ=          -2914.8458 XXXY=              4.0166
 XXXZ=              0.0000 YYYX=             -3.5287 YYYZ=              0.0000 ZZZX=              0.0000
 ZZZY=              0.0000 XXYY=           -669.1718 XXZZ=           -902.0952 YYZZ=           -720.8127
 XXYZ=              0.0000 YYXZ=              0.0000 ZZXY=             -5.4118
 N-N= 1.696477747252D+03 E-N=-1.031650633048D+04  KE= 2.903031477406D+03
 Symmetry A'   KE= 1.854324916637D+03
 Symmetry A"   KE= 1.048706560768D+03

 Test job not archived.
 1\1\GINC-R1I1N8\SP\UCCSD(T)-FC\CC-pVTZ\Al12(1+,2)\VSC31064\03-Oct-2016
 \0\\# CCSD(T,conver=5)/cc-pVTZ test geom=allcheck guess=read\\Al12-c-d
 \\1,2\Al,0,0.18471231,1.6867245,-2.19016374\Al,0,0.25707609,3.07419608
 ,0.\Al,0,-1.35197869,-0.42523449,-2.2161903\Al,0,0.54628321,-2.2527756
 6,-1.33975046\Al,0,0.18471231,1.6867245,2.19016374\Al,0,-1.62531991,1.
 09996409,0.\Al,0,-1.77075192,-1.59570991,0.\Al,0,-1.35197869,-0.425234
 49,2.2161903\Al,0,1.74441336,-0.3567064,-2.72880998\Al,0,1.74441336,-0
 .3567064,2.72880998\Al,0,0.54628321,-2.25277566,1.33975046\Al,0,0.8919
 6408,0.11857208,0.\\Version=ES64L-G09RevD.01\State=2-A'\HF=-2902.85006
 33\MP2=-2903.8997019\MP3=-2903.792889\MP4D=-2903.9115054\MP4DQ=-2903.8
 364207\PUHF=-2902.8680035\PMP2-0=-2903.9161584\PMP3-0=-2903.8060058\MP
 4SDQ=-2903.8620648\CCSD=-2903.8336617\CCSD(T)=-2903.9685778\S2=1.30066
 8\S2-1=1.177312\S2A=1.115941\RMSD=6.547e-09\PG=CS [SG(Al4),X(Al8)]\\@


 Spring appears, and we are once more children.
                                  -- Anonymous
 Job cpu time:       2 days 16 hours 26 minutes 26.7 seconds.
 File lengths (MBytes):  RWF=  18156 Int=      0 D2E=      0 Chk=     13 Scr=      1
 Normal termination of Gaussian 09 at Mon Oct  3 22:48:37 2016.
