 Entering Gaussian System, Link 0=g09
 Initial command:
 /apps/leuven/thinking/software/G09//g09D1/l1.exe "/local_scratch/vsc31064/Gau-8309.inp" -scrdir="/local_scratch/vsc31064/"
 Entering Link 1 = /apps/leuven/thinking/software/G09//g09D1/l1.exe PID=      8310.
  
 Copyright (c) 1988,1990,1992,1993,1995,1998,2003,2009,2013,
            Gaussian, Inc.  All Rights Reserved.
  
 This is part of the Gaussian(R) 09 program.  It is based on
 the Gaussian(R) 03 system (copyright 2003, Gaussian, Inc.),
 the Gaussian(R) 98 system (copyright 1998, Gaussian, Inc.),
 the Gaussian(R) 94 system (copyright 1995, Gaussian, Inc.),
 the Gaussian 92(TM) system (copyright 1992, Gaussian, Inc.),
 the Gaussian 90(TM) system (copyright 1990, Gaussian, Inc.),
 the Gaussian 88(TM) system (copyright 1988, Gaussian, Inc.),
 the Gaussian 86(TM) system (copyright 1986, Carnegie Mellon
 University), and the Gaussian 82(TM) system (copyright 1983,
 Carnegie Mellon University). Gaussian is a federally registered
 trademark of Gaussian, Inc.
  
 This software contains proprietary and confidential information,
 including trade secrets, belonging to Gaussian, Inc.
  
 This software is provided under written license and may be
 used, copied, transmitted, or stored only in accord with that
 written license.
  
 The following legend is applicable only to US Government
 contracts under FAR:
  
                    RESTRICTED RIGHTS LEGEND
  
 Use, reproduction and disclosure by the US Government is
 subject to restrictions as set forth in subparagraphs (a)
 and (c) of the Commercial Computer Software - Restricted
 Rights clause in FAR 52.227-19.
  
 Gaussian, Inc.
 340 Quinnipiac St., Bldg. 40, Wallingford CT 06492
  
  
 ---------------------------------------------------------------
 Warning -- This program may not be used in any manner that
 competes with the business of Gaussian, Inc. or will provide
 assistance to any competitor of Gaussian, Inc.  The licensee
 of this program is prohibited from giving any competitor of
 Gaussian, Inc. access to this program.  By using this program,
 the user acknowledges that Gaussian, Inc. is engaged in the
 business of creating and licensing software in the field of
 computational chemistry and represents and warrants to the
 licensee that it is not a competitor of Gaussian, Inc. and that
 it will not use this program in any manner prohibited above.
 ---------------------------------------------------------------
  

 Cite this work as:
 Gaussian 09, Revision D.01,
 M. J. Frisch, G. W. Trucks, H. B. Schlegel, G. E. Scuseria, 
 M. A. Robb, J. R. Cheeseman, G. Scalmani, V. Barone, B. Mennucci, 
 G. A. Petersson, H. Nakatsuji, M. Caricato, X. Li, H. P. Hratchian, 
 A. F. Izmaylov, J. Bloino, G. Zheng, J. L. Sonnenberg, M. Hada, 
 M. Ehara, K. Toyota, R. Fukuda, J. Hasegawa, M. Ishida, T. Nakajima, 
 Y. Honda, O. Kitao, H. Nakai, T. Vreven, J. A. Montgomery, Jr., 
 J. E. Peralta, F. Ogliaro, M. Bearpark, J. J. Heyd, E. Brothers, 
 K. N. Kudin, V. N. Staroverov, T. Keith, R. Kobayashi, J. Normand, 
 K. Raghavachari, A. Rendell, J. C. Burant, S. S. Iyengar, J. Tomasi, 
 M. Cossi, N. Rega, J. M. Millam, M. Klene, J. E. Knox, J. B. Cross, 
 V. Bakken, C. Adamo, J. Jaramillo, R. Gomperts, R. E. Stratmann, 
 O. Yazyev, A. J. Austin, R. Cammi, C. Pomelli, J. W. Ochterski, 
 R. L. Martin, K. Morokuma, V. G. Zakrzewski, G. A. Voth, 
 P. Salvador, J. J. Dannenberg, S. Dapprich, A. D. Daniels, 
 O. Farkas, J. B. Foresman, J. V. Ortiz, J. Cioslowski, 
 and D. J. Fox, Gaussian, Inc., Wallingford CT, 2013.
 
 ******************************************
 Gaussian 09:  ES64L-G09RevD.01 24-Apr-2013
                 3-Oct-2016 
 ******************************************
 %NprocShared=20
 Will use up to   20 processors via shared memory.
 %mem=55000mb
 %chk=cc-Al12-n-s
 ------------------------
 # hf/6-31G* test scf=xqc
 ------------------------
 1/38=1/1;
 2/12=2,17=6,18=5,40=1/2;
 3/5=1,6=6,7=1,11=9,16=1,25=1,30=1/1,2,3;
 4//1;
 5/5=2,8=3,13=1,38=5/2,8;
 6/7=2,8=2,9=2,10=2,28=1/1;
 99/5=1,9=1/99;
 --------
 Al12-n-s
 --------
 Symbolic Z-matrix:
 Charge =  0 Multiplicity = 1
 Al                    1.70909  -0.77891  -2.2374 
 Al                    2.90703  -0.06994   0. 
 Al                   -0.10944   1.23886  -2.15631 
 Al                   -2.37838  -0.21896  -1.32888 
 Al                    1.70909  -0.77891   2.2374 
 Al                    1.2907    1.84775   0. 
 Al                   -1.35961   1.84656   0. 
 Al                   -0.10944   1.23886   2.15631 
 Al                   -0.66504  -1.69641  -2.58736 
 Al                   -0.66504  -1.69641   2.58736 
 Al                   -2.37838  -0.21896   1.32888 
 Al                    0.04942  -0.71354   0. 
 
                          Input orientation:                          
 ---------------------------------------------------------------------
 Center     Atomic      Atomic             Coordinates (Angstroms)
 Number     Number       Type             X           Y           Z
 ---------------------------------------------------------------------
      1         13           0        1.709092   -0.778911   -2.237397
      2         13           0        2.907028   -0.069936    0.000000
      3         13           0       -0.109441    1.238859   -2.156306
      4         13           0       -2.378381   -0.218961   -1.328882
      5         13           0        1.709092   -0.778911    2.237397
      6         13           0        1.290704    1.847750    0.000000
      7         13           0       -1.359610    1.846563    0.000000
      8         13           0       -0.109441    1.238859    2.156306
      9         13           0       -0.665040   -1.696405   -2.587359
     10         13           0       -0.665040   -1.696405    2.587359
     11         13           0       -2.378381   -0.218961    1.328882
     12         13           0        0.049417   -0.713541    0.000000
 ---------------------------------------------------------------------
                    Distance matrix (angstroms):
                    1          2          3          4          5
     1  Al   0.000000
     2  Al   2.635079   0.000000
     3  Al   2.717542   3.932135   0.000000
     4  Al   4.224497   5.451943   2.820985   0.000000
     5  Al   4.474794   2.635079   5.165567   5.453377   0.000000
     6  Al   3.475679   2.507992   2.642122   4.415813   3.475679
     7  Al   4.616924   4.677304   2.565518   2.658987   4.616924
     8  Al   5.165567   3.932135   4.312612   4.406797   2.717542
     9  Al   2.569197   4.701010   3.018323   2.588850   5.454958
    10  Al   5.454958   4.701010   5.605963   4.522756   2.569197
    11  Al   5.453377   5.451943   4.406797   2.657764   4.224497
    12  Al   2.786528   2.929192   2.913204   2.811537   2.786528
                    6          7          8          9         10
     6  Al   0.000000
     7  Al   2.650314   0.000000
     8  Al   2.642122   2.565518   0.000000
     9  Al   4.804206   4.441788   5.605963   0.000000
    10  Al   4.804206   4.441788   3.018323   5.174718   0.000000
    11  Al   4.415813   2.658987   2.820985   4.522756   2.588850
    12  Al   2.846226   2.922241   2.913204   2.858478   2.858478
                   11         12
    11  Al   0.000000
    12  Al   2.811537   0.000000
 Stoichiometry    Al12
 Framework group  CS[SG(Al4),X(Al8)]
 Deg. of freedom    17
 Full point group                 CS      NOp   2
 Largest Abelian subgroup         CS      NOp   2
 Largest concise Abelian subgroup CS      NOp   2
                         Standard orientation:                         
 ---------------------------------------------------------------------
 Center     Atomic      Atomic             Coordinates (Angstroms)
 Number     Number       Type             X           Y           Z
 ---------------------------------------------------------------------
      1         13           0        1.709092    0.778911    2.237397
      2         13           0        2.907028    0.069936    0.000000
      3         13           0       -0.109441   -1.238859    2.156306
      4         13           0       -2.378381    0.218961    1.328882
      5         13           0        1.709092    0.778911   -2.237397
      6         13           0        1.290704   -1.847750    0.000000
      7         13           0       -1.359610   -1.846563    0.000000
      8         13           0       -0.109441   -1.238859   -2.156306
      9         13           0       -0.665040    1.696405    2.587359
     10         13           0       -0.665040    1.696405   -2.587359
     11         13           0       -2.378381    0.218961   -1.328882
     12         13           0        0.049417    0.713541    0.000000
 ---------------------------------------------------------------------
 Rotational constants (GHZ):      0.3942939      0.3487716      0.2826676
 Standard basis: 6-31G(d) (6D, 7F)
 There are   132 symmetry adapted cartesian basis functions of A'  symmetry.
 There are    96 symmetry adapted cartesian basis functions of A"  symmetry.
 There are   132 symmetry adapted basis functions of A'  symmetry.
 There are    96 symmetry adapted basis functions of A"  symmetry.
   228 basis functions,   624 primitive gaussians,   228 cartesian basis functions
    78 alpha electrons       78 beta electrons
       nuclear repulsion energy      1703.3905542667 Hartrees.
 NAtoms=   12 NActive=   12 NUniq=    8 SFac= 2.25D+00 NAtFMM=   60 NAOKFM=F Big=F
 Integral buffers will be    131072 words long.
 Raffenetti 1 integral format.
 Two-electron integral symmetry is turned on.
 One-electron integrals computed using PRISM.
 NBasis=   228 RedAO= T EigKep=  8.19D-04  NBF=   132    96
 NBsUse=   228 1.00D-06 EigRej= -1.00D+00 NBFU=   132    96
 ExpMin= 5.57D-02 ExpMax= 1.40D+04 ExpMxC= 2.10D+03 IAcc=2 IRadAn=         4 AccDes= 0.00D+00
 Harris functional with IExCor=  205 and IRadAn=       4 diagonalized for initial guess.
 HarFok:  IExCor=  205 AccDes= 0.00D+00 IRadAn=         4 IDoV= 1 UseB2=F ITyADJ=14
 ICtDFT=  3500011 ScaDFX=  1.000000  1.000000  1.000000  1.000000
 FoFCou: FMM=F IPFlag=           0 FMFlag=      100000 FMFlg1=           0
         NFxFlg=           0 DoJE=T BraDBF=F KetDBF=T FulRan=T
         wScrn=  0.000000 ICntrl=     500 IOpCl=  0 I1Cent=   200000004 NGrid=           0
         NMat0=    1 NMatS0=      1 NMatT0=    0 NMatD0=    1 NMtDS0=    0 NMtDT0=    0
 Petite list used in FoFCou.
 Initial guess orbital symmetries:
       Occupied  (A') (A') (A') (A") (A') (A") (A') (A') (A") (A')
                 (A") (A') (A') (A') (A') (A") (A') (A') (A") (A')
                 (A") (A') (A") (A') (A") (A') (A') (A") (A') (A')
                 (A') (A") (A') (A') (A") (A') (A') (A") (A') (A")
                 (A") (A') (A") (A') (A") (A') (A") (A') (A") (A')
                 (A") (A') (A") (A') (A") (A') (A") (A') (A") (A')
                 (A') (A") (A') (A') (A') (A") (A") (A') (A') (A')
                 (A') (A") (A") (A') (A") (A') (A") (A')
       Virtual   (A') (A') (A") (A') (A") (A") (A') (A') (A") (A')
                 (A") (A') (A') (A") (A') (A') (A') (A") (A") (A')
                 (A') (A") (A') (A') (A") (A') (A') (A") (A") (A")
                 (A') (A') (A") (A") (A') (A') (A") (A') (A") (A')
                 (A') (A") (A') (A') (A') (A") (A') (A") (A') (A")
                 (A") (A') (A') (A") (A') (A") (A') (A') (A") (A')
                 (A") (A') (A') (A") (A") (A') (A') (A') (A') (A")
                 (A") (A") (A") (A') (A') (A") (A') (A') (A") (A")
                 (A") (A') (A') (A") (A") (A') (A') (A") (A') (A')
                 (A") (A') (A') (A") (A') (A") (A") (A') (A") (A')
                 (A') (A") (A') (A') (A") (A') (A") (A') (A') (A")
                 (A") (A') (A') (A') (A") (A') (A") (A') (A') (A")
                 (A') (A") (A') (A") (A') (A') (A") (A') (A") (A")
                 (A') (A") (A") (A') (A") (A') (A") (A') (A') (A')
                 (A') (A") (A') (A") (A') (A") (A') (A") (A') (A')
 The electronic state of the initial guess is 1-A'.
 Keep R1 ints in memory in symmetry-blocked form, NReq=511536612.
 Requested convergence on RMS density matrix=1.00D-08 within  64 cycles.
 Requested convergence on MAX density matrix=1.00D-06.
 Requested convergence on             energy=1.00D-06.
 No special actions if energy rises.
 SCF Done:  E(RHF) =  -2902.78348285     A.U. after   20 cycles
            NFock= 20  Conv=0.73D-08     -V/T= 2.0002
 QCSCF skips out because SCF is already converged.

 **********************************************************************

            Population analysis using the SCF density.

 **********************************************************************

 Orbital symmetries:
       Occupied  (A") (A') (A") (A') (A') (A") (A') (A") (A') (A')
                 (A') (A') (A') (A") (A') (A") (A') (A") (A') (A')
                 (A") (A') (A') (A') (A') (A") (A') (A") (A') (A")
                 (A') (A") (A') (A") (A") (A') (A') (A') (A") (A")
                 (A') (A") (A') (A") (A') (A') (A") (A') (A') (A")
                 (A') (A") (A') (A") (A') (A") (A') (A') (A') (A")
                 (A') (A") (A') (A') (A') (A") (A") (A') (A') (A')
                 (A") (A') (A") (A") (A') (A') (A") (A')
       Virtual   (A') (A') (A") (A') (A") (A") (A') (A') (A") (A')
                 (A") (A') (A') (A") (A') (A") (A') (A') (A') (A")
                 (A') (A") (A') (A') (A") (A') (A') (A") (A") (A')
                 (A") (A") (A') (A") (A') (A') (A") (A") (A') (A")
                 (A') (A') (A') (A") (A') (A') (A") (A') (A") (A')
                 (A") (A') (A') (A") (A') (A') (A") (A") (A') (A')
                 (A") (A") (A') (A') (A') (A") (A') (A') (A") (A")
                 (A') (A") (A") (A') (A") (A') (A') (A") (A') (A")
                 (A') (A") (A') (A") (A") (A') (A') (A') (A") (A')
                 (A") (A') (A') (A") (A') (A") (A") (A') (A") (A')
                 (A') (A") (A') (A') (A') (A") (A') (A") (A') (A")
                 (A') (A') (A") (A') (A") (A') (A') (A") (A') (A")
                 (A') (A") (A") (A') (A') (A") (A') (A') (A") (A')
                 (A") (A") (A") (A') (A") (A') (A") (A') (A') (A')
                 (A") (A') (A") (A') (A') (A") (A') (A") (A') (A')
 The electronic state is 1-A'.
 Alpha  occ. eigenvalues --  -58.48249 -58.48249 -58.48192 -58.48192 -58.47880
 Alpha  occ. eigenvalues --  -58.47498 -58.47498 -58.46909 -58.46909 -58.46681
 Alpha  occ. eigenvalues --  -58.45838 -58.42837  -4.90154  -4.90147  -4.90124
 Alpha  occ. eigenvalues --   -4.90124  -4.89795  -4.89452  -4.89452  -4.89054
 Alpha  occ. eigenvalues --   -4.89053  -4.88991  -4.88139  -4.85524  -3.21417
 Alpha  occ. eigenvalues --   -3.21401  -3.21316  -3.21308  -3.21305  -3.21305
 Alpha  occ. eigenvalues --   -3.21277  -3.21263  -3.21263  -3.21230  -3.21139
 Alpha  occ. eigenvalues --   -3.21139  -3.21058  -3.20906  -3.20876  -3.20552
 Alpha  occ. eigenvalues --   -3.20552  -3.20486  -3.20485  -3.20362  -3.20362
 Alpha  occ. eigenvalues --   -3.20334  -3.20314  -3.20299  -3.20239  -3.20210
 Alpha  occ. eigenvalues --   -3.20195  -3.20180  -3.20145  -3.20117  -3.19432
 Alpha  occ. eigenvalues --   -3.19324  -3.19283  -3.16870  -3.16840  -3.16823
 Alpha  occ. eigenvalues --   -0.70454  -0.59910  -0.58354  -0.54670  -0.45367
 Alpha  occ. eigenvalues --   -0.44772  -0.42995  -0.39829  -0.37582  -0.32154
 Alpha  occ. eigenvalues --   -0.28800  -0.28202  -0.25409  -0.24456  -0.24432
 Alpha  occ. eigenvalues --   -0.24220  -0.23240  -0.22302
 Alpha virt. eigenvalues --   -0.02908  -0.02008  -0.01619  -0.00609   0.00541
 Alpha virt. eigenvalues --    0.01410   0.01887   0.03072   0.05681   0.05691
 Alpha virt. eigenvalues --    0.07608   0.08035   0.08735   0.08941   0.10110
 Alpha virt. eigenvalues --    0.11549   0.11557   0.12687   0.13540   0.13985
 Alpha virt. eigenvalues --    0.14189   0.14631   0.15126   0.16086   0.17845
 Alpha virt. eigenvalues --    0.18498   0.19832   0.20238   0.21116   0.21671
 Alpha virt. eigenvalues --    0.21917   0.22883   0.22940   0.25391   0.25549
 Alpha virt. eigenvalues --    0.25764   0.26341   0.26841   0.27072   0.27960
 Alpha virt. eigenvalues --    0.28604   0.28910   0.30451   0.32316   0.32390
 Alpha virt. eigenvalues --    0.32824   0.34682   0.35012   0.35271   0.36779
 Alpha virt. eigenvalues --    0.36946   0.38069   0.38407   0.39117   0.39809
 Alpha virt. eigenvalues --    0.40061   0.40166   0.41567   0.41754   0.43251
 Alpha virt. eigenvalues --    0.44870   0.45560   0.45907   0.46110   0.47755
 Alpha virt. eigenvalues --    0.47991   0.48740   0.49606   0.49939   0.50716
 Alpha virt. eigenvalues --    0.50737   0.51407   0.52865   0.54564   0.56485
 Alpha virt. eigenvalues --    0.56669   0.58356   0.59965   0.60356   0.60424
 Alpha virt. eigenvalues --    0.61723   0.62599   0.62941   0.64022   0.65543
 Alpha virt. eigenvalues --    0.65546   0.66153   0.68466   0.68714   0.69824
 Alpha virt. eigenvalues --    0.69984   0.70918   0.71550   0.72471   0.74114
 Alpha virt. eigenvalues --    0.74233   0.76433   0.77214   0.77862   0.78467
 Alpha virt. eigenvalues --    0.79111   0.80398   0.80472   0.81569   0.82620
 Alpha virt. eigenvalues --    0.82944   0.84334   0.84913   0.86479   0.86525
 Alpha virt. eigenvalues --    0.89011   0.89271   0.89285   0.92695   0.93355
 Alpha virt. eigenvalues --    0.94989   0.95418   0.96846   0.98494   0.98976
 Alpha virt. eigenvalues --    0.99567   1.01684   1.02952   1.03290   1.04107
 Alpha virt. eigenvalues --    1.04447   1.05278   1.06594   1.06869   1.08892
 Alpha virt. eigenvalues --    1.09128   1.10277   1.11761   1.12994   1.13982
 Alpha virt. eigenvalues --    1.16324   1.20186   1.50708   2.25444   2.29078
 Alpha virt. eigenvalues --    2.31323   2.31894   2.36463   2.36506   2.38820
 Alpha virt. eigenvalues --    2.39100   2.39772   2.41682   2.45759   2.52818
          Condensed to atoms (all electrons):
               1          2          3          4          5          6
     1  Al  12.504382   0.334294   0.176394  -0.033096  -0.024803  -0.101008
     2  Al   0.334294  12.280503  -0.013687   0.009228   0.334294   0.166099
     3  Al   0.176394  -0.013687  13.223274   0.077138   0.015681  -0.006352
     4  Al  -0.033096   0.009228   0.077138  12.683341   0.000661  -0.009979
     5  Al  -0.024803   0.334294   0.015681   0.000661  12.504382  -0.101008
     6  Al  -0.101008   0.166099  -0.006352  -0.009979  -0.101008  12.972775
     7  Al  -0.011397   0.013584   0.008610  -0.020706  -0.011397   0.029515
     8  Al   0.015681  -0.013687   0.038818   0.021734   0.176394  -0.006352
     9  Al   0.328123  -0.013431  -0.092150   0.271255  -0.004222   0.023069
    10  Al  -0.004222  -0.013431  -0.005796   0.018882   0.328123   0.023069
    11  Al   0.000661   0.009228   0.021734   0.196813  -0.033096  -0.009979
    12  Al  -0.319227  -0.194391  -0.330007  -0.217274  -0.319227   0.008095
               7          8          9         10         11         12
     1  Al  -0.011397   0.015681   0.328123  -0.004222   0.000661  -0.319227
     2  Al   0.013584  -0.013687  -0.013431  -0.013431   0.009228  -0.194391
     3  Al   0.008610   0.038818  -0.092150  -0.005796   0.021734  -0.330007
     4  Al  -0.020706   0.021734   0.271255   0.018882   0.196813  -0.217274
     5  Al  -0.011397   0.176394  -0.004222   0.328123  -0.033096  -0.319227
     6  Al   0.029515  -0.006352   0.023069   0.023069  -0.009979   0.008095
     7  Al  13.011030   0.008610   0.012327   0.012327  -0.020706  -0.028495
     8  Al   0.008610  13.223274  -0.005796  -0.092150   0.077138  -0.330007
     9  Al   0.012327  -0.005796  12.644371  -0.013653   0.018882  -0.320514
    10  Al   0.012327  -0.092150  -0.013653  12.644371   0.271255  -0.320514
    11  Al  -0.020706   0.077138   0.018882   0.271255  12.683341  -0.217274
    12  Al  -0.028495  -0.330007  -0.320514  -0.320514  -0.217274  16.047590
 Mulliken charges:
               1
     1  Al   0.134218
     2  Al   0.101397
     3  Al  -0.113657
     4  Al   0.002004
     5  Al   0.134218
     6  Al   0.012056
     7  Al  -0.003302
     8  Al  -0.113657
     9  Al   0.151737
    10  Al   0.151737
    11  Al   0.002004
    12  Al  -0.458756
 Sum of Mulliken charges =   0.00000
 Mulliken charges with hydrogens summed into heavy atoms:
               1
     1  Al   0.134218
     2  Al   0.101397
     3  Al  -0.113657
     4  Al   0.002004
     5  Al   0.134218
     6  Al   0.012056
     7  Al  -0.003302
     8  Al  -0.113657
     9  Al   0.151737
    10  Al   0.151737
    11  Al   0.002004
    12  Al  -0.458756
 Electronic spatial extent (au):  <R**2>=           4235.0969
 Charge=              0.0000 electrons
 Dipole moment (field-independent basis, Debye):
    X=             -0.5824    Y=             -0.8084    Z=              0.0000  Tot=              0.9964
 Quadrupole moment (field-independent basis, Debye-Ang):
   XX=           -154.3432   YY=           -156.4404   ZZ=           -156.9560
   XY=              2.7708   XZ=              0.0000   YZ=              0.0000
 Traceless Quadrupole moment (field-independent basis, Debye-Ang):
   XX=              1.5700   YY=             -0.5272   ZZ=             -1.0428
   XY=              2.7708   XZ=              0.0000   YZ=              0.0000
 Octapole moment (field-independent basis, Debye-Ang**2):
  XXX=              1.2954  YYY=             -8.6304  ZZZ=              0.0000  XYY=             -4.4791
  XXY=             -1.6743  XXZ=              0.0000  XZZ=             -2.8410  YZZ=            -10.1867
  YYZ=              0.0000  XYZ=              0.0000
 Hexadecapole moment (field-independent basis, Debye-Ang**3):
 XXXX=          -2702.9289 YYYY=          -1744.4862 ZZZZ=          -3286.8755 XXXY=             34.6604
 XXXZ=              0.0000 YYYX=             -2.6189 YYYZ=              0.0000 ZZZX=              0.0000
 ZZZY=              0.0000 XXYY=           -783.0075 XXZZ=          -1002.0926 YYZZ=           -849.7283
 XXYZ=              0.0000 YYXZ=              0.0000 ZZXY=             12.0733
 N-N= 1.703390554267D+03 E-N=-1.034941308915D+04  KE= 2.902138991173D+03
 Symmetry A'   KE= 1.854123234397D+03
 Symmetry A"   KE= 1.048015756776D+03

 Test job not archived.
 1\1\GINC-R1I1N4\SP\RHF\6-31G(d)\Al12\VSC31064\03-Oct-2016\0\\# hf/6-31
 G* test scf=xqc\\Al12-n-s\\0,1\Al,0,1.709092,-0.778911,-2.237397\Al,0,
 2.907028,-0.069936,0.\Al,0,-0.109441,1.238859,-2.156306\Al,0,-2.378381
 ,-0.218961,-1.328882\Al,0,1.709092,-0.778911,2.237397\Al,0,1.290704,1.
 84775,0.\Al,0,-1.35961,1.846563,0.\Al,0,-0.109441,1.238859,2.156306\Al
 ,0,-0.66504,-1.696405,-2.587359\Al,0,-0.66504,-1.696405,2.587359\Al,0,
 -2.378381,-0.218961,1.328882\Al,0,0.049417,-0.713541,0.\\Version=ES64L
 -G09RevD.01\State=1-A'\HF=-2902.7834829\RMSD=7.344e-09\Dipole=-0.22915
 23,0.3180396,0.\Quadrupole=1.1672338,-0.3919394,-0.7752943,-2.0600214,
 0.,0.\PG=CS [SG(Al4),X(Al8)]\\@


 THE UNDERLYING PHYSICAL LAWS NECESSARY FOR THE 
 MATHEMATICAL THEORY OF A LARGE PART OF PHYSICS AND THE
 WHOLE OF CHEMISTRY ARE THUS COMPLETELY KNOWN, AND THE
 DIFFICULTY IS ONLY THAT THE EXACT APPLICATION OF THESE
 LAWS LEADS TO EQUATIONS MUCH TOO COMPLICATED 
 TO BE SOLUBLE.

                                        -- P. A. M. DIRAC, 1929
 Job cpu time:       0 days  0 hours  2 minutes  4.9 seconds.
 File lengths (MBytes):  RWF=     21 Int=      0 D2E=      0 Chk=      3 Scr=      1
 Normal termination of Gaussian 09 at Mon Oct  3 19:26:01 2016.
 Initial command:
 /apps/leuven/thinking/software/G09//g09D1/l1.exe "/local_scratch/vsc31064/Gau-8309.inp" -scrdir="/local_scratch/vsc31064/"
 Entering Link 1 = /apps/leuven/thinking/software/G09//g09D1/l1.exe PID=      8624.
  
 Copyright (c) 1988,1990,1992,1993,1995,1998,2003,2009,2013,
            Gaussian, Inc.  All Rights Reserved.
  
 This is part of the Gaussian(R) 09 program.  It is based on
 the Gaussian(R) 03 system (copyright 2003, Gaussian, Inc.),
 the Gaussian(R) 98 system (copyright 1998, Gaussian, Inc.),
 the Gaussian(R) 94 system (copyright 1995, Gaussian, Inc.),
 the Gaussian 92(TM) system (copyright 1992, Gaussian, Inc.),
 the Gaussian 90(TM) system (copyright 1990, Gaussian, Inc.),
 the Gaussian 88(TM) system (copyright 1988, Gaussian, Inc.),
 the Gaussian 86(TM) system (copyright 1986, Carnegie Mellon
 University), and the Gaussian 82(TM) system (copyright 1983,
 Carnegie Mellon University). Gaussian is a federally registered
 trademark of Gaussian, Inc.
  
 This software contains proprietary and confidential information,
 including trade secrets, belonging to Gaussian, Inc.
  
 This software is provided under written license and may be
 used, copied, transmitted, or stored only in accord with that
 written license.
  
 The following legend is applicable only to US Government
 contracts under FAR:
  
                    RESTRICTED RIGHTS LEGEND
  
 Use, reproduction and disclosure by the US Government is
 subject to restrictions as set forth in subparagraphs (a)
 and (c) of the Commercial Computer Software - Restricted
 Rights clause in FAR 52.227-19.
  
 Gaussian, Inc.
 340 Quinnipiac St., Bldg. 40, Wallingford CT 06492
  
  
 ---------------------------------------------------------------
 Warning -- This program may not be used in any manner that
 competes with the business of Gaussian, Inc. or will provide
 assistance to any competitor of Gaussian, Inc.  The licensee
 of this program is prohibited from giving any competitor of
 Gaussian, Inc. access to this program.  By using this program,
 the user acknowledges that Gaussian, Inc. is engaged in the
 business of creating and licensing software in the field of
 computational chemistry and represents and warrants to the
 licensee that it is not a competitor of Gaussian, Inc. and that
 it will not use this program in any manner prohibited above.
 ---------------------------------------------------------------
  

 Cite this work as:
 Gaussian 09, Revision D.01,
 M. J. Frisch, G. W. Trucks, H. B. Schlegel, G. E. Scuseria, 
 M. A. Robb, J. R. Cheeseman, G. Scalmani, V. Barone, B. Mennucci, 
 G. A. Petersson, H. Nakatsuji, M. Caricato, X. Li, H. P. Hratchian, 
 A. F. Izmaylov, J. Bloino, G. Zheng, J. L. Sonnenberg, M. Hada, 
 M. Ehara, K. Toyota, R. Fukuda, J. Hasegawa, M. Ishida, T. Nakajima, 
 Y. Honda, O. Kitao, H. Nakai, T. Vreven, J. A. Montgomery, Jr., 
 J. E. Peralta, F. Ogliaro, M. Bearpark, J. J. Heyd, E. Brothers, 
 K. N. Kudin, V. N. Staroverov, T. Keith, R. Kobayashi, J. Normand, 
 K. Raghavachari, A. Rendell, J. C. Burant, S. S. Iyengar, J. Tomasi, 
 M. Cossi, N. Rega, J. M. Millam, M. Klene, J. E. Knox, J. B. Cross, 
 V. Bakken, C. Adamo, J. Jaramillo, R. Gomperts, R. E. Stratmann, 
 O. Yazyev, A. J. Austin, R. Cammi, C. Pomelli, J. W. Ochterski, 
 R. L. Martin, K. Morokuma, V. G. Zakrzewski, G. A. Voth, 
 P. Salvador, J. J. Dannenberg, S. Dapprich, A. D. Daniels, 
 O. Farkas, J. B. Foresman, J. V. Ortiz, J. Cioslowski, 
 and D. J. Fox, Gaussian, Inc., Wallingford CT, 2013.
 
 ******************************************
 Gaussian 09:  ES64L-G09RevD.01 24-Apr-2013
                 3-Oct-2016 
 ******************************************
 %NprocShared=20
 Will use up to   20 processors via shared memory.
 %mem=55000mb
 %chk=cc-Al12-n-s
 --------------------------------------------------------
 # CCSD(T,conver=5)/cc-pVTZ test geom=allcheck guess=read
 --------------------------------------------------------
 1/29=7,38=1/1;
 2/12=2,40=1/2;
 3/5=16,6=1,11=9,14=-4,16=1,25=1,30=1,116=-2/1,2,3;
 4/5=1/1;
 5/5=2,38=6/2;
 8/6=4,9=120000,10=1/1,4;
 9/5=7,9=5,14=2/13;
 6/7=2,8=2,9=2,10=2/1;
 99/5=1,9=1/99;
 Structure from the checkpoint file:  "cc-Al12-n-s.chk"
 --------
 Al12-n-s
 --------
 Charge =  0 Multiplicity = 1
 Z-Matrix found in file.
 Al,0,1.709092,-0.778911,-2.237397
 Al,0,2.907028,-0.069936,0.
 Al,0,-0.109441,1.238859,-2.156306
 Al,0,-2.378381,-0.218961,-1.328882
 Al,0,1.709092,-0.778911,2.237397
 Al,0,1.290704,1.84775,0.
 Al,0,-1.35961,1.846563,0.
 Al,0,-0.109441,1.238859,2.156306
 Al,0,-0.66504,-1.696405,-2.587359
 Al,0,-0.66504,-1.696405,2.587359
 Al,0,-2.378381,-0.218961,1.328882
 Al,0,0.049417,-0.713541,0.
 Recover connectivity data from disk.
                          Input orientation:                          
 ---------------------------------------------------------------------
 Center     Atomic      Atomic             Coordinates (Angstroms)
 Number     Number       Type             X           Y           Z
 ---------------------------------------------------------------------
      1         13           0        1.709092   -0.778911   -2.237397
      2         13           0        2.907028   -0.069936    0.000000
      3         13           0       -0.109441    1.238859   -2.156306
      4         13           0       -2.378381   -0.218961   -1.328882
      5         13           0        1.709092   -0.778911    2.237397
      6         13           0        1.290704    1.847750    0.000000
      7         13           0       -1.359610    1.846563    0.000000
      8         13           0       -0.109441    1.238859    2.156306
      9         13           0       -0.665040   -1.696405   -2.587359
     10         13           0       -0.665040   -1.696405    2.587359
     11         13           0       -2.378381   -0.218961    1.328882
     12         13           0        0.049417   -0.713541    0.000000
 ---------------------------------------------------------------------
                    Distance matrix (angstroms):
                    1          2          3          4          5
     1  Al   0.000000
     2  Al   2.635079   0.000000
     3  Al   2.717542   3.932135   0.000000
     4  Al   4.224497   5.451943   2.820985   0.000000
     5  Al   4.474794   2.635079   5.165567   5.453377   0.000000
     6  Al   3.475679   2.507992   2.642122   4.415813   3.475679
     7  Al   4.616924   4.677304   2.565518   2.658987   4.616924
     8  Al   5.165567   3.932135   4.312612   4.406797   2.717542
     9  Al   2.569197   4.701010   3.018323   2.588850   5.454958
    10  Al   5.454958   4.701010   5.605963   4.522756   2.569197
    11  Al   5.453377   5.451943   4.406797   2.657764   4.224497
    12  Al   2.786528   2.929192   2.913204   2.811537   2.786528
                    6          7          8          9         10
     6  Al   0.000000
     7  Al   2.650314   0.000000
     8  Al   2.642122   2.565518   0.000000
     9  Al   4.804206   4.441788   5.605963   0.000000
    10  Al   4.804206   4.441788   3.018323   5.174718   0.000000
    11  Al   4.415813   2.658987   2.820985   4.522756   2.588850
    12  Al   2.846226   2.922241   2.913204   2.858478   2.858478
                   11         12
    11  Al   0.000000
    12  Al   2.811537   0.000000
 Stoichiometry    Al12
 Framework group  CS[SG(Al4),X(Al8)]
 Deg. of freedom    17
 Full point group                 CS      NOp   2
 Largest Abelian subgroup         CS      NOp   2
 Largest concise Abelian subgroup CS      NOp   2
                         Standard orientation:                         
 ---------------------------------------------------------------------
 Center     Atomic      Atomic             Coordinates (Angstroms)
 Number     Number       Type             X           Y           Z
 ---------------------------------------------------------------------
      1         13           0        1.709092    0.778911    2.237397
      2         13           0        2.907028    0.069936    0.000000
      3         13           0       -0.109441   -1.238859    2.156306
      4         13           0       -2.378381    0.218961    1.328882
      5         13           0        1.709092    0.778911   -2.237397
      6         13           0        1.290704   -1.847750    0.000000
      7         13           0       -1.359610   -1.846563    0.000000
      8         13           0       -0.109441   -1.238859   -2.156306
      9         13           0       -0.665040    1.696405    2.587359
     10         13           0       -0.665040    1.696405   -2.587359
     11         13           0       -2.378381    0.218961   -1.328882
     12         13           0        0.049417    0.713541    0.000000
 ---------------------------------------------------------------------
 Rotational constants (GHZ):      0.3942939      0.3487716      0.2826676
 Standard basis: CC-pVTZ (5D, 7F)
 There are   264 symmetry adapted cartesian basis functions of A'  symmetry.
 There are   204 symmetry adapted cartesian basis functions of A"  symmetry.
 There are   228 symmetry adapted basis functions of A'  symmetry.
 There are   180 symmetry adapted basis functions of A"  symmetry.
   408 basis functions,  1140 primitive gaussians,   468 cartesian basis functions
    78 alpha electrons       78 beta electrons
       nuclear repulsion energy      1703.3905542667 Hartrees.
 NAtoms=   12 NActive=   12 NUniq=    8 SFac= 2.25D+00 NAtFMM=   60 NAOKFM=F Big=F
 Integral buffers will be    131072 words long.
 Raffenetti 1 integral format.
 Two-electron integral symmetry is turned on.
 One-electron integrals computed using PRISM.
 NBasis=   408 RedAO= T EigKep=  2.71D-04  NBF=   228   180
 NBsUse=   408 1.00D-06 EigRej= -1.00D+00 NBFU=   228   180
 Initial guess from the checkpoint file:  "cc-Al12-n-s.chk"
 B after Tr=     0.000000    0.000000    0.000000
         Rot=    1.000000    0.000000    0.000000    0.000000 Ang=   0.00 deg.
 Initial guess orbital symmetries:
       Occupied  (A") (A') (A") (A') (A') (A") (A') (A") (A') (A')
                 (A') (A') (A') (A") (A') (A") (A') (A") (A') (A')
                 (A") (A') (A') (A') (A') (A") (A') (A") (A') (A")
                 (A') (A") (A') (A") (A") (A') (A') (A') (A") (A")
                 (A') (A") (A') (A") (A') (A') (A") (A') (A') (A")
                 (A') (A") (A') (A") (A') (A") (A') (A') (A') (A")
                 (A') (A") (A') (A') (A') (A") (A") (A') (A') (A')
                 (A") (A') (A") (A") (A') (A') (A") (A')
       Virtual   (A') (A') (A') (A') (A') (A') (A') (A') (A') (A')
                 (A') (A') (A') (A') (A') (A') (A') (A') (A') (A')
                 (A') (A') (A') (A') (A') (A') (A') (A') (A') (A')
                 (A') (A') (A') (A') (A') (A') (A') (A') (A') (A')
                 (A') (A') (A') (A') (A') (A') (A') (A') (A') (A')
                 (A') (A') (A') (A') (A') (A') (A') (A') (A') (A')
                 (A') (A') (A') (A') (A') (A') (A') (A') (A') (A')
                 (A') (A') (A') (A') (A') (A') (A') (A') (A') (A')
                 (A') (A') (A') (A') (A') (A') (A') (A') (A') (A')
                 (A') (A') (A') (A') (A') (A') (A') (A') (A') (A')
                 (A') (A') (A') (A') (A') (A') (A') (A') (A') (A')
                 (A') (A') (A') (A') (A') (A') (A') (A') (A') (A')
                 (A') (A') (A') (A') (A') (A') (A') (A') (A') (A')
                 (A') (A') (A') (A') (A') (A') (A') (A') (A') (A')
                 (A') (A') (A') (A') (A') (A') (A') (A') (A') (A')
                 (A') (A') (A') (A') (A') (A') (A') (A') (A') (A')
                 (A') (A') (A') (A') (A') (A') (A') (A') (A') (A')
                 (A') (A') (A') (A') (A') (A') (A') (A') (A') (A')
                 (A') (A") (A") (A") (A") (A") (A") (A") (A") (A")
                 (A") (A") (A") (A") (A") (A") (A") (A") (A") (A")
                 (A") (A") (A") (A") (A") (A") (A") (A") (A") (A")
                 (A") (A") (A") (A") (A") (A") (A") (A") (A") (A")
                 (A") (A") (A") (A") (A") (A") (A") (A") (A") (A")
                 (A") (A") (A") (A") (A") (A") (A") (A") (A") (A")
                 (A") (A") (A") (A") (A") (A") (A") (A") (A") (A")
                 (A") (A") (A") (A") (A") (A") (A") (A") (A") (A")
                 (A") (A") (A") (A") (A") (A") (A") (A") (A") (A")
                 (A") (A") (A") (A") (A") (A") (A") (A") (A") (A")
                 (A") (A") (A") (A") (A") (A") (A") (A") (A") (A")
                 (A") (A") (A") (A") (A") (A") (A") (A") (A") (A")
                 (A") (A") (A") (A") (A") (A") (A") (A") (A") (A")
                 (A") (A") (A") (A") (A") (A") (A") (A") (A") (A")
                 (A") (A") (A") (A") (A") (A") (A") (A") (A") (A")
 Keep R1 ints in memory in symmetry-blocked form, NReq=5222577566.
 Requested convergence on RMS density matrix=1.00D-08 within 128 cycles.
 Requested convergence on MAX density matrix=1.00D-06.
 Requested convergence on             energy=1.00D-06.
 No special actions if energy rises.
 SCF Done:  E(RHF) =  -2903.04145531     A.U. after   17 cycles
            NFock= 17  Conv=0.69D-08     -V/T= 2.0000
 ExpMin= 5.56D-02 ExpMax= 2.06D+05 ExpMxC= 1.99D+03 IAcc=3 IRadAn=         5 AccDes= 0.00D+00
 HarFok:  IExCor=  205 AccDes= 0.00D+00 IRadAn=         5 IDoV=-2 UseB2=F ITyADJ=14
 ICtDFT= 12500011 ScaDFX=  1.000000  1.000000  1.000000  1.000000
 Range of M.O.s used for correlation:    61   408
 NBasis=   408 NAE=    78 NBE=    78 NFC=    60 NFV=     0
 NROrb=    348 NOA=    18 NOB=    18 NVA=   330 NVB=   330

 **** Warning!!: The largest alpha MO coefficient is  0.27764103D+02

 Semi-Direct transformation.
 ModeAB=           4 MOrb=            18 LenV=    7205133186
 LASXX=    183511554 LTotXX=   183511554 LenRXX=   368610484
 LTotAB=   185098930 MaxLAS=   382680288 LenRXY=           0
 NonZer=   552122038 LenScr=   831431680 LnRSAI=   382680288
 LnScr1=   576272384 LExtra=           0 Total=   2158994836
 MaxDsk=          -1 SrtSym=           T ITran=            4
 JobTyp=0 Pass  1:  I=   1 to  18.
 (rs|ai) integrals will be sorted in core.
 Spin components of T(2) and E(2):
     alpha-alpha T2 =       0.1785544506D+00 E2=     -0.1643289850D+00
     alpha-beta  T2 =       0.7334017919D+00 E2=     -0.7800579476D+00
     beta-beta   T2 =       0.1785544506D+00 E2=     -0.1643289850D+00
 ANorm=    0.1445859846D+01
 E2 =    -0.1108715918D+01 EUMP2 =    -0.29041501712318D+04
 Keep R2 and R3 ints in memory in symmetry-blocked form, NReq=5222852012.
 Iterations=  50 Convergence= 0.100D-04
 Iteration Nr.   1
 **********************
 DD1Dir will call FoFMem   1 times, MxPair=       342
 NAB=   171 NAA=     0 NBB=     0.
 MP4(R+Q)=  0.78296290D-01
 E3=        0.13227467D+00        EUMP3=      -0.29040178966D+04
 E4(DQ)=   -0.62387087D-01        UMP4(DQ)=   -0.29040802836D+04
 E4(SDQ)=  -0.85948781D-01        UMP4(SDQ)=  -0.29041038453D+04
 DE(Corr)= -0.89896528     E(Corr)=     -2903.9404206    
 NORM(A)=   0.13251488D+01
 Iteration Nr.   2
 **********************
 DD1Dir will call FoFMem   1 times, MxPair=       342
 NAB=   171 NAA=     0 NBB=     0.
 DE(Corr)=  -1.0408547     E(CORR)=     -2904.0823100     Delta=-1.42D-01
 NORM(A)=   0.13802534D+01
 Iteration Nr.   3
 **********************
 DD1Dir will call FoFMem   1 times, MxPair=       342
 NAB=   171 NAA=     0 NBB=     0.
 DE(Corr)=  -1.0073496     E(CORR)=     -2904.0488049     Delta= 3.35D-02
 NORM(A)=   0.13928126D+01
 Iteration Nr.   4
 **********************
 DD1Dir will call FoFMem   1 times, MxPair=       342
 NAB=   171 NAA=     0 NBB=     0.
 DE(Corr)=  -1.0149260     E(CORR)=     -2904.0563813     Delta=-7.58D-03
 NORM(A)=   0.13973828D+01
 Iteration Nr.   5
 **********************
 DD1Dir will call FoFMem   1 times, MxPair=       342
 NAB=   171 NAA=     0 NBB=     0.
 DE(Corr)=  -1.0169467     E(CORR)=     -2904.0584020     Delta=-2.02D-03
 NORM(A)=   0.14037839D+01
 Iteration Nr.   6
 **********************
 DD1Dir will call FoFMem   1 times, MxPair=       342
 NAB=   171 NAA=     0 NBB=     0.
 DE(Corr)=  -1.0170018     E(CORR)=     -2904.0584571     Delta=-5.51D-05
 NORM(A)=   0.14068547D+01
 Iteration Nr.   7
 **********************
 DD1Dir will call FoFMem   1 times, MxPair=       342
 NAB=   171 NAA=     0 NBB=     0.
 DE(Corr)=  -1.0170397     E(CORR)=     -2904.0584950     Delta=-3.79D-05
 NORM(A)=   0.14067347D+01
 Iteration Nr.   8
 **********************
 DD1Dir will call FoFMem   1 times, MxPair=       342
 NAB=   171 NAA=     0 NBB=     0.
 DE(Corr)=  -1.0174459     E(CORR)=     -2904.0589013     Delta=-4.06D-04
 NORM(A)=   0.14072493D+01
 Iteration Nr.   9
 **********************
 DD1Dir will call FoFMem   1 times, MxPair=       342
 NAB=   171 NAA=     0 NBB=     0.
 DE(Corr)=  -1.0171435     E(CORR)=     -2904.0585988     Delta= 3.02D-04
 NORM(A)=   0.14072746D+01
 Iteration Nr.  10
 **********************
 DD1Dir will call FoFMem   1 times, MxPair=       342
 NAB=   171 NAA=     0 NBB=     0.
 DE(Corr)=  -1.0172938     E(CORR)=     -2904.0587491     Delta=-1.50D-04
 NORM(A)=   0.14072281D+01
 Iteration Nr.  11
 **********************
 DD1Dir will call FoFMem   1 times, MxPair=       342
 NAB=   171 NAA=     0 NBB=     0.
 DE(Corr)=  -1.0172470     E(CORR)=     -2904.0587023     Delta= 4.68D-05
 NORM(A)=   0.14072999D+01
 Iteration Nr.  12
 **********************
 DD1Dir will call FoFMem   1 times, MxPair=       342
 NAB=   171 NAA=     0 NBB=     0.
 DE(Corr)=  -1.0172475     E(CORR)=     -2904.0587028     Delta=-4.66D-07
 NORM(A)=   0.14072784D+01
 Iteration Nr.  13
 **********************
 DD1Dir will call FoFMem   1 times, MxPair=       342
 NAB=   171 NAA=     0 NBB=     0.
 DE(Corr)=  -1.0172542     E(CORR)=     -2904.0587095     Delta=-6.74D-06
 NORM(A)=   0.14072810D+01
 Iteration Nr.  14
 **********************
 DD1Dir will call FoFMem   1 times, MxPair=       342
 NAB=   171 NAA=     0 NBB=     0.
 DE(Corr)=  -1.0172552     E(CORR)=     -2904.0587105     Delta=-9.55D-07
 NORM(A)=   0.14072871D+01
 Iteration Nr.  15
 **********************
 DD1Dir will call FoFMem   1 times, MxPair=       342
 NAB=   171 NAA=     0 NBB=     0.
 DE(Corr)=  -1.0172490     E(CORR)=     -2904.0587043     Delta= 6.12D-06
 NORM(A)=   0.14072821D+01
 Largest amplitude= 8.34D-02
 Time for triples=    66572.39 seconds.
 T4(CCSD)= -0.14448761D+00
 T5(CCSD)=  0.49551601D-02
 CCSD(T)= -0.29041982368D+04
 Discarding MO integrals.

 **********************************************************************

            Population analysis using the SCF density.

 **********************************************************************

 Orbital symmetries:
       Occupied  (A") (A') (A') (A") (A') (A") (A') (A") (A') (A')
                 (A') (A') (A') (A") (A') (A") (A') (A") (A') (A')
                 (A") (A') (A') (A') (A') (A") (A') (A") (A') (A')
                 (A") (A") (A") (A') (A") (A') (A') (A') (A") (A")
                 (A') (A") (A') (A') (A") (A') (A") (A') (A') (A")
                 (A') (A") (A') (A") (A') (A") (A') (A') (A') (A")
                 (A') (A") (A') (A') (A') (A") (A") (A') (A') (A')
                 (A") (A') (A") (A") (A') (A') (A") (A')
       Virtual   (A') (A') (A") (A') (A") (A") (A') (A') (A') (A")
                 (A") (A') (A') (A") (A') (A") (A') (A') (A') (A")
                 (A') (A') (A") (A') (A") (A') (A') (A") (A") (A')
                 (A") (A") (A') (A') (A") (A') (A") (A') (A') (A")
                 (A") (A') (A') (A") (A') (A") (A') (A") (A') (A')
                 (A') (A") (A') (A") (A') (A") (A') (A") (A') (A')
                 (A") (A') (A") (A") (A') (A") (A') (A") (A') (A')
                 (A") (A') (A') (A") (A') (A") (A") (A') (A') (A")
                 (A') (A") (A") (A") (A') (A') (A") (A') (A') (A')
                 (A") (A') (A") (A') (A") (A') (A") (A') (A") (A')
                 (A") (A') (A') (A") (A") (A') (A') (A") (A') (A')
                 (A") (A') (A") (A') (A') (A") (A") (A") (A') (A')
                 (A") (A') (A') (A") (A") (A') (A') (A') (A") (A')
                 (A') (A") (A') (A") (A') (A") (A") (A") (A") (A')
                 (A') (A') (A") (A') (A") (A') (A') (A") (A') (A")
                 (A') (A") (A') (A') (A") (A') (A') (A') (A") (A")
                 (A') (A') (A") (A") (A") (A') (A") (A') (A') (A")
                 (A') (A') (A") (A') (A") (A') (A") (A') (A") (A")
                 (A') (A") (A') (A') (A") (A") (A') (A') (A') (A")
                 (A') (A") (A') (A") (A') (A') (A") (A') (A") (A')
                 (A") (A') (A") (A') (A") (A') (A") (A") (A') (A")
                 (A') (A') (A") (A') (A") (A') (A") (A") (A') (A")
                 (A') (A") (A') (A") (A") (A') (A') (A") (A") (A')
                 (A') (A') (A") (A') (A') (A') (A") (A') (A") (A')
                 (A") (A') (A") (A') (A") (A') (A') (A") (A') (A")
                 (A') (A") (A") (A') (A') (A') (A") (A") (A') (A')
                 (A") (A") (A') (A") (A') (A") (A') (A") (A') (A")
                 (A') (A') (A") (A") (A') (A') (A") (A") (A') (A")
                 (A") (A') (A') (A') (A") (A') (A") (A") (A') (A')
                 (A') (A") (A') (A') (A") (A") (A') (A") (A') (A")
                 (A') (A') (A") (A') (A") (A') (A') (A') (A') (A")
                 (A") (A') (A") (A') (A") (A') (A") (A') (A") (A")
                 (A') (A') (A') (A") (A") (A') (A') (A') (A") (A')
 The electronic state is 1-A'.
 Alpha  occ. eigenvalues --  -58.49035 -58.49035 -58.49023 -58.49023 -58.48658
 Alpha  occ. eigenvalues --  -58.48340 -58.48340 -58.47844 -58.47844 -58.47652
 Alpha  occ. eigenvalues --  -58.46793 -58.44048  -4.90203  -4.90196  -4.90158
 Alpha  occ. eigenvalues --   -4.90158  -4.89802  -4.89512  -4.89512  -4.89145
 Alpha  occ. eigenvalues --   -4.89144  -4.89088  -4.88230  -4.85770  -3.21478
 Alpha  occ. eigenvalues --   -3.21461  -3.21400  -3.21392  -3.21379  -3.21355
 Alpha  occ. eigenvalues --   -3.21355  -3.21331  -3.21312  -3.21311  -3.21231
 Alpha  occ. eigenvalues --   -3.21230  -3.21071  -3.20958  -3.20932  -3.20609
 Alpha  occ. eigenvalues --   -3.20609  -3.20569  -3.20569  -3.20489  -3.20489
 Alpha  occ. eigenvalues --   -3.20444  -3.20419  -3.20403  -3.20371  -3.20354
 Alpha  occ. eigenvalues --   -3.20330  -3.20322  -3.20294  -3.20272  -3.19529
 Alpha  occ. eigenvalues --   -3.19463  -3.19438  -3.17151  -3.17137  -3.17119
 Alpha  occ. eigenvalues --   -0.70113  -0.59614  -0.58104  -0.54443  -0.45148
 Alpha  occ. eigenvalues --   -0.44545  -0.42835  -0.39683  -0.37453  -0.32048
 Alpha  occ. eigenvalues --   -0.28646  -0.28039  -0.25328  -0.24366  -0.24355
 Alpha  occ. eigenvalues --   -0.24170  -0.23251  -0.22341
 Alpha virt. eigenvalues --   -0.02883  -0.01986  -0.01538  -0.00583   0.00475
 Alpha virt. eigenvalues --    0.01411   0.01833   0.03118   0.05438   0.05582
 Alpha virt. eigenvalues --    0.07474   0.07744   0.08445   0.08667   0.09606
 Alpha virt. eigenvalues --    0.10308   0.10779   0.11904   0.12712   0.13172
 Alpha virt. eigenvalues --    0.13613   0.14100   0.14182   0.15083   0.16882
 Alpha virt. eigenvalues --    0.17078   0.17291   0.17527   0.18465   0.18557
 Alpha virt. eigenvalues --    0.18742   0.19402   0.19454   0.19797   0.19979
 Alpha virt. eigenvalues --    0.20294   0.21232   0.22118   0.22787   0.22787
 Alpha virt. eigenvalues --    0.23543   0.23918   0.24052   0.24344   0.24786
 Alpha virt. eigenvalues --    0.25876   0.26115   0.26284   0.26930   0.27893
 Alpha virt. eigenvalues --    0.28161   0.28191   0.28616   0.28933   0.29414
 Alpha virt. eigenvalues --    0.29777   0.31134   0.31363   0.32555   0.33488
 Alpha virt. eigenvalues --    0.34179   0.34299   0.34749   0.35476   0.36540
 Alpha virt. eigenvalues --    0.36565   0.36886   0.37249   0.37569   0.38006
 Alpha virt. eigenvalues --    0.39002   0.39065   0.39448   0.40055   0.40192
 Alpha virt. eigenvalues --    0.40593   0.42596   0.42600   0.42977   0.43718
 Alpha virt. eigenvalues --    0.44015   0.44602   0.46918   0.47136   0.47561
 Alpha virt. eigenvalues --    0.48598   0.48986   0.49509   0.49605   0.50485
 Alpha virt. eigenvalues --    0.50861   0.51082   0.52124   0.52380   0.52698
 Alpha virt. eigenvalues --    0.53277   0.54637   0.54675   0.55279   0.55747
 Alpha virt. eigenvalues --    0.56343   0.56763   0.57815   0.58210   0.59001
 Alpha virt. eigenvalues --    0.59157   0.59902   0.60105   0.60768   0.61185
 Alpha virt. eigenvalues --    0.61532   0.62067   0.63185   0.63213   0.63979
 Alpha virt. eigenvalues --    0.64938   0.65132   0.65801   0.65824   0.66236
 Alpha virt. eigenvalues --    0.66976   0.67285   0.68249   0.69113   0.69834
 Alpha virt. eigenvalues --    0.70275   0.71194   0.71628   0.71873   0.72085
 Alpha virt. eigenvalues --    0.73550   0.73800   0.74409   0.74705   0.75349
 Alpha virt. eigenvalues --    0.76969   0.77749   0.78669   0.79558   0.80148
 Alpha virt. eigenvalues --    0.81283   0.81923   0.81945   0.83207   0.83474
 Alpha virt. eigenvalues --    0.84334   0.84766   0.85780   0.86308   0.86818
 Alpha virt. eigenvalues --    0.88322   0.88887   0.89120   0.90240   0.90820
 Alpha virt. eigenvalues --    0.91278   0.91916   0.92571   0.92733   0.92942
 Alpha virt. eigenvalues --    0.93285   0.93757   0.93833   0.93966   0.95408
 Alpha virt. eigenvalues --    0.95418   0.96024   0.96627   0.97350   0.97868
 Alpha virt. eigenvalues --    0.98323   0.99006   0.99338   0.99459   1.00197
 Alpha virt. eigenvalues --    1.00669   1.00720   1.02040   1.02199   1.02401
 Alpha virt. eigenvalues --    1.03443   1.04216   1.04523   1.04932   1.05812
 Alpha virt. eigenvalues --    1.06572   1.06640   1.07601   1.07867   1.08668
 Alpha virt. eigenvalues --    1.09203   1.09622   1.10151   1.10454   1.11098
 Alpha virt. eigenvalues --    1.12534   1.12783   1.13566   1.13711   1.14251
 Alpha virt. eigenvalues --    1.15222   1.16128   1.16231   1.16756   1.16875
 Alpha virt. eigenvalues --    1.17649   1.18648   1.19225   1.19884   1.20346
 Alpha virt. eigenvalues --    1.21056   1.21805   1.21935   1.22169   1.23300
 Alpha virt. eigenvalues --    1.24277   1.24718   1.25102   1.25160   1.27721
 Alpha virt. eigenvalues --    1.28248   1.29166   1.29352   1.30340   1.31384
 Alpha virt. eigenvalues --    1.31399   1.32776   1.32824   1.34581   1.34851
 Alpha virt. eigenvalues --    1.35730   1.36117   1.36374   1.37639   1.38927
 Alpha virt. eigenvalues --    1.39257   1.40383   1.40683   1.40923   1.42304
 Alpha virt. eigenvalues --    1.42973   1.44137   1.44465   1.44608   1.45411
 Alpha virt. eigenvalues --    1.45527   1.46514   1.47075   1.47585   1.48294
 Alpha virt. eigenvalues --    1.48805   1.49037   1.49287   1.49472   1.49881
 Alpha virt. eigenvalues --    1.52169   1.52845   1.52908   1.53825   1.54282
 Alpha virt. eigenvalues --    1.55157   1.55404   1.56323   1.56715   1.56954
 Alpha virt. eigenvalues --    1.57278   1.58366   1.59362   1.60868   1.60920
 Alpha virt. eigenvalues --    1.62072   1.63377   1.64104   1.64891   1.65532
 Alpha virt. eigenvalues --    1.66048   1.66610   1.67516   1.68621   1.69014
 Alpha virt. eigenvalues --    1.70079   1.71020   2.38792   2.45233   2.49092
 Alpha virt. eigenvalues --    2.51371   2.52859   2.54271   2.55204   2.57171
 Alpha virt. eigenvalues --    2.58094   2.59105   2.60944   2.65893   2.66225
 Alpha virt. eigenvalues --    2.67773   2.69813   2.71561   2.71863   2.72919
 Alpha virt. eigenvalues --    2.73629   2.75506   2.76067   2.77599   2.80945
 Alpha virt. eigenvalues --    2.81888   2.88071   2.93787   2.96566   2.96788
 Alpha virt. eigenvalues --    3.05350   3.06774   3.07551   3.15002   3.15438
 Alpha virt. eigenvalues --    3.17777   3.21038   3.24515   3.28063   3.42669
 Alpha virt. eigenvalues --    3.44291   3.55549   3.64020   3.69792   3.76539
 Alpha virt. eigenvalues --    3.78230   4.06670   4.08505   4.24778   5.68377
          Condensed to atoms (all electrons):
               1          2          3          4          5          6
     1  Al  12.003081   0.355481   0.270011  -0.037024  -0.024209  -0.028749
     2  Al   0.355481  11.904924  -0.028016  -0.001381   0.355481   0.379431
     3  Al   0.270011  -0.028016  12.128744   0.179610  -0.001704   0.265802
     4  Al  -0.037024  -0.001381   0.179610  11.998945  -0.002974  -0.022028
     5  Al  -0.024209   0.355481  -0.001704  -0.002974  12.003081  -0.028749
     6  Al  -0.028749   0.379431   0.265802  -0.022028  -0.028749  11.963413
     7  Al  -0.016429  -0.008949   0.283280   0.204449  -0.016429   0.199537
     8  Al  -0.001704  -0.028016  -0.022046  -0.015829   0.270011   0.265802
     9  Al   0.356930  -0.019635   0.043430   0.354948  -0.000422  -0.012748
    10  Al  -0.000422  -0.019635  -0.000978  -0.016838   0.356930  -0.012748
    11  Al  -0.002974  -0.001381  -0.015829   0.305392  -0.037024  -0.022028
    12  Al   0.096245   0.082425  -0.027518   0.078757   0.096245   0.086741
               7          8          9         10         11         12
     1  Al  -0.016429  -0.001704   0.356930  -0.000422  -0.002974   0.096245
     2  Al  -0.008949  -0.028016  -0.019635  -0.019635  -0.001381   0.082425
     3  Al   0.283280  -0.022046   0.043430  -0.000978  -0.015829  -0.027518
     4  Al   0.204449  -0.015829   0.354948  -0.016838   0.305392   0.078757
     5  Al  -0.016429   0.270011  -0.000422   0.356930  -0.037024   0.096245
     6  Al   0.199537   0.265802  -0.012748  -0.012748  -0.022028   0.086741
     7  Al  11.924210   0.283280  -0.020016  -0.020016   0.204449   0.049771
     8  Al   0.283280  12.128744  -0.000978   0.043430   0.179610  -0.027518
     9  Al  -0.020016  -0.000978  12.172843  -0.004896  -0.016838   0.126416
    10  Al  -0.020016   0.043430  -0.004896  12.172843   0.354948   0.126416
    11  Al   0.204449   0.179610  -0.016838   0.354948  11.998945   0.078757
    12  Al   0.049771  -0.027518   0.126416   0.126416   0.078757  12.061550
 Mulliken charges:
               1
     1  Al   0.029762
     2  Al   0.029270
     3  Al  -0.074786
     4  Al  -0.026028
     5  Al   0.029762
     6  Al  -0.033676
     7  Al  -0.067137
     8  Al  -0.074786
     9  Al   0.020967
    10  Al   0.020967
    11  Al  -0.026028
    12  Al   0.171715
 Sum of Mulliken charges =   0.00000
 Mulliken charges with hydrogens summed into heavy atoms:
               1
     1  Al   0.029762
     2  Al   0.029270
     3  Al  -0.074786
     4  Al  -0.026028
     5  Al   0.029762
     6  Al  -0.033676
     7  Al  -0.067137
     8  Al  -0.074786
     9  Al   0.020967
    10  Al   0.020967
    11  Al  -0.026028
    12  Al   0.171715
 Electronic spatial extent (au):  <R**2>=           4234.5844
 Charge=              0.0000 electrons
 Dipole moment (field-independent basis, Debye):
    X=             -0.6349    Y=             -0.8912    Z=              0.0000  Tot=              1.0942
 Quadrupole moment (field-independent basis, Debye-Ang):
   XX=           -154.6409   YY=           -154.9631   ZZ=           -157.4461
   XY=              2.6816   XZ=              0.0000   YZ=              0.0000
 Traceless Quadrupole moment (field-independent basis, Debye-Ang):
   XX=              1.0425   YY=              0.7203   ZZ=             -1.7627
   XY=              2.6816   XZ=              0.0000   YZ=              0.0000
 Octapole moment (field-independent basis, Debye-Ang**2):
  XXX=             -1.5603  YYY=            -10.2694  ZZZ=              0.0000  XYY=             -4.6015
  XXY=             -3.4648  XXZ=              0.0000  XZZ=             -2.3480  YZZ=            -13.9203
  YYZ=              0.0000  XYZ=              0.0000
 Hexadecapole moment (field-independent basis, Debye-Ang**3):
 XXXX=          -2726.8661 YYYY=          -1729.8378 ZZZZ=          -3315.9430 XXXY=             35.6564
 XXXZ=              0.0000 YYYX=             -0.3912 YYYZ=              0.0000 ZZZX=              0.0000
 ZZZY=              0.0000 XXYY=           -781.9062 XXZZ=          -1011.3878 YYZZ=           -854.0266
 XXYZ=              0.0000 YYXZ=              0.0000 ZZXY=             13.0416
 N-N= 1.703390554267D+03 E-N=-1.035070541814D+04  KE= 2.903173611394D+03
 Symmetry A'   KE= 1.854754859384D+03
 Symmetry A"   KE= 1.048418752010D+03

 Test job not archived.
 1\1\GINC-R1I1N4\SP\RCCSD(T)-FC\CC-pVTZ\Al12\VSC31064\03-Oct-2016\0\\# 
 CCSD(T,conver=5)/cc-pVTZ test geom=allcheck guess=read\\Al12-n-s\\0,1\
 Al,0,1.709092,-0.778911,-2.237397\Al,0,2.907028,-0.069936,0.\Al,0,-0.1
 09441,1.238859,-2.156306\Al,0,-2.378381,-0.218961,-1.328882\Al,0,1.709
 092,-0.778911,2.237397\Al,0,1.290704,1.84775,0.\Al,0,-1.35961,1.846563
 ,0.\Al,0,-0.109441,1.238859,2.156306\Al,0,-0.66504,-1.696405,-2.587359
 \Al,0,-0.66504,-1.696405,2.587359\Al,0,-2.378381,-0.218961,1.328882\Al
 ,0,0.049417,-0.713541,0.\\Version=ES64L-G09RevD.01\State=1-A'\HF=-2903
 .0414553\MP2=-2904.1501712\MP3=-2904.0178966\MP4D=-2904.1585799\MP4DQ=
 -2904.0802836\MP4SDQ=-2904.1038453\CCSD=-2904.0587043\CCSD(T)=-2904.19
 82368\RMSD=6.929e-09\PG=CS [SG(Al4),X(Al8)]\\@


 IF IT'S NOT TRUE, IT'S WELL INVENTED -- DANTE
 Job cpu time:       1 days  3 hours  7 minutes 35.7 seconds.
 File lengths (MBytes):  RWF=  16538 Int=      0 D2E=      0 Chk=      8 Scr=      1
 Normal termination of Gaussian 09 at Mon Oct  3 20:48:23 2016.
