 Entering Gaussian System, Link 0=g09
 Initial command:
 /apps/leuven/thinking/software/G09//g09D1/l1.exe "/local_scratch/vsc31064/Gau-64042.inp" -scrdir="/local_scratch/vsc31064/"
 Entering Link 1 = /apps/leuven/thinking/software/G09//g09D1/l1.exe PID=     64043.
  
 Copyright (c) 1988,1990,1992,1993,1995,1998,2003,2009,2013,
            Gaussian, Inc.  All Rights Reserved.
  
 This is part of the Gaussian(R) 09 program.  It is based on
 the Gaussian(R) 03 system (copyright 2003, Gaussian, Inc.),
 the Gaussian(R) 98 system (copyright 1998, Gaussian, Inc.),
 the Gaussian(R) 94 system (copyright 1995, Gaussian, Inc.),
 the Gaussian 92(TM) system (copyright 1992, Gaussian, Inc.),
 the Gaussian 90(TM) system (copyright 1990, Gaussian, Inc.),
 the Gaussian 88(TM) system (copyright 1988, Gaussian, Inc.),
 the Gaussian 86(TM) system (copyright 1986, Carnegie Mellon
 University), and the Gaussian 82(TM) system (copyright 1983,
 Carnegie Mellon University). Gaussian is a federally registered
 trademark of Gaussian, Inc.
  
 This software contains proprietary and confidential information,
 including trade secrets, belonging to Gaussian, Inc.
  
 This software is provided under written license and may be
 used, copied, transmitted, or stored only in accord with that
 written license.
  
 The following legend is applicable only to US Government
 contracts under FAR:
  
                    RESTRICTED RIGHTS LEGEND
  
 Use, reproduction and disclosure by the US Government is
 subject to restrictions as set forth in subparagraphs (a)
 and (c) of the Commercial Computer Software - Restricted
 Rights clause in FAR 52.227-19.
  
 Gaussian, Inc.
 340 Quinnipiac St., Bldg. 40, Wallingford CT 06492
  
  
 ---------------------------------------------------------------
 Warning -- This program may not be used in any manner that
 competes with the business of Gaussian, Inc. or will provide
 assistance to any competitor of Gaussian, Inc.  The licensee
 of this program is prohibited from giving any competitor of
 Gaussian, Inc. access to this program.  By using this program,
 the user acknowledges that Gaussian, Inc. is engaged in the
 business of creating and licensing software in the field of
 computational chemistry and represents and warrants to the
 licensee that it is not a competitor of Gaussian, Inc. and that
 it will not use this program in any manner prohibited above.
 ---------------------------------------------------------------
  

 Cite this work as:
 Gaussian 09, Revision D.01,
 M. J. Frisch, G. W. Trucks, H. B. Schlegel, G. E. Scuseria, 
 M. A. Robb, J. R. Cheeseman, G. Scalmani, V. Barone, B. Mennucci, 
 G. A. Petersson, H. Nakatsuji, M. Caricato, X. Li, H. P. Hratchian, 
 A. F. Izmaylov, J. Bloino, G. Zheng, J. L. Sonnenberg, M. Hada, 
 M. Ehara, K. Toyota, R. Fukuda, J. Hasegawa, M. Ishida, T. Nakajima, 
 Y. Honda, O. Kitao, H. Nakai, T. Vreven, J. A. Montgomery, Jr., 
 J. E. Peralta, F. Ogliaro, M. Bearpark, J. J. Heyd, E. Brothers, 
 K. N. Kudin, V. N. Staroverov, T. Keith, R. Kobayashi, J. Normand, 
 K. Raghavachari, A. Rendell, J. C. Burant, S. S. Iyengar, J. Tomasi, 
 M. Cossi, N. Rega, J. M. Millam, M. Klene, J. E. Knox, J. B. Cross, 
 V. Bakken, C. Adamo, J. Jaramillo, R. Gomperts, R. E. Stratmann, 
 O. Yazyev, A. J. Austin, R. Cammi, C. Pomelli, J. W. Ochterski, 
 R. L. Martin, K. Morokuma, V. G. Zakrzewski, G. A. Voth, 
 P. Salvador, J. J. Dannenberg, S. Dapprich, A. D. Daniels, 
 O. Farkas, J. B. Foresman, J. V. Ortiz, J. Cioslowski, 
 and D. J. Fox, Gaussian, Inc., Wallingford CT, 2013.
 
 ******************************************
 Gaussian 09:  ES64L-G09RevD.01 24-Apr-2013
                 3-Oct-2016 
 ******************************************
 %NprocShared=20
 Will use up to   20 processors via shared memory.
 %mem=55000mb
 %chk=cc-Al12-n-s-3
 ------------------------
 # hf/6-31G* test scf=xqc
 ------------------------
 1/38=1/1;
 2/12=2,17=6,18=5,40=1/2;
 3/5=1,6=6,7=1,11=9,16=1,25=1,30=1/1,2,3;
 4//1;
 5/5=2,8=3,13=1,38=5/2,8;
 6/7=2,8=2,9=2,10=2,28=1/1;
 99/5=1,9=1/99;
 ----------
 Al12-n-s-3
 ----------
 Symbolic Z-matrix:
 Charge =  0 Multiplicity = 1
 Al                    2.20499   1.46229  -1.37527 
 Al                   -2.21008   1.45363  -1.37605 
 Al                   -0.00494   2.69077  -0.34712 
 Al                    2.43264   0.80012   1.16637 
 Al                   -2.23551  -1.18722  -1.2776 
 Al                   -2.4328    0.79905   1.16751 
 Al                    0.00026   1.02562   1.93697 
 Al                   -1.349    -1.5479    1.38367 
 Al                    2.23918  -1.17907  -1.27835 
 Al                    0.00372  -2.79027  -0.84634 
 Al                    1.35165  -1.5483    1.38202 
 Al                   -0.00012   0.02129  -0.53582 
 
                          Input orientation:                          
 ---------------------------------------------------------------------
 Center     Atomic      Atomic             Coordinates (Angstroms)
 Number     Number       Type             X           Y           Z
 ---------------------------------------------------------------------
      1         13           0        2.204987    1.462288   -1.375265
      2         13           0       -2.210084    1.453632   -1.376051
      3         13           0       -0.004942    2.690771   -0.347123
      4         13           0        2.432644    0.800121    1.166367
      5         13           0       -2.235509   -1.187222   -1.277602
      6         13           0       -2.432795    0.799048    1.167512
      7         13           0        0.000264    1.025622    1.936969
      8         13           0       -1.348999   -1.547898    1.383673
      9         13           0        2.239179   -1.179071   -1.278347
     10         13           0        0.003721   -2.790272   -0.846340
     11         13           0        1.351650   -1.548304    1.382020
     12         13           0       -0.000116    0.021285   -0.535815
 ---------------------------------------------------------------------
                    Distance matrix (angstroms):
                    1          2          3          4          5
     1  Al   0.000000
     2  Al   4.415080   0.000000
     3  Al   2.729475   2.729809   0.000000
     4  Al   2.636321   5.333469   3.436137   0.000000
     5  Al   5.171793   2.642811   4.569469   5.631533   0.000000
     6  Al   5.330537   2.635867   3.430336   4.865439   3.156386
     7  Al   4.002796   4.005613   2.826628   2.561474   4.497647
     8  Al   5.413296   4.167340   4.771631   4.456595   2.828139
     9  Al   2.643358   5.170746   4.569347   3.151390   4.474695
    10  Al   4.817634   4.815833   5.503737   4.779286   2.787455
    11  Al   4.170668   5.413365   4.774938   2.594254   4.480143
    12  Al   2.764714   2.764340   2.676151   3.069581   2.647210
                    6          7          8          9         10
     6  Al   0.000000
     7  Al   2.561870   0.000000
     8  Al   2.594127   2.957981   0.000000
     9  Al   5.632275   4.495739   4.483013   0.000000
    10  Al   4.782826   4.723121   2.888997   2.789242   0.000000
    11  Al   4.458486   2.959613   2.700650   2.828709   2.885305
    12  Al   3.069880   2.668961   2.822455   2.647008   2.828656
                   11         12
    11  Al   0.000000
    12  Al   2.822937   0.000000
 Stoichiometry    Al12
 Framework group  C1[X(Al12)]
 Deg. of freedom    30
 Full point group                 C1      NOp   1
 Largest Abelian subgroup         C1      NOp   1
 Largest concise Abelian subgroup C1      NOp   1
                         Standard orientation:                         
 ---------------------------------------------------------------------
 Center     Atomic      Atomic             Coordinates (Angstroms)
 Number     Number       Type             X           Y           Z
 ---------------------------------------------------------------------
      1         13           0       -2.204986   -1.462289   -1.375265
      2         13           0        2.210085   -1.453631   -1.376051
      3         13           0        0.004943   -2.690771   -0.347123
      4         13           0       -2.432644   -0.800122    1.166367
      5         13           0        2.235508    1.187223   -1.277602
      6         13           0        2.432795   -0.799047    1.167512
      7         13           0       -0.000263   -1.025622    1.936969
      8         13           0        1.348998    1.547899    1.383673
      9         13           0       -2.239180    1.179070   -1.278347
     10         13           0       -0.003722    2.790272   -0.846340
     11         13           0       -1.351651    1.548303    1.382020
     12         13           0        0.000116   -0.021285   -0.535815
 ---------------------------------------------------------------------
 Rotational constants (GHZ):      0.3928697      0.3486960      0.2906571
 Standard basis: 6-31G(d) (6D, 7F)
 There are   228 symmetry adapted cartesian basis functions of A   symmetry.
 There are   228 symmetry adapted basis functions of A   symmetry.
   228 basis functions,   624 primitive gaussians,   228 cartesian basis functions
    78 alpha electrons       78 beta electrons
       nuclear repulsion energy      1700.8880594748 Hartrees.
 NAtoms=   12 NActive=   12 NUniq=   12 SFac= 1.00D+00 NAtFMM=   60 NAOKFM=F Big=F
 Integral buffers will be    131072 words long.
 Raffenetti 1 integral format.
 Two-electron integral symmetry is turned on.
 One-electron integrals computed using PRISM.
 NBasis=   228 RedAO= T EigKep=  1.11D-03  NBF=   228
 NBsUse=   228 1.00D-06 EigRej= -1.00D+00 NBFU=   228
 ExpMin= 5.57D-02 ExpMax= 1.40D+04 ExpMxC= 2.10D+03 IAcc=2 IRadAn=         4 AccDes= 0.00D+00
 Harris functional with IExCor=  205 and IRadAn=       4 diagonalized for initial guess.
 HarFok:  IExCor=  205 AccDes= 0.00D+00 IRadAn=         4 IDoV= 1 UseB2=F ITyADJ=14
 ICtDFT=  3500011 ScaDFX=  1.000000  1.000000  1.000000  1.000000
 FoFCou: FMM=F IPFlag=           0 FMFlag=      100000 FMFlg1=           0
         NFxFlg=           0 DoJE=T BraDBF=F KetDBF=T FulRan=T
         wScrn=  0.000000 ICntrl=     500 IOpCl=  0 I1Cent=   200000004 NGrid=           0
         NMat0=    1 NMatS0=      1 NMatT0=    0 NMatD0=    1 NMtDS0=    0 NMtDT0=    0
 Petite list used in FoFCou.
 Keep R1 ints in memory in canonical form, NReq=346947185.
 Requested convergence on RMS density matrix=1.00D-08 within  64 cycles.
 Requested convergence on MAX density matrix=1.00D-06.
 Requested convergence on             energy=1.00D-06.
 No special actions if energy rises.
 SCF Done:  E(RHF) =  -2902.75755413     A.U. after   23 cycles
            NFock= 23  Conv=0.63D-08     -V/T= 2.0002
 QCSCF skips out because SCF is already converged.

 **********************************************************************

            Population analysis using the SCF density.

 **********************************************************************

 Orbital symmetries:
       Occupied  (A) (A) (A) (A) (A) (A) (A) (A) (A) (A) (A) (A)
                 (A) (A) (A) (A) (A) (A) (A) (A) (A) (A) (A) (A)
                 (A) (A) (A) (A) (A) (A) (A) (A) (A) (A) (A) (A)
                 (A) (A) (A) (A) (A) (A) (A) (A) (A) (A) (A) (A)
                 (A) (A) (A) (A) (A) (A) (A) (A) (A) (A) (A) (A)
                 (A) (A) (A) (A) (A) (A) (A) (A) (A) (A) (A) (A)
                 (A) (A) (A) (A) (A) (A)
       Virtual   (A) (A) (A) (A) (A) (A) (A) (A) (A) (A) (A) (A)
                 (A) (A) (A) (A) (A) (A) (A) (A) (A) (A) (A) (A)
                 (A) (A) (A) (A) (A) (A) (A) (A) (A) (A) (A) (A)
                 (A) (A) (A) (A) (A) (A) (A) (A) (A) (A) (A) (A)
                 (A) (A) (A) (A) (A) (A) (A) (A) (A) (A) (A) (A)
                 (A) (A) (A) (A) (A) (A) (A) (A) (A) (A) (A) (A)
                 (A) (A) (A) (A) (A) (A) (A) (A) (A) (A) (A) (A)
                 (A) (A) (A) (A) (A) (A) (A) (A) (A) (A) (A) (A)
                 (A) (A) (A) (A) (A) (A) (A) (A) (A) (A) (A) (A)
                 (A) (A) (A) (A) (A) (A) (A) (A) (A) (A) (A) (A)
                 (A) (A) (A) (A) (A) (A) (A) (A) (A) (A) (A) (A)
                 (A) (A) (A) (A) (A) (A) (A) (A) (A) (A) (A) (A)
                 (A) (A) (A) (A) (A) (A)
 The electronic state is 1-A.
 Alpha  occ. eigenvalues --  -58.48975 -58.48519 -58.48515 -58.48240 -58.48237
 Alpha  occ. eigenvalues --  -58.48150 -58.47953 -58.47950 -58.47428 -58.47425
 Alpha  occ. eigenvalues --  -58.46998 -58.42256  -4.90686  -4.90423  -4.90418
 Alpha  occ. eigenvalues --   -4.90106  -4.90104  -4.90060  -4.90054  -4.89984
 Alpha  occ. eigenvalues --   -4.89525  -4.89522  -4.89250  -4.85379  -3.21804
 Alpha  occ. eigenvalues --   -3.21704  -3.21701  -3.21499  -3.21494  -3.21487
 Alpha  occ. eigenvalues --   -3.21482  -3.21363  -3.21358  -3.21244  -3.21243
 Alpha  occ. eigenvalues --   -3.21162  -3.21161  -3.21159  -3.21153  -3.21140
 Alpha  occ. eigenvalues --   -3.21120  -3.21092  -3.21090  -3.21063  -3.21031
 Alpha  occ. eigenvalues --   -3.21019  -3.21018  -3.20915  -3.20677  -3.20674
 Alpha  occ. eigenvalues --   -3.20576  -3.20574  -3.20534  -3.20510  -3.20494
 Alpha  occ. eigenvalues --   -3.20415  -3.20391  -3.16707  -3.16687  -3.16678
 Alpha  occ. eigenvalues --   -0.70949  -0.60339  -0.58344  -0.54704  -0.44744
 Alpha  occ. eigenvalues --   -0.44611  -0.44087  -0.39907  -0.39054  -0.30978
 Alpha  occ. eigenvalues --   -0.27427  -0.26726  -0.25943  -0.25492  -0.25111
 Alpha  occ. eigenvalues --   -0.24510  -0.23398  -0.22738
 Alpha virt. eigenvalues --   -0.04832  -0.02277  -0.01592  -0.00848  -0.00307
 Alpha virt. eigenvalues --   -0.00253   0.00505   0.04220   0.04539   0.05995
 Alpha virt. eigenvalues --    0.06751   0.06812   0.08419   0.09722   0.09751
 Alpha virt. eigenvalues --    0.11276   0.11303   0.12085   0.13015   0.13394
 Alpha virt. eigenvalues --    0.14049   0.14218   0.15305   0.15667   0.16488
 Alpha virt. eigenvalues --    0.17640   0.18893   0.19185   0.19488   0.20380
 Alpha virt. eigenvalues --    0.20867   0.23823   0.23836   0.24512   0.24753
 Alpha virt. eigenvalues --    0.25566   0.26059   0.26508   0.27030   0.28134
 Alpha virt. eigenvalues --    0.28754   0.29199   0.30059   0.31384   0.32544
 Alpha virt. eigenvalues --    0.33835   0.34194   0.36547   0.36795   0.37147
 Alpha virt. eigenvalues --    0.37263   0.38456   0.38649   0.38722   0.39612
 Alpha virt. eigenvalues --    0.40449   0.40874   0.41731   0.43529   0.43710
 Alpha virt. eigenvalues --    0.44055   0.44746   0.45263   0.45950   0.46207
 Alpha virt. eigenvalues --    0.46364   0.46963   0.48413   0.49238   0.49863
 Alpha virt. eigenvalues --    0.51143   0.51157   0.52809   0.53632   0.54809
 Alpha virt. eigenvalues --    0.56834   0.57936   0.58581   0.59705   0.60309
 Alpha virt. eigenvalues --    0.62464   0.62493   0.63278   0.63393   0.64285
 Alpha virt. eigenvalues --    0.65440   0.65618   0.66406   0.67027   0.68670
 Alpha virt. eigenvalues --    0.68838   0.70264   0.70938   0.71500   0.73711
 Alpha virt. eigenvalues --    0.74943   0.76256   0.77262   0.78038   0.78360
 Alpha virt. eigenvalues --    0.79046   0.80526   0.81294   0.82049   0.83948
 Alpha virt. eigenvalues --    0.84086   0.85098   0.85150   0.86975   0.87220
 Alpha virt. eigenvalues --    0.87981   0.88240   0.88794   0.90999   0.91396
 Alpha virt. eigenvalues --    0.92190   0.92826   0.94146   0.94833   0.96047
 Alpha virt. eigenvalues --    0.96496   0.99081   0.99145   1.00989   1.02730
 Alpha virt. eigenvalues --    1.03808   1.04276   1.05617   1.07408   1.08028
 Alpha virt. eigenvalues --    1.08287   1.10769   1.11981   1.11986   1.12947
 Alpha virt. eigenvalues --    1.14792   1.28069   1.59383   2.27219   2.30065
 Alpha virt. eigenvalues --    2.31236   2.31733   2.34583   2.35814   2.36722
 Alpha virt. eigenvalues --    2.38211   2.38395   2.43032   2.44789   2.58464
          Condensed to atoms (all electrons):
               1          2          3          4          5          6
     1  Al  13.184936  -0.042892   0.155680  -0.059723  -0.049891   0.016688
     2  Al  -0.042892  13.186851   0.156647   0.016440   0.214674  -0.060230
     3  Al   0.155680   0.156647  12.919127  -0.042293   0.026377  -0.043324
     4  Al  -0.059723   0.016440  -0.042293  13.109268   0.000946   0.020334
     5  Al  -0.049891   0.214674   0.026377   0.000946  13.255344  -0.022452
     6  Al   0.016688  -0.060230  -0.043324   0.020334  -0.022452  13.108501
     7  Al   0.061140   0.060835   0.135282  -0.039851  -0.012924  -0.038912
     8  Al  -0.016181   0.033072   0.018619   0.035488   0.071798  -0.043562
     9  Al   0.214727  -0.050103   0.026508  -0.023936   0.012486   0.000918
    10  Al   0.020054   0.020123  -0.016449   0.021159   0.117262   0.021120
    11  Al   0.032569  -0.016159   0.018355  -0.042020  -0.002811   0.035518
    12  Al  -0.618441  -0.620182  -0.463980  -0.062042  -0.693273  -0.061249
               7          8          9         10         11         12
     1  Al   0.061140  -0.016181   0.214727   0.020054   0.032569  -0.618441
     2  Al   0.060835   0.033072  -0.050103   0.020123  -0.016159  -0.620182
     3  Al   0.135282   0.018619   0.026508  -0.016449   0.018355  -0.463980
     4  Al  -0.039851   0.035488  -0.023936   0.021159  -0.042020  -0.062042
     5  Al  -0.012924   0.071798   0.012486   0.117262  -0.002811  -0.693273
     6  Al  -0.038912  -0.043562   0.000918   0.021120   0.035518  -0.061249
     7  Al  13.386600  -0.001996  -0.012376   0.008335  -0.002118  -0.414820
     8  Al  -0.001996  13.365949  -0.002615  -0.030568  -0.018624  -0.399653
     9  Al  -0.012376  -0.002615  13.258555   0.116526   0.071922  -0.694995
    10  Al   0.008335  -0.030568   0.116526  13.052067  -0.029640  -0.350681
    11  Al  -0.002118  -0.018624   0.071922  -0.029640  13.364782  -0.399363
    12  Al  -0.414820  -0.399653  -0.694995  -0.350681  -0.399363  18.285479
 Mulliken charges:
               1
     1  Al   0.101333
     2  Al   0.100924
     3  Al   0.109452
     4  Al   0.066230
     5  Al   0.082464
     6  Al   0.066650
     7  Al  -0.129194
     8  Al  -0.011727
     9  Al   0.082383
    10  Al   0.050694
    11  Al  -0.012411
    12  Al  -0.506798
 Sum of Mulliken charges =   0.00000
 Mulliken charges with hydrogens summed into heavy atoms:
               1
     1  Al   0.101333
     2  Al   0.100924
     3  Al   0.109452
     4  Al   0.066230
     5  Al   0.082464
     6  Al   0.066650
     7  Al  -0.129194
     8  Al  -0.011727
     9  Al   0.082383
    10  Al   0.050694
    11  Al  -0.012411
    12  Al  -0.506798
 Electronic spatial extent (au):  <R**2>=           4202.0022
 Charge=              0.0000 electrons
 Dipole moment (field-independent basis, Debye):
    X=              0.0017    Y=             -0.0558    Z=              1.0481  Tot=              1.0496
 Quadrupole moment (field-independent basis, Debye-Ang):
   XX=           -154.6959   YY=           -164.1422   ZZ=           -155.5154
   XY=              0.0030   XZ=             -0.0203   YZ=              1.8340
 Traceless Quadrupole moment (field-independent basis, Debye-Ang):
   XX=              3.4219   YY=             -6.0243   ZZ=              2.6024
   XY=              0.0030   XZ=             -0.0203   YZ=              1.8340
 Octapole moment (field-independent basis, Debye-Ang**2):
  XXX=             -0.0210  YYY=             -9.1787  ZZZ=             10.8860  XYY=              0.0295
  XXY=             -5.5437  XXZ=              5.7635  XZZ=              0.0535  YZZ=             -3.2448
  YYZ=              7.0521  XYZ=             -0.0304
 Hexadecapole moment (field-independent basis, Debye-Ang**3):
 XXXX=          -3125.6669 YYYY=          -2872.5730 ZZZZ=          -1834.7102 XXXY=              0.0514
 XXXZ=             -0.3753 YYYX=              0.0419 YYYZ=             25.5520 ZZZX=             -0.1657
 ZZZY=             12.4951 XXYY=           -992.4313 XXZZ=           -817.5312 YYZZ=           -786.5628
 XXYZ=              4.3482 YYXZ=             -0.0113 ZZXY=              0.0513
 N-N= 1.700888059475D+03 E-N=-1.034389925915D+04  KE= 2.902220740535D+03

 Test job not archived.
 1\1\GINC-R1I0N10\SP\RHF\6-31G(d)\Al12\VSC31064\03-Oct-2016\0\\# hf/6-3
 1G* test scf=xqc\\Al12-n-s-3\\0,1\Al,0,2.204987,1.462288,-1.375265\Al,
 0,-2.210084,1.453632,-1.376051\Al,0,-0.004942,2.690771,-0.347123\Al,0,
 2.432644,0.800121,1.166367\Al,0,-2.235509,-1.187222,-1.277602\Al,0,-2.
 432795,0.799048,1.167512\Al,0,0.000264,1.025622,1.936969\Al,0,-1.34899
 9,-1.547898,1.383673\Al,0,2.239179,-1.179071,-1.278347\Al,0,0.003721,-
 2.790272,-0.84634\Al,0,1.35165,-1.548304,1.38202\Al,0,-0.000116,0.0212
 85,-0.535815\\Version=ES64L-G09RevD.01\State=1-A\HF=-2902.7575541\RMSD
 =6.289e-09\Dipole=-0.000656,0.0219617,0.412364\Quadrupole=2.5441063,-4
 .478951,1.9348447,0.0022259,0.0151134,-1.3635144\PG=C01 [X(Al12)]\\@


 PENOTUS DIED A HUNDRED YEARS OLD WANTING BUT TWO...
 AND HE USED TO SAY BEFORE HE DIED, HAVING SPENT HIS
 WHOLE LIFE IN VAINLY SEARCHING AFTER THE PHILOSOPHER'S
 STONE, THAT IF HE HAD A MORTAL ENEMY HE DID NOT DARE
 TO ENCOUNTER OPENLY, HE WOULD ADVISE HIM ABOVE ALL
 THINGS TO GIVE HIMSELF UP TO THE STUDY AND PRACTICE
 OF ALCHEMY.  --  NICOLAS LEMERY, M.D.
 "A COURSE OF CHYMISTRY", WALTER KETTILBY, LONDON, 1686
 Job cpu time:       0 days  0 hours  1 minutes 32.5 seconds.
 File lengths (MBytes):  RWF=     21 Int=      0 D2E=      0 Chk=      3 Scr=      1
 Normal termination of Gaussian 09 at Mon Oct  3 19:30:12 2016.
 Initial command:
 /apps/leuven/thinking/software/G09//g09D1/l1.exe "/local_scratch/vsc31064/Gau-64042.inp" -scrdir="/local_scratch/vsc31064/"
 Entering Link 1 = /apps/leuven/thinking/software/G09//g09D1/l1.exe PID=     64334.
  
 Copyright (c) 1988,1990,1992,1993,1995,1998,2003,2009,2013,
            Gaussian, Inc.  All Rights Reserved.
  
 This is part of the Gaussian(R) 09 program.  It is based on
 the Gaussian(R) 03 system (copyright 2003, Gaussian, Inc.),
 the Gaussian(R) 98 system (copyright 1998, Gaussian, Inc.),
 the Gaussian(R) 94 system (copyright 1995, Gaussian, Inc.),
 the Gaussian 92(TM) system (copyright 1992, Gaussian, Inc.),
 the Gaussian 90(TM) system (copyright 1990, Gaussian, Inc.),
 the Gaussian 88(TM) system (copyright 1988, Gaussian, Inc.),
 the Gaussian 86(TM) system (copyright 1986, Carnegie Mellon
 University), and the Gaussian 82(TM) system (copyright 1983,
 Carnegie Mellon University). Gaussian is a federally registered
 trademark of Gaussian, Inc.
  
 This software contains proprietary and confidential information,
 including trade secrets, belonging to Gaussian, Inc.
  
 This software is provided under written license and may be
 used, copied, transmitted, or stored only in accord with that
 written license.
  
 The following legend is applicable only to US Government
 contracts under FAR:
  
                    RESTRICTED RIGHTS LEGEND
  
 Use, reproduction and disclosure by the US Government is
 subject to restrictions as set forth in subparagraphs (a)
 and (c) of the Commercial Computer Software - Restricted
 Rights clause in FAR 52.227-19.
  
 Gaussian, Inc.
 340 Quinnipiac St., Bldg. 40, Wallingford CT 06492
  
  
 ---------------------------------------------------------------
 Warning -- This program may not be used in any manner that
 competes with the business of Gaussian, Inc. or will provide
 assistance to any competitor of Gaussian, Inc.  The licensee
 of this program is prohibited from giving any competitor of
 Gaussian, Inc. access to this program.  By using this program,
 the user acknowledges that Gaussian, Inc. is engaged in the
 business of creating and licensing software in the field of
 computational chemistry and represents and warrants to the
 licensee that it is not a competitor of Gaussian, Inc. and that
 it will not use this program in any manner prohibited above.
 ---------------------------------------------------------------
  

 Cite this work as:
 Gaussian 09, Revision D.01,
 M. J. Frisch, G. W. Trucks, H. B. Schlegel, G. E. Scuseria, 
 M. A. Robb, J. R. Cheeseman, G. Scalmani, V. Barone, B. Mennucci, 
 G. A. Petersson, H. Nakatsuji, M. Caricato, X. Li, H. P. Hratchian, 
 A. F. Izmaylov, J. Bloino, G. Zheng, J. L. Sonnenberg, M. Hada, 
 M. Ehara, K. Toyota, R. Fukuda, J. Hasegawa, M. Ishida, T. Nakajima, 
 Y. Honda, O. Kitao, H. Nakai, T. Vreven, J. A. Montgomery, Jr., 
 J. E. Peralta, F. Ogliaro, M. Bearpark, J. J. Heyd, E. Brothers, 
 K. N. Kudin, V. N. Staroverov, T. Keith, R. Kobayashi, J. Normand, 
 K. Raghavachari, A. Rendell, J. C. Burant, S. S. Iyengar, J. Tomasi, 
 M. Cossi, N. Rega, J. M. Millam, M. Klene, J. E. Knox, J. B. Cross, 
 V. Bakken, C. Adamo, J. Jaramillo, R. Gomperts, R. E. Stratmann, 
 O. Yazyev, A. J. Austin, R. Cammi, C. Pomelli, J. W. Ochterski, 
 R. L. Martin, K. Morokuma, V. G. Zakrzewski, G. A. Voth, 
 P. Salvador, J. J. Dannenberg, S. Dapprich, A. D. Daniels, 
 O. Farkas, J. B. Foresman, J. V. Ortiz, J. Cioslowski, 
 and D. J. Fox, Gaussian, Inc., Wallingford CT, 2013.
 
 ******************************************
 Gaussian 09:  ES64L-G09RevD.01 24-Apr-2013
                 3-Oct-2016 
 ******************************************
 %NprocShared=20
 Will use up to   20 processors via shared memory.
 %mem=55000mb
 %chk=cc-Al12-n-s-3
 --------------------------------------------------------
 # CCSD(T,conver=5)/cc-pVTZ test geom=allcheck guess=read
 --------------------------------------------------------
 1/29=7,38=1/1;
 2/12=2,40=1/2;
 3/5=16,6=1,11=9,14=-4,16=1,25=1,30=1,116=-2/1,2,3;
 4/5=1/1;
 5/5=2,38=6/2;
 8/6=4,9=120000,10=1/1,4;
 9/5=7,9=5,14=2/13;
 6/7=2,8=2,9=2,10=2/1;
 99/5=1,9=1/99;
 Structure from the checkpoint file:  "cc-Al12-n-s-3.chk"
 ----------
 Al12-n-s-3
 ----------
 Charge =  0 Multiplicity = 1
 Z-Matrix found in file.
 Al,0,2.204987,1.462288,-1.375265
 Al,0,-2.210084,1.453632,-1.376051
 Al,0,-0.004942,2.690771,-0.347123
 Al,0,2.432644,0.800121,1.166367
 Al,0,-2.235509,-1.187222,-1.277602
 Al,0,-2.432795,0.799048,1.167512
 Al,0,0.000264,1.025622,1.936969
 Al,0,-1.348999,-1.547898,1.383673
 Al,0,2.239179,-1.179071,-1.278347
 Al,0,0.003721,-2.790272,-0.84634
 Al,0,1.35165,-1.548304,1.38202
 Al,0,-0.000116,0.021285,-0.535815
 Recover connectivity data from disk.
                          Input orientation:                          
 ---------------------------------------------------------------------
 Center     Atomic      Atomic             Coordinates (Angstroms)
 Number     Number       Type             X           Y           Z
 ---------------------------------------------------------------------
      1         13           0        2.204987    1.462288   -1.375265
      2         13           0       -2.210084    1.453632   -1.376051
      3         13           0       -0.004942    2.690771   -0.347123
      4         13           0        2.432644    0.800121    1.166367
      5         13           0       -2.235509   -1.187222   -1.277602
      6         13           0       -2.432795    0.799048    1.167512
      7         13           0        0.000264    1.025622    1.936969
      8         13           0       -1.348999   -1.547898    1.383673
      9         13           0        2.239179   -1.179071   -1.278347
     10         13           0        0.003721   -2.790272   -0.846340
     11         13           0        1.351650   -1.548304    1.382020
     12         13           0       -0.000116    0.021285   -0.535815
 ---------------------------------------------------------------------
                    Distance matrix (angstroms):
                    1          2          3          4          5
     1  Al   0.000000
     2  Al   4.415080   0.000000
     3  Al   2.729475   2.729809   0.000000
     4  Al   2.636321   5.333469   3.436137   0.000000
     5  Al   5.171793   2.642811   4.569469   5.631533   0.000000
     6  Al   5.330537   2.635867   3.430336   4.865439   3.156386
     7  Al   4.002796   4.005613   2.826628   2.561474   4.497647
     8  Al   5.413296   4.167340   4.771631   4.456595   2.828139
     9  Al   2.643358   5.170746   4.569347   3.151390   4.474695
    10  Al   4.817634   4.815833   5.503737   4.779286   2.787455
    11  Al   4.170668   5.413365   4.774938   2.594254   4.480143
    12  Al   2.764714   2.764340   2.676151   3.069581   2.647210
                    6          7          8          9         10
     6  Al   0.000000
     7  Al   2.561870   0.000000
     8  Al   2.594127   2.957981   0.000000
     9  Al   5.632275   4.495739   4.483013   0.000000
    10  Al   4.782826   4.723121   2.888997   2.789242   0.000000
    11  Al   4.458486   2.959613   2.700650   2.828709   2.885305
    12  Al   3.069880   2.668961   2.822455   2.647008   2.828656
                   11         12
    11  Al   0.000000
    12  Al   2.822937   0.000000
 Stoichiometry    Al12
 Framework group  C1[X(Al12)]
 Deg. of freedom    30
 Full point group                 C1      NOp   1
 Largest Abelian subgroup         C1      NOp   1
 Largest concise Abelian subgroup C1      NOp   1
                         Standard orientation:                         
 ---------------------------------------------------------------------
 Center     Atomic      Atomic             Coordinates (Angstroms)
 Number     Number       Type             X           Y           Z
 ---------------------------------------------------------------------
      1         13           0       -2.204986   -1.462289   -1.375265
      2         13           0        2.210085   -1.453631   -1.376051
      3         13           0        0.004943   -2.690771   -0.347123
      4         13           0       -2.432644   -0.800122    1.166367
      5         13           0        2.235508    1.187223   -1.277602
      6         13           0        2.432795   -0.799047    1.167512
      7         13           0       -0.000263   -1.025622    1.936969
      8         13           0        1.348998    1.547899    1.383673
      9         13           0       -2.239180    1.179070   -1.278347
     10         13           0       -0.003722    2.790272   -0.846340
     11         13           0       -1.351651    1.548303    1.382020
     12         13           0        0.000116   -0.021285   -0.535815
 ---------------------------------------------------------------------
 Rotational constants (GHZ):      0.3928697      0.3486960      0.2906571
 Standard basis: CC-pVTZ (5D, 7F)
 There are   468 symmetry adapted cartesian basis functions of A   symmetry.
 There are   408 symmetry adapted basis functions of A   symmetry.
   408 basis functions,  1140 primitive gaussians,   468 cartesian basis functions
    78 alpha electrons       78 beta electrons
       nuclear repulsion energy      1700.8880594748 Hartrees.
 NAtoms=   12 NActive=   12 NUniq=   12 SFac= 1.00D+00 NAtFMM=   60 NAOKFM=F Big=F
 Integral buffers will be    131072 words long.
 Raffenetti 1 integral format.
 Two-electron integral symmetry is turned on.
 One-electron integrals computed using PRISM.
 NBasis=   408 RedAO= T EigKep=  2.65D-04  NBF=   408
 NBsUse=   408 1.00D-06 EigRej= -1.00D+00 NBFU=   408
 Initial guess from the checkpoint file:  "cc-Al12-n-s-3.chk"
 B after Tr=     0.000000    0.000000    0.000000
         Rot=    1.000000    0.000000    0.000000    0.000000 Ang=   0.00 deg.
 Keep R1 ints in memory in canonical form, NReq=3533093752.
 Requested convergence on RMS density matrix=1.00D-08 within 128 cycles.
 Requested convergence on MAX density matrix=1.00D-06.
 Requested convergence on             energy=1.00D-06.
 No special actions if energy rises.
 SCF Done:  E(RHF) =  -2903.01656046     A.U. after   20 cycles
            NFock= 20  Conv=0.71D-08     -V/T= 1.9999
 ExpMin= 5.56D-02 ExpMax= 2.06D+05 ExpMxC= 1.99D+03 IAcc=3 IRadAn=         5 AccDes= 0.00D+00
 HarFok:  IExCor=  205 AccDes= 0.00D+00 IRadAn=         5 IDoV=-2 UseB2=F ITyADJ=14
 ICtDFT= 12500011 ScaDFX=  1.000000  1.000000  1.000000  1.000000
 DSYEVD-2 returned Info=          69 IAlg= 4 N=    34 NDim=    34 NE2=   212014215 trying  DSYEV.
 Range of M.O.s used for correlation:    61   408
 NBasis=   408 NAE=    78 NBE=    78 NFC=    60 NFV=     0
 NROrb=    348 NOA=    18 NOB=    18 NVA=   330 NVB=   330

 **** Warning!!: The largest alpha MO coefficient is  0.33828162D+02

 Semi-Direct transformation.
 ModeAB=           4 MOrb=            18 LenV=    7205049009
 LASXX=    366962706 LTotXX=   366962706 LenRXX=   737043552
 LTotAB=   370080846 MaxLAS=   681980472 LenRXY=           0
 NonZer=  1104006258 LenScr=  1662503936 LnRSAI=   681980472
 LnScr1=  1026982912 LExtra=           0 Total=   4108510872
 MaxDsk=          -1 SrtSym=           T ITran=            4
 JobTyp=0 Pass  1:  I=   1 to  18.
 (rs|ai) integrals will be sorted in core.
 SymMOI:  orbitals are not symmetric.
 Spin components of T(2) and E(2):
     alpha-alpha T2 =       0.1974643979D+00 E2=     -0.1740633105D+00
     alpha-beta  T2 =       0.7917191936D+00 E2=     -0.8064357807D+00
     beta-beta   T2 =       0.1974643979D+00 E2=     -0.1740633105D+00
 ANorm=    0.1478731886D+01
 E2 =    -0.1154562402D+01 EUMP2 =    -0.29041711228641D+04
 Keep R2 and R3 ints in memory in canonical form, NReq=7013232290.
 Iterations=  50 Convergence= 0.100D-04
 Iteration Nr.   1
 **********************
 DD1Dir will call FoFMem   1 times, MxPair=       342
 NAB=   171 NAA=     0 NBB=     0.
 MP4(R+Q)=  0.82303584D-01
 E3=        0.18445424D+00        EUMP3=      -0.29039866686D+04
 E4(DQ)=   -0.10607802D+00        UMP4(DQ)=   -0.29040927466D+04
 E4(SDQ)=  -0.12706428D+00        UMP4(SDQ)=  -0.29041137329D+04
 DE(Corr)= -0.88810543     E(Corr)=     -2903.9046659    
 NORM(A)=   0.13236988D+01
 Iteration Nr.   2
 **********************
 DD1Dir will call FoFMem   1 times, MxPair=       342
 NAB=   171 NAA=     0 NBB=     0.
 DE(Corr)=  -1.0631592     E(CORR)=     -2904.0797196     Delta=-1.75D-01
 NORM(A)=   0.13849724D+01
 Iteration Nr.   3
 **********************
 DD1Dir will call FoFMem   1 times, MxPair=       342
 NAB=   171 NAA=     0 NBB=     0.
 DE(Corr)=  -1.0204502     E(CORR)=     -2904.0370107     Delta= 4.27D-02
 NORM(A)=   0.13954137D+01
 Iteration Nr.   4
 **********************
 DD1Dir will call FoFMem   1 times, MxPair=       342
 NAB=   171 NAA=     0 NBB=     0.
 DE(Corr)=  -1.0287194     E(CORR)=     -2904.0452798     Delta=-8.27D-03
 NORM(A)=   0.13989963D+01
 Iteration Nr.   5
 **********************
 DD1Dir will call FoFMem   1 times, MxPair=       342
 NAB=   171 NAA=     0 NBB=     0.
 DE(Corr)=  -1.0305328     E(CORR)=     -2904.0470933     Delta=-1.81D-03
 NORM(A)=   0.14044389D+01
 Iteration Nr.   6
 **********************
 DD1Dir will call FoFMem   1 times, MxPair=       342
 NAB=   171 NAA=     0 NBB=     0.
 DE(Corr)=  -1.0304458     E(CORR)=     -2904.0470062     Delta= 8.71D-05
 NORM(A)=   0.14075467D+01
 Iteration Nr.   7
 **********************
 DD1Dir will call FoFMem   1 times, MxPair=       342
 NAB=   171 NAA=     0 NBB=     0.
 DE(Corr)=  -1.0304156     E(CORR)=     -2904.0469760     Delta= 3.02D-05
 NORM(A)=   0.14075531D+01
 Iteration Nr.   8
 **********************
 DD1Dir will call FoFMem   1 times, MxPair=       342
 NAB=   171 NAA=     0 NBB=     0.
 DE(Corr)=  -1.0309864     E(CORR)=     -2904.0475468     Delta=-5.71D-04
 NORM(A)=   0.14084202D+01
 Iteration Nr.   9
 **********************
 DD1Dir will call FoFMem   1 times, MxPair=       342
 NAB=   171 NAA=     0 NBB=     0.
 DE(Corr)=  -1.0305050     E(CORR)=     -2904.0470655     Delta= 4.81D-04
 NORM(A)=   0.14084286D+01
 Iteration Nr.  10
 **********************
 DD1Dir will call FoFMem   1 times, MxPair=       342
 NAB=   171 NAA=     0 NBB=     0.
 DE(Corr)=  -1.0307757     E(CORR)=     -2904.0473362     Delta=-2.71D-04
 NORM(A)=   0.14084288D+01
 Iteration Nr.  11
 **********************
 DD1Dir will call FoFMem   1 times, MxPair=       342
 NAB=   171 NAA=     0 NBB=     0.
 DE(Corr)=  -1.0306816     E(CORR)=     -2904.0472421     Delta= 9.41D-05
 NORM(A)=   0.14085628D+01
 Iteration Nr.  12
 **********************
 DD1Dir will call FoFMem   1 times, MxPair=       342
 NAB=   171 NAA=     0 NBB=     0.
 DE(Corr)=  -1.0306810     E(CORR)=     -2904.0472415     Delta= 6.44D-07
 NORM(A)=   0.14085230D+01
 Iteration Nr.  13
 **********************
 DD1Dir will call FoFMem   1 times, MxPair=       342
 NAB=   171 NAA=     0 NBB=     0.
 DE(Corr)=  -1.0306991     E(CORR)=     -2904.0472596     Delta=-1.81D-05
 NORM(A)=   0.14085379D+01
 Iteration Nr.  14
 **********************
 DD1Dir will call FoFMem   1 times, MxPair=       342
 NAB=   171 NAA=     0 NBB=     0.
 DE(Corr)=  -1.0306993     E(CORR)=     -2904.0472598     Delta=-1.77D-07
 NORM(A)=   0.14085534D+01
 Iteration Nr.  15
 **********************
 DD1Dir will call FoFMem   1 times, MxPair=       342
 NAB=   171 NAA=     0 NBB=     0.
 DE(Corr)=  -1.0306835     E(CORR)=     -2904.0472440     Delta= 1.58D-05
 NORM(A)=   0.14085356D+01
 Iteration Nr.  16
 **********************
 DD1Dir will call FoFMem   1 times, MxPair=       342
 NAB=   171 NAA=     0 NBB=     0.
 DE(Corr)=  -1.0307011     E(CORR)=     -2904.0472616     Delta=-1.76D-05
 NORM(A)=   0.14085395D+01
 Iteration Nr.  17
 **********************
 DD1Dir will call FoFMem   1 times, MxPair=       342
 NAB=   171 NAA=     0 NBB=     0.
 DE(Corr)=  -1.0306902     E(CORR)=     -2904.0472506     Delta= 1.09D-05
 NORM(A)=   0.14085404D+01
 Iteration Nr.  18
 **********************
 DD1Dir will call FoFMem   1 times, MxPair=       342
 NAB=   171 NAA=     0 NBB=     0.
 DE(Corr)=  -1.0306937     E(CORR)=     -2904.0472541     Delta=-3.48D-06
 NORM(A)=   0.14085351D+01
 Largest amplitude= 5.85D-02
 T4(AAA)= -0.60786388D-02
 T4(AAB)= -0.69992209D-01
 T5(AAA)=  0.29742644D-03
 T5(AAB)=  0.20363893D-02
 Time for triples=   336739.91 seconds.
 T4(CCSD)= -0.15214170D+00
 T5(CCSD)=  0.46676315D-02
 CCSD(T)= -0.29041947282D+04
 Discarding MO integrals.

 **********************************************************************

            Population analysis using the SCF density.

 **********************************************************************

 Orbital symmetries:
       Occupied  (A) (A) (A) (A) (A) (A) (A) (A) (A) (A) (A) (A)
                 (A) (A) (A) (A) (A) (A) (A) (A) (A) (A) (A) (A)
                 (A) (A) (A) (A) (A) (A) (A) (A) (A) (A) (A) (A)
                 (A) (A) (A) (A) (A) (A) (A) (A) (A) (A) (A) (A)
                 (A) (A) (A) (A) (A) (A) (A) (A) (A) (A) (A) (A)
                 (A) (A) (A) (A) (A) (A) (A) (A) (A) (A) (A) (A)
                 (A) (A) (A) (A) (A) (A)
       Virtual   (A) (A) (A) (A) (A) (A) (A) (A) (A) (A) (A) (A)
                 (A) (A) (A) (A) (A) (A) (A) (A) (A) (A) (A) (A)
                 (A) (A) (A) (A) (A) (A) (A) (A) (A) (A) (A) (A)
                 (A) (A) (A) (A) (A) (A) (A) (A) (A) (A) (A) (A)
                 (A) (A) (A) (A) (A) (A) (A) (A) (A) (A) (A) (A)
                 (A) (A) (A) (A) (A) (A) (A) (A) (A) (A) (A) (A)
                 (A) (A) (A) (A) (A) (A) (A) (A) (A) (A) (A) (A)
                 (A) (A) (A) (A) (A) (A) (A) (A) (A) (A) (A) (A)
                 (A) (A) (A) (A) (A) (A) (A) (A) (A) (A) (A) (A)
                 (A) (A) (A) (A) (A) (A) (A) (A) (A) (A) (A) (A)
                 (A) (A) (A) (A) (A) (A) (A) (A) (A) (A) (A) (A)
                 (A) (A) (A) (A) (A) (A) (A) (A) (A) (A) (A) (A)
                 (A) (A) (A) (A) (A) (A) (A) (A) (A) (A) (A) (A)
                 (A) (A) (A) (A) (A) (A) (A) (A) (A) (A) (A) (A)
                 (A) (A) (A) (A) (A) (A) (A) (A) (A) (A) (A) (A)
                 (A) (A) (A) (A) (A) (A) (A) (A) (A) (A) (A) (A)
                 (A) (A) (A) (A) (A) (A) (A) (A) (A) (A) (A) (A)
                 (A) (A) (A) (A) (A) (A) (A) (A) (A) (A) (A) (A)
                 (A) (A) (A) (A) (A) (A) (A) (A) (A) (A) (A) (A)
                 (A) (A) (A) (A) (A) (A) (A) (A) (A) (A) (A) (A)
                 (A) (A) (A) (A) (A) (A) (A) (A) (A) (A) (A) (A)
                 (A) (A) (A) (A) (A) (A) (A) (A) (A) (A) (A) (A)
                 (A) (A) (A) (A) (A) (A) (A) (A) (A) (A) (A) (A)
                 (A) (A) (A) (A) (A) (A) (A) (A) (A) (A) (A) (A)
                 (A) (A) (A) (A) (A) (A) (A) (A) (A) (A) (A) (A)
                 (A) (A) (A) (A) (A) (A) (A) (A) (A) (A) (A) (A)
                 (A) (A) (A) (A) (A) (A) (A) (A) (A) (A) (A) (A)
                 (A) (A) (A) (A) (A) (A)
 The electronic state is 1-A.
 Alpha  occ. eigenvalues --  -58.49734 -58.49385 -58.49380 -58.49017 -58.49014
 Alpha  occ. eigenvalues --  -58.49012 -58.48870 -58.48867 -58.48333 -58.48331
 Alpha  occ. eigenvalues --  -58.48055 -58.43493  -4.90720  -4.90520  -4.90515
 Alpha  occ. eigenvalues --   -4.90149  -4.90147  -4.90138  -4.90131  -4.90065
 Alpha  occ. eigenvalues --   -4.89604  -4.89602  -4.89429  -4.85626  -3.21866
 Alpha  occ. eigenvalues --   -3.21773  -3.21765  -3.21622  -3.21617  -3.21591
 Alpha  occ. eigenvalues --   -3.21586  -3.21512  -3.21508  -3.21300  -3.21299
 Alpha  occ. eigenvalues --   -3.21262  -3.21251  -3.21241  -3.21232  -3.21230
 Alpha  occ. eigenvalues --   -3.21221  -3.21195  -3.21179  -3.21178  -3.21165
 Alpha  occ. eigenvalues --   -3.21136  -3.21111  -3.21049  -3.20768  -3.20765
 Alpha  occ. eigenvalues --   -3.20722  -3.20692  -3.20686  -3.20673  -3.20641
 Alpha  occ. eigenvalues --   -3.20627  -3.20603  -3.17002  -3.16978  -3.16966
 Alpha  occ. eigenvalues --   -0.70609  -0.60074  -0.58086  -0.54505  -0.44557
 Alpha  occ. eigenvalues --   -0.44427  -0.43921  -0.39762  -0.38947  -0.30946
 Alpha  occ. eigenvalues --   -0.27285  -0.26641  -0.25843  -0.25435  -0.25090
 Alpha  occ. eigenvalues --   -0.24455  -0.23433  -0.22803
 Alpha virt. eigenvalues --   -0.04769  -0.02293  -0.01634  -0.00897  -0.00317
 Alpha virt. eigenvalues --   -0.00298   0.00555   0.04186   0.04434   0.05614
 Alpha virt. eigenvalues --    0.06557   0.06595   0.08064   0.09297   0.09422
 Alpha virt. eigenvalues --    0.10124   0.10561   0.11035   0.12355   0.12822
 Alpha virt. eigenvalues --    0.13031   0.13400   0.14812   0.14902   0.15575
 Alpha virt. eigenvalues --    0.16533   0.16878   0.17402   0.17469   0.18143
 Alpha virt. eigenvalues --    0.18198   0.18523   0.18777   0.19039   0.19406
 Alpha virt. eigenvalues --    0.20454   0.20584   0.21031   0.22611   0.22839
 Alpha virt. eigenvalues --    0.23395   0.23634   0.23835   0.24601   0.24629
 Alpha virt. eigenvalues --    0.25677   0.26035   0.26122   0.26770   0.27397
 Alpha virt. eigenvalues --    0.27937   0.28027   0.28396   0.28641   0.29711
 Alpha virt. eigenvalues --    0.29832   0.31407   0.31457   0.31822   0.32401
 Alpha virt. eigenvalues --    0.33359   0.34131   0.34671   0.35221   0.35991
 Alpha virt. eigenvalues --    0.36334   0.36378   0.36657   0.36989   0.37026
 Alpha virt. eigenvalues --    0.38094   0.38445   0.38963   0.39586   0.40280
 Alpha virt. eigenvalues --    0.40684   0.41905   0.42191   0.43435   0.43894
 Alpha virt. eigenvalues --    0.44884   0.46292   0.46320   0.46703   0.47191
 Alpha virt. eigenvalues --    0.48836   0.48872   0.49141   0.49776   0.50132
 Alpha virt. eigenvalues --    0.50904   0.51067   0.51292   0.51430   0.51972
 Alpha virt. eigenvalues --    0.52193   0.52697   0.53509   0.53623   0.54990
 Alpha virt. eigenvalues --    0.55073   0.55698   0.56522   0.56941   0.58242
 Alpha virt. eigenvalues --    0.58589   0.59036   0.59058   0.59902   0.60441
 Alpha virt. eigenvalues --    0.61145   0.61807   0.62273   0.62859   0.63485
 Alpha virt. eigenvalues --    0.63832   0.64806   0.64945   0.66024   0.66448
 Alpha virt. eigenvalues --    0.66589   0.67421   0.67914   0.68244   0.68515
 Alpha virt. eigenvalues --    0.69394   0.69879   0.69898   0.70350   0.71419
 Alpha virt. eigenvalues --    0.71539   0.74127   0.74168   0.74277   0.75203
 Alpha virt. eigenvalues --    0.77048   0.78019   0.78950   0.79553   0.79663
 Alpha virt. eigenvalues --    0.81413   0.81660   0.82035   0.82292   0.83638
 Alpha virt. eigenvalues --    0.84387   0.85321   0.85945   0.86280   0.86779
 Alpha virt. eigenvalues --    0.87989   0.88722   0.88972   0.89952   0.90435
 Alpha virt. eigenvalues --    0.90922   0.90942   0.92121   0.92407   0.92527
 Alpha virt. eigenvalues --    0.93278   0.93781   0.93856   0.94866   0.94869
 Alpha virt. eigenvalues --    0.95263   0.96057   0.96555   0.97436   0.98180
 Alpha virt. eigenvalues --    0.98330   0.98394   0.99505   0.99825   1.00169
 Alpha virt. eigenvalues --    1.00330   1.00527   1.01406   1.01492   1.02089
 Alpha virt. eigenvalues --    1.02328   1.02590   1.03424   1.04123   1.04139
 Alpha virt. eigenvalues --    1.05145   1.05285   1.06208   1.06836   1.07442
 Alpha virt. eigenvalues --    1.08018   1.09560   1.09743   1.10576   1.11815
 Alpha virt. eigenvalues --    1.12042   1.12120   1.12998   1.13175   1.13432
 Alpha virt. eigenvalues --    1.14717   1.15137   1.16074   1.16572   1.16991
 Alpha virt. eigenvalues --    1.17359   1.18515   1.18845   1.19032   1.20016
 Alpha virt. eigenvalues --    1.20121   1.21255   1.22234   1.22369   1.23509
 Alpha virt. eigenvalues --    1.23578   1.25251   1.25664   1.25894   1.26445
 Alpha virt. eigenvalues --    1.27371   1.28557   1.29003   1.30071   1.30206
 Alpha virt. eigenvalues --    1.30468   1.30906   1.31435   1.32012   1.33115
 Alpha virt. eigenvalues --    1.34696   1.35115   1.35422   1.37637   1.37666
 Alpha virt. eigenvalues --    1.38408   1.38602   1.39376   1.40496   1.40527
 Alpha virt. eigenvalues --    1.41677   1.41948   1.42226   1.42766   1.43634
 Alpha virt. eigenvalues --    1.44062   1.44883   1.45310   1.45578   1.46633
 Alpha virt. eigenvalues --    1.46935   1.47372   1.48139   1.49212   1.49456
 Alpha virt. eigenvalues --    1.50569   1.51068   1.52221   1.52539   1.52665
 Alpha virt. eigenvalues --    1.52714   1.53334   1.54161   1.54404   1.55119
 Alpha virt. eigenvalues --    1.56484   1.56823   1.58447   1.58626   1.59623
 Alpha virt. eigenvalues --    1.60985   1.62183   1.62434   1.63992   1.64190
 Alpha virt. eigenvalues --    1.66390   1.68250   1.68407   1.71829   1.71882
 Alpha virt. eigenvalues --    1.78979   1.80810   2.39051   2.46095   2.48187
 Alpha virt. eigenvalues --    2.48238   2.50657   2.53581   2.55212   2.55957
 Alpha virt. eigenvalues --    2.58117   2.60923   2.62033   2.63295   2.66873
 Alpha virt. eigenvalues --    2.67691   2.68694   2.71004   2.73301   2.73376
 Alpha virt. eigenvalues --    2.74609   2.74752   2.76737   2.81275   2.82264
 Alpha virt. eigenvalues --    2.82543   2.87238   2.92778   2.96297   2.98759
 Alpha virt. eigenvalues --    3.00985   3.03054   3.07777   3.09270   3.11934
 Alpha virt. eigenvalues --    3.17573   3.25215   3.34687   3.35570   3.43170
 Alpha virt. eigenvalues --    3.52675   3.54918   3.59907   3.70556   3.75775
 Alpha virt. eigenvalues --    3.93322   3.94154   4.03868   4.39656   6.20936
          Condensed to atoms (all electrons):
               1          2          3          4          5          6
     1  Al  12.141520  -0.031691   0.282250   0.279164  -0.001187  -0.003063
     2  Al  -0.031691  12.141169   0.282158  -0.003026   0.306314   0.279319
     3  Al   0.282250   0.282158  12.117399   0.007272  -0.022465   0.007844
     4  Al   0.279164  -0.003026   0.007272  12.130992   0.000617  -0.003977
     5  Al  -0.001187   0.306314  -0.022465   0.000617  12.244319   0.046082
     6  Al  -0.003063   0.279319   0.007844  -0.003977   0.046082  12.131321
     7  Al  -0.035048  -0.035093   0.229976   0.313087  -0.023834   0.312761
     8  Al   0.000496  -0.025292  -0.012313  -0.016523   0.152469   0.280103
     9  Al   0.305601  -0.001228  -0.022438   0.046829  -0.029082   0.000606
    10  Al  -0.018014  -0.018051   0.003230  -0.010908   0.248525  -0.010834
    11  Al  -0.025304   0.000493  -0.012223   0.280339  -0.020416  -0.016494
    12  Al   0.107700   0.107652   0.123182  -0.029699   0.110714  -0.029651
               7          8          9         10         11         12
     1  Al  -0.035048   0.000496   0.305601  -0.018014  -0.025304   0.107700
     2  Al  -0.035093  -0.025292  -0.001228  -0.018051   0.000493   0.107652
     3  Al   0.229976  -0.012313  -0.022438   0.003230  -0.012223   0.123182
     4  Al   0.313087  -0.016523   0.046829  -0.010908   0.280339  -0.029699
     5  Al  -0.023834   0.152469  -0.029082   0.248525  -0.020416   0.110714
     6  Al   0.312761   0.280103   0.000606  -0.010834  -0.016494  -0.029651
     7  Al  12.066133   0.087007  -0.023885  -0.011108   0.086500   0.149366
     8  Al   0.087007  12.274780  -0.020319   0.114160   0.209855   0.032359
     9  Al  -0.023885  -0.020319  12.245916   0.247536   0.151987   0.110750
    10  Al  -0.011108   0.114160   0.247536  12.292530   0.115799   0.074954
    11  Al   0.086500   0.209855   0.151987   0.115799  12.274533   0.031941
    12  Al   0.149366   0.032359   0.110750   0.074954   0.031941  11.911726
 Mulliken charges:
               1
     1  Al  -0.002424
     2  Al  -0.002726
     3  Al   0.016128
     4  Al   0.005834
     5  Al  -0.012055
     6  Al   0.005982
     7  Al  -0.115860
     8  Al  -0.076784
     9  Al  -0.012274
    10  Al  -0.027819
    11  Al  -0.077010
    12  Al   0.299006
 Sum of Mulliken charges =   0.00000
 Mulliken charges with hydrogens summed into heavy atoms:
               1
     1  Al  -0.002424
     2  Al  -0.002726
     3  Al   0.016128
     4  Al   0.005834
     5  Al  -0.012055
     6  Al   0.005982
     7  Al  -0.115860
     8  Al  -0.076784
     9  Al  -0.012274
    10  Al  -0.027819
    11  Al  -0.077010
    12  Al   0.299006
 Electronic spatial extent (au):  <R**2>=           4202.0444
 Charge=              0.0000 electrons
 Dipole moment (field-independent basis, Debye):
    X=              0.0016    Y=             -0.0821    Z=              1.0735  Tot=              1.0766
 Quadrupole moment (field-independent basis, Debye-Ang):
   XX=           -155.4006   YY=           -164.1169   ZZ=           -154.8928
   XY=              0.0016   XZ=             -0.0194   YZ=              1.4805
 Traceless Quadrupole moment (field-independent basis, Debye-Ang):
   XX=              2.7362   YY=             -5.9802   ZZ=              3.2440
   XY=              0.0016   XZ=             -0.0194   YZ=              1.4805
 Octapole moment (field-independent basis, Debye-Ang**2):
  XXX=             -0.0251  YYY=             -9.7258  ZZZ=             11.7590  XYY=              0.0360
  XXY=             -3.9650  XXZ=              8.0927  XZZ=              0.0467  YZZ=             -3.2383
  YYZ=              9.0052  XYZ=             -0.0233
 Hexadecapole moment (field-independent basis, Debye-Ang**3):
 XXXX=          -3160.9012 YYYY=          -2899.4693 ZZZZ=          -1837.5506 XXXY=              0.0502
 XXXZ=             -0.3497 YYYX=              0.0226 YYYZ=             22.7866 ZZZX=             -0.1480
 ZZZY=              8.9204 XXYY=          -1001.2882 XXZZ=           -830.8084 YYZZ=           -789.3916
 XXYZ=              2.2834 YYXZ=             -0.0230 ZZXY=              0.0291
 N-N= 1.700888059475D+03 E-N=-1.034519099670D+04  KE= 2.903281130531D+03

 Test job not archived.
 1\1\GINC-R1I0N10\SP\RCCSD(T)-FC\CC-pVTZ\Al12\VSC31064\04-Oct-2016\0\\#
  CCSD(T,conver=5)/cc-pVTZ test geom=allcheck guess=read\\Al12-n-s-3\\0
 ,1\Al,0,2.204987,1.462288,-1.375265\Al,0,-2.210084,1.453632,-1.376051\
 Al,0,-0.004942,2.690771,-0.347123\Al,0,2.432644,0.800121,1.166367\Al,0
 ,-2.235509,-1.187222,-1.277602\Al,0,-2.432795,0.799048,1.167512\Al,0,0
 .000264,1.025622,1.936969\Al,0,-1.348999,-1.547898,1.383673\Al,0,2.239
 179,-1.179071,-1.278347\Al,0,0.003721,-2.790272,-0.84634\Al,0,1.35165,
 -1.548304,1.38202\Al,0,-0.000116,0.021285,-0.535815\\Version=ES64L-G09
 RevD.01\State=1-A\HF=-2903.0165605\MP2=-2904.1711229\MP3=-2903.9866686
 \MP4D=-2904.1750502\MP4DQ=-2904.0927466\MP4SDQ=-2904.1137329\CCSD=-290
 4.0472541\CCSD(T)=-2904.1947282\RMSD=7.064e-09\PG=C01 [X(Al12)]\\@


 MARY HAD A LITTLE LAMB
      HIS FEET WERE BLACK AS SOOT,
           AND EVERYWHERE THAT MARY WENT
                HIS SOOTY FOOT HE PUT.

                    -- NONAME
 Job cpu time:       7 days  0 hours 12 minutes  9.7 seconds.
 File lengths (MBytes):  RWF=  69135 Int=      0 D2E=      0 Chk=      8 Scr=      1
 Normal termination of Gaussian 09 at Tue Oct  4 04:47:59 2016.
