 Entering Gaussian System, Link 0=g09
 Initial command:
 /apps/leuven/thinking/software/G09//g09D1/l1.exe "/local_scratch/vsc31064/Gau-23157.inp" -scrdir="/local_scratch/vsc31064/"
 Entering Link 1 = /apps/leuven/thinking/software/G09//g09D1/l1.exe PID=     23161.
  
 Copyright (c) 1988,1990,1992,1993,1995,1998,2003,2009,2013,
            Gaussian, Inc.  All Rights Reserved.
  
 This is part of the Gaussian(R) 09 program.  It is based on
 the Gaussian(R) 03 system (copyright 2003, Gaussian, Inc.),
 the Gaussian(R) 98 system (copyright 1998, Gaussian, Inc.),
 the Gaussian(R) 94 system (copyright 1995, Gaussian, Inc.),
 the Gaussian 92(TM) system (copyright 1992, Gaussian, Inc.),
 the Gaussian 90(TM) system (copyright 1990, Gaussian, Inc.),
 the Gaussian 88(TM) system (copyright 1988, Gaussian, Inc.),
 the Gaussian 86(TM) system (copyright 1986, Carnegie Mellon
 University), and the Gaussian 82(TM) system (copyright 1983,
 Carnegie Mellon University). Gaussian is a federally registered
 trademark of Gaussian, Inc.
  
 This software contains proprietary and confidential information,
 including trade secrets, belonging to Gaussian, Inc.
  
 This software is provided under written license and may be
 used, copied, transmitted, or stored only in accord with that
 written license.
  
 The following legend is applicable only to US Government
 contracts under FAR:
  
                    RESTRICTED RIGHTS LEGEND
  
 Use, reproduction and disclosure by the US Government is
 subject to restrictions as set forth in subparagraphs (a)
 and (c) of the Commercial Computer Software - Restricted
 Rights clause in FAR 52.227-19.
  
 Gaussian, Inc.
 340 Quinnipiac St., Bldg. 40, Wallingford CT 06492
  
  
 ---------------------------------------------------------------
 Warning -- This program may not be used in any manner that
 competes with the business of Gaussian, Inc. or will provide
 assistance to any competitor of Gaussian, Inc.  The licensee
 of this program is prohibited from giving any competitor of
 Gaussian, Inc. access to this program.  By using this program,
 the user acknowledges that Gaussian, Inc. is engaged in the
 business of creating and licensing software in the field of
 computational chemistry and represents and warrants to the
 licensee that it is not a competitor of Gaussian, Inc. and that
 it will not use this program in any manner prohibited above.
 ---------------------------------------------------------------
  

 Cite this work as:
 Gaussian 09, Revision D.01,
 M. J. Frisch, G. W. Trucks, H. B. Schlegel, G. E. Scuseria, 
 M. A. Robb, J. R. Cheeseman, G. Scalmani, V. Barone, B. Mennucci, 
 G. A. Petersson, H. Nakatsuji, M. Caricato, X. Li, H. P. Hratchian, 
 A. F. Izmaylov, J. Bloino, G. Zheng, J. L. Sonnenberg, M. Hada, 
 M. Ehara, K. Toyota, R. Fukuda, J. Hasegawa, M. Ishida, T. Nakajima, 
 Y. Honda, O. Kitao, H. Nakai, T. Vreven, J. A. Montgomery, Jr., 
 J. E. Peralta, F. Ogliaro, M. Bearpark, J. J. Heyd, E. Brothers, 
 K. N. Kudin, V. N. Staroverov, T. Keith, R. Kobayashi, J. Normand, 
 K. Raghavachari, A. Rendell, J. C. Burant, S. S. Iyengar, J. Tomasi, 
 M. Cossi, N. Rega, J. M. Millam, M. Klene, J. E. Knox, J. B. Cross, 
 V. Bakken, C. Adamo, J. Jaramillo, R. Gomperts, R. E. Stratmann, 
 O. Yazyev, A. J. Austin, R. Cammi, C. Pomelli, J. W. Ochterski, 
 R. L. Martin, K. Morokuma, V. G. Zakrzewski, G. A. Voth, 
 P. Salvador, J. J. Dannenberg, S. Dapprich, A. D. Daniels, 
 O. Farkas, J. B. Foresman, J. V. Ortiz, J. Cioslowski, 
 and D. J. Fox, Gaussian, Inc., Wallingford CT, 2013.
 
 ******************************************
 Gaussian 09:  ES64L-G09RevD.01 24-Apr-2013
                 3-Oct-2016 
 ******************************************
 %NprocShared=20
 Will use up to   20 processors via shared memory.
 %mem=55000mb
 %chk=cc-Al12-n-s-2
 ------------------------
 # hf/6-31G* test scf=xqc
 ------------------------
 1/38=1/1;
 2/12=2,17=6,18=5,40=1/2;
 3/5=1,6=6,7=1,11=9,16=1,25=1,30=1/1,2,3;
 4//1;
 5/5=2,8=3,13=1,38=5/2,8;
 6/7=2,8=2,9=2,10=2,28=1/1;
 99/5=1,9=1/99;
 ----------
 Al12-n-s-2
 ----------
 Symbolic Z-matrix:
 Charge =  0 Multiplicity = 1
 Al                   -0.82521   2.5062    1.29528 
 Al                   -1.18791   0.17065  -2.61149 
 Al                   -1.18791   0.17065   2.61149 
 Al                    1.47209   1.22903   1.59626 
 Al                   -1.381    -2.13786  -1.32662 
 Al                   -1.381    -2.13786   1.32662 
 Al                    1.10501  -1.25756   2.34348 
 Al                    2.08925  -1.047     0. 
 Al                   -0.82521   2.5062   -1.29528 
 Al                    1.47209   1.22903  -1.59626 
 Al                    1.10501  -1.25756  -2.34348 
 Al                   -0.45551   0.02603   0. 
 
                          Input orientation:                          
 ---------------------------------------------------------------------
 Center     Atomic      Atomic             Coordinates (Angstroms)
 Number     Number       Type             X           Y           Z
 ---------------------------------------------------------------------
      1         13           0       -0.825211    2.506201    1.295285
      2         13           0       -1.187914    0.170650   -2.611489
      3         13           0       -1.187914    0.170650    2.611489
      4         13           0        1.472087    1.229033    1.596256
      5         13           0       -1.381001   -2.137864   -1.326618
      6         13           0       -1.381001   -2.137864    1.326618
      7         13           0        1.105008   -1.257565    2.343482
      8         13           0        2.089255   -1.046999    0.000000
      9         13           0       -0.825211    2.506201   -1.295285
     10         13           0        1.472087    1.229033   -1.596256
     11         13           0        1.105008   -1.257565   -2.343482
     12         13           0       -0.455511    0.026031    0.000000
 ---------------------------------------------------------------------
                    Distance matrix (angstroms):
                    1          2          3          4          5
     1  Al   0.000000
     2  Al   4.566096   0.000000
     3  Al   2.705318   5.222978   0.000000
     4  Al   2.645623   5.089292   3.037512   0.000000
     5  Al   5.361960   2.649040   4.568939   5.293326   0.000000
     6  Al   4.677310   4.568939   2.649040   4.421404   2.653235
     7  Al   4.357797   5.643494   2.714611   2.622263   4.519381
     8  Al   4.774632   4.363757   4.363757   2.847675   3.872025
     9  Al   2.590569   2.705318   4.566096   3.907652   4.677310
    10  Al   3.907652   3.037512   5.089292   3.192512   4.421404
    11  Al   5.579633   2.714611   5.643494   4.673270   2.826514
    12  Al   2.822354   2.716101   2.716101   2.776847   2.701646
                    6          7          8          9         10
     6  Al   0.000000
     7  Al   2.826514   0.000000
     8  Al   3.872025   2.550488   0.000000
     9  Al   5.361960   5.579633   4.774632   0.000000
    10  Al   5.293326   4.673270   2.847675   2.645623   0.000000
    11  Al   4.519381   4.686965   2.550488   4.357797   2.622263
    12  Al   2.701646   3.094309   2.761744   2.822354   2.776847
                   11         12
    11  Al   0.000000
    12  Al   3.094309   0.000000
 Stoichiometry    Al12
 Framework group  CS[SG(Al2),X(Al10)]
 Deg. of freedom    16
 Full point group                 CS      NOp   2
 Largest Abelian subgroup         CS      NOp   2
 Largest concise Abelian subgroup CS      NOp   2
                         Standard orientation:                         
 ---------------------------------------------------------------------
 Center     Atomic      Atomic             Coordinates (Angstroms)
 Number     Number       Type             X           Y           Z
 ---------------------------------------------------------------------
      1         13           0       -2.505950   -0.825961    1.295285
      2         13           0       -0.170286   -1.187940   -2.611489
      3         13           0       -0.170286   -1.187940    2.611489
      4         13           0       -1.229494    1.471732    1.596256
      5         13           0        2.138287   -1.380312   -1.326618
      6         13           0        2.138287   -1.380312    1.326618
      7         13           0        1.257217    1.105424    2.343482
      8         13           0        1.046347    2.089606    0.000000
      9         13           0       -2.505950   -0.825961   -1.295285
     10         13           0       -1.229494    1.471732   -1.596256
     11         13           0        1.257217    1.105424   -2.343482
     12         13           0       -0.025895   -0.455493    0.000000
 ---------------------------------------------------------------------
 Rotational constants (GHZ):      0.3870802      0.3348197      0.2853652
 Standard basis: 6-31G(d) (6D, 7F)
 There are   123 symmetry adapted cartesian basis functions of A'  symmetry.
 There are   105 symmetry adapted cartesian basis functions of A"  symmetry.
 There are   123 symmetry adapted basis functions of A'  symmetry.
 There are   105 symmetry adapted basis functions of A"  symmetry.
   228 basis functions,   624 primitive gaussians,   228 cartesian basis functions
    78 alpha electrons       78 beta electrons
       nuclear repulsion energy      1685.2773762263 Hartrees.
 NAtoms=   12 NActive=   12 NUniq=    7 SFac= 2.94D+00 NAtFMM=   60 NAOKFM=F Big=F
 Integral buffers will be    131072 words long.
 Raffenetti 1 integral format.
 Two-electron integral symmetry is turned on.
 One-electron integrals computed using PRISM.
 NBasis=   228 RedAO= T EigKep=  9.17D-04  NBF=   123   105
 NBsUse=   228 1.00D-06 EigRej= -1.00D+00 NBFU=   123   105
 ExpMin= 5.57D-02 ExpMax= 1.40D+04 ExpMxC= 2.10D+03 IAcc=2 IRadAn=         4 AccDes= 0.00D+00
 Harris functional with IExCor=  205 and IRadAn=       4 diagonalized for initial guess.
 HarFok:  IExCor=  205 AccDes= 0.00D+00 IRadAn=         4 IDoV= 1 UseB2=F ITyADJ=14
 ICtDFT=  3500011 ScaDFX=  1.000000  1.000000  1.000000  1.000000
 FoFCou: FMM=F IPFlag=           0 FMFlag=      100000 FMFlg1=           0
         NFxFlg=           0 DoJE=T BraDBF=F KetDBF=T FulRan=T
         wScrn=  0.000000 ICntrl=     500 IOpCl=  0 I1Cent=   200000004 NGrid=           0
         NMat0=    1 NMatS0=      1 NMatT0=    0 NMatD0=    1 NMtDS0=    0 NMtDT0=    0
 Petite list used in FoFCou.
 Initial guess orbital symmetries:
       Occupied  (A') (A') (A") (A') (A") (A') (A") (A') (A") (A')
                 (A") (A') (A') (A') (A") (A') (A") (A') (A") (A')
                 (A') (A") (A') (A") (A") (A') (A') (A") (A') (A')
                 (A') (A") (A') (A") (A") (A') (A') (A") (A") (A')
                 (A') (A") (A") (A') (A') (A") (A') (A") (A') (A")
                 (A') (A") (A') (A") (A') (A") (A') (A") (A") (A')
                 (A') (A") (A') (A') (A") (A") (A') (A') (A') (A')
                 (A') (A") (A") (A") (A') (A') (A") (A')
       Virtual   (A') (A') (A") (A') (A") (A") (A') (A") (A") (A')
                 (A') (A') (A') (A") (A') (A") (A') (A') (A') (A")
                 (A') (A") (A") (A") (A') (A") (A') (A') (A") (A")
                 (A') (A') (A") (A") (A') (A") (A') (A') (A") (A')
                 (A') (A") (A") (A') (A') (A") (A') (A") (A") (A')
                 (A') (A') (A") (A') (A") (A') (A") (A') (A') (A")
                 (A') (A") (A') (A") (A') (A") (A') (A") (A') (A")
                 (A') (A") (A') (A") (A") (A') (A") (A') (A") (A")
                 (A') (A') (A') (A') (A") (A') (A") (A") (A') (A")
                 (A') (A') (A") (A') (A') (A") (A') (A") (A') (A")
                 (A') (A") (A") (A') (A") (A') (A') (A") (A') (A")
                 (A") (A') (A") (A') (A") (A') (A") (A") (A') (A")
                 (A') (A") (A") (A') (A') (A") (A') (A') (A") (A')
                 (A") (A') (A") (A") (A') (A") (A") (A') (A') (A')
                 (A") (A') (A") (A') (A') (A") (A") (A") (A') (A')
 The electronic state of the initial guess is 1-A'.
 Keep R1 ints in memory in symmetry-blocked form, NReq=511410267.
 Requested convergence on RMS density matrix=1.00D-08 within  64 cycles.
 Requested convergence on MAX density matrix=1.00D-06.
 Requested convergence on             energy=1.00D-06.
 No special actions if energy rises.
 SCF Done:  E(RHF) =  -2902.77391296     A.U. after   20 cycles
            NFock= 20  Conv=0.54D-08     -V/T= 2.0002
 QCSCF skips out because SCF is already converged.

 **********************************************************************

            Population analysis using the SCF density.

 **********************************************************************

 Orbital symmetries:
       Occupied  (A") (A') (A") (A') (A") (A') (A') (A") (A') (A")
                 (A') (A') (A') (A") (A') (A") (A") (A') (A') (A')
                 (A") (A") (A') (A') (A') (A") (A') (A") (A') (A")
                 (A') (A") (A') (A") (A') (A") (A') (A') (A") (A')
                 (A") (A") (A') (A") (A') (A') (A") (A') (A") (A')
                 (A") (A") (A') (A') (A") (A') (A") (A") (A') (A')
                 (A') (A") (A') (A') (A") (A") (A') (A') (A') (A')
                 (A") (A') (A") (A") (A') (A') (A") (A')
       Virtual   (A') (A") (A') (A") (A') (A") (A') (A") (A") (A')
                 (A') (A') (A') (A") (A') (A") (A') (A') (A') (A")
                 (A") (A') (A") (A") (A') (A") (A') (A') (A") (A")
                 (A') (A") (A") (A') (A') (A") (A") (A') (A') (A")
                 (A') (A') (A") (A') (A') (A") (A') (A") (A') (A")
                 (A") (A') (A') (A') (A") (A") (A') (A') (A') (A")
                 (A") (A') (A') (A") (A') (A") (A') (A") (A") (A')
                 (A") (A") (A") (A') (A') (A") (A') (A') (A") (A")
                 (A') (A') (A') (A") (A') (A') (A") (A") (A") (A')
                 (A') (A") (A') (A') (A') (A") (A') (A") (A') (A")
                 (A') (A") (A') (A") (A') (A") (A") (A') (A") (A')
                 (A") (A') (A") (A') (A") (A') (A") (A") (A') (A')
                 (A") (A") (A") (A') (A') (A") (A') (A') (A") (A")
                 (A') (A') (A") (A") (A') (A") (A") (A') (A') (A')
                 (A") (A') (A") (A') (A") (A') (A") (A") (A') (A')
 The electronic state is 1-A'.
 Alpha  occ. eigenvalues --  -58.48605 -58.48604 -58.48119 -58.48119 -58.47734
 Alpha  occ. eigenvalues --  -58.47733 -58.47548 -58.47327 -58.47327 -58.46994
 Alpha  occ. eigenvalues --  -58.46994 -58.42477  -4.90465  -4.90458  -4.90044
 Alpha  occ. eigenvalues --   -4.90035  -4.89652  -4.89652  -4.89649  -4.89370
 Alpha  occ. eigenvalues --   -4.89369  -4.89175  -4.89175  -4.85443  -3.21585
 Alpha  occ. eigenvalues --   -3.21571  -3.21555  -3.21541  -3.21464  -3.21423
 Alpha  occ. eigenvalues --   -3.21204  -3.21176  -3.21142  -3.21133  -3.21062
 Alpha  occ. eigenvalues --   -3.21009  -3.20884  -3.20802  -3.20780  -3.20780
 Alpha  occ. eigenvalues --   -3.20762  -3.20708  -3.20708  -3.20655  -3.20655
 Alpha  occ. eigenvalues --   -3.20465  -3.20465  -3.20419  -3.20414  -3.20350
 Alpha  occ. eigenvalues --   -3.20348  -3.20318  -3.20318  -3.20228  -3.20228
 Alpha  occ. eigenvalues --   -3.20177  -3.20175  -3.16783  -3.16782  -3.16745
 Alpha  occ. eigenvalues --   -0.69899  -0.60833  -0.56810  -0.54987  -0.45665
 Alpha  occ. eigenvalues --   -0.44367  -0.43617  -0.39541  -0.37927  -0.31095
 Alpha  occ. eigenvalues --   -0.27058  -0.26606  -0.26503  -0.25882  -0.24879
 Alpha  occ. eigenvalues --   -0.24103  -0.23121  -0.22835
 Alpha virt. eigenvalues --   -0.03745  -0.01587  -0.01180  -0.01108  -0.00386
 Alpha virt. eigenvalues --   -0.00104   0.00912   0.02778   0.05630   0.05783
 Alpha virt. eigenvalues --    0.06378   0.07286   0.07884   0.09867   0.10393
 Alpha virt. eigenvalues --    0.10979   0.11834   0.12813   0.13617   0.13757
 Alpha virt. eigenvalues --    0.14460   0.14731   0.15906   0.16207   0.16821
 Alpha virt. eigenvalues --    0.17406   0.17442   0.19799   0.19958   0.20319
 Alpha virt. eigenvalues --    0.21206   0.23942   0.24004   0.24154   0.25082
 Alpha virt. eigenvalues --    0.25810   0.26429   0.27129   0.27435   0.28656
 Alpha virt. eigenvalues --    0.28884   0.30100   0.30153   0.32102   0.32701
 Alpha virt. eigenvalues --    0.32889   0.33801   0.35345   0.35403   0.36590
 Alpha virt. eigenvalues --    0.38242   0.38714   0.38958   0.40228   0.40689
 Alpha virt. eigenvalues --    0.41135   0.41168   0.41755   0.41901   0.42362
 Alpha virt. eigenvalues --    0.42425   0.44211   0.44604   0.45708   0.46255
 Alpha virt. eigenvalues --    0.47230   0.48155   0.48621   0.49123   0.50366
 Alpha virt. eigenvalues --    0.50960   0.52045   0.52662   0.53176   0.53941
 Alpha virt. eigenvalues --    0.56983   0.57225   0.57754   0.60544   0.61216
 Alpha virt. eigenvalues --    0.61441   0.63132   0.63652   0.64237   0.64258
 Alpha virt. eigenvalues --    0.65530   0.66456   0.67348   0.67728   0.67798
 Alpha virt. eigenvalues --    0.68160   0.70254   0.70605   0.71857   0.73123
 Alpha virt. eigenvalues --    0.74121   0.75480   0.75616   0.76609   0.77375
 Alpha virt. eigenvalues --    0.79247   0.79515   0.79913   0.81051   0.81953
 Alpha virt. eigenvalues --    0.82744   0.83874   0.84589   0.87233   0.87451
 Alpha virt. eigenvalues --    0.88069   0.89103   0.90145   0.90483   0.91048
 Alpha virt. eigenvalues --    0.92381   0.94439   0.95811   0.97994   0.98687
 Alpha virt. eigenvalues --    0.98856   1.00789   1.01182   1.01329   1.03390
 Alpha virt. eigenvalues --    1.03748   1.04793   1.06876   1.07112   1.08056
 Alpha virt. eigenvalues --    1.08363   1.09715   1.11214   1.11427   1.11538
 Alpha virt. eigenvalues --    1.14998   1.23607   1.38798   2.22390   2.30293
 Alpha virt. eigenvalues --    2.30539   2.31216   2.34452   2.37493   2.38019
 Alpha virt. eigenvalues --    2.38647   2.39219   2.41527   2.42630   2.47843
          Condensed to atoms (all electrons):
               1          2          3          4          5          6
     1  Al  12.814451   0.007002   0.184121   0.148415  -0.031222   0.033586
     2  Al   0.007002  13.192956  -0.041245   0.000422   0.160616   0.009617
     3  Al   0.184121  -0.041245  13.192956  -0.018977   0.009617   0.160616
     4  Al   0.148415   0.000422  -0.018977  13.197994   0.000419   0.001808
     5  Al  -0.031222   0.160616   0.009617   0.000419  12.979062   0.144743
     6  Al   0.033586   0.009617   0.160616   0.001808   0.144743  12.979062
     7  Al  -0.037993  -0.003939   0.083294  -0.018139   0.023242  -0.025759
     8  Al  -0.003749   0.012866   0.012866   0.068688   0.029590   0.029590
     9  Al   0.167203   0.184121   0.007002   0.003680   0.033586  -0.031222
    10  Al   0.003680  -0.018977   0.000422  -0.092701   0.001808   0.000419
    11  Al   0.005123   0.083294  -0.003939   0.038104  -0.025759   0.023242
    12  Al  -0.400117  -0.639217  -0.639217  -0.376375  -0.457113  -0.457113
               7          8          9         10         11         12
     1  Al  -0.037993  -0.003749   0.167203   0.003680   0.005123  -0.400117
     2  Al  -0.003939   0.012866   0.184121  -0.018977   0.083294  -0.639217
     3  Al   0.083294   0.012866   0.007002   0.000422  -0.003939  -0.639217
     4  Al  -0.018139   0.068688   0.003680  -0.092701   0.038104  -0.376375
     5  Al   0.023242   0.029590   0.033586   0.001808  -0.025759  -0.457113
     6  Al  -0.025759   0.029590  -0.031222   0.000419   0.023242  -0.457113
     7  Al  13.161246  -0.005879   0.005123   0.038104   0.001130  -0.187730
     8  Al  -0.005879  12.906873  -0.003749   0.068688  -0.005879  -0.133329
     9  Al   0.005123  -0.003749  12.814451   0.148415  -0.037993  -0.400117
    10  Al   0.038104   0.068688   0.148415  13.197994  -0.018139  -0.376375
    11  Al   0.001130  -0.005879  -0.037993  -0.018139  13.161246  -0.187730
    12  Al  -0.187730  -0.133329  -0.400117  -0.376375  -0.187730  17.892562
 Mulliken charges:
               1
     1  Al   0.109500
     2  Al   0.052484
     3  Al   0.052484
     4  Al   0.046660
     5  Al   0.131411
     6  Al   0.131411
     7  Al  -0.032700
     8  Al   0.023422
     9  Al   0.109500
    10  Al   0.046660
    11  Al  -0.032700
    12  Al  -0.638130
 Sum of Mulliken charges =   0.00000
 Mulliken charges with hydrogens summed into heavy atoms:
               1
     1  Al   0.109500
     2  Al   0.052484
     3  Al   0.052484
     4  Al   0.046660
     5  Al   0.131411
     6  Al   0.131411
     7  Al  -0.032700
     8  Al   0.023422
     9  Al   0.109500
    10  Al   0.046660
    11  Al  -0.032700
    12  Al  -0.638130
 Electronic spatial extent (au):  <R**2>=           4295.4371
 Charge=              0.0000 electrons
 Dipole moment (field-independent basis, Debye):
    X=              0.3060    Y=              0.4950    Z=              0.0000  Tot=              0.5820
 Quadrupole moment (field-independent basis, Debye-Ang):
   XX=           -159.2805   YY=           -156.8377   ZZ=           -154.8306
   XY=              0.7574   XZ=              0.0000   YZ=              0.0000
 Traceless Quadrupole moment (field-independent basis, Debye-Ang):
   XX=             -2.2975   YY=              0.1452   ZZ=              2.1523
   XY=              0.7574   XZ=              0.0000   YZ=              0.0000
 Octapole moment (field-independent basis, Debye-Ang**2):
  XXX=             -5.9619  YYY=             11.9461  ZZZ=              0.0000  XYY=              1.9504
  XXY=             -7.3038  XXZ=              0.0000  XZZ=             10.5508  YZZ=              8.3361
  YYZ=              0.0000  XYZ=              0.0000
 Hexadecapole moment (field-independent basis, Debye-Ang**3):
 XXXX=          -2773.5215 YYYY=          -1920.7134 ZZZZ=          -3231.0769 XXXY=             15.4066
 XXXZ=              0.0000 YYYX=            -11.0189 YYYZ=              0.0000 ZZZX=              0.0000
 ZZZY=              0.0000 XXYY=           -781.8622 XXZZ=           -971.2616 YYZZ=           -875.9849
 XXYZ=              0.0000 YYXZ=              0.0000 ZZXY=             28.5586
 N-N= 1.685277376226D+03 E-N=-1.031303888302D+04  KE= 2.902188472292D+03
 Symmetry A'   KE= 1.653769027850D+03
 Symmetry A"   KE= 1.248419444442D+03

 Test job not archived.
 1\1\GINC-R1I1N6\SP\RHF\6-31G(d)\Al12\VSC31064\03-Oct-2016\0\\# hf/6-31
 G* test scf=xqc\\Al12-n-s-2\\0,1\Al,0,-0.82521087,2.50620124,1.2952847
 \Al,0,-1.18791381,0.17064976,-2.61148902\Al,0,-1.18791381,0.17064976,2
 .61148902\Al,0,1.472087,1.22903308,1.59625602\Al,0,-1.38100109,-2.1378
 6405,-1.32661773\Al,0,-1.38100109,-2.13786405,1.32661773\Al,0,1.105007
 73,-1.25756479,2.34348232\Al,0,2.08925491,-1.04699918,0.\Al,0,-0.82521
 087,2.50620124,-1.2952847\Al,0,1.472087,1.22903308,-1.59625602\Al,0,1.
 10500773,-1.25756479,-2.34348232\Al,0,-0.455511,0.02603104,0.\\Version
 =ES64L-G09RevD.01\State=1-A'\HF=-2902.773913\RMSD=5.363e-09\Dipole=0.1
 947164,-0.1204667,0.\Quadrupole=0.107625,-1.7078122,1.6001873,-0.56363
 74,0.,0.\PG=CS [SG(Al2),X(Al10)]\\@


 WHEN ALL ELSE FAILS, LOOK AT THE SCHRODINGER EQUATION.
     -- RUSSELL T. PACK, APRIL 1978
 Job cpu time:       0 days  0 hours  1 minutes 25.8 seconds.
 File lengths (MBytes):  RWF=     21 Int=      0 D2E=      0 Chk=      3 Scr=      1
 Normal termination of Gaussian 09 at Mon Oct  3 19:29:12 2016.
 Initial command:
 /apps/leuven/thinking/software/G09//g09D1/l1.exe "/local_scratch/vsc31064/Gau-23157.inp" -scrdir="/local_scratch/vsc31064/"
 Entering Link 1 = /apps/leuven/thinking/software/G09//g09D1/l1.exe PID=     23403.
  
 Copyright (c) 1988,1990,1992,1993,1995,1998,2003,2009,2013,
            Gaussian, Inc.  All Rights Reserved.
  
 This is part of the Gaussian(R) 09 program.  It is based on
 the Gaussian(R) 03 system (copyright 2003, Gaussian, Inc.),
 the Gaussian(R) 98 system (copyright 1998, Gaussian, Inc.),
 the Gaussian(R) 94 system (copyright 1995, Gaussian, Inc.),
 the Gaussian 92(TM) system (copyright 1992, Gaussian, Inc.),
 the Gaussian 90(TM) system (copyright 1990, Gaussian, Inc.),
 the Gaussian 88(TM) system (copyright 1988, Gaussian, Inc.),
 the Gaussian 86(TM) system (copyright 1986, Carnegie Mellon
 University), and the Gaussian 82(TM) system (copyright 1983,
 Carnegie Mellon University). Gaussian is a federally registered
 trademark of Gaussian, Inc.
  
 This software contains proprietary and confidential information,
 including trade secrets, belonging to Gaussian, Inc.
  
 This software is provided under written license and may be
 used, copied, transmitted, or stored only in accord with that
 written license.
  
 The following legend is applicable only to US Government
 contracts under FAR:
  
                    RESTRICTED RIGHTS LEGEND
  
 Use, reproduction and disclosure by the US Government is
 subject to restrictions as set forth in subparagraphs (a)
 and (c) of the Commercial Computer Software - Restricted
 Rights clause in FAR 52.227-19.
  
 Gaussian, Inc.
 340 Quinnipiac St., Bldg. 40, Wallingford CT 06492
  
  
 ---------------------------------------------------------------
 Warning -- This program may not be used in any manner that
 competes with the business of Gaussian, Inc. or will provide
 assistance to any competitor of Gaussian, Inc.  The licensee
 of this program is prohibited from giving any competitor of
 Gaussian, Inc. access to this program.  By using this program,
 the user acknowledges that Gaussian, Inc. is engaged in the
 business of creating and licensing software in the field of
 computational chemistry and represents and warrants to the
 licensee that it is not a competitor of Gaussian, Inc. and that
 it will not use this program in any manner prohibited above.
 ---------------------------------------------------------------
  

 Cite this work as:
 Gaussian 09, Revision D.01,
 M. J. Frisch, G. W. Trucks, H. B. Schlegel, G. E. Scuseria, 
 M. A. Robb, J. R. Cheeseman, G. Scalmani, V. Barone, B. Mennucci, 
 G. A. Petersson, H. Nakatsuji, M. Caricato, X. Li, H. P. Hratchian, 
 A. F. Izmaylov, J. Bloino, G. Zheng, J. L. Sonnenberg, M. Hada, 
 M. Ehara, K. Toyota, R. Fukuda, J. Hasegawa, M. Ishida, T. Nakajima, 
 Y. Honda, O. Kitao, H. Nakai, T. Vreven, J. A. Montgomery, Jr., 
 J. E. Peralta, F. Ogliaro, M. Bearpark, J. J. Heyd, E. Brothers, 
 K. N. Kudin, V. N. Staroverov, T. Keith, R. Kobayashi, J. Normand, 
 K. Raghavachari, A. Rendell, J. C. Burant, S. S. Iyengar, J. Tomasi, 
 M. Cossi, N. Rega, J. M. Millam, M. Klene, J. E. Knox, J. B. Cross, 
 V. Bakken, C. Adamo, J. Jaramillo, R. Gomperts, R. E. Stratmann, 
 O. Yazyev, A. J. Austin, R. Cammi, C. Pomelli, J. W. Ochterski, 
 R. L. Martin, K. Morokuma, V. G. Zakrzewski, G. A. Voth, 
 P. Salvador, J. J. Dannenberg, S. Dapprich, A. D. Daniels, 
 O. Farkas, J. B. Foresman, J. V. Ortiz, J. Cioslowski, 
 and D. J. Fox, Gaussian, Inc., Wallingford CT, 2013.
 
 ******************************************
 Gaussian 09:  ES64L-G09RevD.01 24-Apr-2013
                 3-Oct-2016 
 ******************************************
 %NprocShared=20
 Will use up to   20 processors via shared memory.
 %mem=55000mb
 %chk=cc-Al12-n-s-2
 --------------------------------------------------------
 # CCSD(T,conver=5)/cc-pVTZ test geom=allcheck guess=read
 --------------------------------------------------------
 1/29=7,38=1/1;
 2/12=2,40=1/2;
 3/5=16,6=1,11=9,14=-4,16=1,25=1,30=1,116=-2/1,2,3;
 4/5=1/1;
 5/5=2,38=6/2;
 8/6=4,9=120000,10=1/1,4;
 9/5=7,9=5,14=2/13;
 6/7=2,8=2,9=2,10=2/1;
 99/5=1,9=1/99;
 Structure from the checkpoint file:  "cc-Al12-n-s-2.chk"
 ----------
 Al12-n-s-2
 ----------
 Charge =  0 Multiplicity = 1
 Z-Matrix found in file.
 Al,0,-0.82521087,2.50620124,1.2952847
 Al,0,-1.18791381,0.17064976,-2.61148902
 Al,0,-1.18791381,0.17064976,2.61148902
 Al,0,1.472087,1.22903308,1.59625602
 Al,0,-1.38100109,-2.13786405,-1.32661773
 Al,0,-1.38100109,-2.13786405,1.32661773
 Al,0,1.10500773,-1.25756479,2.34348232
 Al,0,2.08925491,-1.04699918,0.
 Al,0,-0.82521087,2.50620124,-1.2952847
 Al,0,1.472087,1.22903308,-1.59625602
 Al,0,1.10500773,-1.25756479,-2.34348232
 Al,0,-0.455511,0.02603104,0.
 Recover connectivity data from disk.
                          Input orientation:                          
 ---------------------------------------------------------------------
 Center     Atomic      Atomic             Coordinates (Angstroms)
 Number     Number       Type             X           Y           Z
 ---------------------------------------------------------------------
      1         13           0       -0.825211    2.506201    1.295285
      2         13           0       -1.187914    0.170650   -2.611489
      3         13           0       -1.187914    0.170650    2.611489
      4         13           0        1.472087    1.229033    1.596256
      5         13           0       -1.381001   -2.137864   -1.326618
      6         13           0       -1.381001   -2.137864    1.326618
      7         13           0        1.105008   -1.257565    2.343482
      8         13           0        2.089255   -1.046999    0.000000
      9         13           0       -0.825211    2.506201   -1.295285
     10         13           0        1.472087    1.229033   -1.596256
     11         13           0        1.105008   -1.257565   -2.343482
     12         13           0       -0.455511    0.026031    0.000000
 ---------------------------------------------------------------------
                    Distance matrix (angstroms):
                    1          2          3          4          5
     1  Al   0.000000
     2  Al   4.566096   0.000000
     3  Al   2.705318   5.222978   0.000000
     4  Al   2.645623   5.089292   3.037512   0.000000
     5  Al   5.361960   2.649040   4.568939   5.293326   0.000000
     6  Al   4.677310   4.568939   2.649040   4.421404   2.653235
     7  Al   4.357797   5.643494   2.714611   2.622263   4.519381
     8  Al   4.774632   4.363757   4.363757   2.847675   3.872025
     9  Al   2.590569   2.705318   4.566096   3.907652   4.677310
    10  Al   3.907652   3.037512   5.089292   3.192512   4.421404
    11  Al   5.579633   2.714611   5.643494   4.673270   2.826514
    12  Al   2.822354   2.716101   2.716101   2.776847   2.701646
                    6          7          8          9         10
     6  Al   0.000000
     7  Al   2.826514   0.000000
     8  Al   3.872025   2.550488   0.000000
     9  Al   5.361960   5.579633   4.774632   0.000000
    10  Al   5.293326   4.673270   2.847675   2.645623   0.000000
    11  Al   4.519381   4.686965   2.550488   4.357797   2.622263
    12  Al   2.701646   3.094309   2.761744   2.822354   2.776847
                   11         12
    11  Al   0.000000
    12  Al   3.094309   0.000000
 Stoichiometry    Al12
 Framework group  CS[SG(Al2),X(Al10)]
 Deg. of freedom    16
 Full point group                 CS      NOp   2
 Largest Abelian subgroup         CS      NOp   2
 Largest concise Abelian subgroup CS      NOp   2
                         Standard orientation:                         
 ---------------------------------------------------------------------
 Center     Atomic      Atomic             Coordinates (Angstroms)
 Number     Number       Type             X           Y           Z
 ---------------------------------------------------------------------
      1         13           0       -2.505950   -0.825961    1.295285
      2         13           0       -0.170286   -1.187940   -2.611489
      3         13           0       -0.170286   -1.187940    2.611489
      4         13           0       -1.229494    1.471732    1.596256
      5         13           0        2.138287   -1.380312   -1.326618
      6         13           0        2.138287   -1.380312    1.326618
      7         13           0        1.257217    1.105424    2.343482
      8         13           0        1.046347    2.089606    0.000000
      9         13           0       -2.505950   -0.825961   -1.295285
     10         13           0       -1.229494    1.471732   -1.596256
     11         13           0        1.257217    1.105424   -2.343482
     12         13           0       -0.025895   -0.455493    0.000000
 ---------------------------------------------------------------------
 Rotational constants (GHZ):      0.3870802      0.3348197      0.2853652
 Standard basis: CC-pVTZ (5D, 7F)
 There are   249 symmetry adapted cartesian basis functions of A'  symmetry.
 There are   219 symmetry adapted cartesian basis functions of A"  symmetry.
 There are   216 symmetry adapted basis functions of A'  symmetry.
 There are   192 symmetry adapted basis functions of A"  symmetry.
   408 basis functions,  1140 primitive gaussians,   468 cartesian basis functions
    78 alpha electrons       78 beta electrons
       nuclear repulsion energy      1685.2773762263 Hartrees.
 NAtoms=   12 NActive=   12 NUniq=    7 SFac= 2.94D+00 NAtFMM=   60 NAOKFM=F Big=F
 Integral buffers will be    131072 words long.
 Raffenetti 1 integral format.
 Two-electron integral symmetry is turned on.
 One-electron integrals computed using PRISM.
 NBasis=   408 RedAO= T EigKep=  2.21D-04  NBF=   216   192
 NBsUse=   408 1.00D-06 EigRej= -1.00D+00 NBFU=   216   192
 Initial guess from the checkpoint file:  "cc-Al12-n-s-2.chk"
 B after Tr=     0.000000    0.000000    0.000000
         Rot=    1.000000    0.000000    0.000000    0.000000 Ang=   0.00 deg.
 Initial guess orbital symmetries:
       Occupied  (A") (A') (A") (A') (A") (A') (A') (A") (A') (A")
                 (A') (A') (A') (A") (A') (A") (A") (A') (A') (A')
                 (A") (A") (A') (A') (A') (A") (A') (A") (A') (A")
                 (A') (A") (A') (A") (A') (A") (A') (A') (A") (A')
                 (A") (A") (A') (A") (A') (A') (A") (A') (A") (A')
                 (A") (A") (A') (A') (A") (A') (A") (A") (A') (A')
                 (A') (A") (A') (A') (A") (A") (A') (A') (A') (A')
                 (A") (A') (A") (A") (A') (A') (A") (A')
       Virtual   (A') (A') (A') (A') (A') (A') (A') (A') (A') (A')
                 (A') (A') (A') (A') (A') (A') (A') (A') (A') (A')
                 (A') (A') (A') (A') (A') (A') (A') (A') (A') (A')
                 (A') (A') (A') (A') (A') (A') (A') (A') (A') (A')
                 (A') (A') (A') (A') (A') (A') (A') (A') (A') (A')
                 (A') (A') (A') (A') (A') (A') (A') (A') (A') (A')
                 (A') (A') (A') (A') (A') (A') (A') (A') (A') (A')
                 (A') (A') (A') (A') (A') (A') (A') (A') (A') (A')
                 (A') (A') (A') (A') (A') (A') (A') (A') (A') (A')
                 (A') (A') (A') (A') (A') (A') (A') (A') (A') (A')
                 (A') (A') (A') (A') (A') (A') (A') (A') (A') (A')
                 (A') (A') (A') (A') (A') (A') (A') (A') (A') (A')
                 (A') (A') (A') (A') (A') (A') (A') (A') (A') (A')
                 (A') (A') (A') (A') (A') (A') (A') (A') (A') (A')
                 (A') (A') (A') (A') (A') (A') (A') (A') (A') (A')
                 (A') (A') (A') (A') (A') (A') (A') (A') (A') (A')
                 (A') (A') (A') (A') (A') (A') (A') (A') (A') (A')
                 (A') (A') (A") (A") (A") (A") (A") (A") (A") (A")
                 (A") (A") (A") (A") (A") (A") (A") (A") (A") (A")
                 (A") (A") (A") (A") (A") (A") (A") (A") (A") (A")
                 (A") (A") (A") (A") (A") (A") (A") (A") (A") (A")
                 (A") (A") (A") (A") (A") (A") (A") (A") (A") (A")
                 (A") (A") (A") (A") (A") (A") (A") (A") (A") (A")
                 (A") (A") (A") (A") (A") (A") (A") (A") (A") (A")
                 (A") (A") (A") (A") (A") (A") (A") (A") (A") (A")
                 (A") (A") (A") (A") (A") (A") (A") (A") (A") (A")
                 (A") (A") (A") (A") (A") (A") (A") (A") (A") (A")
                 (A") (A") (A") (A") (A") (A") (A") (A") (A") (A")
                 (A") (A") (A") (A") (A") (A") (A") (A") (A") (A")
                 (A") (A") (A") (A") (A") (A") (A") (A") (A") (A")
                 (A") (A") (A") (A") (A") (A") (A") (A") (A") (A")
                 (A") (A") (A") (A") (A") (A") (A") (A") (A") (A")
                 (A") (A") (A") (A") (A") (A") (A") (A") (A") (A")
 Keep R1 ints in memory in symmetry-blocked form, NReq=5222177990.
 Requested convergence on RMS density matrix=1.00D-08 within 128 cycles.
 Requested convergence on MAX density matrix=1.00D-06.
 Requested convergence on             energy=1.00D-06.
 No special actions if energy rises.
 SCF Done:  E(RHF) =  -2903.03062186     A.U. after   17 cycles
            NFock= 17  Conv=0.52D-08     -V/T= 1.9999
 ExpMin= 5.56D-02 ExpMax= 2.06D+05 ExpMxC= 1.99D+03 IAcc=3 IRadAn=         5 AccDes= 0.00D+00
 HarFok:  IExCor=  205 AccDes= 0.00D+00 IRadAn=         5 IDoV=-2 UseB2=F ITyADJ=14
 ICtDFT= 12500011 ScaDFX=  1.000000  1.000000  1.000000  1.000000
 DSYEVD-2 returned Info=          69 IAlg= 4 N=    34 NDim=    34 NE2=   212014215 trying  DSYEV.
 Range of M.O.s used for correlation:    61   408
 NBasis=   408 NAE=    78 NBE=    78 NFC=    60 NFV=     0
 NROrb=    348 NOA=    18 NOB=    18 NVA=   330 NVB=   330

 **** Warning!!: The largest alpha MO coefficient is  0.30153355D+02

 Semi-Direct transformation.
 ModeAB=           4 MOrb=            18 LenV=    7205147143
 LASXX=    183481089 LTotXX=   183481089 LenRXX=   368533300
 LTotAB=   185052211 MaxLAS=   354009960 LenRXY=           0
 NonZer=   552014389 LenScr=   831268864 LnRSAI=   354009960
 LnScr1=   533097472 LExtra=           0 Total=   2086909596
 MaxDsk=          -1 SrtSym=           T ITran=            4
 JobTyp=0 Pass  1:  I=   1 to  18.
 (rs|ai) integrals will be sorted in core.
 Spin components of T(2) and E(2):
     alpha-alpha T2 =       0.1898681545D+00 E2=     -0.1691340362D+00
     alpha-beta  T2 =       0.7693239113D+00 E2=     -0.7937587348D+00
     beta-beta   T2 =       0.1898681545D+00 E2=     -0.1691340362D+00
 ANorm=    0.1465967333D+01
 E2 =    -0.1132026807D+01 EUMP2 =    -0.29041626486639D+04
 Keep R2 and R3 ints in memory in symmetry-blocked form, NReq=5221654100.
 Iterations=  50 Convergence= 0.100D-04
 Iteration Nr.   1
 **********************
 DD1Dir will call FoFMem   1 times, MxPair=       342
 NAB=   171 NAA=     0 NBB=     0.
 MP4(R+Q)=  0.84060471D-01
 E3=        0.15572836D+00        EUMP3=      -0.29040069203D+04
 E4(DQ)=   -0.75455209D-01        UMP4(DQ)=   -0.29040823755D+04
 E4(SDQ)=  -0.95378428D-01        UMP4(SDQ)=  -0.29041022987D+04
 DE(Corr)= -0.89266675     E(Corr)=     -2903.9232886    
 NORM(A)=   0.13241290D+01
 Iteration Nr.   2
 **********************
 DD1Dir will call FoFMem   1 times, MxPair=       342
 NAB=   171 NAA=     0 NBB=     0.
 DE(Corr)=  -1.0500060     E(CORR)=     -2904.0806279     Delta=-1.57D-01
 NORM(A)=   0.13825021D+01
 Iteration Nr.   3
 **********************
 DD1Dir will call FoFMem   1 times, MxPair=       342
 NAB=   171 NAA=     0 NBB=     0.
 DE(Corr)=  -1.0129120     E(CORR)=     -2904.0435338     Delta= 3.71D-02
 NORM(A)=   0.13927499D+01
 Iteration Nr.   4
 **********************
 DD1Dir will call FoFMem   1 times, MxPair=       342
 NAB=   171 NAA=     0 NBB=     0.
 DE(Corr)=  -1.0203794     E(CORR)=     -2904.0510013     Delta=-7.47D-03
 NORM(A)=   0.13959459D+01
 Iteration Nr.   5
 **********************
 DD1Dir will call FoFMem   1 times, MxPair=       342
 NAB=   171 NAA=     0 NBB=     0.
 DE(Corr)=  -1.0221557     E(CORR)=     -2904.0527776     Delta=-1.78D-03
 NORM(A)=   0.14008937D+01
 Iteration Nr.   6
 **********************
 DD1Dir will call FoFMem   1 times, MxPair=       342
 NAB=   171 NAA=     0 NBB=     0.
 DE(Corr)=  -1.0221319     E(CORR)=     -2904.0527538     Delta= 2.38D-05
 NORM(A)=   0.14037523D+01
 Iteration Nr.   7
 **********************
 DD1Dir will call FoFMem   1 times, MxPair=       342
 NAB=   171 NAA=     0 NBB=     0.
 DE(Corr)=  -1.0220937     E(CORR)=     -2904.0527156     Delta= 3.82D-05
 NORM(A)=   0.14036343D+01
 Iteration Nr.   8
 **********************
 DD1Dir will call FoFMem   1 times, MxPair=       342
 NAB=   171 NAA=     0 NBB=     0.
 DE(Corr)=  -1.0225712     E(CORR)=     -2904.0531931     Delta=-4.78D-04
 NORM(A)=   0.14042702D+01
 Iteration Nr.   9
 **********************
 DD1Dir will call FoFMem   1 times, MxPair=       342
 NAB=   171 NAA=     0 NBB=     0.
 DE(Corr)=  -1.0222061     E(CORR)=     -2904.0528279     Delta= 3.65D-04
 NORM(A)=   0.14042525D+01
 Iteration Nr.  10
 **********************
 DD1Dir will call FoFMem   1 times, MxPair=       342
 NAB=   171 NAA=     0 NBB=     0.
 DE(Corr)=  -1.0223973     E(CORR)=     -2904.0530191     Delta=-1.91D-04
 NORM(A)=   0.14042233D+01
 Iteration Nr.  11
 **********************
 DD1Dir will call FoFMem   1 times, MxPair=       342
 NAB=   171 NAA=     0 NBB=     0.
 DE(Corr)=  -1.0223344     E(CORR)=     -2904.0529562     Delta= 6.29D-05
 NORM(A)=   0.14043037D+01
 Iteration Nr.  12
 **********************
 DD1Dir will call FoFMem   1 times, MxPair=       342
 NAB=   171 NAA=     0 NBB=     0.
 DE(Corr)=  -1.0223320     E(CORR)=     -2904.0529538     Delta= 2.40D-06
 NORM(A)=   0.14042756D+01
 Iteration Nr.  13
 **********************
 DD1Dir will call FoFMem   1 times, MxPair=       342
 NAB=   171 NAA=     0 NBB=     0.
 DE(Corr)=  -1.0223449     E(CORR)=     -2904.0529667     Delta=-1.29D-05
 NORM(A)=   0.14042792D+01
 Iteration Nr.  14
 **********************
 DD1Dir will call FoFMem   1 times, MxPair=       342
 NAB=   171 NAA=     0 NBB=     0.
 DE(Corr)=  -1.0223453     E(CORR)=     -2904.0529671     Delta=-4.26D-07
 NORM(A)=   0.14042910D+01
 Iteration Nr.  15
 **********************
 DD1Dir will call FoFMem   1 times, MxPair=       342
 NAB=   171 NAA=     0 NBB=     0.
 DE(Corr)=  -1.0223350     E(CORR)=     -2904.0529569     Delta= 1.03D-05
 NORM(A)=   0.14042807D+01
 Iteration Nr.  16
 **********************
 DD1Dir will call FoFMem   1 times, MxPair=       342
 NAB=   171 NAA=     0 NBB=     0.
 DE(Corr)=  -1.0223458     E(CORR)=     -2904.0529676     Delta=-1.08D-05
 NORM(A)=   0.14042830D+01
 Iteration Nr.  17
 **********************
 DD1Dir will call FoFMem   1 times, MxPair=       342
 NAB=   171 NAA=     0 NBB=     0.
 DE(Corr)=  -1.0223397     E(CORR)=     -2904.0529615     Delta= 6.11D-06
 NORM(A)=   0.14042843D+01
 Largest amplitude= 7.09D-02
 Time for triples=    61816.53 seconds.
 T4(CCSD)= -0.14773579D+00
 T5(CCSD)=  0.42081012D-02
 CCSD(T)= -0.29041964892D+04
 Discarding MO integrals.

 **********************************************************************

            Population analysis using the SCF density.

 **********************************************************************

 Orbital symmetries:
       Occupied  (A') (A") (A') (A") (A") (A') (A') (A') (A") (A")
                 (A') (A') (A') (A") (A') (A") (A') (A") (A') (A')
                 (A") (A") (A') (A') (A') (A") (A') (A") (A') (A")
                 (A') (A") (A') (A") (A') (A") (A') (A") (A') (A")
                 (A') (A") (A') (A') (A") (A') (A") (A') (A") (A')
                 (A") (A') (A") (A') (A") (A') (A") (A") (A') (A')
                 (A') (A") (A') (A') (A") (A") (A') (A') (A') (A')
                 (A") (A') (A") (A") (A') (A') (A") (A')
       Virtual   (A') (A") (A') (A") (A') (A") (A') (A") (A") (A')
                 (A') (A') (A') (A") (A') (A") (A') (A') (A') (A")
                 (A") (A') (A") (A") (A') (A') (A") (A') (A") (A')
                 (A") (A') (A") (A") (A') (A') (A') (A") (A') (A')
                 (A") (A") (A') (A") (A') (A") (A') (A') (A") (A")
                 (A') (A") (A') (A') (A") (A") (A') (A') (A') (A")
                 (A') (A") (A") (A') (A') (A") (A") (A') (A') (A")
                 (A') (A") (A') (A") (A') (A") (A") (A') (A') (A")
                 (A') (A") (A') (A') (A") (A') (A") (A") (A') (A')
                 (A") (A') (A") (A') (A") (A') (A") (A') (A") (A')
                 (A") (A') (A") (A') (A') (A") (A') (A') (A") (A')
                 (A") (A") (A') (A") (A') (A") (A') (A") (A") (A')
                 (A") (A') (A') (A") (A') (A") (A') (A") (A') (A")
                 (A') (A") (A") (A') (A") (A") (A') (A') (A') (A")
                 (A') (A") (A') (A') (A") (A') (A") (A') (A") (A')
                 (A") (A") (A') (A') (A') (A") (A') (A') (A") (A")
                 (A') (A') (A') (A") (A") (A') (A") (A') (A") (A')
                 (A") (A') (A") (A') (A") (A') (A') (A") (A') (A")
                 (A') (A") (A') (A") (A") (A') (A") (A') (A") (A')
                 (A") (A') (A") (A") (A') (A') (A') (A") (A") (A')
                 (A") (A') (A") (A') (A") (A') (A") (A") (A") (A')
                 (A') (A') (A') (A") (A") (A') (A") (A') (A') (A")
                 (A') (A") (A") (A') (A') (A') (A') (A") (A") (A')
                 (A") (A') (A') (A") (A') (A") (A") (A') (A") (A')
                 (A') (A") (A') (A') (A") (A') (A") (A") (A") (A')
                 (A') (A") (A') (A") (A') (A") (A") (A') (A") (A')
                 (A") (A") (A') (A') (A') (A") (A') (A") (A') (A')
                 (A") (A") (A') (A") (A") (A') (A") (A") (A") (A')
                 (A") (A") (A') (A') (A') (A") (A') (A') (A") (A')
                 (A") (A') (A") (A') (A') (A") (A') (A") (A') (A")
                 (A") (A') (A") (A") (A') (A') (A") (A") (A') (A')
                 (A') (A") (A') (A") (A") (A") (A') (A") (A') (A')
                 (A') (A") (A') (A') (A") (A") (A") (A') (A") (A')
 The electronic state is 1-A'.
 Alpha  occ. eigenvalues --  -58.49446 -58.49446 -58.48947 -58.48947 -58.48578
 Alpha  occ. eigenvalues --  -58.48578 -58.48477 -58.48225 -58.48225 -58.47974
 Alpha  occ. eigenvalues --  -58.47974 -58.43669  -4.90558  -4.90551  -4.90114
 Alpha  occ. eigenvalues --   -4.90105  -4.89764  -4.89741  -4.89741  -4.89457
 Alpha  occ. eigenvalues --   -4.89456  -4.89307  -4.89306  -4.85679  -3.21703
 Alpha  occ. eigenvalues --   -3.21684  -3.21658  -3.21647  -3.21611  -3.21569
 Alpha  occ. eigenvalues --   -3.21289  -3.21260  -3.21224  -3.21214  -3.21187
 Alpha  occ. eigenvalues --   -3.21134  -3.21017  -3.20943  -3.20943  -3.20890
 Alpha  occ. eigenvalues --   -3.20890  -3.20825  -3.20825  -3.20792  -3.20791
 Alpha  occ. eigenvalues --   -3.20573  -3.20572  -3.20527  -3.20520  -3.20492
 Alpha  occ. eigenvalues --   -3.20491  -3.20462  -3.20462  -3.20399  -3.20398
 Alpha  occ. eigenvalues --   -3.20369  -3.20368  -3.17060  -3.17055  -3.17038
 Alpha  occ. eigenvalues --   -0.69622  -0.60582  -0.56654  -0.54818  -0.45513
 Alpha  occ. eigenvalues --   -0.44213  -0.43449  -0.39447  -0.37853  -0.31079
 Alpha  occ. eigenvalues --   -0.26986  -0.26545  -0.26446  -0.25799  -0.24807
 Alpha  occ. eigenvalues --   -0.24072  -0.23169  -0.22891
 Alpha virt. eigenvalues --   -0.03729  -0.01596  -0.01280  -0.01093  -0.00426
 Alpha virt. eigenvalues --   -0.00109   0.00791   0.02774   0.05504   0.05579
 Alpha virt. eigenvalues --    0.05931   0.07079   0.07620   0.09305   0.09932
 Alpha virt. eigenvalues --    0.09945   0.10661   0.11727   0.12907   0.12957
 Alpha virt. eigenvalues --    0.13611   0.14139   0.15315   0.15628   0.15823
 Alpha virt. eigenvalues --    0.16381   0.16568   0.17344   0.17561   0.17820
 Alpha virt. eigenvalues --    0.18271   0.18917   0.19083   0.19358   0.19901
 Alpha virt. eigenvalues --    0.20771   0.21506   0.21816   0.22054   0.23162
 Alpha virt. eigenvalues --    0.23181   0.23855   0.23925   0.24893   0.24942
 Alpha virt. eigenvalues --    0.25129   0.25525   0.26527   0.27018   0.27821
 Alpha virt. eigenvalues --    0.28363   0.28461   0.28713   0.29444   0.29884
 Alpha virt. eigenvalues --    0.30575   0.30825   0.30903   0.31775   0.32309
 Alpha virt. eigenvalues --    0.33284   0.33866   0.34638   0.34668   0.35399
 Alpha virt. eigenvalues --    0.36658   0.36887   0.37260   0.37611   0.37861
 Alpha virt. eigenvalues --    0.38068   0.38515   0.39529   0.39832   0.40069
 Alpha virt. eigenvalues --    0.40458   0.42083   0.42104   0.42281   0.44333
 Alpha virt. eigenvalues --    0.44396   0.46460   0.47151   0.47204   0.47803
 Alpha virt. eigenvalues --    0.47976   0.48850   0.49493   0.49641   0.49955
 Alpha virt. eigenvalues --    0.50428   0.50786   0.51051   0.52098   0.52908
 Alpha virt. eigenvalues --    0.53517   0.53585   0.54473   0.54494   0.54880
 Alpha virt. eigenvalues --    0.54985   0.55326   0.57195   0.57442   0.57737
 Alpha virt. eigenvalues --    0.59158   0.59536   0.59864   0.60248   0.60355
 Alpha virt. eigenvalues --    0.60558   0.61359   0.62911   0.63084   0.63448
 Alpha virt. eigenvalues --    0.64318   0.64648   0.65441   0.65658   0.66159
 Alpha virt. eigenvalues --    0.66931   0.67045   0.68320   0.68783   0.69074
 Alpha virt. eigenvalues --    0.69473   0.69996   0.70740   0.70747   0.71341
 Alpha virt. eigenvalues --    0.72580   0.72991   0.73943   0.74939   0.75111
 Alpha virt. eigenvalues --    0.76379   0.77925   0.78846   0.79134   0.79708
 Alpha virt. eigenvalues --    0.81387   0.81508   0.81650   0.83045   0.83156
 Alpha virt. eigenvalues --    0.84036   0.85636   0.86281   0.86792   0.87408
 Alpha virt. eigenvalues --    0.87761   0.89188   0.89450   0.90066   0.90304
 Alpha virt. eigenvalues --    0.91213   0.91289   0.91665   0.91981   0.92362
 Alpha virt. eigenvalues --    0.93184   0.93933   0.94927   0.94974   0.95184
 Alpha virt. eigenvalues --    0.95494   0.96342   0.96509   0.96882   0.98060
 Alpha virt. eigenvalues --    0.98688   0.98741   0.99360   0.99599   1.00487
 Alpha virt. eigenvalues --    1.00540   1.01443   1.01537   1.02107   1.02985
 Alpha virt. eigenvalues --    1.03050   1.03512   1.03592   1.04527   1.05303
 Alpha virt. eigenvalues --    1.05683   1.05921   1.06305   1.06682   1.07496
 Alpha virt. eigenvalues --    1.07559   1.08912   1.09080   1.10539   1.10900
 Alpha virt. eigenvalues --    1.11189   1.11529   1.11696   1.13721   1.14211
 Alpha virt. eigenvalues --    1.14442   1.14566   1.15379   1.15496   1.16471
 Alpha virt. eigenvalues --    1.16960   1.17075   1.18785   1.19678   1.19834
 Alpha virt. eigenvalues --    1.21288   1.21863   1.22262   1.22554   1.22940
 Alpha virt. eigenvalues --    1.23806   1.24168   1.25092   1.25336   1.25865
 Alpha virt. eigenvalues --    1.26841   1.27360   1.28365   1.28678   1.29605
 Alpha virt. eigenvalues --    1.29973   1.30804   1.31399   1.32788   1.32811
 Alpha virt. eigenvalues --    1.33763   1.34121   1.36001   1.36729   1.36941
 Alpha virt. eigenvalues --    1.37326   1.38074   1.38367   1.39276   1.39350
 Alpha virt. eigenvalues --    1.40064   1.42019   1.42225   1.43604   1.44570
 Alpha virt. eigenvalues --    1.44902   1.45004   1.46053   1.46829   1.47188
 Alpha virt. eigenvalues --    1.47668   1.47736   1.49465   1.49707   1.50067
 Alpha virt. eigenvalues --    1.50367   1.51016   1.51612   1.51680   1.52554
 Alpha virt. eigenvalues --    1.53216   1.53906   1.54154   1.55383   1.55814
 Alpha virt. eigenvalues --    1.56081   1.57765   1.58233   1.58623   1.59262
 Alpha virt. eigenvalues --    1.60144   1.60565   1.61200   1.61983   1.66020
 Alpha virt. eigenvalues --    1.66609   1.66713   1.69108   1.71048   1.73483
 Alpha virt. eigenvalues --    1.76691   1.80123   2.37342   2.44020   2.45771
 Alpha virt. eigenvalues --    2.46819   2.50793   2.53262   2.53371   2.53710
 Alpha virt. eigenvalues --    2.58144   2.59368   2.60171   2.63740   2.67126
 Alpha virt. eigenvalues --    2.67998   2.69331   2.70669   2.72696   2.73372
 Alpha virt. eigenvalues --    2.74238   2.75630   2.77363   2.79494   2.80142
 Alpha virt. eigenvalues --    2.84680   2.85758   2.89426   2.91171   2.95398
 Alpha virt. eigenvalues --    3.03314   3.05108   3.06282   3.08194   3.16787
 Alpha virt. eigenvalues --    3.18818   3.20769   3.32422   3.36404   3.38254
 Alpha virt. eigenvalues --    3.50362   3.52214   3.70057   3.71316   3.71875
 Alpha virt. eigenvalues --    3.78784   3.87934   3.89415   4.33988   5.75840
          Condensed to atoms (all electrons):
               1          2          3          4          5          6
     1  Al  12.060401  -0.025441   0.299761   0.294380   0.002538  -0.024172
     2  Al  -0.025441  12.155255   0.000522  -0.005110   0.310275  -0.022397
     3  Al   0.299761   0.000522  12.155255   0.043714  -0.022397   0.310275
     4  Al   0.294380  -0.005110   0.043714  12.284558  -0.000251  -0.021309
     5  Al   0.002538   0.310275  -0.022397  -0.000251  12.127680   0.325012
     6  Al  -0.024172  -0.022397   0.310275  -0.021309   0.325012  12.127680
     7  Al  -0.026764  -0.000991   0.223916   0.248078  -0.018645   0.178182
     8  Al  -0.015017  -0.030536  -0.030536   0.143212  -0.005193  -0.005193
     9  Al   0.358742   0.299761  -0.025441  -0.019654  -0.024172   0.002538
    10  Al  -0.019654   0.043714  -0.005110   0.056722  -0.021309  -0.000251
    11  Al   0.000170   0.223916  -0.000991  -0.010633   0.178182  -0.018645
    12  Al   0.072423   0.078422   0.078422   0.034730   0.126971   0.126971
               7          8          9         10         11         12
     1  Al  -0.026764  -0.015017   0.358742  -0.019654   0.000170   0.072423
     2  Al  -0.000991  -0.030536   0.299761   0.043714   0.223916   0.078422
     3  Al   0.223916  -0.030536  -0.025441  -0.005110  -0.000991   0.078422
     4  Al   0.248078   0.143212  -0.019654   0.056722  -0.010633   0.034730
     5  Al  -0.018645  -0.005193  -0.024172  -0.021309   0.178182   0.126971
     6  Al   0.178182  -0.005193   0.002538  -0.000251  -0.018645   0.126971
     7  Al  12.169511   0.320753   0.000170  -0.010633  -0.005268  -0.026199
     8  Al   0.320753  12.015124  -0.015017   0.143212   0.320753   0.193487
     9  Al   0.000170  -0.015017  12.060401   0.294380  -0.026764   0.072423
    10  Al  -0.010633   0.143212   0.294380  12.284558   0.248078   0.034730
    11  Al  -0.005268   0.320753  -0.026764   0.248078  12.169511  -0.026199
    12  Al  -0.026199   0.193487   0.072423   0.034730  -0.026199  12.030772
 Mulliken charges:
               1
     1  Al   0.022632
     2  Al  -0.027389
     3  Al  -0.027389
     4  Al  -0.048439
     5  Al   0.021309
     6  Al   0.021309
     7  Al  -0.052111
     8  Al  -0.035048
     9  Al   0.022632
    10  Al  -0.048439
    11  Al  -0.052111
    12  Al   0.203045
 Sum of Mulliken charges =   0.00000
 Mulliken charges with hydrogens summed into heavy atoms:
               1
     1  Al   0.022632
     2  Al  -0.027389
     3  Al  -0.027389
     4  Al  -0.048439
     5  Al   0.021309
     6  Al   0.021309
     7  Al  -0.052111
     8  Al  -0.035048
     9  Al   0.022632
    10  Al  -0.048439
    11  Al  -0.052111
    12  Al   0.203045
 Electronic spatial extent (au):  <R**2>=           4295.6899
 Charge=              0.0000 electrons
 Dipole moment (field-independent basis, Debye):
    X=              0.3611    Y=              0.4883    Z=              0.0000  Tot=              0.6073
 Quadrupole moment (field-independent basis, Debye-Ang):
   XX=           -159.8721   YY=           -155.8284   ZZ=           -155.5884
   XY=              0.8431   XZ=              0.0000   YZ=              0.0000
 Traceless Quadrupole moment (field-independent basis, Debye-Ang):
   XX=             -2.7758   YY=              1.2679   ZZ=              1.5079
   XY=              0.8431   XZ=              0.0000   YZ=              0.0000
 Octapole moment (field-independent basis, Debye-Ang**2):
  XXX=             -3.8166  YYY=             11.7921  ZZZ=              0.0000  XYY=              1.4255
  XXY=             -4.8188  XXZ=              0.0000  XZZ=             10.5628  YZZ=              8.1474
  YYZ=              0.0000  XYZ=              0.0000
 Hexadecapole moment (field-independent basis, Debye-Ang**3):
 XXXX=          -2807.4739 YYYY=          -1913.6509 ZZZZ=          -3270.4826 XXXY=             17.3692
 XXXZ=              0.0000 YYYX=             -9.6528 YYYZ=              0.0000 ZZZX=              0.0000
 ZZZY=              0.0000 XXYY=           -788.4665 XXZZ=           -982.0334 YYZZ=           -882.9361
 XXYZ=              0.0000 YYXZ=              0.0000 ZZXY=             28.9699
 N-N= 1.685277376226D+03 E-N=-1.031431898226D+04  KE= 2.903264789012D+03
 Symmetry A'   KE= 1.654307855157D+03
 Symmetry A"   KE= 1.248956933855D+03

 Test job not archived.
 1\1\GINC-R1I1N6\SP\RCCSD(T)-FC\CC-pVTZ\Al12\VSC31064\03-Oct-2016\0\\# 
 CCSD(T,conver=5)/cc-pVTZ test geom=allcheck guess=read\\Al12-n-s-2\\0,
 1\Al,0,-0.82521087,2.50620124,1.2952847\Al,0,-1.18791381,0.17064976,-2
 .61148902\Al,0,-1.18791381,0.17064976,2.61148902\Al,0,1.472087,1.22903
 308,1.59625602\Al,0,-1.38100109,-2.13786405,-1.32661773\Al,0,-1.381001
 09,-2.13786405,1.32661773\Al,0,1.10500773,-1.25756479,2.34348232\Al,0,
 2.08925491,-1.04699918,0.\Al,0,-0.82521087,2.50620124,-1.2952847\Al,0,
 1.472087,1.22903308,-1.59625602\Al,0,1.10500773,-1.25756479,-2.3434823
 2\Al,0,-0.455511,0.02603104,0.\\Version=ES64L-G09RevD.01\State=1-A'\HF
 =-2903.0306219\MP2=-2904.1626487\MP3=-2904.0069203\MP4D=-2904.166436\M
 P4DQ=-2904.0823755\MP4SDQ=-2904.1022987\CCSD=-2904.0529615\CCSD(T)=-29
 04.1964892\RMSD=5.195e-09\PG=CS [SG(Al2),X(Al10)]\\@


 OUR LITTLE SYSTEMS HAVE THEIR DAY,    
   THEY HAVE THEIR DAY AND CEASE TO BE.
   THEY ARE BUT BROKEN LIGHTS OF THEE, 
 AND THOU, OH LORD, ART MORE THAN THEY.
          -------------------          
 LET KNOWLEDGE GROW FROM MORE TO MORE, 
   BUT MORE OF REVERENCE IN US DWELL.  
   THAT MIND AND SOUL, ACCORDING WELL, 
 MAY MAKE ONE MUSIC AS BEFORE.....     
          -------------------          
                    LORD TENNYSON      
 Job cpu time:       1 days  2 hours 44 minutes  9.3 seconds.
 File lengths (MBytes):  RWF=  16062 Int=      0 D2E=      0 Chk=      8 Scr=      1
 Normal termination of Gaussian 09 at Mon Oct  3 20:49:55 2016.
