 Entering Gaussian System, Link 0=g09
 Initial command:
 /apps/leuven/thinking/software/G09//g09D1/l1.exe "/local_scratch/vsc31064/Gau-8553.inp" -scrdir="/local_scratch/vsc31064/"
 Entering Link 1 = /apps/leuven/thinking/software/G09//g09D1/l1.exe PID=      8557.
  
 Copyright (c) 1988,1990,1992,1993,1995,1998,2003,2009,2013,
            Gaussian, Inc.  All Rights Reserved.
  
 This is part of the Gaussian(R) 09 program.  It is based on
 the Gaussian(R) 03 system (copyright 2003, Gaussian, Inc.),
 the Gaussian(R) 98 system (copyright 1998, Gaussian, Inc.),
 the Gaussian(R) 94 system (copyright 1995, Gaussian, Inc.),
 the Gaussian 92(TM) system (copyright 1992, Gaussian, Inc.),
 the Gaussian 90(TM) system (copyright 1990, Gaussian, Inc.),
 the Gaussian 88(TM) system (copyright 1988, Gaussian, Inc.),
 the Gaussian 86(TM) system (copyright 1986, Carnegie Mellon
 University), and the Gaussian 82(TM) system (copyright 1983,
 Carnegie Mellon University). Gaussian is a federally registered
 trademark of Gaussian, Inc.
  
 This software contains proprietary and confidential information,
 including trade secrets, belonging to Gaussian, Inc.
  
 This software is provided under written license and may be
 used, copied, transmitted, or stored only in accord with that
 written license.
  
 The following legend is applicable only to US Government
 contracts under FAR:
  
                    RESTRICTED RIGHTS LEGEND
  
 Use, reproduction and disclosure by the US Government is
 subject to restrictions as set forth in subparagraphs (a)
 and (c) of the Commercial Computer Software - Restricted
 Rights clause in FAR 52.227-19.
  
 Gaussian, Inc.
 340 Quinnipiac St., Bldg. 40, Wallingford CT 06492
  
  
 ---------------------------------------------------------------
 Warning -- This program may not be used in any manner that
 competes with the business of Gaussian, Inc. or will provide
 assistance to any competitor of Gaussian, Inc.  The licensee
 of this program is prohibited from giving any competitor of
 Gaussian, Inc. access to this program.  By using this program,
 the user acknowledges that Gaussian, Inc. is engaged in the
 business of creating and licensing software in the field of
 computational chemistry and represents and warrants to the
 licensee that it is not a competitor of Gaussian, Inc. and that
 it will not use this program in any manner prohibited above.
 ---------------------------------------------------------------
  

 Cite this work as:
 Gaussian 09, Revision D.01,
 M. J. Frisch, G. W. Trucks, H. B. Schlegel, G. E. Scuseria, 
 M. A. Robb, J. R. Cheeseman, G. Scalmani, V. Barone, B. Mennucci, 
 G. A. Petersson, H. Nakatsuji, M. Caricato, X. Li, H. P. Hratchian, 
 A. F. Izmaylov, J. Bloino, G. Zheng, J. L. Sonnenberg, M. Hada, 
 M. Ehara, K. Toyota, R. Fukuda, J. Hasegawa, M. Ishida, T. Nakajima, 
 Y. Honda, O. Kitao, H. Nakai, T. Vreven, J. A. Montgomery, Jr., 
 J. E. Peralta, F. Ogliaro, M. Bearpark, J. J. Heyd, E. Brothers, 
 K. N. Kudin, V. N. Staroverov, T. Keith, R. Kobayashi, J. Normand, 
 K. Raghavachari, A. Rendell, J. C. Burant, S. S. Iyengar, J. Tomasi, 
 M. Cossi, N. Rega, J. M. Millam, M. Klene, J. E. Knox, J. B. Cross, 
 V. Bakken, C. Adamo, J. Jaramillo, R. Gomperts, R. E. Stratmann, 
 O. Yazyev, A. J. Austin, R. Cammi, C. Pomelli, J. W. Ochterski, 
 R. L. Martin, K. Morokuma, V. G. Zakrzewski, G. A. Voth, 
 P. Salvador, J. J. Dannenberg, S. Dapprich, A. D. Daniels, 
 O. Farkas, J. B. Foresman, J. V. Ortiz, J. Cioslowski, 
 and D. J. Fox, Gaussian, Inc., Wallingford CT, 2013.
 
 ******************************************
 Gaussian 09:  ES64L-G09RevD.01 24-Apr-2013
                 2-Oct-2016 
 ******************************************
 %NprocShared=20
 Will use up to   20 processors via shared memory.
 %mem=55000mb
 %chk=cc-Al13-c-s
 ------------------------
 # hf/6-31G* test scf=xqc
 ------------------------
 1/38=1/1;
 2/12=2,17=6,18=5,40=1/2;
 3/5=1,6=6,7=1,11=9,16=1,25=1,30=1/1,2,3;
 4//1;
 5/5=2,8=3,13=1,38=5/2,8;
 6/7=2,8=2,9=2,10=2,28=1/1;
 99/5=1,9=1/99;
 --------
 Al13-c-s
 --------
 Symbolic Z-matrix:
 Charge =  1 Multiplicity = 1
 13                    1.70418   2.07063  -1.27224 
 13                   -0.97041   2.10137   1.34046 
 13                    1.8085    1.46514   1.29294 
 13                    2.58602  -0.402    -1.33574 
 13                   -2.33691  -0.34065   1.1772 
 13                   -0.00027  -0.08248   2.33904 
 13                    1.99698  -1.29005   1.12604 
 13                   -0.49685  -2.34102   1.07712 
 13                   -0.88022   2.5467   -1.25097 
 13                   -2.58418   0.54865  -1.31825 
 13                   -1.70598  -1.92906  -1.356 
 13                    0.87974  -2.40307  -1.36209 
 13                   -0.00061   0.05584  -0.45751 
 
                          Input orientation:                          
 ---------------------------------------------------------------------
 Center     Atomic      Atomic             Coordinates (Angstroms)
 Number     Number       Type             X           Y           Z
 ---------------------------------------------------------------------
      1         13           0        1.704175    2.070629   -1.272239
      2         13           0       -0.970411    2.101366    1.340459
      3         13           0        1.808497    1.465143    1.292944
      4         13           0        2.586024   -0.402003   -1.335742
      5         13           0       -2.336908   -0.340647    1.177203
      6         13           0       -0.000269   -0.082481    2.339036
      7         13           0        1.996981   -1.290051    1.126039
      8         13           0       -0.496847   -2.341015    1.077115
      9         13           0       -0.880219    2.546702   -1.250967
     10         13           0       -2.584181    0.548645   -1.318253
     11         13           0       -1.705979   -1.929057   -1.355995
     12         13           0        0.879743   -2.403070   -1.362091
     13         13           0       -0.000606    0.055838   -0.457508
 ---------------------------------------------------------------------
                    Distance matrix (angstroms):
                    1          2          3          4          5
     1  Al   0.000000
     2  Al   3.739057   0.000000
     3  Al   2.637738   2.851204   0.000000
     4  Al   2.625947   5.106578   3.316741   0.000000
     5  Al   5.305127   2.803104   4.523125   5.527560   0.000000
     6  Al   4.536774   2.589888   2.600208   4.504997   2.622287
     7  Al   4.139039   4.511441   2.766673   2.682530   4.436956
     8  Al   5.461370   4.475306   4.455113   4.368723   2.719800
     9  Al   2.627963   2.630959   3.856222   4.551581   4.044099
    10  Al   4.550665   3.476197   5.191718   5.256906   2.660693
    11  Al   5.256772   4.904715   5.557789   4.555611   3.055848
    12  Al   4.549917   5.569272   4.782768   2.629897   4.587859
    13  Al   2.762145   2.890915   2.884974   2.769760   2.878852
                    6          7          8          9         10
     6  Al   0.000000
     7  Al   2.630322   0.000000
     8  Al   2.634390   2.706676   0.000000
     9  Al   4.535971   5.352486   5.427404   0.000000
    10  Al   4.522243   5.508395   4.294751   2.626832   0.000000
    11  Al   4.469065   4.503414   2.748042   4.552508   2.629006
    12  Al   4.456220   2.945814   2.801531   5.254527   4.551188
    13  Al   2.799963   2.882602   2.888984   2.758206   2.767418
                   11         12         13
    11  Al   0.000000
    12  Al   2.628818   0.000000
    13  Al   2.766836   2.763967   0.000000
 Stoichiometry    Al13(1+)
 Framework group  C1[X(Al13)]
 Deg. of freedom    33
 Full point group                 C1      NOp   1
 Largest Abelian subgroup         C1      NOp   1
 Largest concise Abelian subgroup C1      NOp   1
                         Standard orientation:                         
 ---------------------------------------------------------------------
 Center     Atomic      Atomic             Coordinates (Angstroms)
 Number     Number       Type             X           Y           Z
 ---------------------------------------------------------------------
      1         13           0        1.704291    2.070534   -1.272239
      2         13           0       -0.970293    2.101420    1.340459
      3         13           0        1.808579    1.465042    1.292944
      4         13           0        2.586001   -0.402148   -1.335742
      5         13           0       -2.336927   -0.340516    1.177203
      6         13           0       -0.000274   -0.082481    2.339036
      7         13           0        1.996909   -1.290163    1.126039
      8         13           0       -0.496978   -2.340987    1.077115
      9         13           0       -0.880076    2.546751   -1.250967
     10         13           0       -2.584150    0.548790   -1.318253
     11         13           0       -1.706087   -1.928961   -1.355995
     12         13           0        0.879609   -2.403119   -1.362091
     13         13           0       -0.000603    0.055838   -0.457508
 ---------------------------------------------------------------------
 Rotational constants (GHZ):      0.3233466      0.3229431      0.2706654
 Standard basis: 6-31G(d) (6D, 7F)
 There are   247 symmetry adapted cartesian basis functions of A   symmetry.
 There are   247 symmetry adapted basis functions of A   symmetry.
   247 basis functions,   676 primitive gaussians,   247 cartesian basis functions
    84 alpha electrons       84 beta electrons
       nuclear repulsion energy      1991.2942944336 Hartrees.
 NAtoms=   13 NActive=   13 NUniq=   13 SFac= 1.00D+00 NAtFMM=   60 NAOKFM=F Big=F
 Integral buffers will be    131072 words long.
 Raffenetti 1 integral format.
 Two-electron integral symmetry is turned on.
 One-electron integrals computed using PRISM.
 NBasis=   247 RedAO= T EigKep=  9.00D-04  NBF=   247
 NBsUse=   247 1.00D-06 EigRej= -1.00D+00 NBFU=   247
 ExpMin= 5.57D-02 ExpMax= 1.40D+04 ExpMxC= 2.10D+03 IAcc=2 IRadAn=         4 AccDes= 0.00D+00
 Harris functional with IExCor=  205 and IRadAn=       4 diagonalized for initial guess.
 HarFok:  IExCor=  205 AccDes= 0.00D+00 IRadAn=         4 IDoV= 1 UseB2=F ITyADJ=14
 ICtDFT=  3500011 ScaDFX=  1.000000  1.000000  1.000000  1.000000
 FoFCou: FMM=F IPFlag=           0 FMFlag=      100000 FMFlg1=           0
         NFxFlg=           0 DoJE=T BraDBF=F KetDBF=T FulRan=T
         wScrn=  0.000000 ICntrl=     500 IOpCl=  0 I1Cent=   200000004 NGrid=           0
         NMat0=    1 NMatS0=      1 NMatT0=    0 NMatD0=    1 NMtDS0=    0 NMtDT0=    0
 Petite list used in FoFCou.
 Keep R1 ints in memory in canonical form, NReq=476874607.
 Requested convergence on RMS density matrix=1.00D-08 within  64 cycles.
 Requested convergence on MAX density matrix=1.00D-06.
 Requested convergence on             energy=1.00D-06.
 No special actions if energy rises.
 SCF Done:  E(RHF) =  -3144.52297800     A.U. after   21 cycles
            NFock= 21  Conv=0.51D-08     -V/T= 2.0002
 QCSCF skips out because SCF is already converged.

 **********************************************************************

            Population analysis using the SCF density.

 **********************************************************************

 Orbital symmetries:
       Occupied  (A) (A) (A) (A) (A) (A) (A) (A) (A) (A) (A) (A)
                 (A) (A) (A) (A) (A) (A) (A) (A) (A) (A) (A) (A)
                 (A) (A) (A) (A) (A) (A) (A) (A) (A) (A) (A) (A)
                 (A) (A) (A) (A) (A) (A) (A) (A) (A) (A) (A) (A)
                 (A) (A) (A) (A) (A) (A) (A) (A) (A) (A) (A) (A)
                 (A) (A) (A) (A) (A) (A) (A) (A) (A) (A) (A) (A)
                 (A) (A) (A) (A) (A) (A) (A) (A) (A) (A) (A) (A)
       Virtual   (A) (A) (A) (A) (A) (A) (A) (A) (A) (A) (A) (A)
                 (A) (A) (A) (A) (A) (A) (A) (A) (A) (A) (A) (A)
                 (A) (A) (A) (A) (A) (A) (A) (A) (A) (A) (A) (A)
                 (A) (A) (A) (A) (A) (A) (A) (A) (A) (A) (A) (A)
                 (A) (A) (A) (A) (A) (A) (A) (A) (A) (A) (A) (A)
                 (A) (A) (A) (A) (A) (A) (A) (A) (A) (A) (A) (A)
                 (A) (A) (A) (A) (A) (A) (A) (A) (A) (A) (A) (A)
                 (A) (A) (A) (A) (A) (A) (A) (A) (A) (A) (A) (A)
                 (A) (A) (A) (A) (A) (A) (A) (A) (A) (A) (A) (A)
                 (A) (A) (A) (A) (A) (A) (A) (A) (A) (A) (A) (A)
                 (A) (A) (A) (A) (A) (A) (A) (A) (A) (A) (A) (A)
                 (A) (A) (A) (A) (A) (A) (A) (A) (A) (A) (A) (A)
                 (A) (A) (A) (A) (A) (A) (A) (A) (A) (A) (A) (A)
                 (A) (A) (A) (A) (A) (A) (A)
 The electronic state is 1-A.
 Alpha  occ. eigenvalues --  -58.60684 -58.60660 -58.60617 -58.60592 -58.60574
 Alpha  occ. eigenvalues --  -58.60522 -58.60511 -58.60492 -58.60384 -58.60332
 Alpha  occ. eigenvalues --  -58.60280 -58.59313 -58.54198  -5.02562  -5.02526
 Alpha  occ. eigenvalues --   -5.02520  -5.02470  -5.02454  -5.02410  -5.02391
 Alpha  occ. eigenvalues --   -5.02372  -5.02357  -5.02318  -5.02281  -5.01716
 Alpha  occ. eigenvalues --   -4.97213  -3.33683  -3.33654  -3.33653  -3.33643
 Alpha  occ. eigenvalues --   -3.33625  -3.33620  -3.33615  -3.33611  -3.33604
 Alpha  occ. eigenvalues --   -3.33595  -3.33578  -3.33574  -3.33567  -3.33561
 Alpha  occ. eigenvalues --   -3.33553  -3.33549  -3.33534  -3.33525  -3.33505
 Alpha  occ. eigenvalues --   -3.33493  -3.33488  -3.33484  -3.33477  -3.33468
 Alpha  occ. eigenvalues --   -3.33456  -3.33448  -3.33430  -3.33426  -3.33420
 Alpha  occ. eigenvalues --   -3.33413  -3.33401  -3.33361  -3.33310  -3.33074
 Alpha  occ. eigenvalues --   -3.32962  -3.32961  -3.28551  -3.28550  -3.28550
 Alpha  occ. eigenvalues --   -0.84067  -0.72503  -0.72489  -0.69998  -0.57775
 Alpha  occ. eigenvalues --   -0.57578  -0.57079  -0.57015  -0.52109  -0.47436
 Alpha  occ. eigenvalues --   -0.40685  -0.40488  -0.40253  -0.38671  -0.37204
 Alpha  occ. eigenvalues --   -0.37169  -0.36709  -0.36701  -0.35694
 Alpha virt. eigenvalues --   -0.14192  -0.14114  -0.13690  -0.12676  -0.12542
 Alpha virt. eigenvalues --   -0.11136  -0.11046  -0.10627  -0.09969  -0.05616
 Alpha virt. eigenvalues --   -0.05112  -0.05009  -0.02735  -0.02702  -0.02506
 Alpha virt. eigenvalues --    0.00118   0.00648   0.00789   0.00864   0.01650
 Alpha virt. eigenvalues --    0.02201   0.02492   0.03754   0.04015   0.04258
 Alpha virt. eigenvalues --    0.05230   0.05863   0.06843   0.08106   0.08841
 Alpha virt. eigenvalues --    0.09541   0.09556   0.10382   0.10447   0.11852
 Alpha virt. eigenvalues --    0.13449   0.13690   0.14025   0.15056   0.15090
 Alpha virt. eigenvalues --    0.15119   0.15946   0.16045   0.17064   0.17258
 Alpha virt. eigenvalues --    0.17426   0.17727   0.21375   0.22422   0.22682
 Alpha virt. eigenvalues --    0.22747   0.23685   0.24208   0.24411   0.26347
 Alpha virt. eigenvalues --    0.26860   0.27173   0.27739   0.28152   0.28540
 Alpha virt. eigenvalues --    0.29241   0.30169   0.30404   0.31324   0.32340
 Alpha virt. eigenvalues --    0.32550   0.33790   0.34319   0.34397   0.34911
 Alpha virt. eigenvalues --    0.36225   0.36739   0.37655   0.37873   0.38380
 Alpha virt. eigenvalues --    0.38970   0.39597   0.41378   0.43049   0.43177
 Alpha virt. eigenvalues --    0.43359   0.45562   0.46166   0.46774   0.47841
 Alpha virt. eigenvalues --    0.48112   0.49738   0.50908   0.51215   0.51326
 Alpha virt. eigenvalues --    0.52466   0.54035   0.54566   0.55761   0.56064
 Alpha virt. eigenvalues --    0.56310   0.56849   0.58560   0.58711   0.59239
 Alpha virt. eigenvalues --    0.59723   0.60690   0.61652   0.62622   0.63261
 Alpha virt. eigenvalues --    0.64195   0.66815   0.67343   0.67672   0.68039
 Alpha virt. eigenvalues --    0.68810   0.69825   0.70428   0.70998   0.72023
 Alpha virt. eigenvalues --    0.72960   0.73767   0.74864   0.75125   0.76065
 Alpha virt. eigenvalues --    0.76506   0.77520   0.78878   0.80572   0.82220
 Alpha virt. eigenvalues --    0.83658   0.83890   0.84244   0.84514   0.87306
 Alpha virt. eigenvalues --    0.87980   0.88999   0.90815   0.91026   0.91800
 Alpha virt. eigenvalues --    0.92893   0.93340   0.93776   0.94273   0.95270
 Alpha virt. eigenvalues --    0.96001   0.97745   0.98385   0.99155   1.00412
 Alpha virt. eigenvalues --    1.00777   1.01934   1.15990   1.19523   1.55303
 Alpha virt. eigenvalues --    2.14825   2.16595   2.19430   2.20815   2.21791
 Alpha virt. eigenvalues --    2.22764   2.24566   2.26144   2.27179   2.28733
 Alpha virt. eigenvalues --    2.31013   2.32681   2.55278
          Condensed to atoms (all electrons):
               1          2          3          4          5          6
     1  Al  12.800759  -0.034993   0.176337   0.299031   0.000221   0.037686
     2  Al  -0.034993  13.032250  -0.063925   0.009489  -0.030825   0.057413
     3  Al   0.176337  -0.063925  13.102461  -0.059419   0.041674   0.029696
     4  Al   0.299031   0.009489  -0.059419  12.927797  -0.017790   0.028863
     5  Al   0.000221  -0.030825   0.041674  -0.017790  13.255582  -0.045247
     6  Al   0.037686   0.057413   0.029696   0.028863  -0.045247  13.123669
     7  Al  -0.029807   0.038932  -0.002198   0.139940   0.039175  -0.084892
     8  Al  -0.013986   0.035911   0.036777  -0.003336   0.056672  -0.127662
     9  Al   0.359526   0.178133  -0.028626  -0.021535  -0.028252   0.038656
    10  Al  -0.029828  -0.051090   0.006427  -0.035212   0.162738   0.031274
    11  Al  -0.043082   0.012588  -0.015628   0.032635  -0.062035   0.032811
    12  Al   0.018794  -0.014115   0.014632   0.168839   0.017998   0.035815
    13  Al  -0.750830  -0.329945  -0.372205  -0.663746  -0.457811  -0.145611
               7          8          9         10         11         12
     1  Al  -0.029807  -0.013986   0.359526  -0.029828  -0.043082   0.018794
     2  Al   0.038932   0.035911   0.178133  -0.051090   0.012588  -0.014115
     3  Al  -0.002198   0.036777  -0.028626   0.006427  -0.015628   0.014632
     4  Al   0.139940  -0.003336  -0.021535  -0.035212   0.032635   0.168839
     5  Al   0.039175   0.056672  -0.028252   0.162738  -0.062035   0.017998
     6  Al  -0.084892  -0.127662   0.038656   0.031274   0.032811   0.035815
     7  Al  13.322918   0.081212  -0.002829  -0.017732   0.015342  -0.047021
     8  Al   0.081212  13.396511  -0.010105  -0.017004   0.064869   0.017396
     9  Al  -0.002829  -0.010105  12.800281   0.331586   0.004871  -0.047679
    10  Al  -0.017732  -0.017004   0.331586  12.855359   0.215515   0.031185
    11  Al   0.015342   0.064869   0.004871   0.215515  13.098628   0.116085
    12  Al  -0.047021   0.017396  -0.047679   0.031185   0.116085  13.163017
    13  Al  -0.485832  -0.508980  -0.783156  -0.686575  -0.647947  -0.643842
              13
     1  Al  -0.750830
     2  Al  -0.329945
     3  Al  -0.372205
     4  Al  -0.663746
     5  Al  -0.457811
     6  Al  -0.145611
     7  Al  -0.485832
     8  Al  -0.508980
     9  Al  -0.783156
    10  Al  -0.686575
    11  Al  -0.647947
    12  Al  -0.643842
    13  Al  20.011951
 Mulliken charges:
               1
     1  Al   0.210171
     2  Al   0.160177
     3  Al   0.133999
     4  Al   0.194444
     5  Al   0.067900
     6  Al  -0.012471
     7  Al   0.032793
     8  Al  -0.008276
     9  Al   0.209129
    10  Al   0.203357
    11  Al   0.175350
    12  Al   0.168897
    13  Al  -0.535471
 Sum of Mulliken charges =   1.00000
 Mulliken charges with hydrogens summed into heavy atoms:
               1
     1  Al   0.210171
     2  Al   0.160177
     3  Al   0.133999
     4  Al   0.194444
     5  Al   0.067900
     6  Al  -0.012471
     7  Al   0.032793
     8  Al  -0.008276
     9  Al   0.209129
    10  Al   0.203357
    11  Al   0.175350
    12  Al   0.168897
    13  Al  -0.535471
 Electronic spatial extent (au):  <R**2>=           4605.6779
 Charge=              1.0000 electrons
 Dipole moment (field-independent basis, Debye):
    X=              0.0041    Y=             -0.4929    Z=              1.4220  Tot=              1.5050
 Quadrupole moment (field-independent basis, Debye-Ang):
   XX=           -136.7905   YY=           -136.1056   ZZ=           -142.0322
   XY=             -0.0227   XZ=             -0.0014   YZ=             -2.1514
 Traceless Quadrupole moment (field-independent basis, Debye-Ang):
   XX=              1.5189   YY=              2.2038   ZZ=             -3.7228
   XY=             -0.0227   XZ=             -0.0014   YZ=             -2.1514
 Octapole moment (field-independent basis, Debye-Ang**2):
  XXX=              0.2298  YYY=             -5.5518  ZZZ=             28.9763  XYY=             -0.1485
  XXY=             -1.8743  XXZ=             -6.5835  XZZ=             -0.0049  YZZ=              4.9022
  YYZ=             -6.1880  XYZ=             -0.0376
 Hexadecapole moment (field-independent basis, Debye-Ang**3):
 XXXX=          -2752.1122 YYYY=          -2731.9550 ZZZZ=          -2006.9787 XXXY=              4.7842
 XXXZ=              1.2771 YYYX=             -4.9256 YYYZ=            -32.5408 ZZZX=             -0.0395
 ZZZY=            -11.9481 XXYY=           -910.7149 XXZZ=           -758.8523 YYZZ=           -758.0381
 XXYZ=            -10.3280 YYXZ=             -1.2410 ZZXY=             -0.2276
 N-N= 1.991294294434D+03 E-N=-1.148209666017D+04  KE= 3.143809006064D+03

 Test job not archived.
 1\1\GINC-R1I1N10\SP\RHF\6-31G(d)\Al13(1+)\VSC31064\02-Oct-2016\0\\# hf
 /6-31G* test scf=xqc\\Al13-c-s\\1,1\Al,0,1.704175,2.070629,-1.272239\A
 l,0,-0.970411,2.101366,1.340459\Al,0,1.808497,1.465143,1.292944\Al,0,2
 .586024,-0.402003,-1.335742\Al,0,-2.336908,-0.340647,1.177203\Al,0,-0.
 000269,-0.082481,2.339036\Al,0,1.996981,-1.290051,1.126039\Al,0,-0.496
 847,-2.341015,1.077115\Al,0,-0.880219,2.546702,-1.250967\Al,0,-2.58418
 1,0.548645,-1.318253\Al,0,-1.705979,-1.929057,-1.355995\Al,0,0.879743,
 -2.40307,-1.362091\Al,0,-0.000606,0.055838,-0.457508\\Version=ES64L-G0
 9RevD.01\State=1-A\HF=-3144.522978\RMSD=5.114e-09\Dipole=0.0016249,-0.
 1939159,0.5594397\Quadrupole=1.1292798,1.6384944,-2.7677743,-0.0169086
 ,-0.0009471,-1.5994984\PG=C01 [X(Al13)]\\@


 NOTHING PUZZLES ME MORE THAN TIME AND SPACE; AND YET NOTHING TROUBLES ME LESS
                                                          -- CHARLES LAMB (1810)
 Job cpu time:       0 days  0 hours  1 minutes 49.9 seconds.
 File lengths (MBytes):  RWF=     24 Int=      0 D2E=      0 Chk=      3 Scr=      1
 Normal termination of Gaussian 09 at Sun Oct  2 18:30:05 2016.
 Initial command:
 /apps/leuven/thinking/software/G09//g09D1/l1.exe "/local_scratch/vsc31064/Gau-8553.inp" -scrdir="/local_scratch/vsc31064/"
 Entering Link 1 = /apps/leuven/thinking/software/G09//g09D1/l1.exe PID=      8846.
  
 Copyright (c) 1988,1990,1992,1993,1995,1998,2003,2009,2013,
            Gaussian, Inc.  All Rights Reserved.
  
 This is part of the Gaussian(R) 09 program.  It is based on
 the Gaussian(R) 03 system (copyright 2003, Gaussian, Inc.),
 the Gaussian(R) 98 system (copyright 1998, Gaussian, Inc.),
 the Gaussian(R) 94 system (copyright 1995, Gaussian, Inc.),
 the Gaussian 92(TM) system (copyright 1992, Gaussian, Inc.),
 the Gaussian 90(TM) system (copyright 1990, Gaussian, Inc.),
 the Gaussian 88(TM) system (copyright 1988, Gaussian, Inc.),
 the Gaussian 86(TM) system (copyright 1986, Carnegie Mellon
 University), and the Gaussian 82(TM) system (copyright 1983,
 Carnegie Mellon University). Gaussian is a federally registered
 trademark of Gaussian, Inc.
  
 This software contains proprietary and confidential information,
 including trade secrets, belonging to Gaussian, Inc.
  
 This software is provided under written license and may be
 used, copied, transmitted, or stored only in accord with that
 written license.
  
 The following legend is applicable only to US Government
 contracts under FAR:
  
                    RESTRICTED RIGHTS LEGEND
  
 Use, reproduction and disclosure by the US Government is
 subject to restrictions as set forth in subparagraphs (a)
 and (c) of the Commercial Computer Software - Restricted
 Rights clause in FAR 52.227-19.
  
 Gaussian, Inc.
 340 Quinnipiac St., Bldg. 40, Wallingford CT 06492
  
  
 ---------------------------------------------------------------
 Warning -- This program may not be used in any manner that
 competes with the business of Gaussian, Inc. or will provide
 assistance to any competitor of Gaussian, Inc.  The licensee
 of this program is prohibited from giving any competitor of
 Gaussian, Inc. access to this program.  By using this program,
 the user acknowledges that Gaussian, Inc. is engaged in the
 business of creating and licensing software in the field of
 computational chemistry and represents and warrants to the
 licensee that it is not a competitor of Gaussian, Inc. and that
 it will not use this program in any manner prohibited above.
 ---------------------------------------------------------------
  

 Cite this work as:
 Gaussian 09, Revision D.01,
 M. J. Frisch, G. W. Trucks, H. B. Schlegel, G. E. Scuseria, 
 M. A. Robb, J. R. Cheeseman, G. Scalmani, V. Barone, B. Mennucci, 
 G. A. Petersson, H. Nakatsuji, M. Caricato, X. Li, H. P. Hratchian, 
 A. F. Izmaylov, J. Bloino, G. Zheng, J. L. Sonnenberg, M. Hada, 
 M. Ehara, K. Toyota, R. Fukuda, J. Hasegawa, M. Ishida, T. Nakajima, 
 Y. Honda, O. Kitao, H. Nakai, T. Vreven, J. A. Montgomery, Jr., 
 J. E. Peralta, F. Ogliaro, M. Bearpark, J. J. Heyd, E. Brothers, 
 K. N. Kudin, V. N. Staroverov, T. Keith, R. Kobayashi, J. Normand, 
 K. Raghavachari, A. Rendell, J. C. Burant, S. S. Iyengar, J. Tomasi, 
 M. Cossi, N. Rega, J. M. Millam, M. Klene, J. E. Knox, J. B. Cross, 
 V. Bakken, C. Adamo, J. Jaramillo, R. Gomperts, R. E. Stratmann, 
 O. Yazyev, A. J. Austin, R. Cammi, C. Pomelli, J. W. Ochterski, 
 R. L. Martin, K. Morokuma, V. G. Zakrzewski, G. A. Voth, 
 P. Salvador, J. J. Dannenberg, S. Dapprich, A. D. Daniels, 
 O. Farkas, J. B. Foresman, J. V. Ortiz, J. Cioslowski, 
 and D. J. Fox, Gaussian, Inc., Wallingford CT, 2013.
 
 ******************************************
 Gaussian 09:  ES64L-G09RevD.01 24-Apr-2013
                 2-Oct-2016 
 ******************************************
 %NprocShared=20
 Will use up to   20 processors via shared memory.
 %mem=55000mb
 %chk=cc-Al13-c-s
 --------------------------------------------------------
 # CCSD(T,conver=5)/cc-pVTZ test geom=allcheck guess=read
 --------------------------------------------------------
 1/29=7,38=1/1;
 2/12=2,40=1/2;
 3/5=16,6=1,11=9,14=-4,16=1,25=1,30=1,116=-2/1,2,3;
 4/5=1/1;
 5/5=2,38=6/2;
 8/6=4,9=120000,10=1/1,4;
 9/5=7,9=5,14=2/13;
 6/7=2,8=2,9=2,10=2/1;
 99/5=1,9=1/99;
 Structure from the checkpoint file:  "cc-Al13-c-s.chk"
 --------
 Al13-c-s
 --------
 Charge =  1 Multiplicity = 1
 Z-Matrix found in file.
 Al,0,1.704175,2.070629,-1.272239
 Al,0,-0.970411,2.101366,1.340459
 Al,0,1.808497,1.465143,1.292944
 Al,0,2.586024,-0.402003,-1.335742
 Al,0,-2.336908,-0.340647,1.177203
 Al,0,-0.000269,-0.082481,2.339036
 Al,0,1.996981,-1.290051,1.126039
 Al,0,-0.496847,-2.341015,1.077115
 Al,0,-0.880219,2.546702,-1.250967
 Al,0,-2.584181,0.548645,-1.318253
 Al,0,-1.705979,-1.929057,-1.355995
 Al,0,0.879743,-2.40307,-1.362091
 Al,0,-0.000606,0.055838,-0.457508
 Recover connectivity data from disk.
                          Input orientation:                          
 ---------------------------------------------------------------------
 Center     Atomic      Atomic             Coordinates (Angstroms)
 Number     Number       Type             X           Y           Z
 ---------------------------------------------------------------------
      1         13           0        1.704175    2.070629   -1.272239
      2         13           0       -0.970411    2.101366    1.340459
      3         13           0        1.808497    1.465143    1.292944
      4         13           0        2.586024   -0.402003   -1.335742
      5         13           0       -2.336908   -0.340647    1.177203
      6         13           0       -0.000269   -0.082481    2.339036
      7         13           0        1.996981   -1.290051    1.126039
      8         13           0       -0.496847   -2.341015    1.077115
      9         13           0       -0.880219    2.546702   -1.250967
     10         13           0       -2.584181    0.548645   -1.318253
     11         13           0       -1.705979   -1.929057   -1.355995
     12         13           0        0.879743   -2.403070   -1.362091
     13         13           0       -0.000606    0.055838   -0.457508
 ---------------------------------------------------------------------
                    Distance matrix (angstroms):
                    1          2          3          4          5
     1  Al   0.000000
     2  Al   3.739057   0.000000
     3  Al   2.637738   2.851204   0.000000
     4  Al   2.625947   5.106578   3.316741   0.000000
     5  Al   5.305127   2.803104   4.523125   5.527560   0.000000
     6  Al   4.536774   2.589888   2.600208   4.504997   2.622287
     7  Al   4.139039   4.511441   2.766673   2.682530   4.436956
     8  Al   5.461370   4.475306   4.455113   4.368723   2.719800
     9  Al   2.627963   2.630959   3.856222   4.551581   4.044099
    10  Al   4.550665   3.476197   5.191718   5.256906   2.660693
    11  Al   5.256772   4.904715   5.557789   4.555611   3.055848
    12  Al   4.549917   5.569272   4.782768   2.629897   4.587859
    13  Al   2.762145   2.890915   2.884974   2.769760   2.878852
                    6          7          8          9         10
     6  Al   0.000000
     7  Al   2.630322   0.000000
     8  Al   2.634390   2.706676   0.000000
     9  Al   4.535971   5.352486   5.427404   0.000000
    10  Al   4.522243   5.508395   4.294751   2.626832   0.000000
    11  Al   4.469065   4.503414   2.748042   4.552508   2.629006
    12  Al   4.456220   2.945814   2.801531   5.254527   4.551188
    13  Al   2.799963   2.882602   2.888984   2.758206   2.767418
                   11         12         13
    11  Al   0.000000
    12  Al   2.628818   0.000000
    13  Al   2.766836   2.763967   0.000000
 Stoichiometry    Al13(1+)
 Framework group  C1[X(Al13)]
 Deg. of freedom    33
 Full point group                 C1      NOp   1
 Largest Abelian subgroup         C1      NOp   1
 Largest concise Abelian subgroup C1      NOp   1
                         Standard orientation:                         
 ---------------------------------------------------------------------
 Center     Atomic      Atomic             Coordinates (Angstroms)
 Number     Number       Type             X           Y           Z
 ---------------------------------------------------------------------
      1         13           0        1.704291    2.070534   -1.272239
      2         13           0       -0.970293    2.101420    1.340459
      3         13           0        1.808579    1.465042    1.292944
      4         13           0        2.586001   -0.402148   -1.335742
      5         13           0       -2.336927   -0.340516    1.177203
      6         13           0       -0.000274   -0.082481    2.339036
      7         13           0        1.996909   -1.290163    1.126039
      8         13           0       -0.496978   -2.340987    1.077115
      9         13           0       -0.880076    2.546751   -1.250967
     10         13           0       -2.584150    0.548790   -1.318253
     11         13           0       -1.706087   -1.928961   -1.355995
     12         13           0        0.879609   -2.403119   -1.362091
     13         13           0       -0.000603    0.055838   -0.457508
 ---------------------------------------------------------------------
 Rotational constants (GHZ):      0.3233466      0.3229431      0.2706654
 Standard basis: CC-pVTZ (5D, 7F)
 There are   507 symmetry adapted cartesian basis functions of A   symmetry.
 There are   442 symmetry adapted basis functions of A   symmetry.
   442 basis functions,  1235 primitive gaussians,   507 cartesian basis functions
    84 alpha electrons       84 beta electrons
       nuclear repulsion energy      1991.2942944336 Hartrees.
 NAtoms=   13 NActive=   13 NUniq=   13 SFac= 1.00D+00 NAtFMM=   60 NAOKFM=F Big=F
 Integral buffers will be    131072 words long.
 Raffenetti 1 integral format.
 Two-electron integral symmetry is turned on.
 One-electron integrals computed using PRISM.
 NBasis=   442 RedAO= T EigKep=  2.58D-04  NBF=   442
 NBsUse=   442 1.00D-06 EigRej= -1.00D+00 NBFU=   442
 Initial guess from the checkpoint file:  "cc-Al13-c-s.chk"
 B after Tr=     0.000000    0.000000    0.000000
         Rot=    1.000000    0.000000    0.000000    0.000000 Ang=   0.00 deg.
 Keep R1 ints in memory in canonical form, NReq=4858899161.
 Requested convergence on RMS density matrix=1.00D-08 within 128 cycles.
 Requested convergence on MAX density matrix=1.00D-06.
 Requested convergence on             energy=1.00D-06.
 No special actions if energy rises.
 SCF Done:  E(RHF) =  -3144.80087664     A.U. after   17 cycles
            NFock= 17  Conv=0.84D-08     -V/T= 1.9999
 ExpMin= 5.56D-02 ExpMax= 2.06D+05 ExpMxC= 1.99D+03 IAcc=3 IRadAn=         5 AccDes= 0.00D+00
 HarFok:  IExCor=  205 AccDes= 0.00D+00 IRadAn=         5 IDoV=-2 UseB2=F ITyADJ=14
 ICtDFT= 12500011 ScaDFX=  1.000000  1.000000  1.000000  1.000000
 DSYEVD-2 returned Info=          69 IAlg= 4 N=    34 NDim=    34 NE2=   212011817 trying  DSYEV.
 DSYEVD-2 returned Info=          69 IAlg= 4 N=    34 NDim=    34 NE2=   212011817 trying  DSYEV.
 DSYEVD-2 returned Info=          69 IAlg= 4 N=    34 NDim=    34 NE2=   212011817 trying  DSYEV.
 DSYEVD-2 returned Info=          69 IAlg= 4 N=    34 NDim=    34 NE2=   212011817 trying  DSYEV.
 Range of M.O.s used for correlation:    66   442
 NBasis=   442 NAE=    84 NBE=    84 NFC=    65 NFV=     0
 NROrb=    377 NOA=    19 NOB=    19 NVA=   358 NVB=   358

 **** Warning!!: The largest alpha MO coefficient is  0.34689630D+02

 Semi-Direct transformation.
 ModeAB=           4 MOrb=            19 LenV=    7204420963
 LASXX=    493040671 LTotXX=   493040671 LenRXX=   989949267
 LTotAB=   496908596 MaxLAS=   913261011 LenRXY=           0
 NonZer=  1482989938 LenScr=  2233208832 LnRSAI=   913261011
 LnScr1=  1375263744 LExtra=           0 Total=   5511682854
 MaxDsk=          -1 SrtSym=           T ITran=            4
 JobTyp=0 Pass  1:  I=   1 to  19.
 (rs|ai) integrals will be sorted in core.
 SymMOI:  orbitals are not symmetric.
 Spin components of T(2) and E(2):
     alpha-alpha T2 =       0.2040950325D+00 E2=     -0.1846019020D+00
     alpha-beta  T2 =       0.8050034993D+00 E2=     -0.8475495622D+00
     beta-beta   T2 =       0.2040950325D+00 E2=     -0.1846019020D+00
 ANorm=    0.1487680599D+01
 E2 =    -0.1216753366D+01 EUMP2 =    -0.31460176300081D+04
 Would need an additional      2441686523 words for in-memory AO integral storage.
 Iterations=  50 Convergence= 0.100D-04
 Iteration Nr.   1
 **********************
 DD1Dir will call FoFJK   1 times, MxPair=       380
 NAB=   190 NAA=     0 NBB=     0 NumPrc= 20.
 FoFJK:  IHMeth= 1 ICntrl=     200 DoSepK=F KAlg= 0 I1Cent=   0 FoldK=F
 IRaf= 990000000 NMat= 380 IRICut=     475 DoRegI=T DoRafI=T ISym2E= 2.
 FoFCou: FMM=F IPFlag=           0 FMFlag=      100000 FMFlg1=           0
         NFxFlg=           0 DoJE=F BraDBF=F KetDBF=F FulRan=T
         wScrn=  0.000000 ICntrl=     200 IOpCl=  0 I1Cent=           0 NGrid=           0
         NMat0=  380 NMatS0=      0 NMatT0=  190 NMatD0=  380 NMtDS0=    0 NMtDT0=    0
 Integrals replicated using symmetry in FoFCou.
 MP4(R+Q)=  0.82343826D-01
 E3=        0.19349457D+00        EUMP3=      -0.31458241354D+04
 E4(DQ)=   -0.11465956D+00        UMP4(DQ)=   -0.31459387950D+04
 E4(SDQ)=  -0.13891906D+00        UMP4(SDQ)=  -0.31459630545D+04
 DE(Corr)= -0.94157832     E(Corr)=     -3145.7424550    
 NORM(A)=   0.13337607D+01
 Iteration Nr.   2
 **********************
 DD1Dir will call FoFJK   1 times, MxPair=       380
 NAB=   190 NAA=     0 NBB=     0 NumPrc= 20.
 DE(Corr)=  -1.1236981     E(CORR)=     -3145.9245747     Delta=-1.82D-01
 NORM(A)=   0.13933728D+01
 Iteration Nr.   3
 **********************
 DD1Dir will call FoFJK   1 times, MxPair=       380
 NAB=   190 NAA=     0 NBB=     0 NumPrc= 20.
 DE(Corr)=  -1.0781080     E(CORR)=     -3145.8789846     Delta= 4.56D-02
 NORM(A)=   0.14051908D+01
 Iteration Nr.   4
 **********************
 DD1Dir will call FoFJK   1 times, MxPair=       380
 NAB=   190 NAA=     0 NBB=     0 NumPrc= 20.
 DE(Corr)=  -1.0866986     E(CORR)=     -3145.8875752     Delta=-8.59D-03
 NORM(A)=   0.14087710D+01
 Iteration Nr.   5
 **********************
 DD1Dir will call FoFJK   1 times, MxPair=       380
 NAB=   190 NAA=     0 NBB=     0 NumPrc= 20.
 DE(Corr)=  -1.0888396     E(CORR)=     -3145.8897163     Delta=-2.14D-03
 NORM(A)=   0.14147040D+01
 Iteration Nr.   6
 **********************
 DD1Dir will call FoFJK   1 times, MxPair=       380
 NAB=   190 NAA=     0 NBB=     0 NumPrc= 20.
 DE(Corr)=  -1.0887734     E(CORR)=     -3145.8896501     Delta= 6.62D-05
 NORM(A)=   0.14178638D+01
 Iteration Nr.   7
 **********************
 DD1Dir will call FoFJK   1 times, MxPair=       380
 NAB=   190 NAA=     0 NBB=     0 NumPrc= 20.
 DE(Corr)=  -1.0887316     E(CORR)=     -3145.8896082     Delta= 4.19D-05
 NORM(A)=   0.14177557D+01
 Iteration Nr.   8
 **********************
 DD1Dir will call FoFJK   1 times, MxPair=       380
 NAB=   190 NAA=     0 NBB=     0 NumPrc= 20.
 DE(Corr)=  -1.0893170     E(CORR)=     -3145.8901936     Delta=-5.85D-04
 NORM(A)=   0.14184104D+01
 Iteration Nr.   9
 **********************
 DD1Dir will call FoFJK   1 times, MxPair=       380
 NAB=   190 NAA=     0 NBB=     0 NumPrc= 20.
 DE(Corr)=  -1.0888678     E(CORR)=     -3145.8897445     Delta= 4.49D-04
 NORM(A)=   0.14184552D+01
 Iteration Nr.  10
 **********************
 DD1Dir will call FoFJK   1 times, MxPair=       380
 NAB=   190 NAA=     0 NBB=     0 NumPrc= 20.
 DE(Corr)=  -1.0891062     E(CORR)=     -3145.8899828     Delta=-2.38D-04
 NORM(A)=   0.14184006D+01
 Iteration Nr.  11
 **********************
 DD1Dir will call FoFJK   1 times, MxPair=       380
 NAB=   190 NAA=     0 NBB=     0 NumPrc= 20.
 DE(Corr)=  -1.0890291     E(CORR)=     -3145.8899057     Delta= 7.71D-05
 NORM(A)=   0.14185180D+01
 Iteration Nr.  12
 **********************
 DD1Dir will call FoFJK   1 times, MxPair=       380
 NAB=   190 NAA=     0 NBB=     0 NumPrc= 20.
 DE(Corr)=  -1.0890222     E(CORR)=     -3145.8898988     Delta= 6.90D-06
 NORM(A)=   0.14184793D+01
 Iteration Nr.  13
 **********************
 DD1Dir will call FoFJK   1 times, MxPair=       380
 NAB=   190 NAA=     0 NBB=     0 NumPrc= 20.
 DE(Corr)=  -1.0890376     E(CORR)=     -3145.8899143     Delta=-1.54D-05
 NORM(A)=   0.14184750D+01
 Iteration Nr.  14
 **********************
 DD1Dir will call FoFJK   1 times, MxPair=       380
 NAB=   190 NAA=     0 NBB=     0 NumPrc= 20.
 DE(Corr)=  -1.0890388     E(CORR)=     -3145.8899154     Delta=-1.12D-06
 NORM(A)=   0.14184797D+01
 Iteration Nr.  15
 **********************
 DD1Dir will call FoFJK   1 times, MxPair=       380
 NAB=   190 NAA=     0 NBB=     0 NumPrc= 20.
 DE(Corr)=  -1.0890261     E(CORR)=     -3145.8899028     Delta= 1.26D-05
 NORM(A)=   0.14184642D+01
 Iteration Nr.  16
 **********************
 DD1Dir will call FoFJK   1 times, MxPair=       380
 NAB=   190 NAA=     0 NBB=     0 NumPrc= 20.
 DE(Corr)=  -1.0890358     E(CORR)=     -3145.8899125     Delta=-9.69D-06
 NORM(A)=   0.14184589D+01
 Largest amplitude= 6.57D-02
 T4(AAA)= -0.65967940D-02
 T4(AAB)= -0.72831446D-01
 T5(AAA)=  0.35249853D-03
 T5(AAB)=  0.23124205D-02
 Time for triples=   382052.00 seconds.
 T4(CCSD)= -0.15885648D+00
 T5(CCSD)=  0.53298380D-02
 CCSD(T)= -0.31460434391D+04
 Discarding MO integrals.

 **********************************************************************

            Population analysis using the SCF density.

 **********************************************************************

 Orbital symmetries:
       Occupied  (A) (A) (A) (A) (A) (A) (A) (A) (A) (A) (A) (A)
                 (A) (A) (A) (A) (A) (A) (A) (A) (A) (A) (A) (A)
                 (A) (A) (A) (A) (A) (A) (A) (A) (A) (A) (A) (A)
                 (A) (A) (A) (A) (A) (A) (A) (A) (A) (A) (A) (A)
                 (A) (A) (A) (A) (A) (A) (A) (A) (A) (A) (A) (A)
                 (A) (A) (A) (A) (A) (A) (A) (A) (A) (A) (A) (A)
                 (A) (A) (A) (A) (A) (A) (A) (A) (A) (A) (A) (A)
       Virtual   (A) (A) (A) (A) (A) (A) (A) (A) (A) (A) (A) (A)
                 (A) (A) (A) (A) (A) (A) (A) (A) (A) (A) (A) (A)
                 (A) (A) (A) (A) (A) (A) (A) (A) (A) (A) (A) (A)
                 (A) (A) (A) (A) (A) (A) (A) (A) (A) (A) (A) (A)
                 (A) (A) (A) (A) (A) (A) (A) (A) (A) (A) (A) (A)
                 (A) (A) (A) (A) (A) (A) (A) (A) (A) (A) (A) (A)
                 (A) (A) (A) (A) (A) (A) (A) (A) (A) (A) (A) (A)
                 (A) (A) (A) (A) (A) (A) (A) (A) (A) (A) (A) (A)
                 (A) (A) (A) (A) (A) (A) (A) (A) (A) (A) (A) (A)
                 (A) (A) (A) (A) (A) (A) (A) (A) (A) (A) (A) (A)
                 (A) (A) (A) (A) (A) (A) (A) (A) (A) (A) (A) (A)
                 (A) (A) (A) (A) (A) (A) (A) (A) (A) (A) (A) (A)
                 (A) (A) (A) (A) (A) (A) (A) (A) (A) (A) (A) (A)
                 (A) (A) (A) (A) (A) (A) (A) (A) (A) (A) (A) (A)
                 (A) (A) (A) (A) (A) (A) (A) (A) (A) (A) (A) (A)
                 (A) (A) (A) (A) (A) (A) (A) (A) (A) (A) (A) (A)
                 (A) (A) (A) (A) (A) (A) (A) (A) (A) (A) (A) (A)
                 (A) (A) (A) (A) (A) (A) (A) (A) (A) (A) (A) (A)
                 (A) (A) (A) (A) (A) (A) (A) (A) (A) (A) (A) (A)
                 (A) (A) (A) (A) (A) (A) (A) (A) (A) (A) (A) (A)
                 (A) (A) (A) (A) (A) (A) (A) (A) (A) (A) (A) (A)
                 (A) (A) (A) (A) (A) (A) (A) (A) (A) (A) (A) (A)
                 (A) (A) (A) (A) (A) (A) (A) (A) (A) (A) (A) (A)
                 (A) (A) (A) (A) (A) (A) (A) (A) (A) (A) (A) (A)
                 (A) (A) (A) (A) (A) (A) (A) (A) (A) (A) (A) (A)
                 (A) (A) (A) (A) (A) (A) (A) (A) (A) (A) (A) (A)
                 (A) (A) (A) (A) (A) (A) (A) (A) (A) (A) (A) (A)
                 (A) (A) (A) (A) (A) (A) (A) (A) (A) (A) (A) (A)
                 (A) (A) (A) (A) (A) (A) (A) (A) (A) (A) (A) (A)
                 (A) (A) (A) (A) (A) (A) (A) (A) (A) (A)
 The electronic state is 1-A.
 Alpha  occ. eigenvalues --  -58.61513 -58.61477 -58.61389 -58.61348 -58.61334
 Alpha  occ. eigenvalues --  -58.61303 -58.61226 -58.61215 -58.61185 -58.61176
 Alpha  occ. eigenvalues --  -58.61132 -58.60357 -58.55287  -5.02632  -5.02588
 Alpha  occ. eigenvalues --   -5.02514  -5.02485  -5.02475  -5.02424  -5.02415
 Alpha  occ. eigenvalues --   -5.02401  -5.02385  -5.02307  -5.02263  -5.01859
 Alpha  occ. eigenvalues --   -4.97348  -3.33776  -3.33739  -3.33728  -3.33698
 Alpha  occ. eigenvalues --   -3.33685  -3.33667  -3.33665  -3.33642  -3.33641
 Alpha  occ. eigenvalues --   -3.33638  -3.33625  -3.33623  -3.33616  -3.33611
 Alpha  occ. eigenvalues --   -3.33605  -3.33586  -3.33565  -3.33564  -3.33560
 Alpha  occ. eigenvalues --   -3.33555  -3.33551  -3.33545  -3.33536  -3.33528
 Alpha  occ. eigenvalues --   -3.33522  -3.33515  -3.33505  -3.33498  -3.33481
 Alpha  occ. eigenvalues --   -3.33455  -3.33419  -3.33404  -3.33347  -3.33228
 Alpha  occ. eigenvalues --   -3.33153  -3.33152  -3.28733  -3.28732  -3.28727
 Alpha  occ. eigenvalues --   -0.83725  -0.72222  -0.72209  -0.69775  -0.57553
 Alpha  occ. eigenvalues --   -0.57367  -0.56875  -0.56812  -0.51959  -0.47335
 Alpha  occ. eigenvalues --   -0.40528  -0.40341  -0.40073  -0.38590  -0.37071
 Alpha  occ. eigenvalues --   -0.37040  -0.36669  -0.36659  -0.35668
 Alpha virt. eigenvalues --   -0.14171  -0.14065  -0.13692  -0.12668  -0.12511
 Alpha virt. eigenvalues --   -0.11124  -0.11025  -0.10635  -0.10073  -0.05679
 Alpha virt. eigenvalues --   -0.05296  -0.05105  -0.02804  -0.02791  -0.02623
 Alpha virt. eigenvalues --   -0.00444   0.00040   0.00089   0.00604   0.01469
 Alpha virt. eigenvalues --    0.01639   0.02232   0.03325   0.03563   0.03979
 Alpha virt. eigenvalues --    0.04721   0.05184   0.05756   0.06456   0.06973
 Alpha virt. eigenvalues --    0.07079   0.07194   0.07617   0.08013   0.08065
 Alpha virt. eigenvalues --    0.08186   0.08241   0.09359   0.09416   0.10894
 Alpha virt. eigenvalues --    0.11496   0.12158   0.12249   0.12569   0.12657
 Alpha virt. eigenvalues --    0.12794   0.13437   0.13575   0.14719   0.14821
 Alpha virt. eigenvalues --    0.14982   0.15899   0.16139   0.16211   0.17175
 Alpha virt. eigenvalues --    0.17221   0.17614   0.18772   0.18977   0.19613
 Alpha virt. eigenvalues --    0.20164   0.20448   0.20810   0.21677   0.22658
 Alpha virt. eigenvalues --    0.22680   0.22942   0.23869   0.24094   0.24575
 Alpha virt. eigenvalues --    0.25210   0.25387   0.25703   0.26151   0.26382
 Alpha virt. eigenvalues --    0.26973   0.27191   0.27365   0.27885   0.28275
 Alpha virt. eigenvalues --    0.29779   0.29880   0.31363   0.31465   0.31858
 Alpha virt. eigenvalues --    0.33753   0.34144   0.35304   0.35797   0.35952
 Alpha virt. eigenvalues --    0.36363   0.36463   0.37171   0.37451   0.38611
 Alpha virt. eigenvalues --    0.38787   0.39004   0.39461   0.40179   0.40379
 Alpha virt. eigenvalues --    0.40942   0.41127   0.41667   0.41983   0.42432
 Alpha virt. eigenvalues --    0.42723   0.43262   0.43556   0.44160   0.44559
 Alpha virt. eigenvalues --    0.46234   0.46963   0.47136   0.47261   0.47887
 Alpha virt. eigenvalues --    0.49058   0.49240   0.49377   0.49855   0.50000
 Alpha virt. eigenvalues --    0.50546   0.50731   0.52383   0.52826   0.53204
 Alpha virt. eigenvalues --    0.53521   0.54124   0.54339   0.54911   0.55191
 Alpha virt. eigenvalues --    0.55251   0.56423   0.57914   0.57962   0.58261
 Alpha virt. eigenvalues --    0.58295   0.58941   0.59502   0.59956   0.60998
 Alpha virt. eigenvalues --    0.61557   0.61974   0.62497   0.62680   0.63677
 Alpha virt. eigenvalues --    0.64236   0.64649   0.65657   0.66521   0.67631
 Alpha virt. eigenvalues --    0.67900   0.69155   0.69334   0.69564   0.70002
 Alpha virt. eigenvalues --    0.70874   0.71703   0.72790   0.74025   0.74586
 Alpha virt. eigenvalues --    0.75786   0.75969   0.76274   0.76418   0.76929
 Alpha virt. eigenvalues --    0.78224   0.78534   0.79025   0.79468   0.79746
 Alpha virt. eigenvalues --    0.79954   0.80053   0.80708   0.81247   0.82197
 Alpha virt. eigenvalues --    0.82345   0.82700   0.83416   0.84085   0.84483
 Alpha virt. eigenvalues --    0.84705   0.85223   0.85674   0.86305   0.86993
 Alpha virt. eigenvalues --    0.87116   0.87527   0.88104   0.88328   0.89010
 Alpha virt. eigenvalues --    0.89130   0.89691   0.90075   0.90202   0.91806
 Alpha virt. eigenvalues --    0.92117   0.92711   0.92931   0.93539   0.94075
 Alpha virt. eigenvalues --    0.94547   0.95651   0.95863   0.96480   0.96848
 Alpha virt. eigenvalues --    0.96998   0.98464   0.98854   0.99504   1.00023
 Alpha virt. eigenvalues --    1.00490   1.01365   1.02084   1.02176   1.02294
 Alpha virt. eigenvalues --    1.03390   1.03799   1.03917   1.04405   1.04735
 Alpha virt. eigenvalues --    1.05263   1.05653   1.06154   1.06412   1.06628
 Alpha virt. eigenvalues --    1.08132   1.08904   1.09316   1.09580   1.09797
 Alpha virt. eigenvalues --    1.11835   1.12264   1.12903   1.13721   1.13852
 Alpha virt. eigenvalues --    1.14218   1.15323   1.16070   1.16398   1.17139
 Alpha virt. eigenvalues --    1.17468   1.18181   1.19388   1.20446   1.21277
 Alpha virt. eigenvalues --    1.22801   1.22990   1.23570   1.23909   1.25437
 Alpha virt. eigenvalues --    1.26129   1.26793   1.27134   1.27713   1.28189
 Alpha virt. eigenvalues --    1.28390   1.29005   1.29903   1.30228   1.31116
 Alpha virt. eigenvalues --    1.32071   1.33228   1.33352   1.34191   1.34433
 Alpha virt. eigenvalues --    1.35163   1.35269   1.35570   1.36888   1.37241
 Alpha virt. eigenvalues --    1.37608   1.37825   1.38019   1.38271   1.38487
 Alpha virt. eigenvalues --    1.38694   1.40152   1.40956   1.41675   1.42622
 Alpha virt. eigenvalues --    1.43173   1.44125   1.44726   1.45081   1.45338
 Alpha virt. eigenvalues --    1.45708   1.45879   1.46532   1.47087   1.47638
 Alpha virt. eigenvalues --    1.47990   1.49246   1.51397   1.52313   1.52691
 Alpha virt. eigenvalues --    1.53180   1.53608   1.54402   1.54741   1.55949
 Alpha virt. eigenvalues --    1.56288   1.56759   1.61143   1.64083   1.67607
 Alpha virt. eigenvalues --    1.70232   2.26474   2.38446   2.39281   2.40055
 Alpha virt. eigenvalues --    2.41792   2.42322   2.43044   2.44112   2.44388
 Alpha virt. eigenvalues --    2.45950   2.53282   2.55523   2.57930   2.58542
 Alpha virt. eigenvalues --    2.58881   2.60268   2.60885   2.62937   2.63519
 Alpha virt. eigenvalues --    2.63937   2.65699   2.67099   2.68450   2.69304
 Alpha virt. eigenvalues --    2.72396   2.74602   2.81757   2.83572   2.91991
 Alpha virt. eigenvalues --    2.92545   2.93485   2.93590   2.95944   2.96609
 Alpha virt. eigenvalues --    3.04167   3.04550   3.08583   3.20871   3.21402
 Alpha virt. eigenvalues --    3.23939   3.37140   3.47648   3.48230   3.59912
 Alpha virt. eigenvalues --    3.64890   3.73564   3.75162   3.78201   3.99961
 Alpha virt. eigenvalues --    4.22480   4.33294   6.32895
          Condensed to atoms (all electrons):
               1          2          3          4          5          6
     1  Al  11.987700  -0.024560   0.275536   0.345349   0.003145  -0.010938
     2  Al  -0.024560  12.212255   0.114250   0.001405   0.135685   0.235912
     3  Al   0.275536   0.114250  12.219686  -0.004709  -0.009343   0.225236
     4  Al   0.345349   0.001405  -0.004709  12.066023  -0.000425  -0.008327
     5  Al   0.003145   0.135685  -0.009343  -0.000425  12.230628   0.200572
     6  Al  -0.010938   0.235912   0.225236  -0.008327   0.200572  11.908798
     7  Al  -0.020349  -0.009291   0.155201   0.225007  -0.007596   0.191002
     8  Al   0.001275  -0.008765  -0.008288  -0.013601   0.188480   0.184944
     9  Al   0.362062   0.284261  -0.024478  -0.028070  -0.022064  -0.012360
    10  Al  -0.028866  -0.016869   0.002359   0.006342   0.247113  -0.008668
    11  Al   0.005741  -0.001343  -0.000683  -0.020328   0.037423  -0.008372
    12  Al  -0.023802  -0.000709  -0.003187   0.301095  -0.006803  -0.008400
    13  Al   0.012465   0.004285   0.000585   0.025509  -0.013319   0.134858
               7          8          9         10         11         12
     1  Al  -0.020349   0.001275   0.362062  -0.028866   0.005741  -0.023802
     2  Al  -0.009291  -0.008765   0.284261  -0.016869  -0.001343  -0.000709
     3  Al   0.155201  -0.008288  -0.024478   0.002359  -0.000683  -0.003187
     4  Al   0.225007  -0.013601  -0.028070   0.006342  -0.020328   0.301095
     5  Al  -0.007596   0.188480  -0.022064   0.247113   0.037423  -0.006803
     6  Al   0.191002   0.184944  -0.012360  -0.008668  -0.008372  -0.008400
     7  Al  12.228197   0.199969   0.003046  -0.000002  -0.009031   0.069810
     8  Al   0.199969  12.218886   0.002044  -0.016189   0.171269   0.136159
     9  Al   0.003046   0.002044  11.977786   0.355047  -0.025442   0.005361
    10  Al  -0.000002  -0.016189   0.355047  12.031159   0.317025  -0.021189
    11  Al  -0.009031   0.171269  -0.025442   0.317025  12.131231   0.284101
    12  Al   0.069810   0.136159   0.005361  -0.021189   0.284101  12.153883
    13  Al  -0.022498  -0.033209   0.008492   0.021534   0.030324   0.032036
              13
     1  Al   0.012465
     2  Al   0.004285
     3  Al   0.000585
     4  Al   0.025509
     5  Al  -0.013319
     6  Al   0.134858
     7  Al  -0.022498
     8  Al  -0.033209
     9  Al   0.008492
    10  Al   0.021534
    11  Al   0.030324
    12  Al   0.032036
    13  Al  12.511292
 Mulliken charges:
               1
     1  Al   0.115243
     2  Al   0.073484
     3  Al   0.057836
     4  Al   0.104730
     5  Al   0.016503
     6  Al  -0.024255
     7  Al  -0.003464
     8  Al  -0.022973
     9  Al   0.114314
    10  Al   0.111205
    11  Al   0.088086
    12  Al   0.081644
    13  Al   0.287646
 Sum of Mulliken charges =   1.00000
 Mulliken charges with hydrogens summed into heavy atoms:
               1
     1  Al   0.115243
     2  Al   0.073484
     3  Al   0.057836
     4  Al   0.104730
     5  Al   0.016503
     6  Al  -0.024255
     7  Al  -0.003464
     8  Al  -0.022973
     9  Al   0.114314
    10  Al   0.111205
    11  Al   0.088086
    12  Al   0.081644
    13  Al   0.287646
 Electronic spatial extent (au):  <R**2>=           4604.8131
 Charge=              1.0000 electrons
 Dipole moment (field-independent basis, Debye):
    X=              0.0040    Y=             -0.5411    Z=              1.4289  Tot=              1.5279
 Quadrupole moment (field-independent basis, Debye-Ang):
   XX=           -136.8113   YY=           -136.2753   ZZ=           -140.6785
   XY=             -0.0240   XZ=             -0.0016   YZ=             -1.8241
 Traceless Quadrupole moment (field-independent basis, Debye-Ang):
   XX=              1.1104   YY=              1.6464   ZZ=             -2.7568
   XY=             -0.0240   XZ=             -0.0016   YZ=             -1.8241
 Octapole moment (field-independent basis, Debye-Ang**2):
  XXX=              0.2587  YYY=             -6.8404  ZZZ=             30.0154  XYY=             -0.1741
  XXY=             -2.2460  XXZ=             -4.4595  XZZ=             -0.0052  YZZ=              4.1264
  YYZ=             -4.0107  XYZ=             -0.0456
 Hexadecapole moment (field-independent basis, Debye-Ang**3):
 XXXX=          -2768.3900 YYYY=          -2751.1756 ZZZZ=          -1988.7112 XXXY=              3.9017
 XXXZ=              1.3644 YYYX=             -4.0898 YYYZ=            -28.5858 ZZZX=             -0.0362
 ZZZY=             -9.2504 XXYY=           -917.2136 XXZZ=           -762.1554 YYZZ=           -761.7486
 XXYZ=             -8.9456 YYXZ=             -1.3409 ZZXY=             -0.2434
 N-N= 1.991294294434D+03 E-N=-1.148361877007D+04  KE= 3.144994930502D+03

 Test job not archived.
 1\1\GINC-R1I1N10\SP\RCCSD(T)-FC\CC-pVTZ\Al13(1+)\VSC31064\03-Oct-2016\
 0\\# CCSD(T,conver=5)/cc-pVTZ test geom=allcheck guess=read\\Al13-c-s\
 \1,1\Al,0,1.704175,2.070629,-1.272239\Al,0,-0.970411,2.101366,1.340459
 \Al,0,1.808497,1.465143,1.292944\Al,0,2.586024,-0.402003,-1.335742\Al,
 0,-2.336908,-0.340647,1.177203\Al,0,-0.000269,-0.082481,2.339036\Al,0,
 1.996981,-1.290051,1.126039\Al,0,-0.496847,-2.341015,1.077115\Al,0,-0.
 880219,2.546702,-1.250967\Al,0,-2.584181,0.548645,-1.318253\Al,0,-1.70
 5979,-1.929057,-1.355995\Al,0,0.879743,-2.40307,-1.362091\Al,0,-0.0006
 06,0.055838,-0.457508\\Version=ES64L-G09RevD.01\State=1-A\HF=-3144.800
 8766\MP2=-3146.01763\MP3=-3145.8241354\MP4D=-3146.0211388\MP4DQ=-3145.
 938795\MP4SDQ=-3145.9630545\CCSD=-3145.8899125\CCSD(T)=-3146.0434391\R
 MSD=8.395e-09\PG=C01 [X(Al13)]\\@


 ON INDUCTION, OR "WHY DO YOU BELIEVE THE SUN WILL RISE TOMORROW?":

 ... THE FARMER WHO HAS FED THE CHICKEN EVERY DAY THROUGHOUT ITS
 LIFE AT LAST WRINGS ITS NECK INSTEAD, SHOWING THAT MORE REFINED VIEWS
 AS TO THE UNIFORMITY OF NATURE WOULD HAVE BEEN USEFUL TO THE CHICKEN.

                               -- BERTRAND RUSSELL
 Job cpu time:       6 days 10 hours 14 minutes 50.2 seconds.
 File lengths (MBytes):  RWF=  86358 Int=      0 D2E=      0 Chk=     10 Scr=      1
 Normal termination of Gaussian 09 at Mon Oct  3 02:33:53 2016.
