 Entering Gaussian System, Link 0=g09
 Initial command:
 /apps/leuven/thinking/software/G09//g09D1/l1.exe "/local_scratch/vsc31064/Gau-48816.inp" -scrdir="/local_scratch/vsc31064/"
 Entering Link 1 = /apps/leuven/thinking/software/G09//g09D1/l1.exe PID=     48817.
  
 Copyright (c) 1988,1990,1992,1993,1995,1998,2003,2009,2013,
            Gaussian, Inc.  All Rights Reserved.
  
 This is part of the Gaussian(R) 09 program.  It is based on
 the Gaussian(R) 03 system (copyright 2003, Gaussian, Inc.),
 the Gaussian(R) 98 system (copyright 1998, Gaussian, Inc.),
 the Gaussian(R) 94 system (copyright 1995, Gaussian, Inc.),
 the Gaussian 92(TM) system (copyright 1992, Gaussian, Inc.),
 the Gaussian 90(TM) system (copyright 1990, Gaussian, Inc.),
 the Gaussian 88(TM) system (copyright 1988, Gaussian, Inc.),
 the Gaussian 86(TM) system (copyright 1986, Carnegie Mellon
 University), and the Gaussian 82(TM) system (copyright 1983,
 Carnegie Mellon University). Gaussian is a federally registered
 trademark of Gaussian, Inc.
  
 This software contains proprietary and confidential information,
 including trade secrets, belonging to Gaussian, Inc.
  
 This software is provided under written license and may be
 used, copied, transmitted, or stored only in accord with that
 written license.
  
 The following legend is applicable only to US Government
 contracts under FAR:
  
                    RESTRICTED RIGHTS LEGEND
  
 Use, reproduction and disclosure by the US Government is
 subject to restrictions as set forth in subparagraphs (a)
 and (c) of the Commercial Computer Software - Restricted
 Rights clause in FAR 52.227-19.
  
 Gaussian, Inc.
 340 Quinnipiac St., Bldg. 40, Wallingford CT 06492
  
  
 ---------------------------------------------------------------
 Warning -- This program may not be used in any manner that
 competes with the business of Gaussian, Inc. or will provide
 assistance to any competitor of Gaussian, Inc.  The licensee
 of this program is prohibited from giving any competitor of
 Gaussian, Inc. access to this program.  By using this program,
 the user acknowledges that Gaussian, Inc. is engaged in the
 business of creating and licensing software in the field of
 computational chemistry and represents and warrants to the
 licensee that it is not a competitor of Gaussian, Inc. and that
 it will not use this program in any manner prohibited above.
 ---------------------------------------------------------------
  

 Cite this work as:
 Gaussian 09, Revision D.01,
 M. J. Frisch, G. W. Trucks, H. B. Schlegel, G. E. Scuseria, 
 M. A. Robb, J. R. Cheeseman, G. Scalmani, V. Barone, B. Mennucci, 
 G. A. Petersson, H. Nakatsuji, M. Caricato, X. Li, H. P. Hratchian, 
 A. F. Izmaylov, J. Bloino, G. Zheng, J. L. Sonnenberg, M. Hada, 
 M. Ehara, K. Toyota, R. Fukuda, J. Hasegawa, M. Ishida, T. Nakajima, 
 Y. Honda, O. Kitao, H. Nakai, T. Vreven, J. A. Montgomery, Jr., 
 J. E. Peralta, F. Ogliaro, M. Bearpark, J. J. Heyd, E. Brothers, 
 K. N. Kudin, V. N. Staroverov, T. Keith, R. Kobayashi, J. Normand, 
 K. Raghavachari, A. Rendell, J. C. Burant, S. S. Iyengar, J. Tomasi, 
 M. Cossi, N. Rega, J. M. Millam, M. Klene, J. E. Knox, J. B. Cross, 
 V. Bakken, C. Adamo, J. Jaramillo, R. Gomperts, R. E. Stratmann, 
 O. Yazyev, A. J. Austin, R. Cammi, C. Pomelli, J. W. Ochterski, 
 R. L. Martin, K. Morokuma, V. G. Zakrzewski, G. A. Voth, 
 P. Salvador, J. J. Dannenberg, S. Dapprich, A. D. Daniels, 
 O. Farkas, J. B. Foresman, J. V. Ortiz, J. Cioslowski, 
 and D. J. Fox, Gaussian, Inc., Wallingford CT, 2013.
 
 ******************************************
 Gaussian 09:  ES64L-G09RevD.01 24-Apr-2013
                 3-Oct-2016 
 ******************************************
 %NprocShared=20
 Will use up to   20 processors via shared memory.
 %mem=55000mb
 %chk=cc-Al14-n-s
 ------------------------
 # hf/6-31G* test scf=xqc
 ------------------------
 1/38=1/1;
 2/12=2,17=6,18=5,40=1/2;
 3/5=1,6=6,7=1,11=9,16=1,25=1,30=1/1,2,3;
 4//1;
 5/5=2,8=3,13=1,38=5/2,8;
 6/7=2,8=2,9=2,10=2,28=1/1;
 99/5=1,9=1/99;
 --------
 Al14-n-s
 --------
 Symbolic Z-matrix:
 Charge =  0 Multiplicity = 1
 Al                    1.16266  -1.49435  -1.66578 
 Al                    2.31076   1.18626   1.21658 
 Al                    2.31313  -1.38328   0.78676 
 Al                    1.64441   1.1228   -1.5243 
 Al                    0.21728   2.71391   0.36073 
 Al                   -1.16266   1.49435  -1.66578 
 Al                   -2.31313   1.38328   0.78676 
 Al                   -1.64441  -1.1228   -1.5243 
 Al                   -0.18778   1.27523   2.63676 
 Al                   -2.31076  -1.18626   1.21658 
 Al                   -0.21728  -2.71391   0.36073 
 Al                    0.18778  -1.27523   2.63676 
 Al                    0.        0.       -3.91786 
 Al                    0.        0.        0.29475 
 
                          Input orientation:                          
 ---------------------------------------------------------------------
 Center     Atomic      Atomic             Coordinates (Angstroms)
 Number     Number       Type             X           Y           Z
 ---------------------------------------------------------------------
      1         13           0        1.162656   -1.494345   -1.665778
      2         13           0        2.310761    1.186259    1.216578
      3         13           0        2.313128   -1.383276    0.786757
      4         13           0        1.644408    1.122799   -1.524300
      5         13           0        0.217284    2.713914    0.360728
      6         13           0       -1.162656    1.494345   -1.665778
      7         13           0       -2.313128    1.383276    0.786757
      8         13           0       -1.644408   -1.122799   -1.524300
      9         13           0       -0.187778    1.275227    2.636758
     10         13           0       -2.310761   -1.186259    1.216578
     11         13           0       -0.217284   -2.713914    0.360728
     12         13           0        0.187778   -1.275227    2.636758
     13         13           0        0.000000    0.000000   -3.917856
     14         13           0        0.000000    0.000000    0.294747
 ---------------------------------------------------------------------
                    Distance matrix (angstroms):
                    1          2          3          4          5
     1  Al   0.000000
     2  Al   4.100215   0.000000
     3  Al   2.711245   2.605237   0.000000
     4  Al   2.664872   2.821430   3.473986   0.000000
     5  Al   4.765491   2.729259   4.621799   2.849853   0.000000
     6  Al   3.786732   4.524104   5.135825   2.835078   2.738305
     7  Al   5.135825   4.648001   5.390366   4.590307   2.890516
     8  Al   2.835078   5.337370   4.590307   3.982338   4.662574
     9  Al   5.292071   2.875331   4.092025   4.549126   2.722905
    10  Al   4.524104   5.194932   4.648001   5.337370   4.725976
    11  Al   2.738305   4.725976   2.890516   4.662574   5.445198
    12  Al   4.417037   3.547236   2.819803   5.018635   4.592867
    13  Al   2.942225   5.754063   5.421936   3.113497   5.071373
    14  Al   2.725526   2.756193   2.739724   2.696977   2.723398
                    6          7          8          9         10
     6  Al   0.000000
     7  Al   2.711245   0.000000
     8  Al   2.664872   3.473986   0.000000
     9  Al   4.417037   2.819803   5.018635   0.000000
    10  Al   4.100215   2.605237   2.821430   3.547236   0.000000
    11  Al   4.765491   4.621799   2.849853   4.592867   2.729259
    12  Al   5.292071   4.092025   4.549126   2.577955   2.875331
    13  Al   2.942225   5.421936   3.113497   6.680152   5.754063
    14  Al   2.725526   2.739724   2.696977   2.673290   2.756193
                   11         12         13         14
    11  Al   0.000000
    12  Al   2.722905   0.000000
    13  Al   5.071373   6.680152   0.000000
    14  Al   2.723398   2.673290   4.212603   0.000000
 Stoichiometry    Al14
 Framework group  C2[C2(AlAl),X(Al12)]
 Deg. of freedom    18
 Full point group                 C2      NOp   2
 Largest Abelian subgroup         C2      NOp   2
 Largest concise Abelian subgroup C2      NOp   2
                         Standard orientation:                         
 ---------------------------------------------------------------------
 Center     Atomic      Atomic             Coordinates (Angstroms)
 Number     Number       Type             X           Y           Z
 ---------------------------------------------------------------------
      1         13           0       -0.685793    1.764801    1.665662
      2         13           0        2.204076    1.374364   -1.216694
      3         13           0        0.000000    2.695183   -0.786873
      4         13           0        1.807612    0.835040    1.524184
      5         13           0        2.440723   -1.206407   -0.360844
      6         13           0        0.685793   -1.764801    1.665662
      7         13           0        0.000000   -2.695183   -0.786873
      8         13           0       -1.807612   -0.835040    1.524184
      9         13           0        0.998082   -0.815657   -2.636874
     10         13           0       -2.204076   -1.374364   -1.216694
     11         13           0       -2.440723    1.206407   -0.360844
     12         13           0       -0.998082    0.815657   -2.636874
     13         13           0        0.000000    0.000000    3.917740
     14         13           0        0.000000    0.000000   -0.294863
 ---------------------------------------------------------------------
 Rotational constants (GHZ):      0.3057106      0.2543066      0.2477313
 Standard basis: 6-31G(d) (6D, 7F)
 There are   136 symmetry adapted cartesian basis functions of A   symmetry.
 There are   130 symmetry adapted cartesian basis functions of B   symmetry.
 There are   136 symmetry adapted basis functions of A   symmetry.
 There are   130 symmetry adapted basis functions of B   symmetry.
   266 basis functions,   728 primitive gaussians,   266 cartesian basis functions
    91 alpha electrons       91 beta electrons
       nuclear repulsion energy      2281.5239277924 Hartrees.
 NAtoms=   14 NActive=   14 NUniq=    8 SFac= 3.06D+00 NAtFMM=   60 NAOKFM=F Big=F
 Integral buffers will be    131072 words long.
 Raffenetti 1 integral format.
 Two-electron integral symmetry is turned on.
 One-electron integrals computed using PRISM.
 NBasis=   266 RedAO= T EigKep=  5.21D-04  NBF=   136   130
 NBsUse=   266 1.00D-06 EigRej= -1.00D+00 NBFU=   136   130
 ExpMin= 5.57D-02 ExpMax= 1.40D+04 ExpMxC= 2.10D+03 IAcc=2 IRadAn=         4 AccDes= 0.00D+00
 Harris functional with IExCor=  205 and IRadAn=       4 diagonalized for initial guess.
 HarFok:  IExCor=  205 AccDes= 0.00D+00 IRadAn=         4 IDoV= 1 UseB2=F ITyADJ=14
 ICtDFT=  3500011 ScaDFX=  1.000000  1.000000  1.000000  1.000000
 FoFCou: FMM=F IPFlag=           0 FMFlag=      100000 FMFlg1=           0
         NFxFlg=           0 DoJE=T BraDBF=F KetDBF=T FulRan=T
         wScrn=  0.000000 ICntrl=     500 IOpCl=  0 I1Cent=   200000004 NGrid=           0
         NMat0=    1 NMatS0=      1 NMatT0=    0 NMatD0=    1 NMtDS0=    0 NMtDT0=    0
 Petite list used in FoFCou.
 Initial guess orbital symmetries:
       Occupied  (A) (B) (A) (B) (A) (B) (A) (B) (A) (B) (A) (B)
                 (A) (A) (A) (B) (A) (B) (A) (A) (B) (B) (A) (B)
                 (A) (B) (A) (A) (B) (A) (B) (B) (A) (A) (B) (A)
                 (B) (A) (B) (A) (A) (B) (B) (A) (B) (A) (B) (B)
                 (A) (B) (A) (A) (B) (B) (A) (B) (A) (B) (A) (B)
                 (A) (B) (A) (B) (A) (A) (B) (A) (B) (B) (A) (B)
                 (A) (B) (A) (B) (A) (A) (B) (A) (A) (B) (B) (A)
                 (B) (A) (B) (B) (B) (A) (A)
       Virtual   (B) (A) (A) (B) (A) (B) (A) (B) (A) (B) (A) (A)
                 (A) (B) (A) (B) (B) (B) (A) (B) (B) (A) (A) (B)
                 (A) (B) (B) (A) (B) (B) (A) (B) (A) (B) (A) (A)
                 (B) (B) (A) (A) (B) (A) (A) (B) (A) (A) (A) (B)
                 (A) (A) (B) (B) (A) (B) (B) (B) (A) (B) (A) (B)
                 (B) (A) (A) (B) (B) (A) (A) (B) (B) (A) (B) (B)
                 (A) (A) (B) (A) (B) (A) (B) (A) (B) (A) (B) (A)
                 (B) (A) (B) (A) (B) (B) (A) (B) (A) (A) (B) (A)
                 (B) (A) (A) (B) (A) (B) (A) (B) (A) (B) (A) (B)
                 (A) (B) (A) (B) (A) (B) (A) (A) (B) (B) (A) (B)
                 (B) (A) (A) (B) (A) (B) (A) (B) (A) (A) (B) (B)
                 (A) (A) (B) (A) (A) (B) (B) (B) (A) (B) (A) (B)
                 (A) (B) (B) (A) (A) (B) (A) (A) (B) (A) (B) (A)
                 (B) (A) (B) (B) (A) (A) (B) (A) (B) (A) (A) (B)
                 (A) (A) (B) (B) (A) (B) (A)
 The electronic state of the initial guess is 1-A.
 Keep R1 ints in memory in symmetry-blocked form, NReq=946113760.
 Requested convergence on RMS density matrix=1.00D-08 within  64 cycles.
 Requested convergence on MAX density matrix=1.00D-06.
 Requested convergence on             energy=1.00D-06.
 No special actions if energy rises.
 SCF Done:  E(RHF) =  -3386.59853984     A.U. after   19 cycles
            NFock= 19  Conv=0.70D-08     -V/T= 2.0002
 QCSCF skips out because SCF is already converged.

 **********************************************************************

            Population analysis using the SCF density.

 **********************************************************************

 Orbital symmetries:
       Occupied  (B) (A) (B) (A) (A) (B) (A) (B) (A) (B) (A) (B)
                 (A) (A) (B) (A) (A) (B) (B) (A) (A) (B) (A) (A)
                 (B) (A) (B) (A) (B) (A) (A) (B) (B) (A) (A) (B)
                 (B) (A) (A) (B) (B) (A) (B) (A) (B) (A) (B) (A)
                 (A) (B) (B) (A) (B) (A) (B) (B) (A) (B) (A) (A)
                 (B) (B) (A) (A) (B) (B) (A) (B) (A) (B) (A) (B)
                 (A) (B) (A) (B) (A) (A) (B) (A) (A) (B) (B) (A)
                 (B) (B) (A) (B) (B) (A) (A)
       Virtual   (B) (A) (A) (B) (A) (A) (B) (B) (A) (B) (A) (A)
                 (A) (B) (A) (B) (B) (B) (A) (B) (B) (A) (B) (A)
                 (A) (B) (B) (A) (B) (A) (B) (B) (A) (B) (A) (A)
                 (A) (B) (B) (A) (A) (B) (A) (B) (A) (A) (B) (A)
                 (A) (B) (A) (A) (B) (B) (B) (B) (B) (A) (B) (A)
                 (B) (B) (A) (A) (B) (A) (A) (B) (B) (B) (A) (B)
                 (A) (B) (A) (A) (B) (A) (A) (B) (A) (B) (A) (B)
                 (B) (A) (B) (B) (A) (A) (B) (B) (A) (A) (A) (B)
                 (B) (A) (A) (B) (A) (A) (B) (B) (A) (B) (B) (A)
                 (A) (B) (A) (A) (B) (B) (A) (B) (B) (A) (A) (B)
                 (B) (A) (A) (A) (A) (B) (A) (B) (A) (B) (B) (B)
                 (A) (A) (B) (A) (B) (A) (B) (B) (A) (A) (B) (B)
                 (A) (B) (B) (A) (A) (B) (A) (B) (A) (B) (A) (A)
                 (B) (A) (B) (B) (A) (A) (B) (A) (A) (B) (B) (A)
                 (A) (A) (B) (B) (A) (B) (A)
 The electronic state is 1-A.
 Alpha  occ. eigenvalues --  -58.49025 -58.49024 -58.48532 -58.48532 -58.48292
 Alpha  occ. eigenvalues --  -58.48140 -58.48139 -58.47914 -58.47914 -58.47696
 Alpha  occ. eigenvalues --  -58.47695 -58.47478 -58.47478 -58.41936  -4.90882
 Alpha  occ. eigenvalues --   -4.90882  -4.90455  -4.90446  -4.90048  -4.90048
 Alpha  occ. eigenvalues --   -4.89996  -4.89851  -4.89851  -4.89651  -4.89651
 Alpha  occ. eigenvalues --   -4.89553  -4.89553  -4.85346  -3.22019  -3.22018
 Alpha  occ. eigenvalues --   -3.21924  -3.21923  -3.21887  -3.21886  -3.21677
 Alpha  occ. eigenvalues --   -3.21642  -3.21581  -3.21574  -3.21521  -3.21473
 Alpha  occ. eigenvalues --   -3.21209  -3.21209  -3.21103  -3.21103  -3.21060
 Alpha  occ. eigenvalues --   -3.21060  -3.20975  -3.20975  -3.20886  -3.20885
 Alpha  occ. eigenvalues --   -3.20841  -3.20841  -3.20789  -3.20783  -3.20777
 Alpha  occ. eigenvalues --   -3.20773  -3.20749  -3.20743  -3.20734  -3.20710
 Alpha  occ. eigenvalues --   -3.20700  -3.20662  -3.20656  -3.20639  -3.20637
 Alpha  occ. eigenvalues --   -3.20605  -3.20604  -3.16718  -3.16692  -3.16692
 Alpha  occ. eigenvalues --   -0.73358  -0.61756  -0.60721  -0.59589  -0.47707
 Alpha  occ. eigenvalues --   -0.45314  -0.45229  -0.44117  -0.43535  -0.41107
 Alpha  occ. eigenvalues --   -0.34010  -0.27885  -0.26882  -0.26460  -0.26374
 Alpha  occ. eigenvalues --   -0.26176  -0.26018  -0.25346  -0.24789  -0.24570
 Alpha  occ. eigenvalues --   -0.22368
 Alpha virt. eigenvalues --   -0.03409  -0.02756  -0.01915  -0.01312  -0.01207
 Alpha virt. eigenvalues --    0.01519   0.01559   0.01977   0.03570   0.04520
 Alpha virt. eigenvalues --    0.04648   0.05478   0.05657   0.05986   0.07216
 Alpha virt. eigenvalues --    0.08457   0.10730   0.10942   0.11924   0.12164
 Alpha virt. eigenvalues --    0.12726   0.14031   0.14416   0.15020   0.15114
 Alpha virt. eigenvalues --    0.15738   0.16120   0.16612   0.17294   0.17782
 Alpha virt. eigenvalues --    0.18129   0.18810   0.19853   0.20548   0.21421
 Alpha virt. eigenvalues --    0.23213   0.23537   0.23695   0.24129   0.24560
 Alpha virt. eigenvalues --    0.24948   0.25450   0.25854   0.26673   0.28431
 Alpha virt. eigenvalues --    0.28510   0.29346   0.30851   0.31346   0.31413
 Alpha virt. eigenvalues --    0.31974   0.33114   0.33176   0.33410   0.33919
 Alpha virt. eigenvalues --    0.35343   0.36531   0.36813   0.37944   0.38448
 Alpha virt. eigenvalues --    0.38604   0.39469   0.39884   0.39906   0.40629
 Alpha virt. eigenvalues --    0.41572   0.43213   0.43555   0.44007   0.44287
 Alpha virt. eigenvalues --    0.44631   0.45578   0.46183   0.46299   0.46985
 Alpha virt. eigenvalues --    0.48007   0.48442   0.50083   0.50754   0.50788
 Alpha virt. eigenvalues --    0.51829   0.51836   0.52631   0.53280   0.54266
 Alpha virt. eigenvalues --    0.55551   0.57071   0.57604   0.58131   0.59797
 Alpha virt. eigenvalues --    0.59864   0.60224   0.61951   0.62512   0.62756
 Alpha virt. eigenvalues --    0.62937   0.65157   0.66628   0.66872   0.67862
 Alpha virt. eigenvalues --    0.68987   0.69806   0.69832   0.69972   0.70598
 Alpha virt. eigenvalues --    0.70964   0.71666   0.71861   0.72307   0.73150
 Alpha virt. eigenvalues --    0.73740   0.75929   0.76885   0.78442   0.79250
 Alpha virt. eigenvalues --    0.80135   0.80332   0.80958   0.82444   0.83920
 Alpha virt. eigenvalues --    0.84427   0.85126   0.85374   0.86287   0.87057
 Alpha virt. eigenvalues --    0.87474   0.88203   0.88480   0.88785   0.89502
 Alpha virt. eigenvalues --    0.90614   0.92393   0.92496   0.92613   0.93189
 Alpha virt. eigenvalues --    0.93224   0.94018   0.95000   0.96600   0.96895
 Alpha virt. eigenvalues --    0.99618   1.00400   1.00401   1.01162   1.01713
 Alpha virt. eigenvalues --    1.02501   1.04835   1.05259   1.07988   1.09066
 Alpha virt. eigenvalues --    1.09135   1.09614   1.09922   1.11126   1.11360
 Alpha virt. eigenvalues --    1.13603   1.16231   1.39751   1.42320   1.80782
 Alpha virt. eigenvalues --    1.80845   2.32194   2.32304   2.32921   2.33625
 Alpha virt. eigenvalues --    2.33852   2.36375   2.36862   2.38588   2.40530
 Alpha virt. eigenvalues --    2.41838   2.43539   2.44179   2.59735   2.72038
          Condensed to atoms (all electrons):
               1          2          3          4          5          6
     1  Al  14.003006   0.052631   0.093346  -0.150146   0.014363   0.021675
     2  Al   0.052631  13.461598   0.000088   0.053965   0.007782   0.046219
     3  Al   0.093346   0.000088  13.336102   0.034297   0.065506  -0.056803
     4  Al  -0.150146   0.053965   0.034297  13.893989   0.053811  -0.042404
     5  Al   0.014363   0.007782   0.065506   0.053811  13.483841   0.016408
     6  Al   0.021675   0.046219  -0.056803  -0.042404   0.016408  14.003006
     7  Al  -0.056803  -0.011997  -0.020600   0.043041  -0.034650   0.093346
     8  Al  -0.042404  -0.048613   0.043041   0.008088   0.057180  -0.150146
     9  Al  -0.040469   0.066592   0.004839  -0.014052   0.110874  -0.030281
    10  Al   0.046219  -0.034793  -0.011997  -0.048613   0.037961   0.052631
    11  Al   0.016408   0.037961  -0.034650   0.057180  -0.052672   0.014363
    12  Al  -0.030281  -0.005295   0.160425  -0.037357   0.034835  -0.040469
    13  Al  -0.028145   0.003428   0.006066  -0.057604   0.001128  -0.028145
    14  Al  -0.815787  -0.667095  -0.668891  -0.797594  -0.857384  -0.815787
               7          8          9         10         11         12
     1  Al  -0.056803  -0.042404  -0.040469   0.046219   0.016408  -0.030281
     2  Al  -0.011997  -0.048613   0.066592  -0.034793   0.037961  -0.005295
     3  Al  -0.020600   0.043041   0.004839  -0.011997  -0.034650   0.160425
     4  Al   0.043041   0.008088  -0.014052  -0.048613   0.057180  -0.037357
     5  Al  -0.034650   0.057180   0.110874   0.037961  -0.052672   0.034835
     6  Al   0.093346  -0.150146  -0.030281   0.052631   0.014363  -0.040469
     7  Al  13.336102   0.034297   0.160425   0.000088   0.065506   0.004839
     8  Al   0.034297  13.893989  -0.037357   0.053965   0.053811  -0.014052
     9  Al   0.160425  -0.037357  13.351198  -0.005295   0.034835   0.159260
    10  Al   0.000088   0.053965  -0.005295  13.461598   0.007782   0.066592
    11  Al   0.065506   0.053811   0.034835   0.007782  13.483841   0.110874
    12  Al   0.004839  -0.014052   0.159260   0.066592   0.110874  13.351198
    13  Al   0.006066  -0.057604  -0.001881   0.003428   0.001128  -0.001881
    14  Al  -0.668891  -0.797594  -0.762453  -0.667095  -0.857384  -0.762453
              13         14
     1  Al  -0.028145  -0.815787
     2  Al   0.003428  -0.667095
     3  Al   0.006066  -0.668891
     4  Al  -0.057604  -0.797594
     5  Al   0.001128  -0.857384
     6  Al  -0.028145  -0.815787
     7  Al   0.006066  -0.668891
     8  Al  -0.057604  -0.797594
     9  Al  -0.001881  -0.762453
    10  Al   0.003428  -0.667095
    11  Al   0.001128  -0.857384
    12  Al  -0.001881  -0.762453
    13  Al  12.902345  -0.001630
    14  Al  -0.001630  22.535992
 Mulliken charges:
               1
     1  Al  -0.083613
     2  Al   0.037528
     3  Al   0.049230
     4  Al   0.003398
     5  Al   0.061017
     6  Al  -0.083613
     7  Al   0.049230
     8  Al   0.003398
     9  Al   0.003767
    10  Al   0.037528
    11  Al   0.061017
    12  Al   0.003767
    13  Al   0.253300
    14  Al  -0.395953
 Sum of Mulliken charges =   0.00000
 Mulliken charges with hydrogens summed into heavy atoms:
               1
     1  Al  -0.083613
     2  Al   0.037528
     3  Al   0.049230
     4  Al   0.003398
     5  Al   0.061017
     6  Al  -0.083613
     7  Al   0.049230
     8  Al   0.003398
     9  Al   0.003767
    10  Al   0.037528
    11  Al   0.061017
    12  Al   0.003767
    13  Al   0.253300
    14  Al  -0.395953
 Electronic spatial extent (au):  <R**2>=           5298.4697
 Charge=              0.0000 electrons
 Dipole moment (field-independent basis, Debye):
    X=              0.0000    Y=              0.0000    Z=             -1.6204  Tot=              1.6204
 Quadrupole moment (field-independent basis, Debye-Ang):
   XX=           -180.3725   YY=           -182.3568   ZZ=           -190.9544
   XY=             -3.7790   XZ=              0.0000   YZ=              0.0000
 Traceless Quadrupole moment (field-independent basis, Debye-Ang):
   XX=              4.1888   YY=              2.2044   ZZ=             -6.3932
   XY=             -3.7790   XZ=              0.0000   YZ=              0.0000
 Octapole moment (field-independent basis, Debye-Ang**2):
  XXX=              0.0000  YYY=              0.0000  ZZZ=            -62.0796  XYY=              0.0000
  XXY=              0.0000  XXZ=             -8.4159  XZZ=              0.0000  YZZ=              0.0000
  YYZ=             -3.1862  XYZ=              1.0279
 Hexadecapole moment (field-independent basis, Debye-Ang**3):
 XXXX=          -2867.6170 YYYY=          -2807.0782 ZZZZ=          -4342.6606 XXXY=             23.0524
 XXXZ=              0.0000 YYYX=             -1.4260 YYYZ=              0.0000 ZZZX=              0.0000
 ZZZY=              0.0000 XXYY=           -957.6122 XXZZ=          -1127.5139 YYZZ=          -1126.2656
 XXYZ=              0.0000 YYXZ=              0.0000 ZZXY=             -9.9260
 N-N= 2.281523927792D+03 E-N=-1.266191165014D+04  KE= 3.385891714296D+03
 Symmetry A    KE= 1.854429856759D+03
 Symmetry B    KE= 1.531461857537D+03

 Test job not archived.
 1\1\GINC-R1I1N4\SP\RHF\6-31G(d)\Al14\VSC31064\03-Oct-2016\0\\# hf/6-31
 G* test scf=xqc\\Al14-n-s\\0,1\Al,0,1.16265577,-1.49434505,-1.66577814
 \Al,0,2.31076147,1.18625891,1.21657763\Al,0,2.31312753,-1.3832761,0.78
 675665\Al,0,1.64440778,1.12279867,-1.52430025\Al,0,0.21728439,2.713914
 49,0.36072801\Al,0,-1.16265577,1.49434505,-1.66577814\Al,0,-2.31312753
 ,1.3832761,0.78675665\Al,0,-1.64440778,-1.12279867,-1.52430025\Al,0,-0
 .18777803,1.27522659,2.6367581\Al,0,-2.31076147,-1.18625891,1.21657763
 \Al,0,-0.21728439,-2.71391449,0.36072801\Al,0,0.18777803,-1.27522659,2
 .6367581\Al,0,0.,0.,-3.91785593\Al,0,0.,0.,0.29474707\\Version=ES64L-G
 09RevD.01\State=1-A\HF=-3386.5985398\RMSD=6.962e-09\Dipole=0.,0.,0.637
 5255\Quadrupole=-0.447647,5.2008159,-4.7531689,-0.6795791,0.,0.\PG=C02
  [C2(Al1Al1),X(Al12)]\\@


 GOOD SENSE ABOUT TRIVIALITIES IS BETTER THAN NONSENSE
 ABOUT THINGS THAT MATTER

                                       -- MAX BEERBOHM
 Job cpu time:       0 days  0 hours  2 minutes 47.4 seconds.
 File lengths (MBytes):  RWF=     28 Int=      0 D2E=      0 Chk=      4 Scr=      1
 Normal termination of Gaussian 09 at Mon Oct  3 04:23:46 2016.
 Initial command:
 /apps/leuven/thinking/software/G09//g09D1/l1.exe "/local_scratch/vsc31064/Gau-48816.inp" -scrdir="/local_scratch/vsc31064/"
 Entering Link 1 = /apps/leuven/thinking/software/G09//g09D1/l1.exe PID=     49103.
  
 Copyright (c) 1988,1990,1992,1993,1995,1998,2003,2009,2013,
            Gaussian, Inc.  All Rights Reserved.
  
 This is part of the Gaussian(R) 09 program.  It is based on
 the Gaussian(R) 03 system (copyright 2003, Gaussian, Inc.),
 the Gaussian(R) 98 system (copyright 1998, Gaussian, Inc.),
 the Gaussian(R) 94 system (copyright 1995, Gaussian, Inc.),
 the Gaussian 92(TM) system (copyright 1992, Gaussian, Inc.),
 the Gaussian 90(TM) system (copyright 1990, Gaussian, Inc.),
 the Gaussian 88(TM) system (copyright 1988, Gaussian, Inc.),
 the Gaussian 86(TM) system (copyright 1986, Carnegie Mellon
 University), and the Gaussian 82(TM) system (copyright 1983,
 Carnegie Mellon University). Gaussian is a federally registered
 trademark of Gaussian, Inc.
  
 This software contains proprietary and confidential information,
 including trade secrets, belonging to Gaussian, Inc.
  
 This software is provided under written license and may be
 used, copied, transmitted, or stored only in accord with that
 written license.
  
 The following legend is applicable only to US Government
 contracts under FAR:
  
                    RESTRICTED RIGHTS LEGEND
  
 Use, reproduction and disclosure by the US Government is
 subject to restrictions as set forth in subparagraphs (a)
 and (c) of the Commercial Computer Software - Restricted
 Rights clause in FAR 52.227-19.
  
 Gaussian, Inc.
 340 Quinnipiac St., Bldg. 40, Wallingford CT 06492
  
  
 ---------------------------------------------------------------
 Warning -- This program may not be used in any manner that
 competes with the business of Gaussian, Inc. or will provide
 assistance to any competitor of Gaussian, Inc.  The licensee
 of this program is prohibited from giving any competitor of
 Gaussian, Inc. access to this program.  By using this program,
 the user acknowledges that Gaussian, Inc. is engaged in the
 business of creating and licensing software in the field of
 computational chemistry and represents and warrants to the
 licensee that it is not a competitor of Gaussian, Inc. and that
 it will not use this program in any manner prohibited above.
 ---------------------------------------------------------------
  

 Cite this work as:
 Gaussian 09, Revision D.01,
 M. J. Frisch, G. W. Trucks, H. B. Schlegel, G. E. Scuseria, 
 M. A. Robb, J. R. Cheeseman, G. Scalmani, V. Barone, B. Mennucci, 
 G. A. Petersson, H. Nakatsuji, M. Caricato, X. Li, H. P. Hratchian, 
 A. F. Izmaylov, J. Bloino, G. Zheng, J. L. Sonnenberg, M. Hada, 
 M. Ehara, K. Toyota, R. Fukuda, J. Hasegawa, M. Ishida, T. Nakajima, 
 Y. Honda, O. Kitao, H. Nakai, T. Vreven, J. A. Montgomery, Jr., 
 J. E. Peralta, F. Ogliaro, M. Bearpark, J. J. Heyd, E. Brothers, 
 K. N. Kudin, V. N. Staroverov, T. Keith, R. Kobayashi, J. Normand, 
 K. Raghavachari, A. Rendell, J. C. Burant, S. S. Iyengar, J. Tomasi, 
 M. Cossi, N. Rega, J. M. Millam, M. Klene, J. E. Knox, J. B. Cross, 
 V. Bakken, C. Adamo, J. Jaramillo, R. Gomperts, R. E. Stratmann, 
 O. Yazyev, A. J. Austin, R. Cammi, C. Pomelli, J. W. Ochterski, 
 R. L. Martin, K. Morokuma, V. G. Zakrzewski, G. A. Voth, 
 P. Salvador, J. J. Dannenberg, S. Dapprich, A. D. Daniels, 
 O. Farkas, J. B. Foresman, J. V. Ortiz, J. Cioslowski, 
 and D. J. Fox, Gaussian, Inc., Wallingford CT, 2013.
 
 ******************************************
 Gaussian 09:  ES64L-G09RevD.01 24-Apr-2013
                 3-Oct-2016 
 ******************************************
 %NprocShared=20
 Will use up to   20 processors via shared memory.
 %mem=55000mb
 %chk=cc-Al14-n-s
 --------------------------------------------------------
 # CCSD(T,conver=5)/cc-pVTZ test geom=allcheck guess=read
 --------------------------------------------------------
 1/29=7,38=1/1;
 2/12=2,40=1/2;
 3/5=16,6=1,11=9,14=-4,16=1,25=1,30=1,116=-2/1,2,3;
 4/5=1/1;
 5/5=2,38=6/2;
 8/6=4,9=120000,10=1/1,4;
 9/5=7,9=5,14=2/13;
 6/7=2,8=2,9=2,10=2/1;
 99/5=1,9=1/99;
 Structure from the checkpoint file:  "cc-Al14-n-s.chk"
 --------
 Al14-n-s
 --------
 Charge =  0 Multiplicity = 1
 Z-Matrix found in file.
 Al,0,1.16265577,-1.49434505,-1.66577814
 Al,0,2.31076147,1.18625891,1.21657763
 Al,0,2.31312753,-1.3832761,0.78675665
 Al,0,1.64440778,1.12279867,-1.52430025
 Al,0,0.21728439,2.71391449,0.36072801
 Al,0,-1.16265577,1.49434505,-1.66577814
 Al,0,-2.31312753,1.3832761,0.78675665
 Al,0,-1.64440778,-1.12279867,-1.52430025
 Al,0,-0.18777803,1.27522659,2.6367581
 Al,0,-2.31076147,-1.18625891,1.21657763
 Al,0,-0.21728439,-2.71391449,0.36072801
 Al,0,0.18777803,-1.27522659,2.6367581
 Al,0,0.,0.,-3.91785593
 Al,0,0.,0.,0.29474707
 Recover connectivity data from disk.
                          Input orientation:                          
 ---------------------------------------------------------------------
 Center     Atomic      Atomic             Coordinates (Angstroms)
 Number     Number       Type             X           Y           Z
 ---------------------------------------------------------------------
      1         13           0        1.162656   -1.494345   -1.665778
      2         13           0        2.310761    1.186259    1.216578
      3         13           0        2.313128   -1.383276    0.786757
      4         13           0        1.644408    1.122799   -1.524300
      5         13           0        0.217284    2.713914    0.360728
      6         13           0       -1.162656    1.494345   -1.665778
      7         13           0       -2.313128    1.383276    0.786757
      8         13           0       -1.644408   -1.122799   -1.524300
      9         13           0       -0.187778    1.275227    2.636758
     10         13           0       -2.310761   -1.186259    1.216578
     11         13           0       -0.217284   -2.713914    0.360728
     12         13           0        0.187778   -1.275227    2.636758
     13         13           0        0.000000    0.000000   -3.917856
     14         13           0        0.000000    0.000000    0.294747
 ---------------------------------------------------------------------
                    Distance matrix (angstroms):
                    1          2          3          4          5
     1  Al   0.000000
     2  Al   4.100215   0.000000
     3  Al   2.711245   2.605237   0.000000
     4  Al   2.664872   2.821430   3.473986   0.000000
     5  Al   4.765491   2.729259   4.621799   2.849853   0.000000
     6  Al   3.786732   4.524104   5.135825   2.835078   2.738305
     7  Al   5.135825   4.648001   5.390366   4.590307   2.890516
     8  Al   2.835078   5.337370   4.590307   3.982338   4.662574
     9  Al   5.292071   2.875331   4.092025   4.549126   2.722905
    10  Al   4.524104   5.194932   4.648001   5.337370   4.725976
    11  Al   2.738305   4.725976   2.890516   4.662574   5.445198
    12  Al   4.417037   3.547236   2.819803   5.018635   4.592867
    13  Al   2.942225   5.754063   5.421936   3.113497   5.071373
    14  Al   2.725526   2.756193   2.739724   2.696977   2.723398
                    6          7          8          9         10
     6  Al   0.000000
     7  Al   2.711245   0.000000
     8  Al   2.664872   3.473986   0.000000
     9  Al   4.417037   2.819803   5.018635   0.000000
    10  Al   4.100215   2.605237   2.821430   3.547236   0.000000
    11  Al   4.765491   4.621799   2.849853   4.592867   2.729259
    12  Al   5.292071   4.092025   4.549126   2.577955   2.875331
    13  Al   2.942225   5.421936   3.113497   6.680152   5.754063
    14  Al   2.725526   2.739724   2.696977   2.673290   2.756193
                   11         12         13         14
    11  Al   0.000000
    12  Al   2.722905   0.000000
    13  Al   5.071373   6.680152   0.000000
    14  Al   2.723398   2.673290   4.212603   0.000000
 Stoichiometry    Al14
 Framework group  C2[C2(AlAl),X(Al12)]
 Deg. of freedom    18
 Full point group                 C2      NOp   2
 Largest Abelian subgroup         C2      NOp   2
 Largest concise Abelian subgroup C2      NOp   2
                         Standard orientation:                         
 ---------------------------------------------------------------------
 Center     Atomic      Atomic             Coordinates (Angstroms)
 Number     Number       Type             X           Y           Z
 ---------------------------------------------------------------------
      1         13           0       -0.685793    1.764801    1.665662
      2         13           0        2.204076    1.374364   -1.216694
      3         13           0        0.000000    2.695183   -0.786873
      4         13           0        1.807612    0.835040    1.524184
      5         13           0        2.440723   -1.206407   -0.360844
      6         13           0        0.685793   -1.764801    1.665662
      7         13           0        0.000000   -2.695183   -0.786873
      8         13           0       -1.807612   -0.835040    1.524184
      9         13           0        0.998082   -0.815657   -2.636874
     10         13           0       -2.204076   -1.374364   -1.216694
     11         13           0       -2.440723    1.206407   -0.360844
     12         13           0       -0.998082    0.815657   -2.636874
     13         13           0        0.000000    0.000000    3.917740
     14         13           0        0.000000    0.000000   -0.294863
 ---------------------------------------------------------------------
 Rotational constants (GHZ):      0.3057106      0.2543066      0.2477313
 Standard basis: CC-pVTZ (5D, 7F)
 There are   276 symmetry adapted cartesian basis functions of A   symmetry.
 There are   270 symmetry adapted cartesian basis functions of B   symmetry.
 There are   240 symmetry adapted basis functions of A   symmetry.
 There are   236 symmetry adapted basis functions of B   symmetry.
   476 basis functions,  1330 primitive gaussians,   546 cartesian basis functions
    91 alpha electrons       91 beta electrons
       nuclear repulsion energy      2281.5239277924 Hartrees.
 NAtoms=   14 NActive=   14 NUniq=    8 SFac= 3.06D+00 NAtFMM=   60 NAOKFM=F Big=F
 Integral buffers will be    131072 words long.
 Raffenetti 1 integral format.
 Two-electron integral symmetry is turned on.
 One-electron integrals computed using PRISM.
 NBasis=   476 RedAO= T EigKep=  1.85D-04  NBF=   240   236
 NBsUse=   476 1.00D-06 EigRej= -1.00D+00 NBFU=   240   236
 Initial guess from the checkpoint file:  "cc-Al14-n-s.chk"
 B after Tr=     0.000000    0.000000    0.000000
         Rot=    1.000000    0.000000    0.000000    0.000000 Ang=   0.00 deg.
 Initial guess orbital symmetries:
       Occupied  (B) (A) (B) (A) (A) (B) (A) (B) (A) (B) (A) (B)
                 (A) (A) (B) (A) (A) (B) (B) (A) (A) (B) (A) (A)
                 (B) (A) (B) (A) (B) (A) (A) (B) (B) (A) (A) (B)
                 (B) (A) (A) (B) (B) (A) (B) (A) (B) (A) (B) (A)
                 (A) (B) (B) (A) (B) (A) (B) (B) (A) (B) (A) (A)
                 (B) (B) (A) (A) (B) (B) (A) (B) (A) (B) (A) (B)
                 (A) (B) (A) (B) (A) (A) (B) (A) (A) (B) (B) (A)
                 (B) (B) (A) (B) (B) (A) (A)
       Virtual   (A) (A) (A) (A) (A) (A) (A) (A) (A) (A) (A) (A)
                 (A) (A) (A) (A) (A) (A) (A) (A) (A) (A) (A) (A)
                 (A) (A) (A) (A) (A) (A) (A) (A) (A) (A) (A) (A)
                 (A) (A) (A) (A) (A) (A) (A) (A) (A) (A) (A) (A)
                 (A) (A) (A) (A) (A) (A) (A) (A) (A) (A) (A) (A)
                 (A) (A) (A) (A) (A) (A) (A) (A) (A) (A) (A) (A)
                 (A) (A) (A) (A) (A) (A) (A) (A) (A) (A) (A) (A)
                 (A) (A) (A) (A) (A) (A) (A) (A) (A) (A) (A) (A)
                 (A) (A) (A) (A) (A) (A) (A) (A) (A) (A) (A) (A)
                 (A) (A) (A) (A) (A) (A) (A) (A) (A) (A) (A) (A)
                 (A) (A) (A) (A) (A) (A) (A) (A) (A) (A) (A) (A)
                 (A) (A) (A) (A) (A) (A) (A) (A) (A) (A) (A) (A)
                 (A) (A) (A) (A) (A) (A) (A) (A) (A) (A) (A) (A)
                 (A) (A) (A) (A) (A) (A) (A) (A) (A) (A) (A) (A)
                 (A) (A) (A) (A) (A) (A) (A) (A) (A) (A) (A) (A)
                 (A) (A) (A) (A) (A) (A) (A) (A) (A) (A) (A) (A)
                 (A) (B) (B) (B) (B) (B) (B) (B) (B) (B) (B) (B)
                 (B) (B) (B) (B) (B) (B) (B) (B) (B) (B) (B) (B)
                 (B) (B) (B) (B) (B) (B) (B) (B) (B) (B) (B) (B)
                 (B) (B) (B) (B) (B) (B) (B) (B) (B) (B) (B) (B)
                 (B) (B) (B) (B) (B) (B) (B) (B) (B) (B) (B) (B)
                 (B) (B) (B) (B) (B) (B) (B) (B) (B) (B) (B) (B)
                 (B) (B) (B) (B) (B) (B) (B) (B) (B) (B) (B) (B)
                 (B) (B) (B) (B) (B) (B) (B) (B) (B) (B) (B) (B)
                 (B) (B) (B) (B) (B) (B) (B) (B) (B) (B) (B) (B)
                 (B) (B) (B) (B) (B) (B) (B) (B) (B) (B) (B) (B)
                 (B) (B) (B) (B) (B) (B) (B) (B) (B) (B) (B) (B)
                 (B) (B) (B) (B) (B) (B) (B) (B) (B) (B) (B) (B)
                 (B) (B) (B) (B) (B) (B) (B) (B) (B) (B) (B) (B)
                 (B) (B) (B) (B) (B) (B) (B) (B) (B) (B) (B) (B)
                 (B) (B) (B) (B) (B) (B) (B) (B) (B) (B) (B) (B)
                 (B) (B) (B) (B) (B) (B) (B) (B) (B) (B) (B) (B)
                 (B)
 Requested convergence on RMS density matrix=1.00D-08 within 128 cycles.
 Requested convergence on MAX density matrix=1.00D-06.
 Requested convergence on             energy=1.00D-06.
 No special actions if energy rises.
 SCF Done:  E(RHF) =  -3386.90273702     A.U. after   16 cycles
            NFock= 16  Conv=0.65D-08     -V/T= 1.9999
 ExpMin= 5.56D-02 ExpMax= 2.06D+05 ExpMxC= 1.99D+03 IAcc=3 IRadAn=         5 AccDes= 0.00D+00
 HarFok:  IExCor=  205 AccDes= 0.00D+00 IRadAn=         5 IDoV=-2 UseB2=F ITyADJ=14
 ICtDFT= 12500011 ScaDFX=  1.000000  1.000000  1.000000  1.000000
 Range of M.O.s used for correlation:    71   476
 NBasis=   476 NAE=    91 NBE=    91 NFC=    70 NFV=     0
 NROrb=    406 NOA=    21 NOB=    21 NVA=   385 NVB=   385

 **** Warning!!: The largest alpha MO coefficient is  0.43300595D+02

 Semi-Direct transformation.
 ModeAB=           4 MOrb=            21 LenV=    7203888722
 LASXX=    340127752 LTotXX=   340127752 LenRXX=   682733277
 LTotAB=   342605525 MaxLAS=   646807938 LenRXY=           0
 NonZer=  1022861029 LenScr=  1540308992 LnRSAI=   646807938
 LnScr1=   974017536 LExtra=           0 Total=   3843867743
 MaxDsk=          -1 SrtSym=           T ITran=            4
 JobTyp=0 Pass  1:  I=   1 to  21.
 (rs|ai) integrals will be sorted in core.
 Spin components of T(2) and E(2):
     alpha-alpha T2 =       0.2532489299D+00 E2=     -0.2203553488D+00
     alpha-beta  T2 =       0.9648018705D+00 E2=     -0.9741471215D+00
     beta-beta   T2 =       0.2532489299D+00 E2=     -0.2203553488D+00
 ANorm=    0.1572036809D+01
 E2 =    -0.1414857819D+01 EUMP2 =    -0.33883175948354D+04
 Would need an additional      2457604976 words for in-memory AO integral storage.
 Iterations=  50 Convergence= 0.100D-04
 Iteration Nr.   1
 **********************
 DD1Dir will call FoFJK   1 times, MxPair=       462
 NAB=   231 NAA=     0 NBB=     0 NumPrc= 20.
 FoFJK:  IHMeth= 1 ICntrl=     200 DoSepK=F KAlg= 0 I1Cent=   0 FoldK=F
 IRaf= 990000000 NMat= 462 IRICut=     577 DoRegI=T DoRafI=T ISym2E=-1.
 FoFCou: FMM=F IPFlag=           0 FMFlag=      100000 FMFlg1=           0
         NFxFlg=           0 DoJE=F BraDBF=F KetDBF=F FulRan=T
         wScrn=  0.000000 ICntrl=     200 IOpCl=  0 I1Cent=           0 NGrid=           0
         NMat0=  462 NMatS0=      0 NMatT0=  231 NMatD0=  462 NMtDS0=    0 NMtDT0=    0
 Petite list used in FoFCou.
 MP4(R+Q)=  0.82090383D-01
 E3=        0.31925220D+00        EUMP3=      -0.33879983426D+04
 E4(DQ)=   -0.25188294D+00        UMP4(DQ)=   -0.33882502256D+04
 E4(SDQ)=  -0.27367598D+00        UMP4(SDQ)=  -0.33882720186D+04
 DE(Corr)=  -1.0138644     E(Corr)=     -3387.9166014    
 NORM(A)=   0.13563643D+01
 Iteration Nr.   2
 **********************
 DD1Dir will call FoFJK   1 times, MxPair=       462
 NAB=   231 NAA=     0 NBB=     0 NumPrc= 20.
 DE(Corr)=  -1.2734210     E(CORR)=     -3388.1761580     Delta=-2.60D-01
 NORM(A)=   0.14271801D+01
 Iteration Nr.   3
 **********************
 DD1Dir will call FoFJK   1 times, MxPair=       462
 NAB=   231 NAA=     0 NBB=     0 NumPrc= 20.
 DE(Corr)=  -1.2067595     E(CORR)=     -3388.1094965     Delta= 6.67D-02
 NORM(A)=   0.14356811D+01
 Iteration Nr.   4
 **********************
 DD1Dir will call FoFJK   1 times, MxPair=       462
 NAB=   231 NAA=     0 NBB=     0 NumPrc= 20.
 DE(Corr)=  -1.2176262     E(CORR)=     -3388.1203632     Delta=-1.09D-02
 NORM(A)=   0.14378560D+01
 Iteration Nr.   5
 **********************
 DD1Dir will call FoFJK   1 times, MxPair=       462
 NAB=   231 NAA=     0 NBB=     0 NumPrc= 20.
 DE(Corr)=  -1.2196681     E(CORR)=     -3388.1224051     Delta=-2.04D-03
 NORM(A)=   0.14412083D+01
 Iteration Nr.   6
 **********************
 DD1Dir will call FoFJK   1 times, MxPair=       462
 NAB=   231 NAA=     0 NBB=     0 NumPrc= 20.
 DE(Corr)=  -1.2192912     E(CORR)=     -3388.1220282     Delta= 3.77D-04
 NORM(A)=   0.14431384D+01
 Iteration Nr.   7
 **********************
 DD1Dir will call FoFJK   1 times, MxPair=       462
 NAB=   231 NAA=     0 NBB=     0 NumPrc= 20.
 DE(Corr)=  -1.2191712     E(CORR)=     -3388.1219082     Delta= 1.20D-04
 NORM(A)=   0.14429908D+01
 Iteration Nr.   8
 **********************
 DD1Dir will call FoFJK   1 times, MxPair=       462
 NAB=   231 NAA=     0 NBB=     0 NumPrc= 20.
 DE(Corr)=  -1.2197897     E(CORR)=     -3388.1225267     Delta=-6.18D-04
 NORM(A)=   0.14435736D+01
 Iteration Nr.   9
 **********************
 DD1Dir will call FoFJK   1 times, MxPair=       462
 NAB=   231 NAA=     0 NBB=     0 NumPrc= 20.
 DE(Corr)=  -1.2193057     E(CORR)=     -3388.1220427     Delta= 4.84D-04
 NORM(A)=   0.14435257D+01
 Iteration Nr.  10
 **********************
 DD1Dir will call FoFJK   1 times, MxPair=       462
 NAB=   231 NAA=     0 NBB=     0 NumPrc= 20.
 DE(Corr)=  -1.2195640     E(CORR)=     -3388.1223010     Delta=-2.58D-04
 NORM(A)=   0.14435129D+01
 Iteration Nr.  11
 **********************
 DD1Dir will call FoFJK   1 times, MxPair=       462
 NAB=   231 NAA=     0 NBB=     0 NumPrc= 20.
 DE(Corr)=  -1.2194912     E(CORR)=     -3388.1222282     Delta= 7.28D-05
 NORM(A)=   0.14435767D+01
 Iteration Nr.  12
 **********************
 DD1Dir will call FoFJK   1 times, MxPair=       462
 NAB=   231 NAA=     0 NBB=     0 NumPrc= 20.
 DE(Corr)=  -1.2194762     E(CORR)=     -3388.1222132     Delta= 1.50D-05
 NORM(A)=   0.14435452D+01
 Iteration Nr.  13
 **********************
 DD1Dir will call FoFJK   1 times, MxPair=       462
 NAB=   231 NAA=     0 NBB=     0 NumPrc= 20.
 DE(Corr)=  -1.2194920     E(CORR)=     -3388.1222291     Delta=-1.58D-05
 NORM(A)=   0.14435380D+01
 Iteration Nr.  14
 **********************
 DD1Dir will call FoFJK   1 times, MxPair=       462
 NAB=   231 NAA=     0 NBB=     0 NumPrc= 20.
 DE(Corr)=  -1.2194950     E(CORR)=     -3388.1222320     Delta=-2.98D-06
 NORM(A)=   0.14435427D+01
 Iteration Nr.  15
 **********************
 DD1Dir will call FoFJK   1 times, MxPair=       462
 NAB=   231 NAA=     0 NBB=     0 NumPrc= 20.
 DE(Corr)=  -1.2194817     E(CORR)=     -3388.1222187     Delta= 1.33D-05
 NORM(A)=   0.14435291D+01
 Iteration Nr.  16
 **********************
 DD1Dir will call FoFJK   1 times, MxPair=       462
 NAB=   231 NAA=     0 NBB=     0 NumPrc= 20.
 DE(Corr)=  -1.2194914     E(CORR)=     -3388.1222284     Delta=-9.66D-06
 NORM(A)=   0.14435260D+01
 Largest amplitude= 7.19D-02
 Time for triples=   164940.36 seconds.
 T4(CCSD)= -0.18413660D+00
 T5(CCSD)=  0.42256365D-02
 CCSD(T)= -0.33883021394D+04
 Discarding MO integrals.

 **********************************************************************

            Population analysis using the SCF density.

 **********************************************************************

 Orbital symmetries:
       Occupied  (B) (A) (A) (B) (A) (B) (A) (B) (A) (A) (B) (A)
                 (B) (A) (B) (A) (A) (B) (B) (A) (A) (B) (A) (A)
                 (B) (B) (A) (A) (B) (A) (A) (B) (B) (A) (A) (B)
                 (B) (A) (A) (B) (B) (A) (B) (A) (B) (A) (B) (A)
                 (B) (A) (B) (A) (A) (B) (B) (B) (B) (A) (A) (A)
                 (B) (B) (A) (A) (B) (B) (A) (B) (A) (B) (A) (B)
                 (A) (B) (A) (B) (A) (A) (B) (A) (A) (B) (B) (A)
                 (B) (B) (A) (B) (B) (A) (A)
       Virtual   (B) (A) (A) (B) (A) (A) (B) (B) (A) (B) (A) (A)
                 (A) (B) (A) (B) (B) (B) (A) (B) (B) (A) (B) (A)
                 (A) (B) (B) (A) (B) (A) (B) (B) (A) (B) (A) (A)
                 (A) (B) (A) (B) (B) (A) (A) (B) (A) (A) (B) (A)
                 (B) (A) (B) (A) (A) (B) (B) (B) (B) (A) (B) (A)
                 (B) (B) (A) (A) (A) (B) (B) (A) (B) (A) (B) (A)
                 (A) (B) (A) (B) (B) (A) (B) (A) (A) (B) (A) (B)
                 (B) (A) (B) (A) (A) (B) (A) (B) (B) (A) (A) (A)
                 (A) (A) (B) (B) (B) (B) (A) (A) (B) (A) (B) (A)
                 (B) (A) (B) (B) (A) (B) (A) (B) (A) (B) (A) (B)
                 (B) (A) (A) (B) (B) (A) (A) (B) (A) (B) (A) (B)
                 (A) (A) (B) (B) (A) (B) (B) (A) (B) (A) (B) (A)
                 (A) (B) (A) (B) (A) (A) (B) (B) (A) (A) (B) (B)
                 (A) (B) (B) (A) (B) (A) (A) (A) (B) (A) (A) (B)
                 (A) (B) (B) (A) (A) (B) (B) (B) (A) (B) (A) (B)
                 (A) (A) (B) (A) (B) (A) (B) (A) (B) (A) (B) (A)
                 (B) (A) (A) (B) (B) (A) (A) (B) (B) (A) (B) (A)
                 (B) (A) (B) (A) (B) (A) (B) (A) (B) (B) (B) (A)
                 (B) (A) (B) (A) (B) (A) (A) (B) (A) (B) (A) (B)
                 (A) (B) (A) (A) (A) (B) (B) (B) (A) (A) (B) (A)
                 (B) (B) (A) (A) (B) (B) (A) (A) (B) (B) (A) (B)
                 (A) (A) (B) (A) (A) (B) (A) (B) (B) (A) (B) (A)
                 (B) (A) (B) (A) (B) (A) (B) (A) (B) (B) (A) (A)
                 (B) (B) (A) (B) (B) (A) (B) (A) (B) (A) (B) (B)
                 (A) (A) (B) (A) (B) (A) (B) (A) (B) (A) (A) (B)
                 (B) (A) (B) (A) (B) (A) (B) (A) (B) (A) (B) (A)
                 (A) (B) (A) (B) (A) (B) (A) (B) (A) (B) (A) (B)
                 (A) (A) (B) (B) (A) (B) (A) (A) (B) (B) (A) (B)
                 (A) (B) (A) (A) (A) (B) (B) (A) (B) (A) (B) (B)
                 (B) (A) (A) (A) (B) (A) (B) (A) (B) (A) (B) (B)
                 (A) (A) (A) (B) (B) (A) (B) (A) (B) (B) (A) (B)
                 (A) (A) (B) (A) (B) (A) (B) (A) (B) (A) (B) (B)
                 (A)
 The electronic state is 1-A.
 Alpha  occ. eigenvalues --  -58.49760 -58.49760 -58.49327 -58.49327 -58.49146
 Alpha  occ. eigenvalues --  -58.48959 -58.48959 -58.48743 -58.48743 -58.48530
 Alpha  occ. eigenvalues --  -58.48530 -58.48364 -58.48364 -58.42950  -4.90882
 Alpha  occ. eigenvalues --   -4.90882  -4.90494  -4.90484  -4.90114  -4.90114
 Alpha  occ. eigenvalues --   -4.90068  -4.89922  -4.89922  -4.89714  -4.89713
 Alpha  occ. eigenvalues --   -4.89650  -4.89650  -4.85414  -3.22042  -3.22042
 Alpha  occ. eigenvalues --   -3.21956  -3.21956  -3.21934  -3.21934  -3.21737
 Alpha  occ. eigenvalues --   -3.21700  -3.21646  -3.21638  -3.21609  -3.21561
 Alpha  occ. eigenvalues --   -3.21290  -3.21290  -3.21197  -3.21197  -3.21178
 Alpha  occ. eigenvalues --   -3.21177  -3.21064  -3.21064  -3.20988  -3.20988
 Alpha  occ. eigenvalues --   -3.20960  -3.20960  -3.20885  -3.20876  -3.20873
 Alpha  occ. eigenvalues --   -3.20868  -3.20859  -3.20857  -3.20848  -3.20815
 Alpha  occ. eigenvalues --   -3.20801  -3.20785  -3.20774  -3.20761  -3.20756
 Alpha  occ. eigenvalues --   -3.20749  -3.20745  -3.16821  -3.16807  -3.16795
 Alpha  occ. eigenvalues --   -0.73001  -0.61461  -0.60444  -0.59358  -0.47505
 Alpha  occ. eigenvalues --   -0.45118  -0.45050  -0.43958  -0.43393  -0.40944
 Alpha  occ. eigenvalues --   -0.33871  -0.27735  -0.26800  -0.26380  -0.26320
 Alpha  occ. eigenvalues --   -0.26062  -0.25989  -0.25354  -0.24823  -0.24617
 Alpha  occ. eigenvalues --   -0.22395
 Alpha virt. eigenvalues --   -0.03411  -0.02818  -0.01960  -0.01297  -0.01236
 Alpha virt. eigenvalues --    0.01314   0.01357   0.01971   0.03446   0.04467
 Alpha virt. eigenvalues --    0.04577   0.05294   0.05534   0.05820   0.06750
 Alpha virt. eigenvalues --    0.08252   0.09756   0.10015   0.11043   0.11629
 Alpha virt. eigenvalues --    0.12117   0.13303   0.13737   0.13892   0.14465
 Alpha virt. eigenvalues --    0.15009   0.15443   0.15606   0.16146   0.16452
 Alpha virt. eigenvalues --    0.16568   0.17004   0.17075   0.17260   0.17454
 Alpha virt. eigenvalues --    0.18039   0.18458   0.19356   0.19542   0.19845
 Alpha virt. eigenvalues --    0.20099   0.20140   0.20753   0.21980   0.22283
 Alpha virt. eigenvalues --    0.22649   0.23070   0.23505   0.23884   0.24023
 Alpha virt. eigenvalues --    0.24328   0.24402   0.25135   0.25801   0.26612
 Alpha virt. eigenvalues --    0.27009   0.27308   0.27453   0.28196   0.28659
 Alpha virt. eigenvalues --    0.29354   0.29419   0.29896   0.30197   0.30437
 Alpha virt. eigenvalues --    0.31075   0.32413   0.32420   0.33659   0.34311
 Alpha virt. eigenvalues --    0.34667   0.35259   0.35384   0.36030   0.36043
 Alpha virt. eigenvalues --    0.36443   0.36790   0.37193   0.37432   0.38318
 Alpha virt. eigenvalues --    0.38474   0.38851   0.39253   0.39466   0.41500
 Alpha virt. eigenvalues --    0.41541   0.41580   0.42097   0.43827   0.44140
 Alpha virt. eigenvalues --    0.44501   0.44745   0.45295   0.45693   0.46388
 Alpha virt. eigenvalues --    0.47236   0.48003   0.48209   0.48216   0.48580
 Alpha virt. eigenvalues --    0.49099   0.49709   0.49738   0.50529   0.50543
 Alpha virt. eigenvalues --    0.51436   0.51589   0.51975   0.52174   0.52774
 Alpha virt. eigenvalues --    0.52915   0.53099   0.53224   0.54529   0.55115
 Alpha virt. eigenvalues --    0.55765   0.56326   0.56458   0.56685   0.58054
 Alpha virt. eigenvalues --    0.58350   0.58673   0.59376   0.60016   0.60117
 Alpha virt. eigenvalues --    0.60528   0.61428   0.61496   0.61867   0.62146
 Alpha virt. eigenvalues --    0.63442   0.63959   0.64447   0.65236   0.65607
 Alpha virt. eigenvalues --    0.66009   0.66598   0.66792   0.67411   0.67680
 Alpha virt. eigenvalues --    0.68213   0.68376   0.68800   0.68981   0.69672
 Alpha virt. eigenvalues --    0.69903   0.71213   0.72071   0.72538   0.72705
 Alpha virt. eigenvalues --    0.72892   0.73490   0.74429   0.75164   0.75190
 Alpha virt. eigenvalues --    0.76539   0.77326   0.77471   0.78557   0.78893
 Alpha virt. eigenvalues --    0.79627   0.80137   0.80816   0.81367   0.82002
 Alpha virt. eigenvalues --    0.82860   0.83606   0.84457   0.84575   0.85669
 Alpha virt. eigenvalues --    0.86728   0.87540   0.87735   0.88853   0.89768
 Alpha virt. eigenvalues --    0.90757   0.90964   0.90995   0.91474   0.92203
 Alpha virt. eigenvalues --    0.92203   0.92514   0.92789   0.92900   0.92997
 Alpha virt. eigenvalues --    0.93742   0.94485   0.94800   0.94827   0.95826
 Alpha virt. eigenvalues --    0.95981   0.96039   0.96809   0.97225   0.97612
 Alpha virt. eigenvalues --    0.97970   0.98142   0.98531   0.99459   0.99707
 Alpha virt. eigenvalues --    0.99921   1.00495   1.00843   1.01041   1.01564
 Alpha virt. eigenvalues --    1.02017   1.02498   1.02682   1.03273   1.03832
 Alpha virt. eigenvalues --    1.04112   1.05039   1.05309   1.06333   1.06558
 Alpha virt. eigenvalues --    1.07393   1.07894   1.08140   1.08939   1.08956
 Alpha virt. eigenvalues --    1.09323   1.09362   1.10122   1.11018   1.11201
 Alpha virt. eigenvalues --    1.11482   1.12273   1.12845   1.13454   1.13816
 Alpha virt. eigenvalues --    1.14214   1.14699   1.15209   1.15918   1.16434
 Alpha virt. eigenvalues --    1.16927   1.17601   1.18100   1.18343   1.19337
 Alpha virt. eigenvalues --    1.19681   1.19901   1.21409   1.21952   1.22090
 Alpha virt. eigenvalues --    1.22940   1.24357   1.24465   1.24793   1.25938
 Alpha virt. eigenvalues --    1.26577   1.26860   1.27470   1.28666   1.28947
 Alpha virt. eigenvalues --    1.29736   1.30193   1.30236   1.31427   1.31851
 Alpha virt. eigenvalues --    1.32600   1.33326   1.33535   1.33893   1.35959
 Alpha virt. eigenvalues --    1.36205   1.36507   1.36564   1.37536   1.38214
 Alpha virt. eigenvalues --    1.38435   1.39208   1.39712   1.40519   1.40976
 Alpha virt. eigenvalues --    1.41576   1.41577   1.42694   1.42829   1.43075
 Alpha virt. eigenvalues --    1.44204   1.45590   1.45826   1.46048   1.46727
 Alpha virt. eigenvalues --    1.47190   1.47520   1.48137   1.48510   1.48807
 Alpha virt. eigenvalues --    1.49383   1.50276   1.50512   1.51152   1.51548
 Alpha virt. eigenvalues --    1.51921   1.52023   1.52345   1.53401   1.53843
 Alpha virt. eigenvalues --    1.54071   1.54376   1.54401   1.55914   1.56524
 Alpha virt. eigenvalues --    1.56911   1.58013   1.58916   1.59618   1.59823
 Alpha virt. eigenvalues --    1.60454   1.61113   1.61640   1.62814   1.62990
 Alpha virt. eigenvalues --    1.64102   1.65344   1.66338   1.67293   1.68358
 Alpha virt. eigenvalues --    1.69335   1.76514   1.76533   1.83543   1.83914
 Alpha virt. eigenvalues --    1.84954   1.86261   1.93464   1.94715   2.45608
 Alpha virt. eigenvalues --    2.47681   2.52429   2.53543   2.54182   2.54427
 Alpha virt. eigenvalues --    2.54804   2.56877   2.57221   2.61608   2.63539
 Alpha virt. eigenvalues --    2.66776   2.67637   2.70786   2.70862   2.70946
 Alpha virt. eigenvalues --    2.73467   2.74352   2.76364   2.80198   2.81198
 Alpha virt. eigenvalues --    2.82452   2.83376   2.83486   2.84540   2.85511
 Alpha virt. eigenvalues --    2.89839   2.91161   2.92910   2.97564   2.98878
 Alpha virt. eigenvalues --    2.99827   3.02243   3.04015   3.04146   3.08937
 Alpha virt. eigenvalues --    3.10245   3.10272   3.11306   3.14061   3.37816
 Alpha virt. eigenvalues --    3.42226   3.45093   3.63847   3.77242   3.79980
 Alpha virt. eigenvalues --    3.80292   3.87606   3.97871   4.02979   4.07581
 Alpha virt. eigenvalues --    4.23432   4.54131   4.75598   6.10330   6.69928
          Condensed to atoms (all electrons):
               1          2          3          4          5          6
     1  Al  12.231923  -0.023829   0.253353   0.246982  -0.014139  -0.036096
     2  Al  -0.023829  12.173012   0.322099   0.189041   0.221402  -0.019527
     3  Al   0.253353   0.322099  12.125662   0.008892  -0.021683  -0.001558
     4  Al   0.246982   0.189041   0.008892  12.296311   0.166490   0.160977
     5  Al  -0.014139   0.221402  -0.021683   0.166490  12.166993   0.227278
     6  Al  -0.036096  -0.019527  -0.001558   0.160977   0.227278  12.231923
     7  Al  -0.001558  -0.021658   0.001083  -0.013815   0.124184   0.253353
     8  Al   0.160977   0.003577  -0.013815  -0.033941  -0.016680   0.246982
     9  Al   0.001010   0.172654  -0.025900  -0.021800   0.245671  -0.026172
    10  Al  -0.019527  -0.005587  -0.021658   0.003577  -0.017721  -0.023829
    11  Al   0.227278  -0.017721   0.124184  -0.016680   0.001147  -0.014139
    12  Al  -0.026172  -0.006240   0.212068  -0.007642  -0.021874   0.001010
    13  Al   0.093666  -0.002383  -0.005503   0.048335  -0.005444   0.093666
    14  Al   0.032417   0.061389   0.079200   0.059067   0.017995   0.032417
               7          8          9         10         11         12
     1  Al  -0.001558   0.160977   0.001010  -0.019527   0.227278  -0.026172
     2  Al  -0.021658   0.003577   0.172654  -0.005587  -0.017721  -0.006240
     3  Al   0.001083  -0.013815  -0.025900  -0.021658   0.124184   0.212068
     4  Al  -0.013815  -0.033941  -0.021800   0.003577  -0.016680  -0.007642
     5  Al   0.124184  -0.016680   0.245671  -0.017721   0.001147  -0.021874
     6  Al   0.253353   0.246982  -0.026172  -0.023829  -0.014139   0.001010
     7  Al  12.125662   0.008892   0.212068   0.322099  -0.021683  -0.025900
     8  Al   0.008892  12.296311  -0.007642   0.189041   0.166490  -0.021800
     9  Al   0.212068  -0.007642  12.100332  -0.006240  -0.021874   0.368878
    10  Al   0.322099   0.189041  -0.006240  12.173012   0.221402   0.172654
    11  Al  -0.021683   0.166490  -0.021874   0.221402  12.166993   0.245671
    12  Al  -0.025900  -0.021800   0.368878   0.172654   0.245671  12.100332
    13  Al  -0.005503   0.048335   0.001601  -0.002383  -0.005444   0.001601
    14  Al   0.079200   0.059067   0.071328   0.061389   0.017995   0.071328
              13         14
     1  Al   0.093666   0.032417
     2  Al  -0.002383   0.061389
     3  Al  -0.005503   0.079200
     4  Al   0.048335   0.059067
     5  Al  -0.005444   0.017995
     6  Al   0.093666   0.032417
     7  Al  -0.005503   0.079200
     8  Al   0.048335   0.059067
     9  Al   0.001601   0.071328
    10  Al  -0.002383   0.061389
    11  Al  -0.005444   0.017995
    12  Al   0.001601   0.071328
    13  Al  12.662464  -0.020032
    14  Al  -0.020032  11.609734
 Mulliken charges:
               1
     1  Al  -0.126285
     2  Al  -0.046228
     3  Al  -0.036424
     4  Al  -0.085793
     5  Al  -0.073620
     6  Al  -0.126285
     7  Al  -0.036424
     8  Al  -0.085793
     9  Al  -0.063915
    10  Al  -0.046228
    11  Al  -0.073620
    12  Al  -0.063915
    13  Al   0.097023
    14  Al   0.767508
 Sum of Mulliken charges =   0.00000
 Mulliken charges with hydrogens summed into heavy atoms:
               1
     1  Al  -0.126285
     2  Al  -0.046228
     3  Al  -0.036424
     4  Al  -0.085793
     5  Al  -0.073620
     6  Al  -0.126285
     7  Al  -0.036424
     8  Al  -0.085793
     9  Al  -0.063915
    10  Al  -0.046228
    11  Al  -0.073620
    12  Al  -0.063915
    13  Al   0.097023
    14  Al   0.767508
 Electronic spatial extent (au):  <R**2>=           5298.4462
 Charge=              0.0000 electrons
 Dipole moment (field-independent basis, Debye):
    X=              0.0000    Y=              0.0000    Z=             -1.5451  Tot=              1.5451
 Quadrupole moment (field-independent basis, Debye-Ang):
   XX=           -180.4326   YY=           -182.3059   ZZ=           -190.9136
   XY=             -3.5202   XZ=              0.0000   YZ=              0.0000
 Traceless Quadrupole moment (field-independent basis, Debye-Ang):
   XX=              4.1181   YY=              2.2448   ZZ=             -6.3629
   XY=             -3.5202   XZ=              0.0000   YZ=              0.0000
 Octapole moment (field-independent basis, Debye-Ang**2):
  XXX=              0.0000  YYY=              0.0000  ZZZ=            -61.4889  XYY=              0.0000
  XXY=              0.0000  XXZ=             -6.7465  XZZ=              0.0000  YZZ=              0.0000
  YYZ=             -2.0556  XYZ=              1.0693
 Hexadecapole moment (field-independent basis, Debye-Ang**3):
 XXXX=          -2899.6966 YYYY=          -2836.3720 ZZZZ=          -4371.0273 XXXY=             26.2597
 XXXZ=              0.0000 YYYX=              0.0847 YYYZ=              0.0000 ZZZX=              0.0000
 ZZZY=              0.0000 XXYY=           -968.4433 XXZZ=          -1134.2851 YYZZ=          -1132.7601
 XXYZ=              0.0000 YYXZ=              0.0000 ZZXY=             -9.5605
 N-N= 2.281523927792D+03 E-N=-1.266356465257D+04  KE= 3.387208258008D+03
 Symmetry A    KE= 1.855187462569D+03
 Symmetry B    KE= 1.532020795440D+03

 Test job not archived.
 1\1\GINC-R1I1N4\SP\RCCSD(T)-FC\CC-pVTZ\Al14\VSC31064\03-Oct-2016\0\\# 
 CCSD(T,conver=5)/cc-pVTZ test geom=allcheck guess=read\\Al14-n-s\\0,1\
 Al,0,1.16265577,-1.49434505,-1.66577814\Al,0,2.31076147,1.18625891,1.2
 1657763\Al,0,2.31312753,-1.3832761,0.78675665\Al,0,1.64440778,1.122798
 67,-1.52430025\Al,0,0.21728439,2.71391449,0.36072801\Al,0,-1.16265577,
 1.49434505,-1.66577814\Al,0,-2.31312753,1.3832761,0.78675665\Al,0,-1.6
 4440778,-1.12279867,-1.52430025\Al,0,-0.18777803,1.27522659,2.6367581\
 Al,0,-2.31076147,-1.18625891,1.21657763\Al,0,-0.21728439,-2.71391449,0
 .36072801\Al,0,0.18777803,-1.27522659,2.6367581\Al,0,0.,0.,-3.91785593
 \Al,0,0.,0.,0.29474707\\Version=ES64L-G09RevD.01\State=1-A\HF=-3386.90
 2737\MP2=-3388.3175948\MP3=-3387.9983426\MP4D=-3388.332316\MP4DQ=-3388
 .2502256\MP4SDQ=-3388.2720186\CCSD=-3388.1222284\CCSD(T)=-3388.3021394
 \RMSD=6.451e-09\PG=C02 [C2(Al1Al1),X(Al12)]\\@


 ONLY A FOOL KNOWS EVERYTHING.

               -- THE CHEMIST ANALYST, SEPTEMBER 1946
 Job cpu time:       3 days 13 hours 58 minutes 23.5 seconds.
 File lengths (MBytes):  RWF=  29762 Int=      0 D2E=      0 Chk=     11 Scr=      1
 Normal termination of Gaussian 09 at Mon Oct  3 08:42:12 2016.
