 Entering Gaussian System, Link 0=g09
 Initial command:
 /apps/leuven/thinking/software/G09//g09D1/l1.exe "/local_scratch/vsc31064/Gau-45844.inp" -scrdir="/local_scratch/vsc31064/"
 Entering Link 1 = /apps/leuven/thinking/software/G09//g09D1/l1.exe PID=     45845.
  
 Copyright (c) 1988,1990,1992,1993,1995,1998,2003,2009,2013,
            Gaussian, Inc.  All Rights Reserved.
  
 This is part of the Gaussian(R) 09 program.  It is based on
 the Gaussian(R) 03 system (copyright 2003, Gaussian, Inc.),
 the Gaussian(R) 98 system (copyright 1998, Gaussian, Inc.),
 the Gaussian(R) 94 system (copyright 1995, Gaussian, Inc.),
 the Gaussian 92(TM) system (copyright 1992, Gaussian, Inc.),
 the Gaussian 90(TM) system (copyright 1990, Gaussian, Inc.),
 the Gaussian 88(TM) system (copyright 1988, Gaussian, Inc.),
 the Gaussian 86(TM) system (copyright 1986, Carnegie Mellon
 University), and the Gaussian 82(TM) system (copyright 1983,
 Carnegie Mellon University). Gaussian is a federally registered
 trademark of Gaussian, Inc.
  
 This software contains proprietary and confidential information,
 including trade secrets, belonging to Gaussian, Inc.
  
 This software is provided under written license and may be
 used, copied, transmitted, or stored only in accord with that
 written license.
  
 The following legend is applicable only to US Government
 contracts under FAR:
  
                    RESTRICTED RIGHTS LEGEND
  
 Use, reproduction and disclosure by the US Government is
 subject to restrictions as set forth in subparagraphs (a)
 and (c) of the Commercial Computer Software - Restricted
 Rights clause in FAR 52.227-19.
  
 Gaussian, Inc.
 340 Quinnipiac St., Bldg. 40, Wallingford CT 06492
  
  
 ---------------------------------------------------------------
 Warning -- This program may not be used in any manner that
 competes with the business of Gaussian, Inc. or will provide
 assistance to any competitor of Gaussian, Inc.  The licensee
 of this program is prohibited from giving any competitor of
 Gaussian, Inc. access to this program.  By using this program,
 the user acknowledges that Gaussian, Inc. is engaged in the
 business of creating and licensing software in the field of
 computational chemistry and represents and warrants to the
 licensee that it is not a competitor of Gaussian, Inc. and that
 it will not use this program in any manner prohibited above.
 ---------------------------------------------------------------
  

 Cite this work as:
 Gaussian 09, Revision D.01,
 M. J. Frisch, G. W. Trucks, H. B. Schlegel, G. E. Scuseria, 
 M. A. Robb, J. R. Cheeseman, G. Scalmani, V. Barone, B. Mennucci, 
 G. A. Petersson, H. Nakatsuji, M. Caricato, X. Li, H. P. Hratchian, 
 A. F. Izmaylov, J. Bloino, G. Zheng, J. L. Sonnenberg, M. Hada, 
 M. Ehara, K. Toyota, R. Fukuda, J. Hasegawa, M. Ishida, T. Nakajima, 
 Y. Honda, O. Kitao, H. Nakai, T. Vreven, J. A. Montgomery, Jr., 
 J. E. Peralta, F. Ogliaro, M. Bearpark, J. J. Heyd, E. Brothers, 
 K. N. Kudin, V. N. Staroverov, T. Keith, R. Kobayashi, J. Normand, 
 K. Raghavachari, A. Rendell, J. C. Burant, S. S. Iyengar, J. Tomasi, 
 M. Cossi, N. Rega, J. M. Millam, M. Klene, J. E. Knox, J. B. Cross, 
 V. Bakken, C. Adamo, J. Jaramillo, R. Gomperts, R. E. Stratmann, 
 O. Yazyev, A. J. Austin, R. Cammi, C. Pomelli, J. W. Ochterski, 
 R. L. Martin, K. Morokuma, V. G. Zakrzewski, G. A. Voth, 
 P. Salvador, J. J. Dannenberg, S. Dapprich, A. D. Daniels, 
 O. Farkas, J. B. Foresman, J. V. Ortiz, J. Cioslowski, 
 and D. J. Fox, Gaussian, Inc., Wallingford CT, 2013.
 
 ******************************************
 Gaussian 09:  ES64L-G09RevD.01 24-Apr-2013
                 3-Oct-2016 
 ******************************************
 %NprocShared=20
 Will use up to   20 processors via shared memory.
 %mem=55000mb
 %chk=cc-Al15-c-s
 ------------------------
 # hf/6-31G* test scf=xqc
 ------------------------
 1/38=1/1;
 2/12=2,17=6,18=5,40=1/2;
 3/5=1,6=6,7=1,11=9,16=1,25=1,30=1/1,2,3;
 4//1;
 5/5=2,8=3,13=1,38=5/2,8;
 6/7=2,8=2,9=2,10=2,28=1/1;
 99/5=1,9=1/99;
 --------
 Al15-c-s
 --------
 Symbolic Z-matrix:
 Charge =  1 Multiplicity = 1
 Al                    0.        1.85416  -2.10404 
 Al                    0.        1.73931   2.11126 
 Al                    1.5692    2.26566   0.00565 
 Al                   -1.5692    2.26566   0.00565 
 Al                   -2.28659   0.        1.38708 
 Al                   -2.27168   0.       -1.45927 
 Al                   -1.5692   -2.26566   0.00565 
 Al                    0.       -1.85416  -2.10404 
 Al                    0.       -1.73931   2.11126 
 Al                    1.5692   -2.26566   0.00565 
 Al                    2.27168   0.       -1.45927 
 Al                    2.28659   0.        1.38708 
 Al                    0.        0.       -3.8528 
 Al                    0.        0.        4.02098 
 Al                    0.        0.       -0.06079 
 
                          Input orientation:                          
 ---------------------------------------------------------------------
 Center     Atomic      Atomic             Coordinates (Angstroms)
 Number     Number       Type             X           Y           Z
 ---------------------------------------------------------------------
      1         13           0        0.000000    1.854156   -2.104036
      2         13           0        0.000000    1.739314    2.111258
      3         13           0        1.569198    2.265656    0.005655
      4         13           0       -1.569198    2.265656    0.005655
      5         13           0       -2.286589    0.000000    1.387084
      6         13           0       -2.271678    0.000000   -1.459273
      7         13           0       -1.569198   -2.265656    0.005655
      8         13           0        0.000000   -1.854156   -2.104036
      9         13           0        0.000000   -1.739314    2.111258
     10         13           0        1.569198   -2.265656    0.005655
     11         13           0        2.271678    0.000000   -1.459273
     12         13           0        2.286589    0.000000    1.387084
     13         13           0        0.000000    0.000000   -3.852801
     14         13           0        0.000000    0.000000    4.020978
     15         13           0        0.000000    0.000000   -0.060788
 ---------------------------------------------------------------------
                    Distance matrix (angstroms):
                    1          2          3          4          5
     1  Al   0.000000
     2  Al   4.216858   0.000000
     3  Al   2.661298   2.678243   0.000000
     4  Al   2.661298   2.678243   3.138396   0.000000
     5  Al   4.566651   2.962791   4.680666   2.748853   0.000000
     6  Al   3.002355   4.575416   4.693777   2.787954   2.846396
     7  Al   4.887333   4.789127   5.512016   4.531312   2.748853
     8  Al   3.708312   5.539109   4.887333   4.887333   4.566651
     9  Al   5.539109   3.478629   4.789127   4.789127   2.962791
    10  Al   4.887333   4.789127   4.531312   5.512016   4.680666
    11  Al   3.002355   4.575416   2.787954   4.693777   5.373969
    12  Al   4.566651   2.962791   2.748853   4.680666   4.573178
    13  Al   2.548739   6.212504   4.741651   4.741651   5.717069
    14  Al   6.399507   2.583069   4.870154   4.870154   3.487963
    15  Al   2.759122   2.782624   2.756809   2.756809   2.706440
                    6          7          8          9         10
     6  Al   0.000000
     7  Al   2.787954   0.000000
     8  Al   3.002355   2.661298   0.000000
     9  Al   4.575416   2.678243   4.216858   0.000000
    10  Al   4.693777   3.138396   2.661298   2.678243   0.000000
    11  Al   4.543357   4.693777   3.002355   4.575416   2.787954
    12  Al   5.373969   4.680666   4.566651   2.962791   2.748853
    13  Al   3.299924   4.741651   2.548739   6.212504   4.741651
    14  Al   5.932426   4.870154   6.399507   2.583069   4.870154
    15  Al   2.667636   2.756809   2.759122   2.782624   2.756809
                   11         12         13         14         15
    11  Al   0.000000
    12  Al   2.846396   0.000000
    13  Al   3.299924   5.717069   0.000000
    14  Al   5.932426   3.487963   7.873779   0.000000
    15  Al   2.667636   2.706440   3.792013   4.081766   0.000000
 Stoichiometry    Al15(1+)
 Framework group  C2V[C2(AlAlAl),SGV(Al4),SGV'(Al4),X(Al4)]
 Deg. of freedom    13
 Full point group                 C2V     NOp   4
 Largest Abelian subgroup         C2V     NOp   4
 Largest concise Abelian subgroup C2V     NOp   4
                         Standard orientation:                         
 ---------------------------------------------------------------------
 Center     Atomic      Atomic             Coordinates (Angstroms)
 Number     Number       Type             X           Y           Z
 ---------------------------------------------------------------------
      1         13           0        0.000000    1.854156   -2.104041
      2         13           0        0.000000    1.739314    2.111253
      3         13           0        1.569198    2.265656    0.005650
      4         13           0       -1.569198    2.265656    0.005650
      5         13           0       -2.286589    0.000000    1.387079
      6         13           0       -2.271678    0.000000   -1.459278
      7         13           0       -1.569198   -2.265656    0.005650
      8         13           0        0.000000   -1.854156   -2.104041
      9         13           0        0.000000   -1.739314    2.111253
     10         13           0        1.569198   -2.265656    0.005650
     11         13           0        2.271678    0.000000   -1.459278
     12         13           0        2.286589    0.000000    1.387079
     13         13           0        0.000000    0.000000   -3.852806
     14         13           0        0.000000    0.000000    4.020973
     15         13           0        0.000000    0.000000   -0.060793
 ---------------------------------------------------------------------
 Rotational constants (GHZ):      0.2922695      0.2140159      0.2073089
 Standard basis: 6-31G(d) (6D, 7F)
 There are   105 symmetry adapted cartesian basis functions of A1  symmetry.
 There are    42 symmetry adapted cartesian basis functions of A2  symmetry.
 There are    69 symmetry adapted cartesian basis functions of B1  symmetry.
 There are    69 symmetry adapted cartesian basis functions of B2  symmetry.
 There are   105 symmetry adapted basis functions of A1  symmetry.
 There are    42 symmetry adapted basis functions of A2  symmetry.
 There are    69 symmetry adapted basis functions of B1  symmetry.
 There are    69 symmetry adapted basis functions of B2  symmetry.
   285 basis functions,   780 primitive gaussians,   285 cartesian basis functions
    97 alpha electrons       97 beta electrons
       nuclear repulsion energy      2572.9917952460 Hartrees.
 NAtoms=   15 NActive=   15 NUniq=    8 SFac= 3.52D+00 NAtFMM=   60 NAOKFM=F Big=F
 Integral buffers will be    131072 words long.
 Raffenetti 1 integral format.
 Two-electron integral symmetry is turned on.
 One-electron integrals computed using PRISM.
 NBasis=   285 RedAO= T EigKep=  5.43D-04  NBF=   105    42    69    69
 NBsUse=   285 1.00D-06 EigRej= -1.00D+00 NBFU=   105    42    69    69
 ExpMin= 5.57D-02 ExpMax= 1.40D+04 ExpMxC= 2.10D+03 IAcc=2 IRadAn=         4 AccDes= 0.00D+00
 Harris functional with IExCor=  205 and IRadAn=       4 diagonalized for initial guess.
 HarFok:  IExCor=  205 AccDes= 0.00D+00 IRadAn=         4 IDoV= 1 UseB2=F ITyADJ=14
 ICtDFT=  3500011 ScaDFX=  1.000000  1.000000  1.000000  1.000000
 FoFCou: FMM=F IPFlag=           0 FMFlag=      100000 FMFlg1=           0
         NFxFlg=           0 DoJE=T BraDBF=F KetDBF=T FulRan=T
         wScrn=  0.000000 ICntrl=     500 IOpCl=  0 I1Cent=   200000004 NGrid=           0
         NMat0=    1 NMatS0=      1 NMatT0=    0 NMatD0=    1 NMtDS0=    0 NMtDT0=    0
 Petite list used in FoFCou.
 Initial guess orbital symmetries:
       Occupied  (A1) (B2) (A1) (B2) (A1) (B2) (B1) (A1) (A2) (B1)
                 (A1) (B1) (A1) (A1) (A1) (A1) (B2) (A1) (B2) (A1)
                 (B1) (B2) (A2) (A1) (B1) (A1) (B1) (A1) (A1) (A1)
                 (B1) (B2) (A1) (B2) (A1) (B2) (A1) (A1) (B2) (B1)
                 (A2) (A1) (B1) (A2) (B2) (B2) (B1) (A1) (A2) (B2)
                 (A1) (B1) (A2) (B1) (A2) (A1) (B2) (B1) (A1) (A1)
                 (B1) (A2) (B2) (B2) (A2) (A1) (B1) (A1) (B1) (A1)
                 (B2) (B1) (A1) (B2) (B1) (A1) (B2) (B1) (A1) (A1)
                 (B2) (A2) (A1) (B1) (A1) (A1) (B2) (A1) (A2) (B1)
                 (B2) (B1) (B2) (B1) (A1) (A1) (B2)
       Virtual   (A1) (B1) (A2) (A1) (A1) (B1) (B2) (A2) (A1) (B1)
                 (B2) (A2) (B2) (A1) (A1) (B1) (A1) (B2) (A1) (B1)
                 (B1) (A1) (B2) (A2) (A1) (A2) (B1) (B2) (B1) (B1)
                 (B2) (A1) (A2) (B2) (A1) (B2) (A1) (B1) (A1) (B1)
                 (A2) (A2) (B2) (A1) (B1) (B2) (A1) (B1) (A2) (B2)
                 (A1) (B2) (A1) (A1) (A1) (A2) (B1) (B2) (A1) (B2)
                 (B1) (A1) (B1) (B2) (B1) (A1) (A1) (A2) (B2) (B1)
                 (B2) (B1) (A2) (A1) (B1) (A2) (B2) (A1) (B1) (A1)
                 (B1) (A1) (B2) (B2) (A1) (B2) (A1) (B1) (A2) (A1)
                 (A2) (A2) (B1) (A1) (B2) (B2) (A2) (A1) (A1) (B1)
                 (B2) (B1) (A2) (A1) (A1) (B1) (A2) (B2) (B1) (B2)
                 (B1) (A1) (B2) (A2) (A1) (B2) (A2) (A1) (A2) (A1)
                 (B2) (B1) (A1) (B1) (A1) (B1) (B2) (A1) (A2) (B1)
                 (B2) (A1) (A1) (B2) (B2) (A1) (B1) (A1) (B2) (A2)
                 (B1) (B1) (A1) (B1) (A2) (A1) (A2) (B1) (A1) (B2)
                 (A2) (B1) (B1) (B2) (A1) (A1) (B2) (A1) (B2) (A2)
                 (A2) (A1) (A2) (B1) (A1) (A1) (B2) (B1) (B2) (A1)
                 (B2) (B1) (A1) (A1) (A1) (B2) (A2) (A1) (B1) (B2)
                 (B1) (A1) (A1) (A1) (A1) (B2) (B1) (A1)
 The electronic state of the initial guess is 1-A1.
 Keep R1 ints in memory in symmetry-blocked form, NReq=1039628262.
 Requested convergence on RMS density matrix=1.00D-08 within  64 cycles.
 Requested convergence on MAX density matrix=1.00D-06.
 Requested convergence on             energy=1.00D-06.
 No special actions if energy rises.
 SCF Done:  E(RHF) =  -3628.32584179     A.U. after   19 cycles
            NFock= 19  Conv=0.89D-08     -V/T= 2.0002
 QCSCF skips out because SCF is already converged.

 **********************************************************************

            Population analysis using the SCF density.

 **********************************************************************

 Orbital symmetries:
       Occupied  (A1) (A1) (B2) (A1) (A1) (B2) (B2) (B1) (A1) (A2)
                 (B1) (A1) (B1) (A1) (A1) (A1) (A1) (A1) (B2) (A1)
                 (B2) (B2) (A1) (A2) (B1) (B1) (A1) (B1) (A1) (A1)
                 (A1) (B1) (B2) (B1) (A1) (A1) (B2) (A2) (B1) (B2)
                 (A1) (B2) (A1) (B2) (B1) (A2) (A1) (B2) (B1) (A2)
                 (B2) (A1) (A1) (B2) (A2) (B1) (A2) (B1) (B2) (A1)
                 (B1) (A1) (A1) (B1) (A1) (B2) (A2) (B1) (B2) (A2)
                 (A1) (B1) (B1) (B2) (A1) (A1) (B2) (A1) (B1) (A1)
                 (B2) (A2) (A1) (B1) (A1) (A1) (B2) (A1) (B1) (A2)
                 (B2) (B1) (B2) (B2) (B1) (A1) (A1)
       Virtual   (A1) (B1) (A2) (A1) (A1) (B1) (B2) (A2) (A1) (B1)
                 (B2) (B2) (A2) (A1) (A1) (B1) (A1) (B2) (B1) (A1)
                 (B2) (B1) (A1) (A1) (B2) (A2) (A2) (B1) (B1) (A1)
                 (B2) (B1) (A1) (B2) (A2) (A1) (B2) (B1) (A2) (A1)
                 (A1) (B1) (A2) (B1) (B2) (B2) (A1) (B1) (B2) (A1)
                 (A2) (A1) (B2) (A1) (B2) (B1) (B1) (A2) (A1) (B1)
                 (B2) (A1) (A1) (B1) (A1) (B2) (A2) (B2) (A1) (B1)
                 (B1) (B2) (A2) (A1) (B2) (B1) (A2) (A1) (B1) (A1)
                 (B2) (A1) (A1) (B1) (A2) (B2) (B1) (B2) (A1) (A1)
                 (B1) (A2) (B2) (A1) (A1) (B2) (A2) (A2) (B1) (B2)
                 (A1) (B1) (A1) (A2) (A1) (A2) (B1) (B2) (B1) (B2)
                 (B1) (A1) (B2) (A2) (B2) (A1) (A1) (A2) (A2) (A1)
                 (B2) (B1) (A1) (B1) (B1) (A1) (B2) (A2) (A1) (B1)
                 (A1) (B1) (A1) (B2) (B2) (A1) (B2) (B1) (A1) (B2)
                 (A2) (A1) (B1) (A2) (B1) (A1) (A2) (B1) (A1) (B2)
                 (A2) (B1) (B1) (A1) (B2) (A1) (A1) (B2) (A1) (B2)
                 (A2) (A2) (B1) (A1) (A2) (B2) (A1) (B1) (B2) (A1)
                 (B2) (B1) (A1) (A1) (A1) (B2) (A2) (B1) (B2) (A1)
                 (B1) (A1) (A1) (A1) (A1) (B2) (B1) (A1)
 The electronic state is 1-A1.
 Alpha  occ. eigenvalues --  -58.60648 -58.60477 -58.60003 -58.60003 -58.59777
 Alpha  occ. eigenvalues --  -58.59777 -58.59761 -58.59761 -58.59761 -58.59761
 Alpha  occ. eigenvalues --  -58.59436 -58.59436 -58.59420 -58.59420 -58.54527
 Alpha  occ. eigenvalues --   -5.02571  -5.02364  -5.01993  -5.01993  -5.01780
 Alpha  occ. eigenvalues --   -5.01780  -5.01694  -5.01694  -5.01693  -5.01693
 Alpha  occ. eigenvalues --   -5.01300  -5.01300  -5.01295  -5.01295  -4.97664
 Alpha  occ. eigenvalues --   -3.33631  -3.33609  -3.33405  -3.33357  -3.33352
 Alpha  occ. eigenvalues --   -3.33223  -3.33222  -3.33166  -3.33166  -3.33147
 Alpha  occ. eigenvalues --   -3.33086  -3.33084  -3.32994  -3.32992  -3.32942
 Alpha  occ. eigenvalues --   -3.32941  -3.32878  -3.32877  -3.32852  -3.32851
 Alpha  occ. eigenvalues --   -3.32845  -3.32845  -3.32750  -3.32750  -3.32747
 Alpha  occ. eigenvalues --   -3.32747  -3.32712  -3.32712  -3.32710  -3.32710
 Alpha  occ. eigenvalues --   -3.32424  -3.32424  -3.32394  -3.32393  -3.32318
 Alpha  occ. eigenvalues --   -3.32318  -3.32318  -3.32318  -3.32302  -3.32302
 Alpha  occ. eigenvalues --   -3.32287  -3.32287  -3.28997  -3.28979  -3.28972
 Alpha  occ. eigenvalues --   -0.84935  -0.73245  -0.72808  -0.72549  -0.62819
 Alpha  occ. eigenvalues --   -0.58703  -0.57203  -0.56280  -0.55004  -0.52173
 Alpha  occ. eigenvalues --   -0.51806  -0.45346  -0.39159  -0.38566  -0.38391
 Alpha  occ. eigenvalues --   -0.37391  -0.37281  -0.36918  -0.36471  -0.35909
 Alpha  occ. eigenvalues --   -0.35434  -0.35210
 Alpha virt. eigenvalues --   -0.14669  -0.13887  -0.13589  -0.13235  -0.12839
 Alpha virt. eigenvalues --   -0.12258  -0.10945  -0.09329  -0.07224  -0.06468
 Alpha virt. eigenvalues --   -0.06084  -0.05679  -0.05166  -0.04755  -0.03877
 Alpha virt. eigenvalues --   -0.03434  -0.01557  -0.00045   0.00796   0.01074
 Alpha virt. eigenvalues --    0.01084   0.02083   0.02437   0.04058   0.04154
 Alpha virt. eigenvalues --    0.04304   0.04539   0.04933   0.05139   0.05409
 Alpha virt. eigenvalues --    0.06112   0.06451   0.07468   0.08426   0.08783
 Alpha virt. eigenvalues --    0.09754   0.10402   0.12441   0.12990   0.13324
 Alpha virt. eigenvalues --    0.13968   0.14192   0.14973   0.15020   0.15138
 Alpha virt. eigenvalues --    0.15845   0.15951   0.18487   0.18501   0.18533
 Alpha virt. eigenvalues --    0.18901   0.20130   0.20622   0.20804   0.21197
 Alpha virt. eigenvalues --    0.22009   0.22660   0.22764   0.22812   0.23242
 Alpha virt. eigenvalues --    0.23245   0.24460   0.25078   0.27408   0.28142
 Alpha virt. eigenvalues --    0.28194   0.28281   0.28502   0.28944   0.29074
 Alpha virt. eigenvalues --    0.30106   0.30223   0.31569   0.33995   0.34014
 Alpha virt. eigenvalues --    0.34079   0.35789   0.35948   0.37191   0.37253
 Alpha virt. eigenvalues --    0.37274   0.37515   0.37696   0.38511   0.38553
 Alpha virt. eigenvalues --    0.38586   0.39242   0.39779   0.40338   0.41552
 Alpha virt. eigenvalues --    0.43940   0.44470   0.45449   0.46238   0.46944
 Alpha virt. eigenvalues --    0.47735   0.48210   0.48983   0.49885   0.50109
 Alpha virt. eigenvalues --    0.50415   0.50612   0.51487   0.52763   0.53829
 Alpha virt. eigenvalues --    0.56119   0.56186   0.56288   0.56808   0.58356
 Alpha virt. eigenvalues --    0.59056   0.59896   0.60201   0.60651   0.61048
 Alpha virt. eigenvalues --    0.61293   0.62597   0.62923   0.63886   0.64318
 Alpha virt. eigenvalues --    0.65288   0.66544   0.67134   0.68113   0.69054
 Alpha virt. eigenvalues --    0.69182   0.70665   0.71140   0.71590   0.72152
 Alpha virt. eigenvalues --    0.73708   0.74718   0.74809   0.74863   0.76012
 Alpha virt. eigenvalues --    0.76207   0.77805   0.78834   0.79374   0.79986
 Alpha virt. eigenvalues --    0.79990   0.81536   0.82370   0.82986   0.83189
 Alpha virt. eigenvalues --    0.83350   0.84172   0.84335   0.84526   0.86714
 Alpha virt. eigenvalues --    0.87576   0.87962   0.88602   0.89547   0.90022
 Alpha virt. eigenvalues --    0.90242   0.93543   0.93873   0.95396   0.95635
 Alpha virt. eigenvalues --    0.95907   0.97077   0.98191   0.98242   0.99329
 Alpha virt. eigenvalues --    0.99885   1.01705   1.03396   1.05495   1.32295
 Alpha virt. eigenvalues --    1.62076   1.64429   1.70192   2.18705   2.19215
 Alpha virt. eigenvalues --    2.23167   2.23359   2.24941   2.25772   2.26649
 Alpha virt. eigenvalues --    2.27450   2.28664   2.29026   2.31662   2.33994
 Alpha virt. eigenvalues --    2.39400   2.47516   2.79724
          Condensed to atoms (all electrons):
               1          2          3          4          5          6
     1  Al  13.294645   0.007857   0.028090   0.028090   0.018303   0.102461
     2  Al   0.007857  13.555305  -0.043320  -0.043320   0.121382   0.029920
     3  Al   0.028090  -0.043320  13.868951  -0.044373   0.054985   0.044467
     4  Al   0.028090  -0.043320  -0.044373  13.868951  -0.089242  -0.120572
     5  Al   0.018303   0.121382   0.054985  -0.089242  14.093446   0.049954
     6  Al   0.102461   0.029920   0.044467  -0.120572   0.049954  14.238938
     7  Al  -0.063263  -0.082656  -0.052015   0.144474  -0.089242  -0.120572
     8  Al   0.099570   0.030142  -0.063263  -0.063263   0.018303   0.102461
     9  Al   0.030142   0.158103  -0.082656  -0.082656   0.121382   0.029920
    10  Al  -0.063263  -0.082656   0.144474  -0.052015   0.054985   0.044467
    11  Al   0.102461   0.029920  -0.120572   0.044467  -0.109544   0.014479
    12  Al   0.018303   0.121382  -0.089242   0.054985   0.001777  -0.109544
    13  Al   0.150855  -0.008565   0.026580   0.026580   0.005288  -0.118979
    14  Al  -0.008125   0.073970   0.030556   0.030556  -0.130171   0.004013
    15  Al  -0.819087  -0.864476  -0.819207  -0.819207  -1.147377  -1.235419
               7          8          9         10         11         12
     1  Al  -0.063263   0.099570   0.030142  -0.063263   0.102461   0.018303
     2  Al  -0.082656   0.030142   0.158103  -0.082656   0.029920   0.121382
     3  Al  -0.052015  -0.063263  -0.082656   0.144474  -0.120572  -0.089242
     4  Al   0.144474  -0.063263  -0.082656  -0.052015   0.044467   0.054985
     5  Al  -0.089242   0.018303   0.121382   0.054985  -0.109544   0.001777
     6  Al  -0.120572   0.102461   0.029920   0.044467   0.014479  -0.109544
     7  Al  13.868951   0.028090  -0.043320  -0.044373   0.044467   0.054985
     8  Al   0.028090  13.294645   0.007857   0.028090   0.102461   0.018303
     9  Al  -0.043320   0.007857  13.555305  -0.043320   0.029920   0.121382
    10  Al  -0.044373   0.028090  -0.043320  13.868951  -0.120572  -0.089242
    11  Al   0.044467   0.102461   0.029920  -0.120572  14.238938   0.049954
    12  Al   0.054985   0.018303   0.121382  -0.089242   0.049954  14.093446
    13  Al   0.026580   0.150855  -0.008565   0.026580  -0.118979   0.005288
    14  Al   0.030556  -0.008125   0.073970   0.030556   0.004013  -0.130171
    15  Al  -0.819207  -0.819087  -0.864476  -0.819207  -1.235419  -1.147377
              13         14         15
     1  Al   0.150855  -0.008125  -0.819087
     2  Al  -0.008565   0.073970  -0.864476
     3  Al   0.026580   0.030556  -0.819207
     4  Al   0.026580   0.030556  -0.819207
     5  Al   0.005288  -0.130171  -1.147377
     6  Al  -0.118979   0.004013  -1.235419
     7  Al   0.026580   0.030556  -0.819207
     8  Al   0.150855  -0.008125  -0.819087
     9  Al  -0.008565   0.073970  -0.864476
    10  Al   0.026580   0.030556  -0.819207
    11  Al  -0.118979   0.004013  -1.235419
    12  Al   0.005288  -0.130171  -1.147377
    13  Al  12.433981   0.000096   0.062926
    14  Al   0.000096  12.471035   0.121877
    15  Al   0.062926   0.121877  24.715285
 Mulliken charges:
               1
     1  Al   0.072961
     2  Al  -0.002989
     3  Al   0.116545
     4  Al   0.116545
     5  Al   0.025769
     6  Al   0.044004
     7  Al   0.116545
     8  Al   0.072961
     9  Al  -0.002989
    10  Al   0.116545
    11  Al   0.044004
    12  Al   0.025769
    13  Al   0.339479
    14  Al   0.405395
    15  Al  -0.490543
 Sum of Mulliken charges =   1.00000
 Mulliken charges with hydrogens summed into heavy atoms:
               1
     1  Al   0.072961
     2  Al  -0.002989
     3  Al   0.116545
     4  Al   0.116545
     5  Al   0.025769
     6  Al   0.044004
     7  Al   0.116545
     8  Al   0.072961
     9  Al  -0.002989
    10  Al   0.116545
    11  Al   0.044004
    12  Al   0.025769
    13  Al   0.339479
    14  Al   0.405395
    15  Al  -0.490543
 Electronic spatial extent (au):  <R**2>=           5974.5687
 Charge=              1.0000 electrons
 Dipole moment (field-independent basis, Debye):
    X=              0.0000    Y=              0.0000    Z=             -0.0992  Tot=              0.0992
 Quadrupole moment (field-independent basis, Debye-Ang):
   XX=           -175.7860   YY=           -164.4287   ZZ=           -141.6908
   XY=              0.0000   XZ=              0.0000   YZ=              0.0000
 Traceless Quadrupole moment (field-independent basis, Debye-Ang):
   XX=            -15.1508   YY=             -3.7935   ZZ=             18.9444
   XY=              0.0000   XZ=              0.0000   YZ=              0.0000
 Octapole moment (field-independent basis, Debye-Ang**2):
  XXX=              0.0000  YYY=              0.0000  ZZZ=             -2.4151  XYY=              0.0000
  XXY=              0.0000  XXZ=              2.9556  XZZ=              0.0000  YZZ=              0.0000
  YYZ=             -3.2108  XYZ=              0.0000
 Hexadecapole moment (field-independent basis, Debye-Ang**3):
 XXXX=          -2703.5257 YYYY=          -2701.3657 ZZZZ=          -3790.5100 XXXY=              0.0000
 XXXZ=              0.0000 YYYX=              0.0000 YYYZ=              0.0000 ZZZX=              0.0000
 ZZZY=              0.0000 XXYY=           -879.0222 XXZZ=          -1193.4778 YYZZ=          -1222.1819
 XXYZ=              0.0000 YYXZ=              0.0000 ZZXY=              0.0000
 N-N= 2.572991795246D+03 E-N=-1.380034848231D+04  KE= 3.627573419593D+03
 Symmetry A1   KE= 1.733177343740D+03
 Symmetry A2   KE= 3.215244005054D+02
 Symmetry B1   KE= 7.855142619501D+02
 Symmetry B2   KE= 7.873574133980D+02

 Test job not archived.
 1\1\GINC-R1I1N16\SP\RHF\6-31G(d)\Al15(1+)\VSC31064\03-Oct-2016\0\\# hf
 /6-31G* test scf=xqc\\Al15-c-s\\1,1\Al,0,0.,1.85415575,-2.10403602\Al,
 0,0.,1.73931426,2.11125799\Al,0,1.56919792,2.26565601,0.00565466\Al,0,
 -1.56919792,2.26565601,0.00565466\Al,0,-2.28658883,0.,1.38708359\Al,0,
 -2.27167831,0.,-1.45927342\Al,0,-1.56919792,-2.26565601,0.00565466\Al,
 0,0.,-1.85415575,-2.10403602\Al,0,0.,-1.73931426,2.11125799\Al,0,1.569
 19792,-2.26565601,0.00565466\Al,0,2.27167831,0.,-1.45927342\Al,0,2.286
 58883,0.,1.38708359\Al,0,0.,0.,-3.8528008\Al,0,0.,0.,4.0209782\Al,0,0.
 ,0.,-0.0607878\\Version=ES64L-G09RevD.01\State=1-A1\HF=-3628.3258418\R
 MSD=8.884e-09\Dipole=0.,0.,-0.039042\Quadrupole=-11.2642843,-2.8203996
 ,14.0846839,0.,0.,0.\PG=C02V [C2(Al1Al1Al1),SGV(Al4),SGV'(Al4),X(Al4)]
 \\@


 A MAN IS EXACTLY AS GREAT AS THE TIDE SURGING
 BENEATH HIM.      - BISMARCK
 Job cpu time:       0 days  0 hours  2 minutes 55.9 seconds.
 File lengths (MBytes):  RWF=     32 Int=      0 D2E=      0 Chk=      4 Scr=      1
 Normal termination of Gaussian 09 at Mon Oct  3 06:44:59 2016.
 Initial command:
 /apps/leuven/thinking/software/G09//g09D1/l1.exe "/local_scratch/vsc31064/Gau-45844.inp" -scrdir="/local_scratch/vsc31064/"
 Entering Link 1 = /apps/leuven/thinking/software/G09//g09D1/l1.exe PID=     46093.
  
 Copyright (c) 1988,1990,1992,1993,1995,1998,2003,2009,2013,
            Gaussian, Inc.  All Rights Reserved.
  
 This is part of the Gaussian(R) 09 program.  It is based on
 the Gaussian(R) 03 system (copyright 2003, Gaussian, Inc.),
 the Gaussian(R) 98 system (copyright 1998, Gaussian, Inc.),
 the Gaussian(R) 94 system (copyright 1995, Gaussian, Inc.),
 the Gaussian 92(TM) system (copyright 1992, Gaussian, Inc.),
 the Gaussian 90(TM) system (copyright 1990, Gaussian, Inc.),
 the Gaussian 88(TM) system (copyright 1988, Gaussian, Inc.),
 the Gaussian 86(TM) system (copyright 1986, Carnegie Mellon
 University), and the Gaussian 82(TM) system (copyright 1983,
 Carnegie Mellon University). Gaussian is a federally registered
 trademark of Gaussian, Inc.
  
 This software contains proprietary and confidential information,
 including trade secrets, belonging to Gaussian, Inc.
  
 This software is provided under written license and may be
 used, copied, transmitted, or stored only in accord with that
 written license.
  
 The following legend is applicable only to US Government
 contracts under FAR:
  
                    RESTRICTED RIGHTS LEGEND
  
 Use, reproduction and disclosure by the US Government is
 subject to restrictions as set forth in subparagraphs (a)
 and (c) of the Commercial Computer Software - Restricted
 Rights clause in FAR 52.227-19.
  
 Gaussian, Inc.
 340 Quinnipiac St., Bldg. 40, Wallingford CT 06492
  
  
 ---------------------------------------------------------------
 Warning -- This program may not be used in any manner that
 competes with the business of Gaussian, Inc. or will provide
 assistance to any competitor of Gaussian, Inc.  The licensee
 of this program is prohibited from giving any competitor of
 Gaussian, Inc. access to this program.  By using this program,
 the user acknowledges that Gaussian, Inc. is engaged in the
 business of creating and licensing software in the field of
 computational chemistry and represents and warrants to the
 licensee that it is not a competitor of Gaussian, Inc. and that
 it will not use this program in any manner prohibited above.
 ---------------------------------------------------------------
  

 Cite this work as:
 Gaussian 09, Revision D.01,
 M. J. Frisch, G. W. Trucks, H. B. Schlegel, G. E. Scuseria, 
 M. A. Robb, J. R. Cheeseman, G. Scalmani, V. Barone, B. Mennucci, 
 G. A. Petersson, H. Nakatsuji, M. Caricato, X. Li, H. P. Hratchian, 
 A. F. Izmaylov, J. Bloino, G. Zheng, J. L. Sonnenberg, M. Hada, 
 M. Ehara, K. Toyota, R. Fukuda, J. Hasegawa, M. Ishida, T. Nakajima, 
 Y. Honda, O. Kitao, H. Nakai, T. Vreven, J. A. Montgomery, Jr., 
 J. E. Peralta, F. Ogliaro, M. Bearpark, J. J. Heyd, E. Brothers, 
 K. N. Kudin, V. N. Staroverov, T. Keith, R. Kobayashi, J. Normand, 
 K. Raghavachari, A. Rendell, J. C. Burant, S. S. Iyengar, J. Tomasi, 
 M. Cossi, N. Rega, J. M. Millam, M. Klene, J. E. Knox, J. B. Cross, 
 V. Bakken, C. Adamo, J. Jaramillo, R. Gomperts, R. E. Stratmann, 
 O. Yazyev, A. J. Austin, R. Cammi, C. Pomelli, J. W. Ochterski, 
 R. L. Martin, K. Morokuma, V. G. Zakrzewski, G. A. Voth, 
 P. Salvador, J. J. Dannenberg, S. Dapprich, A. D. Daniels, 
 O. Farkas, J. B. Foresman, J. V. Ortiz, J. Cioslowski, 
 and D. J. Fox, Gaussian, Inc., Wallingford CT, 2013.
 
 ******************************************
 Gaussian 09:  ES64L-G09RevD.01 24-Apr-2013
                 3-Oct-2016 
 ******************************************
 %NprocShared=20
 Will use up to   20 processors via shared memory.
 %mem=55000mb
 %chk=cc-Al15-c-s
 --------------------------------------------------------
 # CCSD(T,conver=5)/cc-pVTZ test geom=allcheck guess=read
 --------------------------------------------------------
 1/29=7,38=1/1;
 2/12=2,40=1/2;
 3/5=16,6=1,11=9,14=-4,16=1,25=1,30=1,116=-2/1,2,3;
 4/5=1/1;
 5/5=2,38=6/2;
 8/6=4,9=120000,10=1/1,4;
 9/5=7,9=5,14=2/13;
 6/7=2,8=2,9=2,10=2/1;
 99/5=1,9=1/99;
 Structure from the checkpoint file:  "cc-Al15-c-s.chk"
 --------
 Al15-c-s
 --------
 Charge =  1 Multiplicity = 1
 Z-Matrix found in file.
 Al,0,0.,1.85415575,-2.10403602
 Al,0,0.,1.73931426,2.11125799
 Al,0,1.56919792,2.26565601,0.00565466
 Al,0,-1.56919792,2.26565601,0.00565466
 Al,0,-2.28658883,0.,1.38708359
 Al,0,-2.27167831,0.,-1.45927342
 Al,0,-1.56919792,-2.26565601,0.00565466
 Al,0,0.,-1.85415575,-2.10403602
 Al,0,0.,-1.73931426,2.11125799
 Al,0,1.56919792,-2.26565601,0.00565466
 Al,0,2.27167831,0.,-1.45927342
 Al,0,2.28658883,0.,1.38708359
 Al,0,0.,0.,-3.8528008
 Al,0,0.,0.,4.0209782
 Al,0,0.,0.,-0.0607878
 Recover connectivity data from disk.
                          Input orientation:                          
 ---------------------------------------------------------------------
 Center     Atomic      Atomic             Coordinates (Angstroms)
 Number     Number       Type             X           Y           Z
 ---------------------------------------------------------------------
      1         13           0        0.000000    1.854156   -2.104036
      2         13           0        0.000000    1.739314    2.111258
      3         13           0        1.569198    2.265656    0.005655
      4         13           0       -1.569198    2.265656    0.005655
      5         13           0       -2.286589    0.000000    1.387084
      6         13           0       -2.271678    0.000000   -1.459273
      7         13           0       -1.569198   -2.265656    0.005655
      8         13           0        0.000000   -1.854156   -2.104036
      9         13           0        0.000000   -1.739314    2.111258
     10         13           0        1.569198   -2.265656    0.005655
     11         13           0        2.271678    0.000000   -1.459273
     12         13           0        2.286589    0.000000    1.387084
     13         13           0        0.000000    0.000000   -3.852801
     14         13           0        0.000000    0.000000    4.020978
     15         13           0        0.000000    0.000000   -0.060788
 ---------------------------------------------------------------------
                    Distance matrix (angstroms):
                    1          2          3          4          5
     1  Al   0.000000
     2  Al   4.216858   0.000000
     3  Al   2.661298   2.678243   0.000000
     4  Al   2.661298   2.678243   3.138396   0.000000
     5  Al   4.566651   2.962791   4.680666   2.748853   0.000000
     6  Al   3.002355   4.575416   4.693777   2.787954   2.846396
     7  Al   4.887333   4.789127   5.512016   4.531312   2.748853
     8  Al   3.708312   5.539109   4.887333   4.887333   4.566651
     9  Al   5.539109   3.478629   4.789127   4.789127   2.962791
    10  Al   4.887333   4.789127   4.531312   5.512016   4.680666
    11  Al   3.002355   4.575416   2.787954   4.693777   5.373969
    12  Al   4.566651   2.962791   2.748853   4.680666   4.573178
    13  Al   2.548739   6.212504   4.741651   4.741651   5.717069
    14  Al   6.399507   2.583069   4.870154   4.870154   3.487963
    15  Al   2.759122   2.782624   2.756809   2.756809   2.706440
                    6          7          8          9         10
     6  Al   0.000000
     7  Al   2.787954   0.000000
     8  Al   3.002355   2.661298   0.000000
     9  Al   4.575416   2.678243   4.216858   0.000000
    10  Al   4.693777   3.138396   2.661298   2.678243   0.000000
    11  Al   4.543357   4.693777   3.002355   4.575416   2.787954
    12  Al   5.373969   4.680666   4.566651   2.962791   2.748853
    13  Al   3.299924   4.741651   2.548739   6.212504   4.741651
    14  Al   5.932426   4.870154   6.399507   2.583069   4.870154
    15  Al   2.667636   2.756809   2.759122   2.782624   2.756809
                   11         12         13         14         15
    11  Al   0.000000
    12  Al   2.846396   0.000000
    13  Al   3.299924   5.717069   0.000000
    14  Al   5.932426   3.487963   7.873779   0.000000
    15  Al   2.667636   2.706440   3.792013   4.081766   0.000000
 Stoichiometry    Al15(1+)
 Framework group  C2V[C2(AlAlAl),SGV(Al4),SGV'(Al4),X(Al4)]
 Deg. of freedom    13
 Full point group                 C2V     NOp   4
 Largest Abelian subgroup         C2V     NOp   4
 Largest concise Abelian subgroup C2V     NOp   4
                         Standard orientation:                         
 ---------------------------------------------------------------------
 Center     Atomic      Atomic             Coordinates (Angstroms)
 Number     Number       Type             X           Y           Z
 ---------------------------------------------------------------------
      1         13           0        0.000000    1.854156   -2.104041
      2         13           0        0.000000    1.739314    2.111253
      3         13           0        1.569198    2.265656    0.005650
      4         13           0       -1.569198    2.265656    0.005650
      5         13           0       -2.286589    0.000000    1.387079
      6         13           0       -2.271678    0.000000   -1.459278
      7         13           0       -1.569198   -2.265656    0.005650
      8         13           0        0.000000   -1.854156   -2.104041
      9         13           0        0.000000   -1.739314    2.111253
     10         13           0        1.569198   -2.265656    0.005650
     11         13           0        2.271678    0.000000   -1.459278
     12         13           0        2.286589    0.000000    1.387079
     13         13           0        0.000000    0.000000   -3.852806
     14         13           0        0.000000    0.000000    4.020973
     15         13           0        0.000000    0.000000   -0.060793
 ---------------------------------------------------------------------
 Rotational constants (GHZ):      0.2922695      0.2140159      0.2073089
 Standard basis: CC-pVTZ (5D, 7F)
 There are   201 symmetry adapted cartesian basis functions of A1  symmetry.
 There are    96 symmetry adapted cartesian basis functions of A2  symmetry.
 There are   144 symmetry adapted cartesian basis functions of B1  symmetry.
 There are   144 symmetry adapted cartesian basis functions of B2  symmetry.
 There are   171 symmetry adapted basis functions of A1  symmetry.
 There are    87 symmetry adapted basis functions of A2  symmetry.
 There are   126 symmetry adapted basis functions of B1  symmetry.
 There are   126 symmetry adapted basis functions of B2  symmetry.
   510 basis functions,  1425 primitive gaussians,   585 cartesian basis functions
    97 alpha electrons       97 beta electrons
       nuclear repulsion energy      2572.9917952460 Hartrees.
 NAtoms=   15 NActive=   15 NUniq=    8 SFac= 3.52D+00 NAtFMM=   60 NAOKFM=F Big=F
 Integral buffers will be    131072 words long.
 Raffenetti 1 integral format.
 Two-electron integral symmetry is turned on.
 One-electron integrals computed using PRISM.
 NBasis=   510 RedAO= T EigKep=  2.18D-04  NBF=   171    87   126   126
 NBsUse=   510 1.00D-06 EigRej= -1.00D+00 NBFU=   171    87   126   126
 Initial guess from the checkpoint file:  "cc-Al15-c-s.chk"
 B after Tr=     0.000000    0.000000    0.000000
         Rot=    1.000000    0.000000    0.000000    0.000000 Ang=   0.00 deg.
 Initial guess orbital symmetries:
       Occupied  (A1) (A1) (B2) (A1) (A1) (B2) (B2) (B1) (A1) (A2)
                 (B1) (A1) (B1) (A1) (A1) (A1) (A1) (A1) (B2) (A1)
                 (B2) (B2) (A1) (A2) (B1) (B1) (A1) (B1) (A1) (A1)
                 (A1) (B1) (B2) (B1) (A1) (A1) (B2) (A2) (B1) (B2)
                 (A1) (B2) (A1) (B2) (B1) (A2) (A1) (B2) (B1) (A2)
                 (B2) (A1) (A1) (B2) (A2) (B1) (A2) (B1) (B2) (A1)
                 (B1) (A1) (A1) (B1) (A1) (B2) (A2) (B1) (B2) (A2)
                 (A1) (B1) (B1) (B2) (A1) (A1) (B2) (A1) (B1) (A1)
                 (B2) (A2) (A1) (B1) (A1) (A1) (B2) (A1) (B1) (A2)
                 (B2) (B1) (B2) (B2) (B1) (A1) (A1)
       Virtual   (A1) (A1) (A1) (A1) (A1) (A1) (A1) (A1) (A1) (A1)
                 (A1) (A1) (A1) (A1) (A1) (A1) (A1) (A1) (A1) (A1)
                 (A1) (A1) (A1) (A1) (A1) (A1) (A1) (A1) (A1) (A1)
                 (A1) (A1) (A1) (A1) (A1) (A1) (A1) (A1) (A1) (A1)
                 (A1) (A1) (A1) (A1) (A1) (A1) (A1) (A1) (A1) (A1)
                 (A1) (A1) (A1) (A1) (A1) (A1) (A1) (A1) (A1) (A1)
                 (A1) (A1) (A1) (A1) (A1) (A1) (A1) (A1) (A1) (A1)
                 (A1) (A1) (A1) (A1) (A1) (A1) (A1) (A1) (A1) (A1)
                 (A1) (A1) (A1) (A1) (A1) (A1) (A1) (A1) (A1) (A1)
                 (A1) (A1) (A1) (A1) (A1) (A1) (A1) (A1) (A1) (A1)
                 (A1) (A1) (A1) (A1) (A1) (A1) (A1) (A1) (A1) (A1)
                 (A1) (A1) (A1) (A1) (A1) (A1) (A1) (A1) (A1) (A1)
                 (A1) (A1) (A1) (A1) (A1) (A1) (A1) (A1) (A1) (A1)
                 (A1) (A1) (A2) (A2) (A2) (A2) (A2) (A2) (A2) (A2)
                 (A2) (A2) (A2) (A2) (A2) (A2) (A2) (A2) (A2) (A2)
                 (A2) (A2) (A2) (A2) (A2) (A2) (A2) (A2) (A2) (A2)
                 (A2) (A2) (A2) (A2) (A2) (A2) (A2) (A2) (A2) (A2)
                 (A2) (A2) (A2) (A2) (A2) (A2) (A2) (A2) (A2) (A2)
                 (A2) (A2) (A2) (A2) (A2) (A2) (A2) (A2) (A2) (A2)
                 (A2) (A2) (A2) (A2) (A2) (A2) (A2) (A2) (A2) (A2)
                 (A2) (A2) (A2) (A2) (A2) (A2) (A2) (A2) (B1) (B1)
                 (B1) (B1) (B1) (B1) (B1) (B1) (B1) (B1) (B1) (B1)
                 (B1) (B1) (B1) (B1) (B1) (B1) (B1) (B1) (B1) (B1)
                 (B1) (B1) (B1) (B1) (B1) (B1) (B1) (B1) (B1) (B1)
                 (B1) (B1) (B1) (B1) (B1) (B1) (B1) (B1) (B1) (B1)
                 (B1) (B1) (B1) (B1) (B1) (B1) (B1) (B1) (B1) (B1)
                 (B1) (B1) (B1) (B1) (B1) (B1) (B1) (B1) (B1) (B1)
                 (B1) (B1) (B1) (B1) (B1) (B1) (B1) (B1) (B1) (B1)
                 (B1) (B1) (B1) (B1) (B1) (B1) (B1) (B1) (B1) (B1)
                 (B1) (B1) (B1) (B1) (B1) (B1) (B1) (B1) (B1) (B1)
                 (B1) (B1) (B1) (B1) (B1) (B1) (B1) (B1) (B1) (B1)
                 (B1) (B2) (B2) (B2) (B2) (B2) (B2) (B2) (B2) (B2)
                 (B2) (B2) (B2) (B2) (B2) (B2) (B2) (B2) (B2) (B2)
                 (B2) (B2) (B2) (B2) (B2) (B2) (B2) (B2) (B2) (B2)
                 (B2) (B2) (B2) (B2) (B2) (B2) (B2) (B2) (B2) (B2)
                 (B2) (B2) (B2) (B2) (B2) (B2) (B2) (B2) (B2) (B2)
                 (B2) (B2) (B2) (B2) (B2) (B2) (B2) (B2) (B2) (B2)
                 (B2) (B2) (B2) (B2) (B2) (B2) (B2) (B2) (B2) (B2)
                 (B2) (B2) (B2) (B2) (B2) (B2) (B2) (B2) (B2) (B2)
                 (B2) (B2) (B2) (B2) (B2) (B2) (B2) (B2) (B2) (B2)
                 (B2) (B2) (B2) (B2) (B2) (B2) (B2) (B2) (B2) (B2)
                 (B2) (B2) (B2)
 Requested convergence on RMS density matrix=1.00D-08 within 128 cycles.
 Requested convergence on MAX density matrix=1.00D-06.
 Requested convergence on             energy=1.00D-06.
 No special actions if energy rises.
 SCF Done:  E(RHF) =  -3628.64885504     A.U. after   16 cycles
            NFock= 16  Conv=0.60D-08     -V/T= 1.9999
 ExpMin= 5.56D-02 ExpMax= 2.06D+05 ExpMxC= 1.99D+03 IAcc=3 IRadAn=         5 AccDes= 0.00D+00
 HarFok:  IExCor=  205 AccDes= 0.00D+00 IRadAn=         5 IDoV=-2 UseB2=F ITyADJ=14
 ICtDFT= 12500011 ScaDFX=  1.000000  1.000000  1.000000  1.000000
 DSYEVD-2 returned Info=          69 IAlg= 4 N=    34 NDim=    34 NE2=   212006446 trying  DSYEV.
 DSYEVD-2 returned Info=          69 IAlg= 4 N=    34 NDim=    34 NE2=   212006446 trying  DSYEV.
 DSYEVD-2 returned Info=          69 IAlg= 4 N=    34 NDim=    34 NE2=   212006446 trying  DSYEV.
 DSYEVD-2 returned Info=          69 IAlg= 4 N=    34 NDim=    34 NE2=   212006446 trying  DSYEV.
 Range of M.O.s used for correlation:    76   510
 NBasis=   510 NAE=    97 NBE=    97 NFC=    75 NFV=     0
 NROrb=    435 NOA=    22 NOB=    22 NVA=   413 NVB=   413

 **** Warning!!: The largest alpha MO coefficient is  0.47396558D+02

 Semi-Direct transformation.
 ModeAB=           4 MOrb=            22 LenV=    7203213604
 LASXX=    219693701 LTotXX=   219693701 LenRXX=   440986882
 LTotAB=   221293181 MaxLAS=   598134570 LenRXY=           0
 NonZer=   660680583 LenScr=   994908160 LnRSAI=   598134570
 LnScr1=   900720640 LExtra=           0 Total=   2934750252
 MaxDsk=          -1 SrtSym=           T ITran=            4
 JobTyp=0 Pass  1:  I=   1 to  22.
 (rs|ai) integrals will be sorted in core.
 Spin components of T(2) and E(2):
     alpha-alpha T2 =       0.2644928254D+00 E2=     -0.2309069768D+00
     alpha-beta  T2 =       0.1006587380D+01 E2=     -0.1021350738D+01
     beta-beta   T2 =       0.2644928254D+00 E2=     -0.2309069768D+00
 ANorm=    0.1592348275D+01
 E2 =    -0.1483164692D+01 EUMP2 =    -0.36301320197339D+04
 Would need an additional      3407153433 words for in-memory AO integral storage.
 Iterations=  50 Convergence= 0.100D-04
 Iteration Nr.   1
 **********************
 DD1Dir will call FoFJK   1 times, MxPair=       506
 NAB=   253 NAA=     0 NBB=     0 NumPrc= 20.
 FoFJK:  IHMeth= 1 ICntrl=     200 DoSepK=F KAlg= 0 I1Cent=   0 FoldK=F
 IRaf= 990000000 NMat= 506 IRICut=     632 DoRegI=T DoRafI=T ISym2E=-1.
 FoFCou: FMM=F IPFlag=           0 FMFlag=      100000 FMFlg1=           0
         NFxFlg=           0 DoJE=F BraDBF=F KetDBF=F FulRan=T
         wScrn=  0.000000 ICntrl=     200 IOpCl=  0 I1Cent=           0 NGrid=           0
         NMat0=  506 NMatS0=      0 NMatT0=  253 NMatD0=  506 NMtDS0=    0 NMtDT0=    0
 Petite list used in FoFCou.
 MP4(R+Q)=  0.88267343D-01
 E3=        0.33348917D+00        EUMP3=      -0.36297985306D+04
 E4(DQ)=   -0.26297727D+00        UMP4(DQ)=   -0.36300615078D+04
 E4(SDQ)=  -0.28617274D+00        UMP4(SDQ)=  -0.36300847033D+04
 DE(Corr)=  -1.0618202     E(Corr)=     -3629.7106753    
 NORM(A)=   0.13686996D+01
 Iteration Nr.   2
 **********************
 DD1Dir will call FoFJK   1 times, MxPair=       506
 NAB=   253 NAA=     0 NBB=     0 NumPrc= 20.
 DE(Corr)=  -1.3385279     E(CORR)=     -3629.9873829     Delta=-2.77D-01
 NORM(A)=   0.14432123D+01
 Iteration Nr.   3
 **********************
 DD1Dir will call FoFJK   1 times, MxPair=       506
 NAB=   253 NAA=     0 NBB=     0 NumPrc= 20.
 DE(Corr)=  -1.2659879     E(CORR)=     -3629.9148430     Delta= 7.25D-02
 NORM(A)=   0.14526635D+01
 Iteration Nr.   4
 **********************
 DD1Dir will call FoFJK   1 times, MxPair=       506
 NAB=   253 NAA=     0 NBB=     0 NumPrc= 20.
 DE(Corr)=  -1.2777293     E(CORR)=     -3629.9265843     Delta=-1.17D-02
 NORM(A)=   0.14553159D+01
 Iteration Nr.   5
 **********************
 DD1Dir will call FoFJK   1 times, MxPair=       506
 NAB=   253 NAA=     0 NBB=     0 NumPrc= 20.
 DE(Corr)=  -1.2800692     E(CORR)=     -3629.9289242     Delta=-2.34D-03
 NORM(A)=   0.14598289D+01
 Iteration Nr.   6
 **********************
 DD1Dir will call FoFJK   1 times, MxPair=       506
 NAB=   253 NAA=     0 NBB=     0 NumPrc= 20.
 DE(Corr)=  -1.2797044     E(CORR)=     -3629.9285594     Delta= 3.65D-04
 NORM(A)=   0.14629379D+01
 Iteration Nr.   7
 **********************
 DD1Dir will call FoFJK   1 times, MxPair=       506
 NAB=   253 NAA=     0 NBB=     0 NumPrc= 20.
 DE(Corr)=  -1.2795318     E(CORR)=     -3629.9283869     Delta= 1.73D-04
 NORM(A)=   0.14628428D+01
 Iteration Nr.   8
 **********************
 DD1Dir will call FoFJK   1 times, MxPair=       506
 NAB=   253 NAA=     0 NBB=     0 NumPrc= 20.
 DE(Corr)=  -1.2803777     E(CORR)=     -3629.9292327     Delta=-8.46D-04
 NORM(A)=   0.14637119D+01
 Iteration Nr.   9
 **********************
 DD1Dir will call FoFJK   1 times, MxPair=       506
 NAB=   253 NAA=     0 NBB=     0 NumPrc= 20.
 DE(Corr)=  -1.2796818     E(CORR)=     -3629.9285369     Delta= 6.96D-04
 NORM(A)=   0.14636215D+01
 Iteration Nr.  10
 **********************
 DD1Dir will call FoFJK   1 times, MxPair=       506
 NAB=   253 NAA=     0 NBB=     0 NumPrc= 20.
 DE(Corr)=  -1.2800730     E(CORR)=     -3629.9289281     Delta=-3.91D-04
 NORM(A)=   0.14636008D+01
 Iteration Nr.  11
 **********************
 DD1Dir will call FoFJK   1 times, MxPair=       506
 NAB=   253 NAA=     0 NBB=     0 NumPrc= 20.
 DE(Corr)=  -1.2799734     E(CORR)=     -3629.9288284     Delta= 9.97D-05
 NORM(A)=   0.14636970D+01
 Iteration Nr.  12
 **********************
 DD1Dir will call FoFJK   1 times, MxPair=       506
 NAB=   253 NAA=     0 NBB=     0 NumPrc= 20.
 DE(Corr)=  -1.2799412     E(CORR)=     -3629.9287962     Delta= 3.22D-05
 NORM(A)=   0.14636546D+01
 Iteration Nr.  13
 **********************
 DD1Dir will call FoFJK   1 times, MxPair=       506
 NAB=   253 NAA=     0 NBB=     0 NumPrc= 20.
 DE(Corr)=  -1.2799645     E(CORR)=     -3629.9288195     Delta=-2.33D-05
 NORM(A)=   0.14636433D+01
 Iteration Nr.  14
 **********************
 DD1Dir will call FoFJK   1 times, MxPair=       506
 NAB=   253 NAA=     0 NBB=     0 NumPrc= 20.
 DE(Corr)=  -1.2799682     E(CORR)=     -3629.9288232     Delta=-3.72D-06
 NORM(A)=   0.14636436D+01
 Iteration Nr.  15
 **********************
 DD1Dir will call FoFJK   1 times, MxPair=       506
 NAB=   253 NAA=     0 NBB=     0 NumPrc= 20.
 DE(Corr)=  -1.2799542     E(CORR)=     -3629.9288093     Delta= 1.40D-05
 NORM(A)=   0.14636262D+01
 Iteration Nr.  16
 **********************
 DD1Dir will call FoFJK   1 times, MxPair=       506
 NAB=   253 NAA=     0 NBB=     0 NumPrc= 20.
 DE(Corr)=  -1.2799650     E(CORR)=     -3629.9288200     Delta=-1.08D-05
 NORM(A)=   0.14636209D+01
 Iteration Nr.  17
 **********************
 DD1Dir will call FoFJK   1 times, MxPair=       506
 NAB=   253 NAA=     0 NBB=     0 NumPrc= 20.
 DE(Corr)=  -1.2799592     E(CORR)=     -3629.9288142     Delta= 5.82D-06
 NORM(A)=   0.14636204D+01
 Largest amplitude= 6.18D-02
 Time for triples=   134006.88 seconds.
 T4(CCSD)= -0.19402754D+00
 T5(CCSD)=  0.47715538D-02
 CCSD(T)= -0.36301180702D+04
 Discarding MO integrals.

 **********************************************************************

            Population analysis using the SCF density.

 **********************************************************************

 Orbital symmetries:
       Occupied  (A1) (A1) (B2) (A1) (A1) (B2) (B2) (A1) (A2) (B1)
                 (B1) (A1) (B1) (A1) (A1) (A1) (A1) (A1) (B2) (A1)
                 (B2) (B2) (A1) (A2) (B1) (B1) (A1) (B1) (A1) (A1)
                 (A1) (B1) (B2) (A1) (B1) (A1) (B2) (B2) (A2) (B1)
                 (A1) (B2) (A1) (B2) (A2) (B1) (A1) (B2) (B2) (A1)
                 (B1) (A2) (B2) (A1) (A2) (B1) (A2) (B1) (B2) (A1)
                 (B1) (A1) (A1) (B1) (B2) (A2) (A1) (B1) (B2) (A2)
                 (A1) (B1) (B1) (B2) (A1) (A1) (B2) (A1) (B1) (A1)
                 (B2) (A2) (A1) (B1) (A1) (A1) (B2) (A1) (B1) (A2)
                 (B2) (B1) (B2) (B2) (B1) (A1) (A1)
       Virtual   (A1) (B1) (A2) (A1) (A1) (B1) (B2) (A2) (A1) (B1)
                 (B2) (B2) (A2) (A1) (A1) (B1) (A1) (B2) (B1) (B2)
                 (A1) (A1) (B1) (A1) (A2) (B2) (A1) (A2) (B1) (B1)
                 (B2) (B1) (A2) (B2) (A1) (A1) (B2) (A2) (B1) (A1)
                 (A1) (B1) (B2) (A1) (A1) (B2) (A2) (B1) (B2) (B2)
                 (A1) (B1) (A2) (A1) (A2) (B1) (B1) (A1) (B1) (B2)
                 (B2) (A1) (B2) (A1) (A2) (A2) (B1) (A1) (B2) (A2)
                 (A1) (B1) (B2) (B1) (A1) (A1) (B2) (B1) (B2) (A2)
                 (B1) (A1) (A2) (A1) (A1) (A2) (B1) (B2) (A1) (B1)
                 (B2) (A1) (A2) (B1) (B2) (B1) (B2) (A2) (A1) (A1)
                 (A2) (A1) (A1) (B2) (B1) (B1) (B2) (A2) (B1) (B2)
                 (A1) (A2) (B1) (A2) (B1) (A1) (B2) (A1) (B2) (B2)
                 (A1) (B1) (A1) (A2) (B2) (A1) (B1) (A1) (A1) (B1)
                 (B2) (A1) (A1) (B1) (A2) (B1) (A2) (A1) (B2) (A2)
                 (B2) (B1) (B2) (B1) (A1) (A1) (B1) (A2) (B2) (A1)
                 (A2) (B2) (B1) (A1) (B2) (B1) (A1) (B2) (A1) (A2)
                 (A1) (B2) (B1) (A2) (B1) (A1) (A1) (B2) (A2) (B1)
                 (A2) (B2) (A1) (B2) (B1) (A1) (B2) (B1) (A1) (A1)
                 (B1) (A1) (A2) (A2) (B2) (B1) (B2) (A2) (B1) (A1)
                 (A1) (B2) (B1) (B2) (A1) (A2) (A1) (B2) (A2) (A1)
                 (A2) (A1) (B2) (A1) (B1) (A2) (B2) (B1) (A1) (A1)
                 (B1) (B2) (B2) (B1) (B1) (A1) (A2) (B1) (B2) (A2)
                 (A1) (B2) (B1) (A1) (B2) (A2) (B1) (B1) (A2) (A1)
                 (A2) (B1) (B2) (B2) (B1) (A2) (A1) (A1) (A1) (B2)
                 (B2) (A1) (A1) (B1) (A1) (A2) (A1) (A2) (B1) (B2)
                 (B1) (B1) (B2) (A2) (A2) (A1) (B2) (A2) (B2) (B1)
                 (A1) (A2) (B2) (A2) (B1) (B1) (A1) (A1) (A1) (B2)
                 (B1) (A1) (B2) (A2) (A1) (A1) (B2) (B1) (B1) (B2)
                 (A1) (A1) (B1) (B2) (A2) (B2) (A1) (B1) (A2) (A1)
                 (A2) (B1) (B2) (B1) (A1) (A2) (B2) (B1) (A2) (B2)
                 (A1) (B1) (B2) (B1) (A1) (A2) (B2) (A1) (B1) (B2)
                 (A1) (B1) (B1) (A2) (A2) (A1) (B1) (B2) (A2) (A1)
                 (B2) (A1) (B2) (A1) (B1) (A2) (A1) (B1) (A1) (B2)
                 (A2) (A1) (B1) (A2) (B2) (B1) (B2) (A1) (A1) (B2)
                 (A2) (B1) (B2) (A2) (A1) (B2) (A1) (B1) (A1) (B1)
                 (B2) (A1) (A2) (B2) (B1) (B1) (A2) (B2) (B2) (B1)
                 (A1) (A1) (A1) (A1) (B1) (A1) (A1) (B2) (A2) (B1)
                 (A1) (B2) (A2) (B1) (A1) (B1) (B2) (A1) (B2) (A2)
                 (A1) (B1) (A1) (A2) (B1) (A1) (B2) (B1) (B2) (A2)
                 (B1) (A2) (A1) (B2) (B2) (B2) (A1) (B1) (A1) (A1)
                 (A1) (B2) (B1) (A1) (B1) (A1) (A1) (A2) (B2) (A1)
                 (B2) (B1) (A1)
 The electronic state is 1-A1.
 Alpha  occ. eigenvalues --  -58.61421 -58.61282 -58.60793 -58.60793 -58.60610
 Alpha  occ. eigenvalues --  -58.60610 -58.60552 -58.60552 -58.60552 -58.60552
 Alpha  occ. eigenvalues --  -58.60244 -58.60244 -58.60232 -58.60232 -58.55355
 Alpha  occ. eigenvalues --   -5.02533  -5.02367  -5.02011  -5.02011  -5.01829
 Alpha  occ. eigenvalues --   -5.01828  -5.01727  -5.01727  -5.01725  -5.01725
 Alpha  occ. eigenvalues --   -5.01340  -5.01340  -5.01336  -5.01336  -4.97627
 Alpha  occ. eigenvalues --   -3.33598  -3.33564  -3.33454  -3.33365  -3.33346
 Alpha  occ. eigenvalues --   -3.33258  -3.33258  -3.33231  -3.33209  -3.33208
 Alpha  occ. eigenvalues --   -3.33172  -3.33169  -3.33060  -3.33057  -3.33019
 Alpha  occ. eigenvalues --   -3.33019  -3.32988  -3.32987  -3.32903  -3.32903
 Alpha  occ. eigenvalues --   -3.32903  -3.32902  -3.32814  -3.32814  -3.32809
 Alpha  occ. eigenvalues --   -3.32809  -3.32798  -3.32798  -3.32798  -3.32797
 Alpha  occ. eigenvalues --   -3.32497  -3.32497  -3.32467  -3.32466  -3.32404
 Alpha  occ. eigenvalues --   -3.32403  -3.32400  -3.32400  -3.32381  -3.32381
 Alpha  occ. eigenvalues --   -3.32367  -3.32367  -3.29002  -3.28988  -3.28970
 Alpha  occ. eigenvalues --   -0.84556  -0.72976  -0.72491  -0.72245  -0.62545
 Alpha  occ. eigenvalues --   -0.58479  -0.57015  -0.56089  -0.54808  -0.51919
 Alpha  occ. eigenvalues --   -0.51622  -0.45118  -0.39085  -0.38496  -0.38335
 Alpha  occ. eigenvalues --   -0.37333  -0.37238  -0.36805  -0.36292  -0.35831
 Alpha  occ. eigenvalues --   -0.35382  -0.35216
 Alpha virt. eigenvalues --   -0.14473  -0.13885  -0.13637  -0.13261  -0.12859
 Alpha virt. eigenvalues --   -0.12266  -0.10940  -0.09416  -0.07354  -0.06467
 Alpha virt. eigenvalues --   -0.06130  -0.05736  -0.05190  -0.04937  -0.04110
 Alpha virt. eigenvalues --   -0.03468  -0.01737  -0.00338   0.00255   0.00469
 Alpha virt. eigenvalues --    0.00677   0.01774   0.01799   0.03651   0.03679
 Alpha virt. eigenvalues --    0.03769   0.04223   0.04259   0.04431   0.04771
 Alpha virt. eigenvalues --    0.05539   0.05910   0.06203   0.06248   0.06493
 Alpha virt. eigenvalues --    0.07197   0.07461   0.08195   0.08340   0.08424
 Alpha virt. eigenvalues --    0.08981   0.09056   0.09950   0.10177   0.11486
 Alpha virt. eigenvalues --    0.11692   0.11707   0.12343   0.12641   0.13423
 Alpha virt. eigenvalues --    0.13647   0.13760   0.13921   0.14356   0.14570
 Alpha virt. eigenvalues --    0.15161   0.15600   0.16319   0.16921   0.17564
 Alpha virt. eigenvalues --    0.17695   0.17719   0.18191   0.18425   0.18763
 Alpha virt. eigenvalues --    0.18891   0.19067   0.19155   0.19550   0.19861
 Alpha virt. eigenvalues --    0.20108   0.21045   0.21902   0.23043   0.23197
 Alpha virt. eigenvalues --    0.23863   0.24131   0.24275   0.24852   0.25340
 Alpha virt. eigenvalues --    0.25986   0.26541   0.27134   0.27147   0.27458
 Alpha virt. eigenvalues --    0.27857   0.27972   0.28179   0.28391   0.28426
 Alpha virt. eigenvalues --    0.29044   0.30203   0.31811   0.32398   0.32910
 Alpha virt. eigenvalues --    0.33351   0.33477   0.34048   0.34497   0.35208
 Alpha virt. eigenvalues --    0.36725   0.36747   0.36901   0.36937   0.37199
 Alpha virt. eigenvalues --    0.38239   0.38616   0.38635   0.38700   0.38940
 Alpha virt. eigenvalues --    0.39409   0.39582   0.39680   0.40107   0.40496
 Alpha virt. eigenvalues --    0.40760   0.40789   0.41133   0.41229   0.41752
 Alpha virt. eigenvalues --    0.42060   0.42967   0.44082   0.44228   0.45282
 Alpha virt. eigenvalues --    0.45318   0.45423   0.46314   0.47379   0.48557
 Alpha virt. eigenvalues --    0.48710   0.48815   0.49592   0.49992   0.51054
 Alpha virt. eigenvalues --    0.51475   0.51489   0.52117   0.52256   0.52947
 Alpha virt. eigenvalues --    0.53039   0.53113   0.53819   0.54876   0.55097
 Alpha virt. eigenvalues --    0.55464   0.56727   0.56783   0.57235   0.57317
 Alpha virt. eigenvalues --    0.57693   0.57847   0.58249   0.58645   0.59163
 Alpha virt. eigenvalues --    0.59853   0.59961   0.60348   0.60812   0.61103
 Alpha virt. eigenvalues --    0.61147   0.61430   0.62802   0.62836   0.63296
 Alpha virt. eigenvalues --    0.63769   0.66390   0.66837   0.67537   0.67706
 Alpha virt. eigenvalues --    0.67808   0.68623   0.68675   0.70491   0.70754
 Alpha virt. eigenvalues --    0.71147   0.73173   0.73483   0.73770   0.75508
 Alpha virt. eigenvalues --    0.75601   0.76248   0.76266   0.77130   0.77423
 Alpha virt. eigenvalues --    0.78376   0.78769   0.78820   0.78992   0.79141
 Alpha virt. eigenvalues --    0.79214   0.79464   0.79836   0.80354   0.80441
 Alpha virt. eigenvalues --    0.80785   0.81246   0.81601   0.81778   0.82100
 Alpha virt. eigenvalues --    0.82556   0.83457   0.83651   0.83874   0.84248
 Alpha virt. eigenvalues --    0.85544   0.86202   0.86224   0.86756   0.87088
 Alpha virt. eigenvalues --    0.87095   0.87326   0.88010   0.88269   0.88319
 Alpha virt. eigenvalues --    0.88434   0.89016   0.90591   0.90680   0.91324
 Alpha virt. eigenvalues --    0.91378   0.92026   0.92100   0.92631   0.93308
 Alpha virt. eigenvalues --    0.93720   0.94439   0.94657   0.95054   0.95077
 Alpha virt. eigenvalues --    0.95604   0.96200   0.96734   0.97327   0.97606
 Alpha virt. eigenvalues --    0.98299   0.98446   0.99315   1.00025   1.00545
 Alpha virt. eigenvalues --    1.00730   1.00746   1.01377   1.01704   1.02070
 Alpha virt. eigenvalues --    1.02441   1.02539   1.03077   1.03116   1.03654
 Alpha virt. eigenvalues --    1.04619   1.05368   1.06019   1.06208   1.08850
 Alpha virt. eigenvalues --    1.09633   1.10124   1.10175   1.10539   1.10549
 Alpha virt. eigenvalues --    1.11388   1.11440   1.11583   1.12057   1.12405
 Alpha virt. eigenvalues --    1.13234   1.14220   1.14764   1.15904   1.16283
 Alpha virt. eigenvalues --    1.16612   1.17154   1.17861   1.18335   1.19625
 Alpha virt. eigenvalues --    1.19994   1.20425   1.21330   1.22271   1.22634
 Alpha virt. eigenvalues --    1.22773   1.23634   1.23834   1.24022   1.24110
 Alpha virt. eigenvalues --    1.24550   1.25061   1.25261   1.27349   1.27408
 Alpha virt. eigenvalues --    1.28470   1.28794   1.29032   1.29705   1.30009
 Alpha virt. eigenvalues --    1.30759   1.31507   1.31652   1.32103   1.32944
 Alpha virt. eigenvalues --    1.33678   1.34072   1.34175   1.34419   1.34597
 Alpha virt. eigenvalues --    1.34924   1.35285   1.35653   1.37699   1.38228
 Alpha virt. eigenvalues --    1.38264   1.38519   1.38917   1.39147   1.39649
 Alpha virt. eigenvalues --    1.40203   1.40899   1.41472   1.42492   1.44078
 Alpha virt. eigenvalues --    1.44084   1.44488   1.45091   1.45589   1.45640
 Alpha virt. eigenvalues --    1.45872   1.46654   1.46864   1.47925   1.48312
 Alpha virt. eigenvalues --    1.48333   1.49053   1.49546   1.50112   1.50130
 Alpha virt. eigenvalues --    1.51371   1.52593   1.52995   1.54301   1.54396
 Alpha virt. eigenvalues --    1.54851   1.55161   1.55628   1.56209   1.61221
 Alpha virt. eigenvalues --    1.69847   1.70053   1.73628   1.76469   1.77497
 Alpha virt. eigenvalues --    1.80666   1.81320   1.82485   2.37406   2.40149
 Alpha virt. eigenvalues --    2.41853   2.41911   2.42015   2.44876   2.44887
 Alpha virt. eigenvalues --    2.45332   2.46290   2.47792   2.49772   2.50039
 Alpha virt. eigenvalues --    2.52728   2.56652   2.56844   2.57024   2.57087
 Alpha virt. eigenvalues --    2.58685   2.62053   2.65175   2.65665   2.69092
 Alpha virt. eigenvalues --    2.69573   2.72047   2.72877   2.73894   2.74458
 Alpha virt. eigenvalues --    2.75599   2.77215   2.82521   2.83182   2.84710
 Alpha virt. eigenvalues --    2.85183   2.87753   2.89545   2.93455   2.94320
 Alpha virt. eigenvalues --    2.94713   2.96147   3.04786   3.07663   3.12987
 Alpha virt. eigenvalues --    3.28391   3.28816   3.34151   3.40806   3.46859
 Alpha virt. eigenvalues --    3.56945   3.68982   3.71187   3.72991   3.76143
 Alpha virt. eigenvalues --    3.78672   3.79261   3.84669   4.08656   4.69805
 Alpha virt. eigenvalues --    5.55812   5.69718   6.91274
          Condensed to atoms (all electrons):
               1          2          3          4          5          6
     1  Al  11.992156  -0.034227   0.262782   0.262782  -0.016239   0.089911
     2  Al  -0.034227  12.101568   0.241597   0.241597   0.112662  -0.015270
     3  Al   0.262782   0.241597  12.169409   0.023646  -0.008630  -0.008043
     4  Al   0.262782   0.241597   0.023646  12.169409   0.191271   0.165362
     5  Al  -0.016239   0.112662  -0.008630   0.191271  12.348310   0.132745
     6  Al   0.089911  -0.015270  -0.008043   0.165362   0.132745  12.409929
     7  Al  -0.003495  -0.005905   0.003565  -0.012052   0.191271   0.165362
     8  Al  -0.050775  -0.000990  -0.003495  -0.003495  -0.016239   0.089911
     9  Al  -0.000990  -0.051578  -0.005905  -0.005905   0.112662  -0.015270
    10  Al  -0.003495  -0.005905  -0.012052   0.003565  -0.008630  -0.008043
    11  Al   0.089911  -0.015270   0.165362  -0.008043   0.004840  -0.010842
    12  Al  -0.016239   0.112662   0.191271  -0.008630  -0.010276   0.004840
    13  Al   0.319689   0.001639  -0.008106  -0.008106   0.000917   0.010431
    14  Al   0.000946   0.258425  -0.003886  -0.003886  -0.014801   0.000602
    15  Al   0.061886   0.053376  -0.009407  -0.009407   0.009914   0.021227
               7          8          9         10         11         12
     1  Al  -0.003495  -0.050775  -0.000990  -0.003495   0.089911  -0.016239
     2  Al  -0.005905  -0.000990  -0.051578  -0.005905  -0.015270   0.112662
     3  Al   0.003565  -0.003495  -0.005905  -0.012052   0.165362   0.191271
     4  Al  -0.012052  -0.003495  -0.005905   0.003565  -0.008043  -0.008630
     5  Al   0.191271  -0.016239   0.112662  -0.008630   0.004840  -0.010276
     6  Al   0.165362   0.089911  -0.015270  -0.008043  -0.010842   0.004840
     7  Al  12.169409   0.262782   0.241597   0.023646  -0.008043  -0.008630
     8  Al   0.262782  11.992156  -0.034227   0.262782   0.089911  -0.016239
     9  Al   0.241597  -0.034227  12.101568   0.241597  -0.015270   0.112662
    10  Al   0.023646   0.262782   0.241597  12.169409   0.165362   0.191271
    11  Al  -0.008043   0.089911  -0.015270   0.165362  12.409929   0.132745
    12  Al  -0.008630  -0.016239   0.112662   0.191271   0.132745  12.348310
    13  Al  -0.008106   0.319689   0.001639  -0.008106   0.010431   0.000917
    14  Al  -0.003886   0.000946   0.258425  -0.003886   0.000602  -0.014801
    15  Al  -0.009407   0.061886   0.053376  -0.009407   0.021227   0.009914
              13         14         15
     1  Al   0.319689   0.000946   0.061886
     2  Al   0.001639   0.258425   0.053376
     3  Al  -0.008106  -0.003886  -0.009407
     4  Al  -0.008106  -0.003886  -0.009407
     5  Al   0.000917  -0.014801   0.009914
     6  Al   0.010431   0.000602   0.021227
     7  Al  -0.008106  -0.003886  -0.009407
     8  Al   0.319689   0.000946   0.061886
     9  Al   0.001639   0.258425   0.053376
    10  Al  -0.008106  -0.003886  -0.009407
    11  Al   0.010431   0.000602   0.021227
    12  Al   0.000917  -0.014801   0.009914
    13  Al  12.198494  -0.000146  -0.020163
    14  Al  -0.000146  12.318539  -0.010244
    15  Al  -0.020163  -0.010244  12.165499
 Mulliken charges:
               1
     1  Al   0.045398
     2  Al   0.005618
     3  Al   0.001891
     4  Al   0.001891
     5  Al  -0.029777
     6  Al  -0.032853
     7  Al   0.001891
     8  Al   0.045398
     9  Al   0.005618
    10  Al   0.001891
    11  Al  -0.032853
    12  Al  -0.029777
    13  Al   0.188884
    14  Al   0.217050
    15  Al   0.609730
 Sum of Mulliken charges =   1.00000
 Mulliken charges with hydrogens summed into heavy atoms:
               1
     1  Al   0.045398
     2  Al   0.005618
     3  Al   0.001891
     4  Al   0.001891
     5  Al  -0.029777
     6  Al  -0.032853
     7  Al   0.001891
     8  Al   0.045398
     9  Al   0.005618
    10  Al   0.001891
    11  Al  -0.032853
    12  Al  -0.029777
    13  Al   0.188884
    14  Al   0.217050
    15  Al   0.609730
 Electronic spatial extent (au):  <R**2>=           5973.7372
 Charge=              1.0000 electrons
 Dipole moment (field-independent basis, Debye):
    X=              0.0000    Y=              0.0000    Z=             -0.0586  Tot=              0.0586
 Quadrupole moment (field-independent basis, Debye-Ang):
   XX=           -174.7917   YY=           -163.8296   ZZ=           -142.1658
   XY=              0.0000   XZ=              0.0000   YZ=              0.0000
 Traceless Quadrupole moment (field-independent basis, Debye-Ang):
   XX=            -14.5293   YY=             -3.5673   ZZ=             18.0966
   XY=              0.0000   XZ=              0.0000   YZ=              0.0000
 Octapole moment (field-independent basis, Debye-Ang**2):
  XXX=              0.0000  YYY=              0.0000  ZZZ=             -1.0785  XYY=              0.0000
  XXY=              0.0000  XXZ=              2.8460  XZZ=              0.0000  YZZ=              0.0000
  YYZ=             -3.0164  XYZ=              0.0000
 Hexadecapole moment (field-independent basis, Debye-Ang**3):
 XXXX=          -2714.7440 YYYY=          -2713.5157 ZZZZ=          -3827.6760 XXXY=              0.0000
 XXXZ=              0.0000 YYYX=              0.0000 YYYZ=              0.0000 ZZZX=              0.0000
 ZZZY=              0.0000 XXYY=           -883.7424 XXZZ=          -1193.3404 YYZZ=          -1225.5660
 XXYZ=              0.0000 YYXZ=              0.0000 ZZXY=              0.0000
 N-N= 2.572991795246D+03 E-N=-1.380216797474D+04  KE= 3.628974001090D+03
 Symmetry A1   KE= 1.733919254748D+03
 Symmetry A2   KE= 3.216141392488D+02
 Symmetry B1   KE= 7.857502964612D+02
 Symmetry B2   KE= 7.876903106322D+02

 Test job not archived.
 1\1\GINC-R1I1N16\SP\RCCSD(T)-FC\CC-pVTZ\Al15(1+)\VSC31064\03-Oct-2016\
 0\\# CCSD(T,conver=5)/cc-pVTZ test geom=allcheck guess=read\\Al15-c-s\
 \1,1\Al,0,0.,1.85415575,-2.10403602\Al,0,0.,1.73931426,2.11125799\Al,0
 ,1.56919792,2.26565601,0.00565466\Al,0,-1.56919792,2.26565601,0.005654
 66\Al,0,-2.28658883,0.,1.38708359\Al,0,-2.27167831,0.,-1.45927342\Al,0
 ,-1.56919792,-2.26565601,0.00565466\Al,0,0.,-1.85415575,-2.10403602\Al
 ,0,0.,-1.73931426,2.11125799\Al,0,1.56919792,-2.26565601,0.00565466\Al
 ,0,2.27167831,0.,-1.45927342\Al,0,2.28658883,0.,1.38708359\Al,0,0.,0.,
 -3.8528008\Al,0,0.,0.,4.0209782\Al,0,0.,0.,-0.0607878\\Version=ES64L-G
 09RevD.01\State=1-A1\HF=-3628.648855\MP2=-3630.1320197\MP3=-3629.79853
 06\MP4D=-3630.1497752\MP4DQ=-3630.0615078\MP4SDQ=-3630.0847033\CCSD=-3
 629.9288142\CCSD(T)=-3630.1180702\RMSD=5.955e-09\PG=C02V [C2(Al1Al1Al1
 ),SGV(Al4),SGV'(Al4),X(Al4)]\\@


 YOU CANNOT THROW TO THE GROUND THE LETTERS OF
 THE GREEK ALPHABET AND PICK UP THE ILIAD.
        - RUFUS CHOATE, 1799-1859
 Job cpu time:       3 days 23 hours 37 minutes 12.7 seconds.
 File lengths (MBytes):  RWF=  22529 Int=      0 D2E=      0 Chk=     13 Scr=      1
 Normal termination of Gaussian 09 at Mon Oct  3 11:31:55 2016.
