 Entering Gaussian System, Link 0=g09
 Initial command:
 /apps/leuven/thinking/software/G09//g09D1/l1.exe "/local_scratch/vsc31064/Gau-49456.inp" -scrdir="/local_scratch/vsc31064/"
 Entering Link 1 = /apps/leuven/thinking/software/G09//g09D1/l1.exe PID=     49460.
  
 Copyright (c) 1988,1990,1992,1993,1995,1998,2003,2009,2013,
            Gaussian, Inc.  All Rights Reserved.
  
 This is part of the Gaussian(R) 09 program.  It is based on
 the Gaussian(R) 03 system (copyright 2003, Gaussian, Inc.),
 the Gaussian(R) 98 system (copyright 1998, Gaussian, Inc.),
 the Gaussian(R) 94 system (copyright 1995, Gaussian, Inc.),
 the Gaussian 92(TM) system (copyright 1992, Gaussian, Inc.),
 the Gaussian 90(TM) system (copyright 1990, Gaussian, Inc.),
 the Gaussian 88(TM) system (copyright 1988, Gaussian, Inc.),
 the Gaussian 86(TM) system (copyright 1986, Carnegie Mellon
 University), and the Gaussian 82(TM) system (copyright 1983,
 Carnegie Mellon University). Gaussian is a federally registered
 trademark of Gaussian, Inc.
  
 This software contains proprietary and confidential information,
 including trade secrets, belonging to Gaussian, Inc.
  
 This software is provided under written license and may be
 used, copied, transmitted, or stored only in accord with that
 written license.
  
 The following legend is applicable only to US Government
 contracts under FAR:
  
                    RESTRICTED RIGHTS LEGEND
  
 Use, reproduction and disclosure by the US Government is
 subject to restrictions as set forth in subparagraphs (a)
 and (c) of the Commercial Computer Software - Restricted
 Rights clause in FAR 52.227-19.
  
 Gaussian, Inc.
 340 Quinnipiac St., Bldg. 40, Wallingford CT 06492
  
  
 ---------------------------------------------------------------
 Warning -- This program may not be used in any manner that
 competes with the business of Gaussian, Inc. or will provide
 assistance to any competitor of Gaussian, Inc.  The licensee
 of this program is prohibited from giving any competitor of
 Gaussian, Inc. access to this program.  By using this program,
 the user acknowledges that Gaussian, Inc. is engaged in the
 business of creating and licensing software in the field of
 computational chemistry and represents and warrants to the
 licensee that it is not a competitor of Gaussian, Inc. and that
 it will not use this program in any manner prohibited above.
 ---------------------------------------------------------------
  

 Cite this work as:
 Gaussian 09, Revision D.01,
 M. J. Frisch, G. W. Trucks, H. B. Schlegel, G. E. Scuseria, 
 M. A. Robb, J. R. Cheeseman, G. Scalmani, V. Barone, B. Mennucci, 
 G. A. Petersson, H. Nakatsuji, M. Caricato, X. Li, H. P. Hratchian, 
 A. F. Izmaylov, J. Bloino, G. Zheng, J. L. Sonnenberg, M. Hada, 
 M. Ehara, K. Toyota, R. Fukuda, J. Hasegawa, M. Ishida, T. Nakajima, 
 Y. Honda, O. Kitao, H. Nakai, T. Vreven, J. A. Montgomery, Jr., 
 J. E. Peralta, F. Ogliaro, M. Bearpark, J. J. Heyd, E. Brothers, 
 K. N. Kudin, V. N. Staroverov, T. Keith, R. Kobayashi, J. Normand, 
 K. Raghavachari, A. Rendell, J. C. Burant, S. S. Iyengar, J. Tomasi, 
 M. Cossi, N. Rega, J. M. Millam, M. Klene, J. E. Knox, J. B. Cross, 
 V. Bakken, C. Adamo, J. Jaramillo, R. Gomperts, R. E. Stratmann, 
 O. Yazyev, A. J. Austin, R. Cammi, C. Pomelli, J. W. Ochterski, 
 R. L. Martin, K. Morokuma, V. G. Zakrzewski, G. A. Voth, 
 P. Salvador, J. J. Dannenberg, S. Dapprich, A. D. Daniels, 
 O. Farkas, J. B. Foresman, J. V. Ortiz, J. Cioslowski, 
 and D. J. Fox, Gaussian, Inc., Wallingford CT, 2013.
 
 ******************************************
 Gaussian 09:  ES64L-G09RevD.01 24-Apr-2013
                 3-Oct-2016 
 ******************************************
 %NprocShared=20
 Will use up to   20 processors via shared memory.
 %mem=55000mb
 %chk=cc-Al16-c-d
 ------------------------
 # hf/6-31G* test scf=xqc
 ------------------------
 1/38=1/1;
 2/12=2,17=6,18=5,40=1/2;
 3/5=1,6=6,7=1,11=9,16=1,25=1,30=1/1,2,3;
 4//1;
 5/5=2,8=3,13=1,38=5/2,8;
 6/7=2,8=2,9=2,10=2,28=1/1;
 99/5=1,9=1/99;
 --------
 Al16-c-d
 --------
 Symbolic Z-matrix:
 Charge =  1 Multiplicity = 2
 Al                   -1.34885  -2.13604   0. 
 Al                   -1.83742   0.23279   1.58266 
 Al                    1.35391  -2.56708   0. 
 Al                   -0.87291   2.3224    0. 
 Al                    0.51656   1.3548    2.26774 
 Al                    0.0296   -1.50933  -2.29692 
 Al                    0.0296   -1.50933   2.29692 
 Al                   -1.83742   0.23279  -1.58266 
 Al                    2.45736  -0.60438  -1.8992 
 Al                    1.79285   2.40957   0. 
 Al                    0.51656   1.3548   -2.26774 
 Al                    2.45736  -0.60438   1.8992 
 Al                   -3.83994  -1.08034   0. 
 Al                    3.6968    0.61571   0. 
 Al                   -3.6571    1.52706   0. 
 Al                    0.54298  -0.03867   0. 
 
                          Input orientation:                          
 ---------------------------------------------------------------------
 Center     Atomic      Atomic             Coordinates (Angstroms)
 Number     Number       Type             X           Y           Z
 ---------------------------------------------------------------------
      1         13           0       -1.348849   -2.136043    0.000000
      2         13           0       -1.837418    0.232786    1.582664
      3         13           0        1.353910   -2.567077    0.000000
      4         13           0       -0.872914    2.322402    0.000000
      5         13           0        0.516563    1.354799    2.267744
      6         13           0        0.029598   -1.509333   -2.296922
      7         13           0        0.029598   -1.509333    2.296922
      8         13           0       -1.837418    0.232786   -1.582664
      9         13           0        2.457358   -0.604382   -1.899200
     10         13           0        1.792850    2.409569    0.000000
     11         13           0        0.516563    1.354799   -2.267744
     12         13           0        2.457358   -0.604382    1.899200
     13         13           0       -3.839940   -1.080344    0.000000
     14         13           0        3.696797    0.615712    0.000000
     15         13           0       -3.657099    1.527065    0.000000
     16         13           0        0.542979   -0.038665    0.000000
 ---------------------------------------------------------------------
                    Distance matrix (angstroms):
                    1          2          3          4          5
     1  Al   0.000000
     2  Al   2.890481   0.000000
     3  Al   2.736914   4.530854   0.000000
     4  Al   4.483776   2.793132   5.372686   0.000000
     5  Al   4.561623   2.696197   4.607052   2.830117   0.000000
     6  Al   2.751133   4.644558   2.854554   4.557693   5.410782
     7  Al   2.751133   2.651583   2.854554   4.557693   2.905381
     8  Al   2.890481   3.165328   4.530854   2.793132   4.650353
     9  Al   4.521079   5.591899   2.945629   4.823249   4.996849
    10  Al   5.525655   4.519077   4.995966   2.667189   2.807865
    11  Al   4.561623   4.650353   4.607052   2.830117   4.535487
    12  Al   4.521079   4.387043   2.945629   4.823249   2.782247
    13  Al   2.705556   2.870406   5.402449   4.514634   5.481944
    14  Al   5.747234   5.768795   3.952122   4.878017   3.975273
    15  Al   4.329709   2.737010   6.470874   2.895556   4.753082
    16  Al   2.824537   2.871377   2.655273   2.753069   2.661786
                    6          7          8          9         10
     6  Al   0.000000
     7  Al   4.593844   0.000000
     8  Al   2.651583   4.644558   0.000000
     9  Al   2.621285   4.931571   4.387043   0.000000
    10  Al   4.872648   4.872648   4.519077   3.623870   0.000000
    11  Al   2.905381   5.410782   2.696197   2.782247   2.807865
    12  Al   4.931571   2.621285   5.591899   3.798401   3.623870
    13  Al   4.520310   4.520310   2.870406   6.594654   6.626297
    14  Al   4.820790   4.820790   5.768795   2.575228   2.615901
    15  Al   5.299745   5.299745   2.737010   6.748082   5.520938
    16  Al   2.775297   2.775297   2.871377   2.755330   2.748823
                   11         12         13         14         15
    11  Al   0.000000
    12  Al   4.996849   0.000000
    13  Al   5.481944   6.594654   0.000000
    14  Al   3.975273   2.575228   7.725219   0.000000
    15  Al   4.753082   6.748082   2.613812   7.410152   0.000000
    16  Al   2.661786   2.755330   4.505005   3.220990   4.482429
                   16
    16  Al   0.000000
 Stoichiometry    Al16(1+,2)
 Framework group  CS[SG(Al8),X(Al8)]
 Deg. of freedom    25
 Full point group                 CS      NOp   2
 Largest Abelian subgroup         CS      NOp   2
 Largest concise Abelian subgroup CS      NOp   2
                         Standard orientation:                         
 ---------------------------------------------------------------------
 Center     Atomic      Atomic             Coordinates (Angstroms)
 Number     Number       Type             X           Y           Z
 ---------------------------------------------------------------------
      1         13           0        1.530418   -2.009970    0.000000
      2         13           0       -0.859868   -1.640395    1.582664
      3         13           0        2.878313    0.372020    0.000000
      4         13           0       -2.481002   -0.006784    0.000000
      5         13           0       -1.089029    0.957224    2.267744
      6         13           0        1.424635   -0.499443   -2.296922
      7         13           0        1.424635   -0.499443    2.296922
      8         13           0       -0.859868   -1.640395   -1.582664
      9         13           0        1.424635    2.091493   -1.899200
     10         13           0       -1.631593    2.521536    0.000000
     11         13           0       -1.089029    0.957224   -2.267744
     12         13           0        1.424635    2.091493    1.899200
     13         13           0       -0.328870   -3.975443    0.000000
     14         13           0        0.714289    3.679022    0.000000
     15         13           0       -2.708203   -2.893413    0.000000
     16         13           0        0.225902    0.495273    0.000000
 ---------------------------------------------------------------------
 Rotational constants (GHZ):      0.2740048      0.1833903      0.1794593
 Standard basis: 6-31G(d) (6D, 7F)
 There are   188 symmetry adapted cartesian basis functions of A'  symmetry.
 There are   116 symmetry adapted cartesian basis functions of A"  symmetry.
 There are   188 symmetry adapted basis functions of A'  symmetry.
 There are   116 symmetry adapted basis functions of A"  symmetry.
   304 basis functions,   832 primitive gaussians,   304 cartesian basis functions
   104 alpha electrons      103 beta electrons
       nuclear repulsion energy      2888.0866191169 Hartrees.
 NAtoms=   16 NActive=   16 NUniq=   12 SFac= 1.78D+00 NAtFMM=   60 NAOKFM=F Big=F
 Integral buffers will be    131072 words long.
 Raffenetti 2 integral format.
 Two-electron integral symmetry is turned on.
 One-electron integrals computed using PRISM.
 NBasis=   304 RedAO= T EigKep=  5.54D-04  NBF=   188   116
 NBsUse=   304 1.00D-06 EigRej= -1.00D+00 NBFU=   188   116
 ExpMin= 5.57D-02 ExpMax= 1.40D+04 ExpMxC= 2.10D+03 IAcc=2 IRadAn=         4 AccDes= 0.00D+00
 Harris functional with IExCor=  205 and IRadAn=       4 diagonalized for initial guess.
 HarFok:  IExCor=  205 AccDes= 0.00D+00 IRadAn=         4 IDoV= 1 UseB2=F ITyADJ=14
 ICtDFT=  3500011 ScaDFX=  1.000000  1.000000  1.000000  1.000000
 FoFCou: FMM=F IPFlag=           0 FMFlag=      100000 FMFlg1=           0
         NFxFlg=           0 DoJE=T BraDBF=F KetDBF=T FulRan=T
         wScrn=  0.000000 ICntrl=     500 IOpCl=  0 I1Cent=   200000004 NGrid=           0
         NMat0=    1 NMatS0=      1 NMatT0=    0 NMatD0=    1 NMtDS0=    0 NMtDT0=    0
 Petite list used in FoFCou.
 Initial guess orbital symmetries:
 Alpha Orbitals:
       Occupied  (A') (A') (A") (A') (A') (A") (A') (A") (A') (A")
                 (A') (A') (A') (A') (A') (A') (A') (A") (A') (A')
                 (A') (A") (A') (A") (A') (A") (A') (A') (A') (A')
                 (A') (A') (A') (A") (A') (A') (A") (A') (A") (A')
                 (A") (A') (A') (A") (A') (A') (A") (A') (A") (A")
                 (A') (A') (A") (A") (A') (A") (A') (A') (A') (A")
                 (A') (A") (A') (A") (A') (A') (A") (A") (A') (A')
                 (A") (A") (A') (A') (A') (A') (A') (A') (A") (A")
                 (A') (A') (A") (A') (A') (A') (A") (A') (A") (A')
                 (A') (A') (A") (A') (A') (A") (A") (A') (A') (A")
                 (A') (A') (A") (A')
       Virtual   (A') (A') (A") (A') (A") (A') (A") (A') (A") (A')
                 (A') (A") (A') (A") (A') (A') (A") (A') (A") (A')
                 (A') (A") (A') (A') (A") (A') (A") (A') (A") (A')
                 (A") (A') (A') (A") (A') (A') (A") (A') (A") (A')
                 (A') (A") (A') (A") (A') (A") (A") (A') (A") (A')
                 (A') (A") (A') (A') (A") (A') (A') (A') (A") (A')
                 (A') (A") (A') (A") (A') (A') (A") (A') (A") (A")
                 (A') (A') (A") (A") (A') (A') (A") (A') (A') (A")
                 (A') (A") (A') (A') (A') (A") (A') (A") (A') (A")
                 (A") (A') (A') (A') (A") (A") (A') (A') (A") (A')
                 (A") (A') (A") (A") (A') (A') (A") (A') (A") (A")
                 (A') (A') (A') (A") (A') (A') (A") (A') (A') (A")
                 (A') (A") (A") (A') (A') (A") (A') (A") (A') (A')
                 (A') (A") (A') (A") (A') (A") (A") (A') (A') (A')
                 (A') (A") (A') (A") (A') (A') (A") (A') (A') (A")
                 (A") (A') (A') (A') (A') (A") (A") (A") (A') (A")
                 (A') (A") (A') (A") (A') (A') (A") (A') (A") (A')
                 (A") (A') (A') (A") (A') (A") (A') (A") (A') (A')
                 (A') (A') (A") (A') (A') (A') (A') (A") (A') (A')
                 (A") (A') (A") (A') (A') (A') (A") (A') (A') (A')
 Beta  Orbitals:
       Occupied  (A') (A') (A") (A') (A') (A") (A') (A") (A') (A")
                 (A') (A') (A') (A') (A') (A') (A') (A") (A') (A')
                 (A') (A") (A') (A") (A') (A") (A') (A') (A') (A')
                 (A') (A') (A') (A") (A') (A') (A") (A') (A") (A')
                 (A") (A') (A') (A") (A') (A') (A") (A') (A") (A")
                 (A') (A') (A") (A") (A') (A") (A') (A') (A') (A")
                 (A') (A") (A') (A") (A') (A') (A") (A") (A') (A')
                 (A") (A") (A') (A') (A') (A') (A') (A') (A") (A")
                 (A') (A') (A") (A') (A') (A') (A") (A') (A") (A')
                 (A') (A') (A") (A') (A') (A") (A") (A') (A') (A")
                 (A') (A') (A")
       Virtual   (A') (A') (A') (A") (A') (A") (A') (A") (A') (A")
                 (A') (A') (A") (A') (A") (A') (A') (A") (A') (A")
                 (A') (A') (A") (A') (A') (A") (A') (A") (A') (A")
                 (A') (A") (A') (A') (A") (A') (A') (A") (A') (A")
                 (A') (A') (A") (A') (A") (A') (A") (A") (A') (A")
                 (A') (A') (A") (A') (A') (A") (A') (A') (A') (A")
                 (A') (A') (A") (A') (A") (A') (A') (A") (A') (A")
                 (A") (A') (A') (A") (A") (A') (A') (A") (A') (A')
                 (A") (A') (A") (A') (A') (A') (A") (A') (A") (A')
                 (A") (A") (A') (A') (A') (A") (A") (A') (A') (A")
                 (A') (A") (A') (A") (A") (A') (A') (A") (A') (A")
                 (A") (A') (A') (A') (A") (A') (A') (A") (A') (A')
                 (A") (A') (A") (A") (A') (A') (A") (A') (A") (A')
                 (A') (A') (A") (A') (A") (A') (A") (A") (A') (A')
                 (A') (A') (A") (A') (A") (A') (A') (A") (A') (A')
                 (A") (A") (A') (A') (A') (A') (A") (A") (A") (A')
                 (A") (A') (A") (A') (A") (A') (A') (A") (A') (A")
                 (A') (A") (A') (A') (A") (A') (A") (A') (A") (A')
                 (A') (A') (A') (A") (A') (A') (A') (A') (A") (A')
                 (A') (A") (A') (A") (A') (A') (A') (A") (A') (A')
                 (A')
 The electronic state of the initial guess is 2-A'.
 Initial guess <Sx>= 0.0000 <Sy>= 0.0000 <Sz>= 0.5000 <S**2>= 0.7500 S= 0.5000
 Keep R1 and R2 ints in memory in symmetry-blocked form, NReq=1618041854.
 Requested convergence on RMS density matrix=1.00D-08 within  64 cycles.
 Requested convergence on MAX density matrix=1.00D-06.
 Requested convergence on             energy=1.00D-06.
 No special actions if energy rises.
 Rare condition: small coef for last iteration:  0.000D+00
 Rare condition: small coef for last iteration:  0.000D+00
 Rare condition: small coef for last iteration:  0.000D+00
 >>>>>>>>>> Convergence criterion not met.
 SCF Done:  E(UHF) =  -3870.25915818     A.U. after   65 cycles
            NFock= 64  Conv=0.29D-06     -V/T= 2.0002
 <Sx>= 0.0000 <Sy>= 0.0000 <Sz>= 0.5000 <S**2>= 1.1728 S= 0.6928
 <L.S>= 0.000000000000E+00
 Annihilation of the first spin contaminant:
 S**2 before annihilation     1.1728,   after     0.8503
 Keep R1 and R2 ints in memory in symmetry-blocked form, NReq=1618585670.
 LinEq1:  Iter=  0 NonCon=     1 RMS=9.62D-08 Max=5.81D-06 NDo=     1
 AX will form     1 AO Fock derivatives at one time.
 LinEq1:  Iter=  1 NonCon=     1 RMS=2.41D-08 Max=8.94D-07 NDo=     1
 LinEq1:  Iter=  2 NonCon=     1 RMS=1.48D-08 Max=4.47D-07 NDo=     1
 LinEq1:  Iter=  3 NonCon=     1 RMS=1.00D-08 Max=4.79D-07 NDo=     1
 LinEq1:  Iter=  4 NonCon=     1 RMS=6.75D-09 Max=1.98D-07 NDo=     1
 LinEq1:  Iter=  5 NonCon=     1 RMS=5.20D-09 Max=2.31D-07 NDo=     1
 LinEq1:  Iter=  6 NonCon=     1 RMS=4.46D-09 Max=1.68D-07 NDo=     1
 LinEq1:  Iter=  7 NonCon=     1 RMS=3.16D-09 Max=1.25D-07 NDo=     1
 LinEq1:  Iter=  8 NonCon=     1 RMS=1.51D-09 Max=8.22D-08 NDo=     1
 LinEq1:  Iter=  9 NonCon=     1 RMS=5.73D-10 Max=2.41D-08 NDo=     1
 LinEq1:  Iter= 10 NonCon=     1 RMS=3.25D-10 Max=1.75D-08 NDo=     1
 LinEq1:  Iter= 11 NonCon=     1 RMS=1.18D-10 Max=6.04D-09 NDo=     1
 LinEq1:  Iter= 12 NonCon=     1 RMS=5.14D-11 Max=2.20D-09 NDo=     1
 LinEq1:  Iter= 13 NonCon=     1 RMS=2.10D-11 Max=7.35D-10 NDo=     1
 LinEq1:  Iter= 14 NonCon=     0 RMS=8.42D-12 Max=2.58D-10 NDo=     1
 Linear equations converged to 6.601D-11 6.601D-10 after    14 iterations.
 SCF Done:  E(UHF) =  -3870.25915818     a.u. after    2 cycles
            Convg  =    0.2014D-05                    16 Fock formations.
              S**2 =  1.1728                  -V/T =  2.0002
 <Sx>= 0.0000 <Sy>= 0.0000 <Sz>= 0.5000 <S**2>= 1.1728 S= 0.6928
 <L.S>= 0.000000000000E+00
 Annihilation of the first spin contaminant:
 S**2 before annihilation     1.1728,   after     0.8502

 **********************************************************************

            Population analysis using the SCF density.

 **********************************************************************

 Orbital symmetries:
 Alpha Orbitals:
       Occupied  (A') (A') (A') (A') (A') (A") (A') (A') (A") (A')
                 (A") (A') (A') (A") (A') (A') (A') (A') (A') (A')
                 (A') (A') (A") (A') (A") (A') (A") (A') (A') (A")
                 (A') (A') (A') (A') (A') (A") (A') (A') (A') (A")
                 (A") (A') (A') (A") (A') (A') (A") (A') (A") (A")
                 (A") (A') (A') (A') (A") (A') (A') (A") (A') (A")
                 (A') (A") (A') (A") (A') (A") (A') (A") (A') (A")
                 (A') (A") (A') (A") (A') (A") (A') (A') (A") (A')
                 (A') (A') (A') (A") (A') (A') (A") (A') (A") (A')
                 (A') (A') (A") (A') (A') (A") (A') (A") (A') (A")
                 (A') (A') (A") (A')
       Virtual   (A') (A') (A") (A') (A") (A') (A") (A') (A") (A')
                 (A') (A") (A') (A") (A') (A") (A') (A') (A") (A')
                 (A') (A") (A') (A') (A") (A') (A") (A') (A') (A')
                 (A") (A") (A') (A') (A") (A') (A") (A') (A") (A')
                 (A') (A") (A') (A') (A") (A") (A") (A') (A') (A')
                 (A") (A') (A") (A') (A') (A') (A") (A') (A') (A")
                 (A") (A') (A') (A") (A") (A') (A') (A') (A") (A")
                 (A') (A") (A") (A') (A') (A") (A') (A') (A') (A")
                 (A") (A') (A') (A') (A") (A") (A') (A") (A') (A')
                 (A") (A') (A') (A') (A') (A") (A") (A') (A") (A')
                 (A') (A") (A") (A') (A") (A') (A') (A") (A') (A")
                 (A') (A') (A") (A') (A') (A") (A') (A") (A') (A")
                 (A') (A") (A') (A") (A') (A") (A') (A') (A") (A')
                 (A') (A') (A") (A") (A') (A") (A') (A") (A') (A')
                 (A') (A') (A") (A") (A') (A") (A') (A') (A') (A")
                 (A") (A') (A') (A') (A') (A") (A') (A") (A") (A")
                 (A') (A") (A') (A") (A') (A') (A") (A') (A") (A')
                 (A') (A") (A') (A') (A") (A') (A") (A') (A") (A')
                 (A') (A') (A") (A') (A') (A') (A') (A") (A') (A')
                 (A") (A") (A') (A') (A') (A') (A") (A') (A') (A')
 Beta  Orbitals:
       Occupied  (A') (A') (A') (A') (A") (A') (A') (A') (A") (A')
                 (A") (A') (A') (A") (A') (A') (A') (A') (A') (A')
                 (A") (A') (A') (A') (A") (A') (A") (A') (A') (A")
                 (A') (A') (A') (A') (A") (A') (A') (A") (A') (A')
                 (A") (A") (A") (A') (A') (A") (A') (A") (A") (A')
                 (A') (A") (A') (A') (A') (A") (A') (A") (A') (A')
                 (A") (A') (A') (A") (A') (A") (A") (A') (A') (A")
                 (A') (A") (A') (A") (A') (A") (A') (A") (A') (A')
                 (A') (A') (A") (A') (A') (A') (A") (A') (A") (A')
                 (A') (A') (A") (A') (A') (A") (A") (A') (A") (A')
                 (A') (A') (A")
       Virtual   (A') (A') (A") (A') (A') (A") (A") (A') (A') (A")
                 (A') (A') (A") (A') (A") (A') (A') (A") (A') (A")
                 (A') (A") (A') (A') (A') (A") (A') (A") (A') (A')
                 (A") (A') (A") (A') (A') (A") (A') (A") (A') (A")
                 (A') (A') (A") (A') (A') (A") (A") (A") (A') (A')
                 (A") (A') (A') (A") (A') (A') (A') (A") (A') (A')
                 (A") (A") (A') (A') (A") (A") (A') (A') (A') (A")
                 (A") (A') (A") (A") (A') (A') (A") (A') (A') (A')
                 (A") (A') (A") (A') (A') (A") (A") (A') (A") (A')
                 (A") (A') (A') (A') (A') (A") (A') (A") (A') (A')
                 (A") (A') (A") (A") (A') (A") (A') (A") (A') (A')
                 (A") (A') (A') (A") (A') (A") (A') (A") (A') (A')
                 (A") (A') (A") (A') (A") (A') (A") (A') (A') (A")
                 (A') (A') (A') (A") (A") (A') (A") (A') (A") (A')
                 (A') (A') (A") (A') (A") (A') (A") (A') (A') (A')
                 (A") (A") (A') (A') (A') (A') (A") (A") (A') (A")
                 (A") (A') (A") (A') (A") (A') (A') (A") (A') (A")
                 (A') (A') (A") (A') (A') (A") (A") (A') (A') (A")
                 (A') (A') (A') (A") (A') (A') (A') (A') (A") (A')
                 (A') (A") (A') (A") (A') (A') (A') (A") (A') (A')
                 (A')
 The electronic state is 2-A'.
 Alpha  occ. eigenvalues --  -58.60531 -58.60265 -58.60222 -58.60138 -58.59875
 Alpha  occ. eigenvalues --  -58.59857 -58.59857 -58.59705 -58.59390 -58.59390
 Alpha  occ. eigenvalues --  -58.59039 -58.59039 -58.58876 -58.58876 -58.58675
 Alpha  occ. eigenvalues --  -58.54600  -5.02266  -5.02263  -5.02201  -5.02053
 Alpha  occ. eigenvalues --   -5.01778  -5.01751  -5.01750  -5.01570  -5.01362
 Alpha  occ. eigenvalues --   -5.01362  -5.01018  -5.01018  -5.01000  -5.00999
 Alpha  occ. eigenvalues --   -5.00595  -4.97655  -3.33557  -3.33505  -3.33450
 Alpha  occ. eigenvalues --   -3.33369  -3.33314  -3.33279  -3.33252  -3.33244
 Alpha  occ. eigenvalues --   -3.33195  -3.33172  -3.33157  -3.33096  -3.33015
 Alpha  occ. eigenvalues --   -3.32984  -3.32984  -3.32905  -3.32905  -3.32885
 Alpha  occ. eigenvalues --   -3.32877  -3.32841  -3.32793  -3.32779  -3.32778
 Alpha  occ. eigenvalues --   -3.32670  -3.32565  -3.32564  -3.32502  -3.32502
 Alpha  occ. eigenvalues --   -3.32412  -3.32411  -3.32283  -3.32279  -3.32227
 Alpha  occ. eigenvalues --   -3.32225  -3.32209  -3.32208  -3.32153  -3.32150
 Alpha  occ. eigenvalues --   -3.32072  -3.32072  -3.32026  -3.32025  -3.31659
 Alpha  occ. eigenvalues --   -3.31571  -3.31449  -3.29077  -3.29007  -3.28969
 Alpha  occ. eigenvalues --   -0.85300  -0.75072  -0.73261  -0.73234  -0.65480
 Alpha  occ. eigenvalues --   -0.60241  -0.58724  -0.57942  -0.56204  -0.53699
 Alpha  occ. eigenvalues --   -0.51475  -0.48789  -0.45186  -0.43002  -0.40155
 Alpha  occ. eigenvalues --   -0.38900  -0.38571  -0.37749  -0.37003  -0.36848
 Alpha  occ. eigenvalues --   -0.36599  -0.35675  -0.35043  -0.34812
 Alpha virt. eigenvalues --   -0.13726  -0.13629  -0.13176  -0.12698  -0.11735
 Alpha virt. eigenvalues --   -0.10782  -0.10583  -0.09812  -0.06919  -0.06827
 Alpha virt. eigenvalues --   -0.05813  -0.05573  -0.05438  -0.04427  -0.04237
 Alpha virt. eigenvalues --   -0.02627  -0.02553  -0.01071   0.00256   0.00597
 Alpha virt. eigenvalues --    0.00671   0.01209   0.02127   0.03102   0.03362
 Alpha virt. eigenvalues --    0.03744   0.04554   0.04788   0.05119   0.05744
 Alpha virt. eigenvalues --    0.05751   0.06209   0.06691   0.07770   0.08543
 Alpha virt. eigenvalues --    0.08690   0.09613   0.09844   0.11423   0.12269
 Alpha virt. eigenvalues --    0.12544   0.13471   0.13725   0.14396   0.14600
 Alpha virt. eigenvalues --    0.15187   0.15393   0.16180   0.17065   0.17129
 Alpha virt. eigenvalues --    0.17384   0.18798   0.19276   0.19676   0.20070
 Alpha virt. eigenvalues --    0.20453   0.20894   0.21892   0.22439   0.22451
 Alpha virt. eigenvalues --    0.22905   0.24090   0.24869   0.25132   0.26072
 Alpha virt. eigenvalues --    0.26442   0.26838   0.27628   0.27768   0.28676
 Alpha virt. eigenvalues --    0.28871   0.29538   0.30486   0.30856   0.31249
 Alpha virt. eigenvalues --    0.32032   0.32424   0.32623   0.33631   0.34384
 Alpha virt. eigenvalues --    0.34766   0.34774   0.35979   0.36575   0.37589
 Alpha virt. eigenvalues --    0.37877   0.38200   0.38803   0.38836   0.39010
 Alpha virt. eigenvalues --    0.39906   0.40080   0.40708   0.41621   0.43892
 Alpha virt. eigenvalues --    0.44609   0.45577   0.45951   0.46298   0.46678
 Alpha virt. eigenvalues --    0.47229   0.48887   0.49134   0.49601   0.50345
 Alpha virt. eigenvalues --    0.51816   0.52851   0.53115   0.53767   0.54785
 Alpha virt. eigenvalues --    0.54820   0.55008   0.55241   0.56435   0.57378
 Alpha virt. eigenvalues --    0.57564   0.57954   0.58444   0.59459   0.60083
 Alpha virt. eigenvalues --    0.60448   0.60794   0.60830   0.62263   0.62999
 Alpha virt. eigenvalues --    0.65618   0.65849   0.66558   0.67328   0.67593
 Alpha virt. eigenvalues --    0.68037   0.69353   0.69837   0.70003   0.71229
 Alpha virt. eigenvalues --    0.71263   0.71968   0.73364   0.73637   0.74591
 Alpha virt. eigenvalues --    0.74928   0.75633   0.75639   0.77030   0.77471
 Alpha virt. eigenvalues --    0.77979   0.78341   0.78634   0.79735   0.79846
 Alpha virt. eigenvalues --    0.80901   0.81470   0.81637   0.83408   0.84310
 Alpha virt. eigenvalues --    0.84504   0.85684   0.85708   0.86182   0.87977
 Alpha virt. eigenvalues --    0.88108   0.89300   0.89513   0.91128   0.92206
 Alpha virt. eigenvalues --    0.93847   0.95148   0.95348   0.96780   0.97578
 Alpha virt. eigenvalues --    0.98193   0.98336   0.98669   1.00397   1.01254
 Alpha virt. eigenvalues --    1.01515   1.01717   1.01902   1.02133   1.04202
 Alpha virt. eigenvalues --    1.31912   1.52251   1.57499   1.72659   2.16890
 Alpha virt. eigenvalues --    2.19602   2.22898   2.23693   2.23958   2.25034
 Alpha virt. eigenvalues --    2.26136   2.26533   2.26590   2.26959   2.28156
 Alpha virt. eigenvalues --    2.32477   2.33591   2.33881   2.35067   2.97422
  Beta  occ. eigenvalues --  -58.60602 -58.60099 -58.59928 -58.59889 -58.59879
  Beta  occ. eigenvalues --  -58.59878 -58.59855 -58.59794 -58.59419 -58.59419
  Beta  occ. eigenvalues --  -58.59027 -58.59027 -58.58853 -58.58852 -58.58646
  Beta  occ. eigenvalues --  -58.54564  -5.02398  -5.01990  -5.01922  -5.01786
  Beta  occ. eigenvalues --   -5.01785  -5.01659  -5.01622  -5.01467  -5.01409
  Beta  occ. eigenvalues --   -5.01409  -5.00995  -5.00995  -5.00980  -5.00979
  Beta  occ. eigenvalues --   -5.00541  -4.97610  -3.33663  -3.33478  -3.33437
  Beta  occ. eigenvalues --   -3.33308  -3.33257  -3.33210  -3.33046  -3.33007
  Beta  occ. eigenvalues --   -3.33006  -3.32988  -3.32975  -3.32975  -3.32970
  Beta  occ. eigenvalues --   -3.32896  -3.32843  -3.32834  -3.32831  -3.32820
  Beta  occ. eigenvalues --   -3.32819  -3.32812  -3.32812  -3.32666  -3.32654
  Beta  occ. eigenvalues --   -3.32653  -3.32606  -3.32512  -3.32512  -3.32478
  Beta  occ. eigenvalues --   -3.32478  -3.32438  -3.32235  -3.32228  -3.32167
  Beta  occ. eigenvalues --   -3.32166  -3.32148  -3.32148  -3.32071  -3.32071
  Beta  occ. eigenvalues --   -3.32051  -3.32051  -3.32028  -3.32028  -3.31577
  Beta  occ. eigenvalues --   -3.31568  -3.31387  -3.28977  -3.28962  -3.28852
  Beta  occ. eigenvalues --   -0.85031  -0.74345  -0.73396  -0.72987  -0.64997
  Beta  occ. eigenvalues --   -0.59012  -0.58781  -0.57172  -0.56325  -0.53279
  Beta  occ. eigenvalues --   -0.51664  -0.46035  -0.44908  -0.40010  -0.38998
  Beta  occ. eigenvalues --   -0.38973  -0.37768  -0.37099  -0.36827  -0.36733
  Beta  occ. eigenvalues --   -0.35989  -0.35105  -0.35014
  Beta virt. eigenvalues --   -0.14108  -0.13125  -0.13084  -0.12671  -0.12181
  Beta virt. eigenvalues --   -0.11303  -0.10571  -0.10193  -0.09977  -0.06832
  Beta virt. eigenvalues --   -0.06399  -0.05321  -0.05299  -0.04715  -0.04325
  Beta virt. eigenvalues --   -0.03391  -0.01879  -0.01720  -0.00466   0.00375
  Beta virt. eigenvalues --    0.00889   0.01388   0.01548   0.02600   0.03785
  Beta virt. eigenvalues --    0.04143   0.04267   0.04673   0.05073   0.05368
  Beta virt. eigenvalues --    0.05793   0.06191   0.06842   0.07518   0.08098
  Beta virt. eigenvalues --    0.08448   0.09182   0.09649   0.10185   0.11546
  Beta virt. eigenvalues --    0.12996   0.13219   0.13525   0.14494   0.14696
  Beta virt. eigenvalues --    0.14715   0.15360   0.15588   0.16736   0.17207
  Beta virt. eigenvalues --    0.17323   0.17387   0.19114   0.19208   0.19661
  Beta virt. eigenvalues --    0.20330   0.20843   0.21034   0.22194   0.22547
  Beta virt. eigenvalues --    0.22549   0.23182   0.24030   0.25016   0.25125
  Beta virt. eigenvalues --    0.26560   0.26781   0.27652   0.27919   0.27959
  Beta virt. eigenvalues --    0.28687   0.29004   0.30070   0.30595   0.31670
  Beta virt. eigenvalues --    0.32113   0.32272   0.32702   0.33366   0.33829
  Beta virt. eigenvalues --    0.34682   0.34863   0.34867   0.36185   0.36834
  Beta virt. eigenvalues --    0.37801   0.38098   0.38383   0.38819   0.39205
  Beta virt. eigenvalues --    0.39719   0.39907   0.40346   0.40711   0.41625
  Beta virt. eigenvalues --    0.44629   0.44638   0.45727   0.46016   0.46855
  Beta virt. eigenvalues --    0.46895   0.48210   0.49130   0.49575   0.50328
  Beta virt. eigenvalues --    0.50710   0.52335   0.53199   0.53318   0.54044
  Beta virt. eigenvalues --    0.54726   0.55085   0.55295   0.55753   0.56878
  Beta virt. eigenvalues --    0.57578   0.57960   0.58377   0.58625   0.59644
  Beta virt. eigenvalues --    0.60298   0.60462   0.61065   0.61189   0.62338
  Beta virt. eigenvalues --    0.63632   0.65896   0.65913   0.66605   0.67490
  Beta virt. eigenvalues --    0.67669   0.68179   0.69545   0.70119   0.70462
  Beta virt. eigenvalues --    0.71683   0.71799   0.72489   0.73545   0.73881
  Beta virt. eigenvalues --    0.74851   0.74877   0.75736   0.75928   0.77066
  Beta virt. eigenvalues --    0.77765   0.78194   0.78386   0.78939   0.79776
  Beta virt. eigenvalues --    0.79989   0.80889   0.81574   0.81930   0.83625
  Beta virt. eigenvalues --    0.84509   0.84704   0.85669   0.85751   0.86186
  Beta virt. eigenvalues --    0.88000   0.88149   0.89455   0.89973   0.91333
  Beta virt. eigenvalues --    0.92361   0.94067   0.95145   0.95522   0.96824
  Beta virt. eigenvalues --    0.97807   0.98306   0.98420   0.98694   1.00383
  Beta virt. eigenvalues --    1.01341   1.01898   1.01915   1.02072   1.02100
  Beta virt. eigenvalues --    1.04250   1.31987   1.52292   1.57503   1.72697
  Beta virt. eigenvalues --    2.17447   2.19460   2.23078   2.23735   2.24494
  Beta virt. eigenvalues --    2.25090   2.26089   2.26459   2.26532   2.27027
  Beta virt. eigenvalues --    2.28692   2.32473   2.33581   2.33893   2.35245
  Beta virt. eigenvalues --    2.97491
          Condensed to atoms (all electrons):
               1          2          3          4          5          6
     1  Al  13.698627   0.011540  -0.002860  -0.003922   0.032083   0.063219
     2  Al   0.011540  14.198537   0.040090  -0.231821   0.097478  -0.042583
     3  Al  -0.002860   0.040090  13.452509  -0.023130  -0.010582   0.027894
     4  Al  -0.003922  -0.231821  -0.023130  13.854753   0.011533   0.059038
     5  Al   0.032083   0.097478  -0.010582   0.011533  13.768790  -0.068460
     6  Al   0.063219  -0.042583   0.027894   0.059038  -0.068460  13.418954
     7  Al   0.063219   0.105115   0.027894   0.059038  -0.053264   0.066111
     8  Al   0.011540   0.130094   0.040090  -0.231821   0.020573   0.105115
     9  Al  -0.047648  -0.007074   0.045064  -0.030521  -0.006307   0.345807
    10  Al  -0.016724  -0.012956  -0.002390   0.295284   0.120323  -0.017439
    11  Al   0.032083   0.020573  -0.010582   0.011533   0.015620  -0.053264
    12  Al  -0.047648  -0.095349   0.045064  -0.030521   0.180683  -0.023212
    13  Al   0.117255  -0.367405   0.027251   0.035423   0.025317  -0.006648
    14  Al  -0.005682  -0.011434  -0.060628   0.028310  -0.053791   0.025773
    15  Al  -0.077700  -0.003189  -0.008657   0.033652  -0.009848   0.029375
    16  Al  -0.811647  -0.761457  -0.753345  -0.801701  -1.150815  -0.998469
               7          8          9         10         11         12
     1  Al   0.063219   0.011540  -0.047648  -0.016724   0.032083  -0.047648
     2  Al   0.105115   0.130094  -0.007074  -0.012956   0.020573  -0.095349
     3  Al   0.027894   0.040090   0.045064  -0.002390  -0.010582   0.045064
     4  Al   0.059038  -0.231821  -0.030521   0.295284   0.011533  -0.030521
     5  Al  -0.053264   0.020573  -0.006307   0.120323   0.015620   0.180683
     6  Al   0.066111   0.105115   0.345807  -0.017439  -0.053264  -0.023212
     7  Al  13.418954  -0.042583  -0.023212  -0.017439  -0.068460   0.345807
     8  Al  -0.042583  14.198537  -0.095349  -0.012956   0.097478  -0.007074
     9  Al  -0.023212  -0.095349  12.957095   0.001832   0.180683   0.004696
    10  Al  -0.017439  -0.012956   0.001832  12.963148   0.120323   0.001832
    11  Al  -0.068460   0.097478   0.180683   0.120323  13.768790  -0.006307
    12  Al   0.345807  -0.007074   0.004696   0.001832  -0.006307  12.957095
    13  Al  -0.006648  -0.367405  -0.006428  -0.010201   0.025317  -0.006428
    14  Al   0.025773  -0.011434   0.229505   0.199829  -0.053791   0.229505
    15  Al   0.029375  -0.003189  -0.003029   0.015918  -0.009848  -0.003029
    16  Al  -0.998469  -0.761457  -0.691689  -0.768576  -1.150815  -0.691689
              13         14         15         16
     1  Al   0.117255  -0.005682  -0.077700  -0.811647
     2  Al  -0.367405  -0.011434  -0.003189  -0.761457
     3  Al   0.027251  -0.060628  -0.008657  -0.753345
     4  Al   0.035423   0.028310   0.033652  -0.801701
     5  Al   0.025317  -0.053791  -0.009848  -1.150815
     6  Al  -0.006648   0.025773   0.029375  -0.998469
     7  Al  -0.006648   0.025773   0.029375  -0.998469
     8  Al  -0.367405  -0.011434  -0.003189  -0.761457
     9  Al  -0.006428   0.229505  -0.003029  -0.691689
    10  Al  -0.010201   0.199829   0.015918  -0.768576
    11  Al   0.025317  -0.053791  -0.009848  -1.150815
    12  Al  -0.006428   0.229505  -0.003029  -0.691689
    13  Al  12.962144   0.001652   0.219732   0.112164
    14  Al   0.001652  12.342914  -0.000057  -0.224171
    15  Al   0.219732  -0.000057  12.600591  -0.040678
    16  Al   0.112164  -0.224171  -0.040678  24.013414
          Atomic-Atomic Spin Densities.
               1          2          3          4          5          6
     1  Al   0.061669   0.005067   0.174885  -0.015422  -0.003791  -0.027902
     2  Al   0.005067  -0.191062  -0.062743   0.138072  -0.011135   0.026125
     3  Al   0.174885  -0.062743   0.370620  -0.010182   0.009710   0.005148
     4  Al  -0.015422   0.138072  -0.010182  -0.208856   0.038756   0.009609
     5  Al  -0.003791  -0.011135   0.009710   0.038756   0.020286  -0.002202
     6  Al  -0.027902   0.026125   0.005148   0.009609  -0.002202  -0.030833
     7  Al  -0.027902   0.066553   0.005148   0.009609   0.009667   0.004115
     8  Al   0.005067  -0.116397  -0.062743   0.138072   0.001971   0.066553
     9  Al   0.004660  -0.005353  -0.039624  -0.010157   0.001205  -0.024189
    10  Al   0.001056  -0.004691  -0.000273  -0.024325  -0.009391  -0.003657
    11  Al  -0.003791   0.001971   0.009710   0.038756  -0.002301   0.009667
    12  Al   0.004660  -0.010529  -0.039624  -0.010157  -0.004040  -0.000872
    13  Al  -0.064330   0.035113  -0.002976   0.003816  -0.001960   0.011226
    14  Al  -0.001044   0.004444   0.006674   0.003496  -0.002035   0.001027
    15  Al   0.006000   0.070620   0.006544  -0.087599  -0.001338  -0.012498
    16  Al  -0.049821   0.134186   0.179822  -0.379691  -0.011458  -0.118122
               7          8          9         10         11         12
     1  Al  -0.027902   0.005067   0.004660   0.001056  -0.003791   0.004660
     2  Al   0.066553  -0.116397  -0.005353  -0.004691   0.001971  -0.010529
     3  Al   0.005148  -0.062743  -0.039624  -0.000273   0.009710  -0.039624
     4  Al   0.009609   0.138072  -0.010157  -0.024325   0.038756  -0.010157
     5  Al   0.009667   0.001971   0.001205  -0.009391  -0.002301  -0.004040
     6  Al   0.004115   0.066553  -0.024189  -0.003657   0.009667  -0.000872
     7  Al  -0.030833   0.026125  -0.000872  -0.003657  -0.002202  -0.024189
     8  Al   0.026125  -0.191062  -0.010529  -0.004691  -0.011135  -0.005353
     9  Al  -0.000872  -0.010529  -0.022701   0.010276  -0.004040   0.003099
    10  Al  -0.003657  -0.004691   0.010276   0.156713  -0.009391   0.010276
    11  Al  -0.002202  -0.011135  -0.004040  -0.009391   0.020286   0.001205
    12  Al  -0.024189  -0.005353   0.003099   0.010276   0.001205  -0.022701
    13  Al   0.011226   0.035113  -0.000774   0.001158  -0.001960  -0.000774
    14  Al   0.001027   0.004444   0.015571  -0.011769  -0.002035   0.015571
    15  Al  -0.012498   0.070620   0.001325  -0.003667  -0.001338   0.001325
    16  Al  -0.118122   0.134186   0.028538   0.036702  -0.011458   0.028538
              13         14         15         16
     1  Al  -0.064330  -0.001044   0.006000  -0.049821
     2  Al   0.035113   0.004444   0.070620   0.134186
     3  Al  -0.002976   0.006674   0.006544   0.179822
     4  Al   0.003816   0.003496  -0.087599  -0.379691
     5  Al  -0.001960  -0.002035  -0.001338  -0.011458
     6  Al   0.011226   0.001027  -0.012498  -0.118122
     7  Al   0.011226   0.001027  -0.012498  -0.118122
     8  Al   0.035113   0.004444   0.070620   0.134186
     9  Al  -0.000774   0.015571   0.001325   0.028538
    10  Al   0.001158  -0.011769  -0.003667   0.036702
    11  Al  -0.001960  -0.002035  -0.001338  -0.011458
    12  Al  -0.000774   0.015571   0.001325   0.028538
    13  Al   0.033297   0.000101  -0.019358  -0.006747
    14  Al   0.000101  -0.185709  -0.000555   0.000175
    15  Al  -0.019358  -0.000555   0.710805  -0.026030
    16  Al  -0.006747   0.000175  -0.026030   0.258138
 Mulliken charges and spin densities:
               1          2
     1  Al  -0.015735   0.069059
     2  Al  -0.070159   0.080241
     3  Al   0.166320   0.550096
     4  Al  -0.035129  -0.366205
     5  Al   0.080665   0.031944
     6  Al   0.068790  -0.086804
     7  Al   0.068790  -0.086804
     8  Al  -0.070159   0.080241
     9  Al   0.146574  -0.053564
    10  Al   0.140193   0.140670
    11  Al   0.080665   0.031944
    12  Al   0.146574  -0.053564
    13  Al   0.244906   0.032169
    14  Al   0.337727  -0.150618
    15  Al   0.230581   0.702358
    16  Al  -0.520602   0.078837
 Sum of Mulliken charges =   1.00000   1.00000
 Mulliken charges and spin densities with hydrogens summed into heavy atoms:
               1          2
     1  Al  -0.015735   0.069059
     2  Al  -0.070159   0.080241
     3  Al   0.166320   0.550096
     4  Al  -0.035129  -0.366205
     5  Al   0.080665   0.031944
     6  Al   0.068790  -0.086804
     7  Al   0.068790  -0.086804
     8  Al  -0.070159   0.080241
     9  Al   0.146574  -0.053564
    10  Al   0.140193   0.140670
    11  Al   0.080665   0.031944
    12  Al   0.146574  -0.053564
    13  Al   0.244906   0.032169
    14  Al   0.337727  -0.150618
    15  Al   0.230581   0.702358
    16  Al  -0.520602   0.078837
 Electronic spatial extent (au):  <R**2>=           6766.0100
 Charge=              1.0000 electrons
 Dipole moment (field-independent basis, Debye):
    X=              0.2919    Y=              0.8189    Z=              0.0000  Tot=              0.8694
 Quadrupole moment (field-independent basis, Debye-Ang):
   XX=           -178.0223   YY=           -161.9098   ZZ=           -179.0557
   XY=              7.1229   XZ=              0.0000   YZ=              0.0000
 Traceless Quadrupole moment (field-independent basis, Debye-Ang):
   XX=             -5.0263   YY=             11.0861   ZZ=             -6.0598
   XY=              7.1229   XZ=              0.0000   YZ=              0.0000
 Octapole moment (field-independent basis, Debye-Ang**2):
  XXX=             -5.5557  YYY=             34.5161  ZZZ=              0.0000  XYY=              3.0916
  XXY=             -1.2263  XXZ=              0.0000  XZZ=             11.0884  YZZ=              5.7838
  YYZ=              0.0000  XYZ=              0.0000
 Hexadecapole moment (field-independent basis, Debye-Ang**3):
 XXXX=          -3303.2669 YYYY=          -4673.8010 ZZZZ=          -2732.7263 XXXY=           -399.0577
 XXXZ=              0.0000 YYYX=           -281.3120 YYYZ=              0.0000 ZZZX=              0.0000
 ZZZY=              0.0000 XXYY=          -1348.7274 XXZZ=           -989.0371 YYZZ=          -1324.8847
 XXYZ=              0.0000 YYXZ=              0.0000 ZZXY=           -112.5896
 N-N= 2.888086619117D+03 E-N=-1.500770528297D+04  KE= 3.869373618061D+03
 Symmetry A'   KE= 2.741013381070D+03
 Symmetry A"   KE= 1.128360236991D+03
                          Isotropic Fermi Contact Couplings
        Atom                 a.u.       MegaHertz       Gauss      10(-4) cm-1
     1  Al(27)             0.03331      38.83210      13.85626      12.95299
     2  Al(27)            -0.03656     -42.61935     -15.20764     -14.21629
     3  Al(27)             0.40745     474.93532     169.46873     158.42137
     4  Al(27)            -0.28251    -329.30339    -117.50363    -109.84379
     5  Al(27)             0.02266      26.41020       9.42382       8.80949
     6  Al(27)            -0.02107     -24.56149      -8.76415      -8.19283
     7  Al(27)            -0.02107     -24.56149      -8.76415      -8.19283
     8  Al(27)            -0.03656     -42.61935     -15.20764     -14.21629
     9  Al(27)            -0.01570     -18.30014      -6.52994      -6.10427
    10  Al(27)             0.13137     153.13066      54.64083      51.07889
    11  Al(27)             0.02266      26.41020       9.42382       8.80949
    12  Al(27)            -0.01570     -18.30014      -6.52994      -6.10427
    13  Al(27)             0.03910      45.57238      16.26136      15.20131
    14  Al(27)            -0.09699    -113.05946     -40.34243     -37.71258
    15  Al(27)             0.67641     788.44219     281.33577     262.99601
    16  Al(27)            -0.00788      -9.18644      -3.27795      -3.06427
 --------------------------------------------------------
       Center         ----  Spin Dipole Couplings  ----
                      3XX-RR        3YY-RR        3ZZ-RR
 --------------------------------------------------------
     1   Atom       -0.024498      0.060974     -0.036477
     2   Atom        0.051954     -0.003693     -0.048261
     3   Atom        0.249291     -0.010751     -0.238540
     4   Atom       -0.257979      0.110390      0.147589
     5   Atom       -0.001417     -0.025617      0.027034
     6   Atom        0.006346     -0.000262     -0.006084
     7   Atom        0.006346     -0.000262     -0.006084
     8   Atom        0.051954     -0.003693     -0.048261
     9   Atom       -0.026908      0.020683      0.006225
    10   Atom       -0.008560      0.070761     -0.062201
    11   Atom       -0.001417     -0.025617      0.027034
    12   Atom       -0.026908      0.020683      0.006225
    13   Atom        0.044998     -0.001142     -0.043855
    14   Atom       -0.023976     -0.014321      0.038297
    15   Atom        0.387801     -0.185814     -0.201987
    16   Atom        0.057196     -0.004043     -0.053153
 --------------------------------------------------------
                        XY            XZ            YZ
 --------------------------------------------------------
     1   Atom        0.105130      0.000000      0.000000
     2   Atom        0.060443      0.014357      0.000224
     3   Atom        0.174136      0.000000      0.000000
     4   Atom       -0.066500      0.000000      0.000000
     5   Atom       -0.006053     -0.019822      0.005579
     6   Atom       -0.011289      0.038492     -0.003375
     7   Atom       -0.011289     -0.038492      0.003375
     8   Atom        0.060443     -0.014357     -0.000224
     9   Atom        0.010019     -0.001526     -0.018000
    10   Atom       -0.034687      0.000000      0.000000
    11   Atom       -0.006053      0.019822     -0.005579
    12   Atom        0.010019      0.001526      0.018000
    13   Atom       -0.084676      0.000000      0.000000
    14   Atom        0.055278      0.000000      0.000000
    15   Atom        0.162035      0.000000      0.000000
    16   Atom        0.057765      0.000000      0.000000
 --------------------------------------------------------


 ---------------------------------------------------------------------------------
              Anisotropic Spin Dipole Couplings in Principal Axis System
 ---------------------------------------------------------------------------------

       Atom             a.u.   MegaHertz   Gauss  10(-4) cm-1        Axes

              Baa    -0.0952   -13.252    -4.729    -4.420  0.8296 -0.5583  0.0000
     1 Al(27) Bbb    -0.0365    -5.075    -1.811    -1.693  0.0000  0.0000  1.0000
              Bcc     0.1317    18.327     6.540     6.113  0.5583  0.8296  0.0000
 
              Baa    -0.0542    -7.534    -2.688    -2.513 -0.3507  0.4163  0.8389
     2 Al(27) Bbb    -0.0376    -5.230    -1.866    -1.744 -0.4110  0.7365 -0.5373
              Bcc     0.0917    12.764     4.555     4.258  0.8415  0.5332  0.0872
 
              Baa    -0.2385   -33.190   -11.843   -11.071  0.0000  0.0000  1.0000
     3 Al(27) Bbb    -0.0981   -13.643    -4.868    -4.551 -0.4482  0.8939  0.0000
              Bcc     0.3366    46.832    16.711    15.622  0.8939  0.4482  0.0000
 
              Baa    -0.2696   -37.513   -13.386   -12.513  0.9850  0.1724  0.0000
     4 Al(27) Bbb     0.1220    16.978     6.058     5.663 -0.1724  0.9850  0.0000
              Bcc     0.1476    20.535     7.327     6.850  0.0000  0.0000  1.0000
 
              Baa    -0.0271    -3.766    -1.344    -1.256  0.2130  0.9768 -0.0227
     5 Al(27) Bbb    -0.0111    -1.542    -0.550    -0.514  0.8623 -0.1770  0.4744
              Bcc     0.0381     5.307     1.894     1.770 -0.4594  0.1206  0.8800
 
              Baa    -0.0395    -5.490    -1.959    -1.831 -0.6562 -0.1249  0.7442
     6 Al(27) Bbb    -0.0024    -0.340    -0.121    -0.113  0.1085  0.9603  0.2569
              Bcc     0.0419     5.829     2.080     1.945  0.7468 -0.2493  0.6166
 
              Baa    -0.0395    -5.490    -1.959    -1.831  0.6562  0.1249  0.7442
     7 Al(27) Bbb    -0.0024    -0.340    -0.121    -0.113  0.1085  0.9603 -0.2569
              Bcc     0.0419     5.829     2.080     1.945  0.7468 -0.2493 -0.6166
 
              Baa    -0.0542    -7.534    -2.688    -2.513  0.3507 -0.4163  0.8389
     8 Al(27) Bbb    -0.0376    -5.230    -1.866    -1.744 -0.4110  0.7365  0.5373
              Bcc     0.0917    12.764     4.555     4.258  0.8415  0.5332 -0.0872
 
              Baa    -0.0291    -4.046    -1.444    -1.350  0.9726 -0.2215 -0.0709
     9 Al(27) Bbb    -0.0052    -0.717    -0.256    -0.239  0.1784  0.5150  0.8385
              Bcc     0.0342     4.763     1.700     1.589  0.1492  0.8281 -0.5403
 
              Baa    -0.0622    -8.654    -3.088    -2.887  0.0000  0.0000  1.0000
    10 Al(27) Bbb    -0.0216    -3.004    -1.072    -1.002  0.9361  0.3516  0.0000
              Bcc     0.0838    11.658     4.160     3.889 -0.3516  0.9361  0.0000
 
              Baa    -0.0271    -3.766    -1.344    -1.256  0.2130  0.9768  0.0227
    11 Al(27) Bbb    -0.0111    -1.542    -0.550    -0.514  0.8623 -0.1770 -0.4744
              Bcc     0.0381     5.307     1.894     1.770  0.4594 -0.1206  0.8800
 
              Baa    -0.0291    -4.046    -1.444    -1.350  0.9726 -0.2215  0.0709
    12 Al(27) Bbb    -0.0052    -0.717    -0.256    -0.239 -0.1784 -0.5150  0.8385
              Bcc     0.0342     4.763     1.700     1.589  0.1492  0.8281  0.5403
 
              Baa    -0.0658    -9.160    -3.269    -3.055  0.6071  0.7946  0.0000
    13 Al(27) Bbb    -0.0439    -6.102    -2.177    -2.035  0.0000  0.0000  1.0000
              Bcc     0.1097    15.262     5.446     5.091  0.7946 -0.6071  0.0000
 
              Baa    -0.0746   -10.385    -3.706    -3.464  0.7372 -0.6756  0.0000
    14 Al(27) Bbb     0.0363     5.056     1.804     1.687  0.6756  0.7372  0.0000
              Bcc     0.0383     5.328     1.901     1.777  0.0000  0.0000  1.0000
 
              Baa    -0.2284   -31.782   -11.340   -10.601 -0.2543  0.9671  0.0000
    15 Al(27) Bbb    -0.2020   -28.104   -10.028    -9.374  0.0000  0.0000  1.0000
              Bcc     0.4304    59.885    21.369    19.976  0.9671  0.2543  0.0000
 
              Baa    -0.0532    -7.395    -2.639    -2.467  0.0000  0.0000  1.0000
    16 Al(27) Bbb    -0.0388    -5.399    -1.926    -1.801 -0.5156  0.8568  0.0000
              Bcc     0.0920    12.794     4.565     4.268  0.8568  0.5156  0.0000
 

 ---------------------------------------------------------------------------------


 Test job not archived.
 1\1\GINC-R1I1N11\SP\UHF\6-31G(d)\Al16(1+,2)\VSC31064\03-Oct-2016\0\\# 
 hf/6-31G* test scf=xqc\\Al16-c-d\\1,2\Al,0,-1.34884882,-2.13604319,0.\
 Al,0,-1.8374184,0.23278599,1.58266423\Al,0,1.35391021,-2.56707693,0.\A
 l,0,-0.87291419,2.32240186,0.\Al,0,0.516563,1.35479948,2.26774368\Al,0
 ,0.02959765,-1.50933276,-2.29692202\Al,0,0.02959765,-1.50933276,2.2969
 2202\Al,0,-1.8374184,0.23278599,-1.58266423\Al,0,2.45735751,-0.6043817
 1,-1.89920031\Al,0,1.79284981,2.40956906,0.\Al,0,0.516563,1.35479948,-
 2.26774368\Al,0,2.45735751,-0.60438171,1.89920031\Al,0,-3.83993991,-1.
 08034437,0.\Al,0,3.69679695,0.61571224,0.\Al,0,-3.65709912,1.52706464,
 0.\Al,0,0.542979,-0.03866502,0.\\Version=ES64L-G09RevD.01\State=2-A'\H
 F=-3870.2591582\S2=1.172829\S2-1=0.\S2A=0.850216\RMSD=2.899e-07\Dipole
 =0.3420147,0.0049257,0.\Quadrupole=10.2472172,-5.7419278,-4.5052894,-0
 .0831124,0.,0.\PG=CS [SG(Al8),X(Al8)]\\@


 TO DETECT ERRORS, THE PROGRAMMER MUST HAVE A CONNIVING MIND,
 ONE THAT DELIGHTS IN UNCOVERING FLAWS WHERE BEAUTY AND
 PERFECTION WERE ONCE THOUGHT TO LIE.

             -- THE PSYCHOLOGY OF COMPUTER PROGRAMMING
                GERALD M. WEINBERG
 Job cpu time:       0 days  0 hours 12 minutes 43.0 seconds.
 File lengths (MBytes):  RWF=     60 Int=      0 D2E=      0 Chk=      5 Scr=      1
 Normal termination of Gaussian 09 at Mon Oct  3 04:42:43 2016.
 Initial command:
 /apps/leuven/thinking/software/G09//g09D1/l1.exe "/local_scratch/vsc31064/Gau-49456.inp" -scrdir="/local_scratch/vsc31064/"
 Entering Link 1 = /apps/leuven/thinking/software/G09//g09D1/l1.exe PID=     50178.
  
 Copyright (c) 1988,1990,1992,1993,1995,1998,2003,2009,2013,
            Gaussian, Inc.  All Rights Reserved.
  
 This is part of the Gaussian(R) 09 program.  It is based on
 the Gaussian(R) 03 system (copyright 2003, Gaussian, Inc.),
 the Gaussian(R) 98 system (copyright 1998, Gaussian, Inc.),
 the Gaussian(R) 94 system (copyright 1995, Gaussian, Inc.),
 the Gaussian 92(TM) system (copyright 1992, Gaussian, Inc.),
 the Gaussian 90(TM) system (copyright 1990, Gaussian, Inc.),
 the Gaussian 88(TM) system (copyright 1988, Gaussian, Inc.),
 the Gaussian 86(TM) system (copyright 1986, Carnegie Mellon
 University), and the Gaussian 82(TM) system (copyright 1983,
 Carnegie Mellon University). Gaussian is a federally registered
 trademark of Gaussian, Inc.
  
 This software contains proprietary and confidential information,
 including trade secrets, belonging to Gaussian, Inc.
  
 This software is provided under written license and may be
 used, copied, transmitted, or stored only in accord with that
 written license.
  
 The following legend is applicable only to US Government
 contracts under FAR:
  
                    RESTRICTED RIGHTS LEGEND
  
 Use, reproduction and disclosure by the US Government is
 subject to restrictions as set forth in subparagraphs (a)
 and (c) of the Commercial Computer Software - Restricted
 Rights clause in FAR 52.227-19.
  
 Gaussian, Inc.
 340 Quinnipiac St., Bldg. 40, Wallingford CT 06492
  
  
 ---------------------------------------------------------------
 Warning -- This program may not be used in any manner that
 competes with the business of Gaussian, Inc. or will provide
 assistance to any competitor of Gaussian, Inc.  The licensee
 of this program is prohibited from giving any competitor of
 Gaussian, Inc. access to this program.  By using this program,
 the user acknowledges that Gaussian, Inc. is engaged in the
 business of creating and licensing software in the field of
 computational chemistry and represents and warrants to the
 licensee that it is not a competitor of Gaussian, Inc. and that
 it will not use this program in any manner prohibited above.
 ---------------------------------------------------------------
  

 Cite this work as:
 Gaussian 09, Revision D.01,
 M. J. Frisch, G. W. Trucks, H. B. Schlegel, G. E. Scuseria, 
 M. A. Robb, J. R. Cheeseman, G. Scalmani, V. Barone, B. Mennucci, 
 G. A. Petersson, H. Nakatsuji, M. Caricato, X. Li, H. P. Hratchian, 
 A. F. Izmaylov, J. Bloino, G. Zheng, J. L. Sonnenberg, M. Hada, 
 M. Ehara, K. Toyota, R. Fukuda, J. Hasegawa, M. Ishida, T. Nakajima, 
 Y. Honda, O. Kitao, H. Nakai, T. Vreven, J. A. Montgomery, Jr., 
 J. E. Peralta, F. Ogliaro, M. Bearpark, J. J. Heyd, E. Brothers, 
 K. N. Kudin, V. N. Staroverov, T. Keith, R. Kobayashi, J. Normand, 
 K. Raghavachari, A. Rendell, J. C. Burant, S. S. Iyengar, J. Tomasi, 
 M. Cossi, N. Rega, J. M. Millam, M. Klene, J. E. Knox, J. B. Cross, 
 V. Bakken, C. Adamo, J. Jaramillo, R. Gomperts, R. E. Stratmann, 
 O. Yazyev, A. J. Austin, R. Cammi, C. Pomelli, J. W. Ochterski, 
 R. L. Martin, K. Morokuma, V. G. Zakrzewski, G. A. Voth, 
 P. Salvador, J. J. Dannenberg, S. Dapprich, A. D. Daniels, 
 O. Farkas, J. B. Foresman, J. V. Ortiz, J. Cioslowski, 
 and D. J. Fox, Gaussian, Inc., Wallingford CT, 2013.
 
 ******************************************
 Gaussian 09:  ES64L-G09RevD.01 24-Apr-2013
                 3-Oct-2016 
 ******************************************
 %NprocShared=20
 Will use up to   20 processors via shared memory.
 %mem=55000mb
 %chk=cc-Al16-c-d
 --------------------------------------------------------
 # CCSD(T,conver=5)/cc-pVTZ test geom=allcheck guess=read
 --------------------------------------------------------
 1/29=7,38=1/1;
 2/12=2,40=1/2;
 3/5=16,6=1,11=9,14=-4,16=1,25=1,30=1,116=-2/1,2,3;
 4/5=1/1;
 5/5=2,38=6/2;
 8/6=4,9=120000,10=1/1,4;
 9/5=7,9=5,14=2/13;
 6/7=2,8=2,9=2,10=2/1;
 99/5=1,9=1/99;
 Structure from the checkpoint file:  "cc-Al16-c-d.chk"
 --------
 Al16-c-d
 --------
 Charge =  1 Multiplicity = 2
 Z-Matrix found in file.
 Al,0,-1.34884882,-2.13604319,0.
 Al,0,-1.8374184,0.23278599,1.58266423
 Al,0,1.35391021,-2.56707693,0.
 Al,0,-0.87291419,2.32240186,0.
 Al,0,0.516563,1.35479948,2.26774368
 Al,0,0.02959765,-1.50933276,-2.29692202
 Al,0,0.02959765,-1.50933276,2.29692202
 Al,0,-1.8374184,0.23278599,-1.58266423
 Al,0,2.45735751,-0.60438171,-1.89920031
 Al,0,1.79284981,2.40956906,0.
 Al,0,0.516563,1.35479948,-2.26774368
 Al,0,2.45735751,-0.60438171,1.89920031
 Al,0,-3.83993991,-1.08034437,0.
 Al,0,3.69679695,0.61571224,0.
 Al,0,-3.65709912,1.52706464,0.
 Al,0,0.542979,-0.03866502,0.
 Recover connectivity data from disk.
                          Input orientation:                          
 ---------------------------------------------------------------------
 Center     Atomic      Atomic             Coordinates (Angstroms)
 Number     Number       Type             X           Y           Z
 ---------------------------------------------------------------------
      1         13           0       -1.348849   -2.136043    0.000000
      2         13           0       -1.837418    0.232786    1.582664
      3         13           0        1.353910   -2.567077    0.000000
      4         13           0       -0.872914    2.322402    0.000000
      5         13           0        0.516563    1.354799    2.267744
      6         13           0        0.029598   -1.509333   -2.296922
      7         13           0        0.029598   -1.509333    2.296922
      8         13           0       -1.837418    0.232786   -1.582664
      9         13           0        2.457358   -0.604382   -1.899200
     10         13           0        1.792850    2.409569    0.000000
     11         13           0        0.516563    1.354799   -2.267744
     12         13           0        2.457358   -0.604382    1.899200
     13         13           0       -3.839940   -1.080344    0.000000
     14         13           0        3.696797    0.615712    0.000000
     15         13           0       -3.657099    1.527065    0.000000
     16         13           0        0.542979   -0.038665    0.000000
 ---------------------------------------------------------------------
                    Distance matrix (angstroms):
                    1          2          3          4          5
     1  Al   0.000000
     2  Al   2.890481   0.000000
     3  Al   2.736914   4.530854   0.000000
     4  Al   4.483776   2.793132   5.372686   0.000000
     5  Al   4.561623   2.696197   4.607052   2.830117   0.000000
     6  Al   2.751133   4.644558   2.854554   4.557693   5.410782
     7  Al   2.751133   2.651583   2.854554   4.557693   2.905381
     8  Al   2.890481   3.165328   4.530854   2.793132   4.650353
     9  Al   4.521079   5.591899   2.945629   4.823249   4.996849
    10  Al   5.525655   4.519077   4.995966   2.667189   2.807865
    11  Al   4.561623   4.650353   4.607052   2.830117   4.535487
    12  Al   4.521079   4.387043   2.945629   4.823249   2.782247
    13  Al   2.705556   2.870406   5.402449   4.514634   5.481944
    14  Al   5.747234   5.768795   3.952122   4.878017   3.975273
    15  Al   4.329709   2.737010   6.470874   2.895556   4.753082
    16  Al   2.824537   2.871377   2.655273   2.753069   2.661786
                    6          7          8          9         10
     6  Al   0.000000
     7  Al   4.593844   0.000000
     8  Al   2.651583   4.644558   0.000000
     9  Al   2.621285   4.931571   4.387043   0.000000
    10  Al   4.872648   4.872648   4.519077   3.623870   0.000000
    11  Al   2.905381   5.410782   2.696197   2.782247   2.807865
    12  Al   4.931571   2.621285   5.591899   3.798401   3.623870
    13  Al   4.520310   4.520310   2.870406   6.594654   6.626297
    14  Al   4.820790   4.820790   5.768795   2.575228   2.615901
    15  Al   5.299745   5.299745   2.737010   6.748082   5.520938
    16  Al   2.775297   2.775297   2.871377   2.755330   2.748823
                   11         12         13         14         15
    11  Al   0.000000
    12  Al   4.996849   0.000000
    13  Al   5.481944   6.594654   0.000000
    14  Al   3.975273   2.575228   7.725219   0.000000
    15  Al   4.753082   6.748082   2.613812   7.410152   0.000000
    16  Al   2.661786   2.755330   4.505005   3.220990   4.482429
                   16
    16  Al   0.000000
 Stoichiometry    Al16(1+,2)
 Framework group  CS[SG(Al8),X(Al8)]
 Deg. of freedom    25
 Full point group                 CS      NOp   2
 Largest Abelian subgroup         CS      NOp   2
 Largest concise Abelian subgroup CS      NOp   2
                         Standard orientation:                         
 ---------------------------------------------------------------------
 Center     Atomic      Atomic             Coordinates (Angstroms)
 Number     Number       Type             X           Y           Z
 ---------------------------------------------------------------------
      1         13           0        1.530418   -2.009970    0.000000
      2         13           0       -0.859868   -1.640395    1.582664
      3         13           0        2.878313    0.372020    0.000000
      4         13           0       -2.481002   -0.006784    0.000000
      5         13           0       -1.089029    0.957224    2.267744
      6         13           0        1.424635   -0.499443   -2.296922
      7         13           0        1.424635   -0.499443    2.296922
      8         13           0       -0.859868   -1.640395   -1.582664
      9         13           0        1.424635    2.091493   -1.899200
     10         13           0       -1.631593    2.521536    0.000000
     11         13           0       -1.089029    0.957224   -2.267744
     12         13           0        1.424635    2.091493    1.899200
     13         13           0       -0.328870   -3.975443    0.000000
     14         13           0        0.714289    3.679022    0.000000
     15         13           0       -2.708203   -2.893413    0.000000
     16         13           0        0.225902    0.495273    0.000000
 ---------------------------------------------------------------------
 Rotational constants (GHZ):      0.2740048      0.1833903      0.1794593
 Standard basis: CC-pVTZ (5D, 7F)
 There are   372 symmetry adapted cartesian basis functions of A'  symmetry.
 There are   252 symmetry adapted cartesian basis functions of A"  symmetry.
 There are   320 symmetry adapted basis functions of A'  symmetry.
 There are   224 symmetry adapted basis functions of A"  symmetry.
   544 basis functions,  1520 primitive gaussians,   624 cartesian basis functions
   104 alpha electrons      103 beta electrons
       nuclear repulsion energy      2888.0866191169 Hartrees.
 NAtoms=   16 NActive=   16 NUniq=   12 SFac= 1.78D+00 NAtFMM=   60 NAOKFM=F Big=F
 Integral buffers will be    131072 words long.
 Raffenetti 2 integral format.
 Two-electron integral symmetry is turned on.
 One-electron integrals computed using PRISM.
 NBasis=   544 RedAO= T EigKep=  1.70D-04  NBF=   320   224
 NBsUse=   544 1.00D-06 EigRej= -1.00D+00 NBFU=   320   224
 Initial guess from the checkpoint file:  "cc-Al16-c-d.chk"
 B after Tr=     0.000000    0.000000    0.000000
         Rot=    1.000000    0.000000    0.000000    0.000000 Ang=   0.00 deg.
 Initial guess orbital symmetries:
 Alpha Orbitals:
       Occupied  (A') (A') (A') (A') (A') (A") (A') (A') (A") (A')
                 (A") (A') (A') (A") (A') (A') (A') (A') (A') (A')
                 (A') (A') (A") (A') (A") (A') (A") (A') (A') (A")
                 (A') (A') (A') (A') (A') (A") (A') (A') (A') (A")
                 (A") (A') (A') (A") (A') (A') (A") (A') (A") (A")
                 (A") (A') (A') (A') (A") (A') (A') (A") (A') (A")
                 (A') (A") (A') (A") (A') (A") (A') (A") (A') (A")
                 (A') (A") (A') (A") (A') (A") (A') (A') (A") (A')
                 (A') (A') (A') (A") (A') (A') (A") (A') (A") (A')
                 (A') (A') (A") (A') (A') (A") (A') (A") (A') (A")
                 (A') (A') (A") (A')
       Virtual   (A') (A') (A') (A') (A') (A') (A') (A') (A') (A')
                 (A') (A') (A') (A') (A') (A') (A') (A') (A') (A')
                 (A') (A') (A') (A') (A') (A') (A') (A') (A') (A')
                 (A') (A') (A') (A') (A') (A') (A') (A') (A') (A')
                 (A') (A') (A') (A') (A') (A') (A') (A') (A') (A')
                 (A') (A') (A') (A') (A') (A') (A') (A') (A') (A')
                 (A') (A') (A') (A') (A') (A') (A') (A') (A') (A')
                 (A') (A') (A') (A') (A') (A') (A') (A') (A') (A')
                 (A') (A') (A') (A') (A') (A') (A') (A') (A') (A')
                 (A') (A') (A') (A') (A') (A') (A') (A') (A') (A')
                 (A') (A') (A') (A') (A') (A') (A') (A') (A') (A')
                 (A') (A') (A') (A') (A') (A') (A') (A') (A') (A')
                 (A') (A') (A') (A') (A') (A') (A') (A') (A') (A')
                 (A') (A') (A') (A') (A') (A') (A') (A') (A') (A')
                 (A') (A') (A') (A') (A') (A') (A') (A') (A') (A')
                 (A') (A') (A') (A') (A') (A') (A') (A') (A') (A')
                 (A') (A') (A') (A') (A') (A') (A') (A') (A') (A')
                 (A') (A') (A') (A') (A') (A') (A') (A') (A') (A')
                 (A') (A') (A') (A') (A') (A') (A') (A') (A') (A')
                 (A') (A') (A') (A') (A') (A') (A') (A') (A') (A')
                 (A') (A') (A') (A') (A') (A') (A') (A') (A') (A')
                 (A') (A') (A') (A') (A') (A') (A') (A') (A') (A')
                 (A') (A') (A') (A') (A') (A') (A') (A') (A') (A')
                 (A') (A') (A') (A') (A') (A') (A') (A') (A') (A')
                 (A') (A') (A') (A') (A') (A') (A') (A') (A') (A')
                 (A') (A') (A") (A") (A") (A") (A") (A") (A") (A")
                 (A") (A") (A") (A") (A") (A") (A") (A") (A") (A")
                 (A") (A") (A") (A") (A") (A") (A") (A") (A") (A")
                 (A") (A") (A") (A") (A") (A") (A") (A") (A") (A")
                 (A") (A") (A") (A") (A") (A") (A") (A") (A") (A")
                 (A") (A") (A") (A") (A") (A") (A") (A") (A") (A")
                 (A") (A") (A") (A") (A") (A") (A") (A") (A") (A")
                 (A") (A") (A") (A") (A") (A") (A") (A") (A") (A")
                 (A") (A") (A") (A") (A") (A") (A") (A") (A") (A")
                 (A") (A") (A") (A") (A") (A") (A") (A") (A") (A")
                 (A") (A") (A") (A") (A") (A") (A") (A") (A") (A")
                 (A") (A") (A") (A") (A") (A") (A") (A") (A") (A")
                 (A") (A") (A") (A") (A") (A") (A") (A") (A") (A")
                 (A") (A") (A") (A") (A") (A") (A") (A") (A") (A")
                 (A") (A") (A") (A") (A") (A") (A") (A") (A") (A")
                 (A") (A") (A") (A") (A") (A") (A") (A") (A") (A")
                 (A") (A") (A") (A") (A") (A") (A") (A") (A") (A")
                 (A") (A") (A") (A") (A") (A") (A") (A") (A") (A")
                 (A") (A") (A") (A") (A") (A") (A") (A") (A") (A")
 Beta  Orbitals:
       Occupied  (A') (A') (A') (A') (A") (A') (A') (A') (A") (A')
                 (A") (A') (A') (A") (A') (A') (A') (A') (A') (A')
                 (A") (A') (A') (A') (A") (A') (A") (A') (A') (A")
                 (A') (A') (A') (A') (A") (A') (A') (A") (A') (A')
                 (A") (A") (A") (A') (A') (A") (A') (A") (A") (A')
                 (A') (A") (A') (A') (A') (A") (A') (A") (A') (A')
                 (A") (A') (A') (A") (A') (A") (A") (A') (A') (A")
                 (A') (A") (A') (A") (A') (A") (A') (A") (A') (A')
                 (A') (A') (A") (A') (A') (A') (A") (A') (A") (A')
                 (A') (A') (A") (A') (A') (A") (A") (A') (A") (A')
                 (A') (A') (A")
       Virtual   (A') (A') (A') (A') (A') (A') (A') (A') (A') (A')
                 (A') (A') (A') (A') (A') (A') (A') (A') (A') (A')
                 (A') (A') (A') (A') (A') (A') (A') (A') (A') (A')
                 (A') (A') (A') (A') (A') (A') (A') (A') (A') (A')
                 (A') (A') (A') (A') (A') (A') (A') (A') (A') (A')
                 (A') (A') (A') (A') (A') (A') (A') (A') (A') (A')
                 (A') (A') (A') (A') (A') (A') (A') (A') (A') (A')
                 (A') (A') (A') (A') (A') (A') (A') (A') (A') (A')
                 (A') (A') (A') (A') (A') (A') (A') (A') (A') (A')
                 (A') (A') (A') (A') (A') (A') (A') (A') (A') (A')
                 (A') (A') (A') (A') (A') (A') (A') (A') (A') (A')
                 (A') (A') (A') (A') (A') (A') (A') (A') (A') (A')
                 (A') (A') (A') (A') (A') (A') (A') (A') (A') (A')
                 (A') (A') (A') (A') (A') (A') (A') (A') (A') (A')
                 (A') (A') (A') (A') (A') (A') (A') (A') (A') (A')
                 (A') (A') (A') (A') (A') (A') (A') (A') (A') (A')
                 (A') (A') (A') (A') (A') (A') (A') (A') (A') (A')
                 (A') (A') (A') (A') (A') (A') (A') (A') (A') (A')
                 (A') (A') (A') (A') (A') (A') (A') (A') (A') (A')
                 (A') (A') (A') (A') (A') (A') (A') (A') (A') (A')
                 (A') (A') (A') (A') (A') (A') (A') (A') (A') (A')
                 (A') (A') (A') (A') (A') (A') (A') (A') (A') (A')
                 (A') (A') (A') (A') (A') (A') (A') (A') (A') (A')
                 (A') (A') (A') (A') (A') (A') (A') (A') (A') (A')
                 (A') (A') (A') (A') (A') (A') (A') (A') (A') (A')
                 (A') (A') (A') (A") (A") (A") (A") (A") (A") (A")
                 (A") (A") (A") (A") (A") (A") (A") (A") (A") (A")
                 (A") (A") (A") (A") (A") (A") (A") (A") (A") (A")
                 (A") (A") (A") (A") (A") (A") (A") (A") (A") (A")
                 (A") (A") (A") (A") (A") (A") (A") (A") (A") (A")
                 (A") (A") (A") (A") (A") (A") (A") (A") (A") (A")
                 (A") (A") (A") (A") (A") (A") (A") (A") (A") (A")
                 (A") (A") (A") (A") (A") (A") (A") (A") (A") (A")
                 (A") (A") (A") (A") (A") (A") (A") (A") (A") (A")
                 (A") (A") (A") (A") (A") (A") (A") (A") (A") (A")
                 (A") (A") (A") (A") (A") (A") (A") (A") (A") (A")
                 (A") (A") (A") (A") (A") (A") (A") (A") (A") (A")
                 (A") (A") (A") (A") (A") (A") (A") (A") (A") (A")
                 (A") (A") (A") (A") (A") (A") (A") (A") (A") (A")
                 (A") (A") (A") (A") (A") (A") (A") (A") (A") (A")
                 (A") (A") (A") (A") (A") (A") (A") (A") (A") (A")
                 (A") (A") (A") (A") (A") (A") (A") (A") (A") (A")
                 (A") (A") (A") (A") (A") (A") (A") (A") (A") (A")
                 (A") (A") (A") (A") (A") (A") (A") (A") (A") (A")
                 (A")
 Initial guess <Sx>= 0.0000 <Sy>= 0.0000 <Sz>= 0.5000 <S**2>= 1.1899 S= 0.7000
 Requested convergence on RMS density matrix=1.00D-08 within 128 cycles.
 Requested convergence on MAX density matrix=1.00D-06.
 Requested convergence on             energy=1.00D-06.
 No special actions if energy rises.
 Restarting incremental Fock formation.
 Restarting incremental Fock formation.
 SCF Done:  E(UHF) =  -3870.60296743     A.U. after   50 cycles
            NFock= 50  Conv=0.93D-08     -V/T= 1.9999
 <Sx>= 0.0000 <Sy>= 0.0000 <Sz>= 0.5000 <S**2>= 1.2102 S= 0.7084
 <L.S>= 0.000000000000E+00
 Annihilation of the first spin contaminant:
 S**2 before annihilation     1.2102,   after     0.8734
 ExpMin= 5.56D-02 ExpMax= 2.06D+05 ExpMxC= 1.99D+03 IAcc=3 IRadAn=         5 AccDes= 0.00D+00
 HarFok:  IExCor=  205 AccDes= 0.00D+00 IRadAn=         5 IDoV=-2 UseB2=F ITyADJ=14
 ICtDFT= 12500011 ScaDFX=  1.000000  1.000000  1.000000  1.000000
 DSYEVD-2 returned Info=          69 IAlg= 4 N=    34 NDim=    34 NE2=   212003474 trying  DSYEV.
 DSYEVD-2 returned Info=          69 IAlg= 4 N=    34 NDim=    34 NE2=   212003474 trying  DSYEV.
 Range of M.O.s used for correlation:    81   544
 NBasis=   544 NAE=   104 NBE=   103 NFC=    80 NFV=     0
 NROrb=    464 NOA=    24 NOB=    23 NVA=   440 NVB=   441

 **** Warning!!: The largest alpha MO coefficient is  0.43973334D+02


 **** Warning!!: The largest beta MO coefficient is  0.43973527D+02

 Semi-Direct transformation.
 ModeAB=           4 MOrb=            24 LenV=    7201446314
 LASXX=    581126242 LTotXX=   581126242 LenRXX=  1167699714
 LTotAB=   586573472 MaxLAS=  1325061504 LenRXY=           0
 NonZer=  1748825956 LenScr=  2633526272 LnRSAI=  1325061504
 LnScr1=  1995386880 LExtra=           0 Total=   7121674370
 MaxDsk=          -1 SrtSym=           T ITran=            4
 JobTyp=1 Pass  1:  I=   1 to  24.
 (rs|ai) integrals will be sorted in core.
 ModeAB=           4 MOrb=            23 LenV=    7201446314
 LASXX=    557598643 LTotXX=   557598643 LenRXX=  1063581127
 LTotAB=   505982484 MaxLAS=  1269850608 LenRXY=           0
 NonZer=  1621179770 LenScr=  2441306112 LnRSAI=  1269850608
 LnScr1=  1912246272 LExtra=           0 Total=   6686984119
 MaxDsk=          -1 SrtSym=           T ITran=            4
 JobTyp=2 Pass  1:  I=   1 to  23.
 (rs|ai) integrals will be sorted in core.
 Spin components of T(2) and E(2):
     alpha-alpha T2 =       0.2548036667D+00 E2=     -0.2357737806D+00
     alpha-beta  T2 =       0.9710522998D+00 E2=     -0.1040645436D+01
     beta-beta   T2 =       0.2517805989D+00 E2=     -0.2300970104D+00
 ANorm=    0.1574051005D+01
 E2 =    -0.1506516227D+01 EUMP2 =    -0.38721094836563D+04
 (S**2,0)=  0.12102D+01           (S**2,1)=  0.11041D+01
 E(PUHF)=      -0.38706171793D+04        E(PMP2)=      -0.38721222752D+04
 Would need an additional      9290752669 words for in-memory AO integral storage.
 Iterations=  50 Convergence= 0.100D-04
 Iteration Nr.   1
 **********************
 DD1Dir will call FoFJK   2 times, MxPair=       818
 NAB=   552 NAA=   276 NBB=   253 NumPrc= 20.
 FoFJK:  IHMeth= 1 ICntrl=     200 DoSepK=F KAlg= 0 I1Cent=   0 FoldK=F
 IRaf= 990000000 NMat= 818 IRICut=    1022 DoRegI=T DoRafI=T ISym2E=-1.
 FoFCou: FMM=F IPFlag=           0 FMFlag=      100000 FMFlg1=           0
         NFxFlg=           0 DoJE=F BraDBF=F KetDBF=F FulRan=T
         wScrn=  0.000000 ICntrl=     200 IOpCl=  0 I1Cent=           0 NGrid=           0
         NMat0=  818 NMatS0=      0 NMatT0=  409 NMatD0=  818 NMtDS0=    0 NMtDT0=    0
 Petite list used in FoFCou.
 E(PMP3)=      -0.38718542375D+04
 MP4(R+Q)=  0.91263105D-01
 E3=        0.26506646D+00        EUMP3=      -0.38718444172D+04
 E4(DQ)=   -0.18360592D+00        UMP4(DQ)=   -0.38720280231D+04
 E4(SDQ)=  -0.21602370D+00        UMP4(SDQ)=  -0.38720604409D+04
 DE(Corr)=  -1.1512404     E(Corr)=     -3871.7542078    
 NORM(A)=   0.13920070D+01
 Iteration Nr.   2
 **********************
 DD1Dir will call FoFJK   2 times, MxPair=       818
 NAB=   552 NAA=   276 NBB=   253 NumPrc= 20.
 DE(Corr)=  -1.3882404     E(CORR)=     -3871.9912078     Delta=-2.37D-01
 NORM(A)=   0.14653963D+01
 Iteration Nr.   3
 **********************
 DD1Dir will call FoFJK   2 times, MxPair=       818
 NAB=   552 NAA=   276 NBB=   253 NumPrc= 20.
 DE(Corr)=  -1.3283018     E(CORR)=     -3871.9312692     Delta= 5.99D-02
 NORM(A)=   0.14842980D+01
 Iteration Nr.   4
 **********************
 DD1Dir will call FoFJK   2 times, MxPair=       818
 NAB=   552 NAA=   276 NBB=   253 NumPrc= 20.
 DE(Corr)=  -1.3415202     E(CORR)=     -3871.9444876     Delta=-1.32D-02
 NORM(A)=   0.14951492D+01
 Iteration Nr.   5
 **********************
 DD1Dir will call FoFJK   2 times, MxPair=       818
 NAB=   552 NAA=   276 NBB=   253 NumPrc= 20.
 DE(Corr)=  -1.3456146     E(CORR)=     -3871.9485820     Delta=-4.09D-03
 NORM(A)=   0.15121000D+01
 Iteration Nr.   6
 **********************
 DD1Dir will call FoFJK   2 times, MxPair=       818
 NAB=   552 NAA=   276 NBB=   253 NumPrc= 20.
 DE(Corr)=  -1.3460272     E(CORR)=     -3871.9489946     Delta=-4.13D-04
 NORM(A)=   0.15217870D+01
 Iteration Nr.   7
 **********************
 DD1Dir will call FoFJK   2 times, MxPair=       818
 NAB=   552 NAA=   276 NBB=   253 NumPrc= 20.
 DE(Corr)=  -1.3462507     E(CORR)=     -3871.9492181     Delta=-2.24D-04
 NORM(A)=   0.15221274D+01
 Iteration Nr.   8
 **********************
 DD1Dir will call FoFJK   2 times, MxPair=       818
 NAB=   552 NAA=   276 NBB=   253 NumPrc= 20.
 DE(Corr)=  -1.3479373     E(CORR)=     -3871.9509048     Delta=-1.69D-03
 NORM(A)=   0.15247974D+01
 Iteration Nr.   9
 **********************
 DD1Dir will call FoFJK   2 times, MxPair=       818
 NAB=   552 NAA=   276 NBB=   253 NumPrc= 20.
 DE(Corr)=  -1.3465760     E(CORR)=     -3871.9495434     Delta= 1.36D-03
 NORM(A)=   0.15251823D+01
 Iteration Nr.  10
 **********************
 DD1Dir will call FoFJK   2 times, MxPair=       818
 NAB=   552 NAA=   276 NBB=   253 NumPrc= 20.
 DE(Corr)=  -1.3474474     E(CORR)=     -3871.9504149     Delta=-8.71D-04
 NORM(A)=   0.15251518D+01
 Iteration Nr.  11
 **********************
 DD1Dir will call FoFJK   2 times, MxPair=       818
 NAB=   552 NAA=   276 NBB=   253 NumPrc= 20.
 DE(Corr)=  -1.3472269     E(CORR)=     -3871.9501943     Delta= 2.21D-04
 NORM(A)=   0.15256595D+01
 Iteration Nr.  12
 **********************
 DD1Dir will call FoFJK   2 times, MxPair=       818
 NAB=   552 NAA=   276 NBB=   253 NumPrc= 20.
 DE(Corr)=  -1.3471709     E(CORR)=     -3871.9501383     Delta= 5.60D-05
 NORM(A)=   0.15255611D+01
 Iteration Nr.  13
 **********************
 DD1Dir will call FoFJK   2 times, MxPair=       818
 NAB=   552 NAA=   276 NBB=   253 NumPrc= 20.
 DE(Corr)=  -1.3472236     E(CORR)=     -3871.9501911     Delta=-5.28D-05
 NORM(A)=   0.15255107D+01
 Iteration Nr.  14
 **********************
 DD1Dir will call FoFJK   2 times, MxPair=       818
 NAB=   552 NAA=   276 NBB=   253 NumPrc= 20.
 DE(Corr)=  -1.3472491     E(CORR)=     -3871.9502165     Delta=-2.55D-05
 NORM(A)=   0.15255397D+01
 Iteration Nr.  15
 **********************
 DD1Dir will call FoFJK   2 times, MxPair=       818
 NAB=   552 NAA=   276 NBB=   253 NumPrc= 20.
 DE(Corr)=  -1.3471782     E(CORR)=     -3871.9501456     Delta= 7.09D-05
 NORM(A)=   0.15254573D+01
 Iteration Nr.  16
 **********************
 DD1Dir will call FoFJK   2 times, MxPair=       818
 NAB=   552 NAA=   276 NBB=   253 NumPrc= 20.
 DE(Corr)=  -1.3472258     E(CORR)=     -3871.9501933     Delta=-4.76D-05
 NORM(A)=   0.15254097D+01
 Iteration Nr.  17
 **********************
 DD1Dir will call FoFJK   2 times, MxPair=       818
 NAB=   552 NAA=   276 NBB=   253 NumPrc= 20.
 DE(Corr)=  -1.3472011     E(CORR)=     -3871.9501685     Delta= 2.48D-05
 NORM(A)=   0.15254032D+01
 Iteration Nr.  18
 **********************
 DD1Dir will call FoFJK   2 times, MxPair=       818
 NAB=   552 NAA=   276 NBB=   253 NumPrc= 20.
 DE(Corr)=  -1.3472005     E(CORR)=     -3871.9501679     Delta= 5.37D-07
 NORM(A)=   0.15253686D+01
 Iteration Nr.  19
 **********************
 DD1Dir will call FoFJK   2 times, MxPair=       818
 NAB=   552 NAA=   276 NBB=   253 NumPrc= 20.
 DE(Corr)=  -1.3472008     E(CORR)=     -3871.9501683     Delta=-3.32D-07
 NORM(A)=   0.15253537D+01
 Iteration Nr.  20
 **********************
 DD1Dir will call FoFJK   2 times, MxPair=       818
 NAB=   552 NAA=   276 NBB=   253 NumPrc= 20.
 DE(Corr)=  -1.3472021     E(CORR)=     -3871.9501695     Delta=-1.21D-06
 NORM(A)=   0.15253492D+01
 Iteration Nr.  21
 **********************
[...]
  Beta  occ. eigenvalues --  -58.55415  -5.02364  -5.02044  -5.02008  -5.01784
  Beta  occ. eigenvalues --   -5.01784  -5.01658  -5.01608  -5.01491  -5.01436
  Beta  occ. eigenvalues --   -5.01436  -5.01100  -5.01099  -5.01043  -5.01043
  Beta  occ. eigenvalues --   -5.00597  -4.97594  -3.33635  -3.33502  -3.33457
  Beta  occ. eigenvalues --   -3.33399  -3.33385  -3.33291  -3.33155  -3.33106
  Beta  occ. eigenvalues --   -3.33092  -3.33025  -3.33025  -3.32991  -3.32990
  Beta  occ. eigenvalues --   -3.32941  -3.32885  -3.32884  -3.32877  -3.32869
  Beta  occ. eigenvalues --   -3.32864  -3.32850  -3.32841  -3.32727  -3.32699
  Beta  occ. eigenvalues --   -3.32699  -3.32624  -3.32570  -3.32569  -3.32563
  Beta  occ. eigenvalues --   -3.32563  -3.32470  -3.32371  -3.32364  -3.32326
  Beta  occ. eigenvalues --   -3.32325  -3.32232  -3.32231  -3.32217  -3.32217
  Beta  occ. eigenvalues --   -3.32152  -3.32152  -3.32144  -3.32144  -3.31659
  Beta  occ. eigenvalues --   -3.31624  -3.31486  -3.29006  -3.28991  -3.28879
  Beta  occ. eigenvalues --   -0.84675  -0.74035  -0.73120  -0.72700  -0.64738
  Beta  occ. eigenvalues --   -0.58817  -0.58600  -0.56959  -0.56142  -0.53086
  Beta  occ. eigenvalues --   -0.51468  -0.45909  -0.44751  -0.40032  -0.38983
  Beta  occ. eigenvalues --   -0.38945  -0.37731  -0.37082  -0.36726  -0.36703
  Beta  occ. eigenvalues --   -0.35866  -0.35112  -0.34953
  Beta virt. eigenvalues --   -0.13969  -0.13145  -0.13129  -0.12663  -0.12082
  Beta virt. eigenvalues --   -0.11341  -0.10666  -0.10294  -0.09954  -0.06864
  Beta virt. eigenvalues --   -0.06443  -0.05451  -0.05403  -0.04958  -0.04552
  Beta virt. eigenvalues --   -0.03524  -0.02015  -0.01854  -0.00785   0.00134
  Beta virt. eigenvalues --    0.00637   0.00710   0.01093   0.02116   0.03329
  Beta virt. eigenvalues --    0.03674   0.03676   0.04392   0.04416   0.04607
  Beta virt. eigenvalues --    0.05015   0.05163   0.05411   0.05742   0.06211
  Beta virt. eigenvalues --    0.06416   0.07381   0.07456   0.07666   0.08357
  Beta virt. eigenvalues --    0.08532   0.08571   0.09341   0.09641   0.10320
  Beta virt. eigenvalues --    0.10648   0.11770   0.11776   0.12243   0.12471
  Beta virt. eigenvalues --    0.12673   0.13109   0.13123   0.13476   0.13543
  Beta virt. eigenvalues --    0.14006   0.14107   0.14545   0.15016   0.15547
  Beta virt. eigenvalues --    0.15664   0.16232   0.17196   0.17480   0.17489
  Beta virt. eigenvalues --    0.17824   0.18952   0.18974   0.19183   0.19323
  Beta virt. eigenvalues --    0.19873   0.20563   0.21034   0.21315   0.21715
  Beta virt. eigenvalues --    0.22114   0.22219   0.22595   0.23264   0.23390
  Beta virt. eigenvalues --    0.23722   0.24143   0.24378   0.24782   0.25687
  Beta virt. eigenvalues --    0.26017   0.26055   0.26370   0.26727   0.27626
  Beta virt. eigenvalues --    0.27750   0.27965   0.28314   0.28855   0.29298
  Beta virt. eigenvalues --    0.31009   0.31306   0.31353   0.32205   0.32427
  Beta virt. eigenvalues --    0.33040   0.33146   0.33774   0.34475   0.34924
  Beta virt. eigenvalues --    0.35336   0.35758   0.36086   0.36727   0.36959
  Beta virt. eigenvalues --    0.37287   0.37886   0.38148   0.38265   0.38810
  Beta virt. eigenvalues --    0.39229   0.39383   0.39523   0.39851   0.39881
  Beta virt. eigenvalues --    0.41400   0.41457   0.41747   0.42350   0.42649
  Beta virt. eigenvalues --    0.42838   0.43126   0.43554   0.44017   0.44118
  Beta virt. eigenvalues --    0.44127   0.44834   0.45258   0.46646   0.46886
  Beta virt. eigenvalues --    0.47691   0.47947   0.48330   0.48860   0.49357
  Beta virt. eigenvalues --    0.49410   0.50573   0.50647   0.51147   0.51362
  Beta virt. eigenvalues --    0.51899   0.52742   0.52902   0.53267   0.53860
  Beta virt. eigenvalues --    0.54183   0.54279   0.55333   0.55846   0.56021
  Beta virt. eigenvalues --    0.56443   0.56451   0.57418   0.58042   0.58150
  Beta virt. eigenvalues --    0.58494   0.58878   0.59452   0.59955   0.60068
  Beta virt. eigenvalues --    0.60917   0.60933   0.61365   0.62346   0.62365
  Beta virt. eigenvalues --    0.62838   0.63023   0.63672   0.64009   0.65015
  Beta virt. eigenvalues --    0.65034   0.65834   0.65954   0.67162   0.67432
  Beta virt. eigenvalues --    0.68218   0.68334   0.68918   0.69272   0.69797
  Beta virt. eigenvalues --    0.71094   0.71433   0.71661   0.71938   0.72869
  Beta virt. eigenvalues --    0.73464   0.74274   0.74981   0.75128   0.75552
  Beta virt. eigenvalues --    0.76462   0.76823   0.77453   0.77920   0.78414
  Beta virt. eigenvalues --    0.78592   0.79369   0.79739   0.79750   0.80151
  Beta virt. eigenvalues --    0.80260   0.80865   0.80931   0.81261   0.82119
  Beta virt. eigenvalues --    0.82275   0.82604   0.82728   0.82776   0.83927
  Beta virt. eigenvalues --    0.84587   0.84968   0.85221   0.85580   0.86003
  Beta virt. eigenvalues --    0.86223   0.86606   0.86611   0.87484   0.87774
  Beta virt. eigenvalues --    0.88075   0.88094   0.88356   0.88958   0.89118
  Beta virt. eigenvalues --    0.90195   0.90366   0.91309   0.91584   0.91947
  Beta virt. eigenvalues --    0.93147   0.93220   0.93664   0.93681   0.94774
  Beta virt. eigenvalues --    0.95112   0.95436   0.95535   0.95692   0.95887
  Beta virt. eigenvalues --    0.96033   0.96914   0.97347   0.97347   0.97608
  Beta virt. eigenvalues --    0.98474   0.99398   0.99808   1.00013   1.00265
  Beta virt. eigenvalues --    1.01052   1.01592   1.01847   1.02261   1.02630
  Beta virt. eigenvalues --    1.03209   1.03390   1.03979   1.04528   1.04835
  Beta virt. eigenvalues --    1.04945   1.05391   1.05999   1.06341   1.06874
  Beta virt. eigenvalues --    1.06932   1.07105   1.08128   1.08304   1.08886
  Beta virt. eigenvalues --    1.10291   1.10825   1.11787   1.11939   1.13493
  Beta virt. eigenvalues --    1.13726   1.14396   1.14583   1.14824   1.15433
  Beta virt. eigenvalues --    1.15731   1.17242   1.17431   1.18855   1.19135
  Beta virt. eigenvalues --    1.19556   1.19690   1.20414   1.21380   1.21503
  Beta virt. eigenvalues --    1.22563   1.22886   1.22965   1.23446   1.23588
  Beta virt. eigenvalues --    1.24009   1.24811   1.25158   1.25970   1.26816
  Beta virt. eigenvalues --    1.27463   1.28275   1.28788   1.29265   1.29433
  Beta virt. eigenvalues --    1.30372   1.30905   1.31328   1.31414   1.31906
  Beta virt. eigenvalues --    1.32217   1.32519   1.33147   1.33548   1.34370
  Beta virt. eigenvalues --    1.35400   1.35540   1.35988   1.36168   1.36625
  Beta virt. eigenvalues --    1.36877   1.37914   1.38362   1.38419   1.38853
  Beta virt. eigenvalues --    1.39115   1.40323   1.40586   1.40991   1.41267
  Beta virt. eigenvalues --    1.41957   1.42222   1.42356   1.43126   1.43167
  Beta virt. eigenvalues --    1.43362   1.44429   1.44646   1.45031   1.45397
  Beta virt. eigenvalues --    1.46261   1.46722   1.46776   1.47865   1.48102
  Beta virt. eigenvalues --    1.48320   1.48387   1.49056   1.50018   1.50326
  Beta virt. eigenvalues --    1.50991   1.51577   1.51994   1.53846   1.53862
  Beta virt. eigenvalues --    1.54087   1.55674   1.55847   1.56437   1.57148
  Beta virt. eigenvalues --    1.59117   1.59632   1.60486   1.64048   1.66927
  Beta virt. eigenvalues --    1.68190   1.71317   1.73938   1.74012   1.75859
  Beta virt. eigenvalues --    1.83386   1.83476   2.37776   2.40835   2.41727
  Beta virt. eigenvalues --    2.42765   2.43457   2.44423   2.44585   2.44817
  Beta virt. eigenvalues --    2.46423   2.50366   2.54798   2.56544   2.56665
  Beta virt. eigenvalues --    2.57974   2.58085   2.59180   2.62552   2.62745
  Beta virt. eigenvalues --    2.63712   2.63859   2.65575   2.68789   2.71032
  Beta virt. eigenvalues --    2.71333   2.72002   2.74030   2.74315   2.75752
  Beta virt. eigenvalues --    2.78038   2.79282   2.80772   2.84360   2.85521
  Beta virt. eigenvalues --    2.85669   2.89173   2.91695   2.93079   2.97962
  Beta virt. eigenvalues --    2.99935   3.00226   3.01467   3.07097   3.10239
  Beta virt. eigenvalues --    3.11878   3.14573   3.20325   3.31349   3.31566
  Beta virt. eigenvalues --    3.33528   3.45973   3.46399   3.68875   3.72263
  Beta virt. eigenvalues --    3.75020   3.79640   3.83935   3.88502   3.91890
  Beta virt. eigenvalues --    3.99568   4.03724   4.67555   5.42235   5.51085
  Beta virt. eigenvalues --    6.97709
          Condensed to atoms (all electrons):
               1          2          3          4          5          6
     1  Al  12.141186   0.101915   0.179472  -0.000617  -0.006118   0.192584
     2  Al   0.101915  12.220826  -0.009678   0.128059   0.234403   0.002883
     3  Al   0.179472  -0.009678  12.330778   0.001978  -0.012110   0.114039
     4  Al  -0.000617   0.128059   0.001978  12.251802   0.123439  -0.010567
     5  Al  -0.006118   0.234403  -0.012110   0.123439  12.260033   0.002856
     6  Al   0.192584   0.002883   0.114039  -0.010567   0.002856  12.107885
     7  Al   0.192584   0.256483   0.114039  -0.010567   0.080458  -0.014760
     8  Al   0.101915  -0.036140  -0.009678   0.128059   0.000680   0.256483
     9  Al  -0.023731  -0.002698   0.104836  -0.004834   0.004100   0.326289
    10  Al  -0.000724  -0.018454   0.001817   0.269392   0.173785  -0.000826
    11  Al  -0.006118   0.000680  -0.012110   0.123439  -0.017441   0.080458
    12  Al  -0.023731  -0.034094   0.104836  -0.004834   0.203115   0.000382
    13  Al   0.209037   0.029380   0.001415  -0.019661   0.001371  -0.017836
    14  Al   0.002412   0.003499  -0.025262  -0.015470  -0.030666  -0.012714
    15  Al  -0.033675   0.137100  -0.000644   0.098904  -0.009421   0.000621
    16  Al   0.014694   0.028303   0.071294   0.006243   0.019273  -0.025245
               7          8          9         10         11         12
     1  Al   0.192584   0.101915  -0.023731  -0.000724  -0.006118  -0.023731
     2  Al   0.256483  -0.036140  -0.002698  -0.018454   0.000680  -0.034094
     3  Al   0.114039  -0.009678   0.104836   0.001817  -0.012110   0.104836
     4  Al  -0.010567   0.128059  -0.004834   0.269392   0.123439  -0.004834
     5  Al   0.080458   0.000680   0.004100   0.173785  -0.017441   0.203115
     6  Al  -0.014760   0.256483   0.326289  -0.000826   0.080458   0.000382
     7  Al  12.107885   0.002883   0.000382  -0.000826   0.002856   0.326289
     8  Al   0.002883  12.220826  -0.034094  -0.018454   0.234403  -0.002698
     9  Al   0.000382  -0.034094  12.081832  -0.038570   0.203115  -0.050103
    10  Al  -0.000826  -0.018454  -0.038570  12.087430   0.173785  -0.038570
    11  Al   0.002856   0.234403   0.203115   0.173785  12.260033   0.004100
    12  Al   0.326289  -0.002698  -0.050103  -0.038570   0.004100  12.081832
    13  Al  -0.017836   0.029380   0.000848   0.000151   0.001371   0.000848
    14  Al  -0.012714   0.003499   0.349085   0.334848  -0.030666   0.349085
    15  Al   0.000621   0.137100   0.000451  -0.001141  -0.009421   0.000451
    16  Al  -0.025245   0.028303   0.039432   0.033186   0.019273   0.039432
              13         14         15         16
     1  Al   0.209037   0.002412  -0.033675   0.014694
     2  Al   0.029380   0.003499   0.137100   0.028303
     3  Al   0.001415  -0.025262  -0.000644   0.071294
     4  Al  -0.019661  -0.015470   0.098904   0.006243
     5  Al   0.001371  -0.030666  -0.009421   0.019273
     6  Al  -0.017836  -0.012714   0.000621  -0.025245
     7  Al  -0.017836  -0.012714   0.000621  -0.025245
     8  Al   0.029380   0.003499   0.137100   0.028303
     9  Al   0.000848   0.349085   0.000451   0.039432
    10  Al   0.000151   0.334848  -0.001141   0.033186
    11  Al   0.001371  -0.030666  -0.009421   0.019273
    12  Al   0.000848   0.349085   0.000451   0.039432
    13  Al  12.393554  -0.000214   0.253801   0.008723
    14  Al  -0.000214  11.845950  -0.000041  -0.006235
    15  Al   0.253801  -0.000041  12.243259  -0.013971
    16  Al   0.008723  -0.006235  -0.013971  12.253919
          Atomic-Atomic Spin Densities.
               1          2          3          4          5          6
     1  Al   0.055089  -0.005272  -0.032121  -0.004817   0.000413  -0.003198
     2  Al  -0.005272   0.070664  -0.000476   0.046198  -0.016258   0.002088
     3  Al  -0.032121  -0.000476   0.697411  -0.000277   0.001780  -0.021921
     4  Al  -0.004817   0.046198  -0.000277  -0.417093   0.021901  -0.000231
     5  Al   0.000413  -0.016258   0.001780   0.021901   0.030285  -0.000111
     6  Al  -0.003198   0.002088  -0.021921  -0.000231  -0.000111  -0.042522
     7  Al  -0.003198   0.011038  -0.021921  -0.000231  -0.000414   0.000957
     8  Al  -0.005272   0.010283  -0.000476   0.046198  -0.001672   0.011038
     9  Al   0.002444  -0.000388  -0.019405  -0.001301  -0.000759   0.001057
    10  Al  -0.000111   0.000203  -0.000125   0.006714  -0.013713   0.000569
    11  Al   0.000413  -0.001672   0.001780   0.021901   0.000003  -0.000414
    12  Al   0.002444   0.002035  -0.019405  -0.001301  -0.003185   0.001568
    13  Al   0.006188   0.019645  -0.001421   0.003475  -0.000325   0.001862
    14  Al   0.000123  -0.000197  -0.002956   0.002047   0.000263   0.000311
    15  Al   0.008894  -0.072799  -0.000396  -0.062899   0.000736  -0.001195
    16  Al   0.016151   0.009405  -0.041902   0.019281   0.001512  -0.007808
               7          8          9         10         11         12
     1  Al  -0.003198  -0.005272   0.002444  -0.000111   0.000413   0.002444
     2  Al   0.011038   0.010283  -0.000388   0.000203  -0.001672   0.002035
     3  Al  -0.021921  -0.000476  -0.019405  -0.000125   0.001780  -0.019405
     4  Al  -0.000231   0.046198  -0.001301   0.006714   0.021901  -0.001301
     5  Al  -0.000414  -0.001672  -0.000759  -0.013713   0.000003  -0.003185
     6  Al   0.000957   0.011038   0.001057   0.000569  -0.000414   0.001568
     7  Al  -0.042522   0.002088   0.001568   0.000569  -0.000111   0.001057
     8  Al   0.002088   0.070664   0.002035   0.000203  -0.016258  -0.000388
     9  Al   0.001568   0.002035  -0.040971   0.002500  -0.003185  -0.001914
    10  Al   0.000569   0.000203   0.002500   0.187201  -0.013713   0.002500
    11  Al  -0.000111  -0.016258  -0.003185  -0.013713   0.030285  -0.000759
    12  Al   0.001057  -0.000388  -0.001914   0.002500  -0.000759  -0.040971
    13  Al   0.001862   0.019645  -0.000116   0.000131  -0.000325  -0.000116
    14  Al   0.000311  -0.000197   0.010065  -0.018479   0.000263   0.010065
    15  Al  -0.001195  -0.072799   0.000012  -0.000809   0.000736   0.000012
    16  Al  -0.007808   0.009405  -0.000644  -0.014420   0.001512  -0.000644
              13         14         15         16
     1  Al   0.006188   0.000123   0.008894   0.016151
     2  Al   0.019645  -0.000197  -0.072799   0.009405
     3  Al  -0.001421  -0.002956  -0.000396  -0.041902
     4  Al   0.003475   0.002047  -0.062899   0.019281
     5  Al  -0.000325   0.000263   0.000736   0.001512
     6  Al   0.001862   0.000311  -0.001195  -0.007808
     7  Al   0.001862   0.000311  -0.001195  -0.007808
     8  Al   0.019645  -0.000197  -0.072799   0.009405
     9  Al  -0.000116   0.010065   0.000012  -0.000644
    10  Al   0.000131  -0.018479  -0.000809  -0.014420
    11  Al  -0.000325   0.000263   0.000736   0.001512
    12  Al  -0.000116   0.010065   0.000012  -0.000644
    13  Al   0.038330   0.000027  -0.058088  -0.002226
    14  Al   0.000027  -0.120299  -0.000006   0.006865
    15  Al  -0.058088  -0.000006   0.908808  -0.000519
    16  Al  -0.002226   0.006865  -0.000519   0.075472
 Mulliken charges and spin densities:
               1          2
     1  Al  -0.041085   0.038171
     2  Al  -0.042469   0.074497
     3  Al   0.044978   0.538167
     4  Al  -0.064764  -0.320436
     5  Al  -0.027756   0.020457
     6  Al  -0.002534  -0.057951
     7  Al  -0.002534  -0.057951
     8  Al  -0.042469   0.074497
     9  Al   0.043662  -0.049002
    10  Al   0.043171   0.139218
    11  Al  -0.027756   0.020457
    12  Al   0.043662  -0.049002
    13  Al   0.125665   0.028549
    14  Al   0.245605  -0.111795
    15  Al   0.196006   0.648492
    16  Al   0.508619   0.063634
 Sum of Mulliken charges =   1.00000   1.00000
 Mulliken charges and spin densities with hydrogens summed into heavy atoms:
               1          2
     1  Al  -0.041085   0.038171
     2  Al  -0.042469   0.074497
     3  Al   0.044978   0.538167
     4  Al  -0.064764  -0.320436
     5  Al  -0.027756   0.020457
     6  Al  -0.002534  -0.057951
     7  Al  -0.002534  -0.057951
     8  Al  -0.042469   0.074497
     9  Al   0.043662  -0.049002
    10  Al   0.043171   0.139218
    11  Al  -0.027756   0.020457
    12  Al   0.043662  -0.049002
    13  Al   0.125665   0.028549
    14  Al   0.245605  -0.111795
    15  Al   0.196006   0.648492
    16  Al   0.508619   0.063634
 Electronic spatial extent (au):  <R**2>=           6765.3082
 Charge=              1.0000 electrons
 Dipole moment (field-independent basis, Debye):
    X=              0.2639    Y=              0.7675    Z=              0.0000  Tot=              0.8116
 Quadrupole moment (field-independent basis, Debye-Ang):
   XX=           -177.4323   YY=           -162.4986   ZZ=           -178.1129
   XY=              6.5041   XZ=              0.0000   YZ=              0.0000
 Traceless Quadrupole moment (field-independent basis, Debye-Ang):
   XX=             -4.7510   YY=             10.1826   ZZ=             -5.4317
   XY=              6.5041   XZ=              0.0000   YZ=              0.0000
 Octapole moment (field-independent basis, Debye-Ang**2):
  XXX=             -5.4746  YYY=             33.2501  ZZZ=              0.0000  XYY=              3.8863
  XXY=             -0.7225  XXZ=              0.0000  XZZ=              9.8756  YZZ=              4.5886
  YYZ=              0.0000  XYZ=              0.0000
 Hexadecapole moment (field-independent basis, Debye-Ang**3):
 XXXX=          -3308.8479 YYYY=          -4722.2672 ZZZZ=          -2744.6173 XXXY=           -401.7066
 XXXZ=              0.0000 YYYX=           -293.3935 YYYZ=              0.0000 ZZZX=              0.0000
 ZZZY=              0.0000 XXYY=          -1357.8868 XXZZ=           -990.1379 YYZZ=          -1323.2716
 XXYZ=              0.0000 YYXZ=              0.0000 ZZXY=           -111.9294
 N-N= 2.888086619117D+03 E-N=-1.500963468982D+04  KE= 3.870886625866D+03
 Symmetry A'   KE= 2.742185181400D+03
 Symmetry A"   KE= 1.128701444466D+03

 Test job not archived.
 1\1\GINC-R1I1N11\SP\UCCSD(T)-FC\CC-pVTZ\Al16(1+,2)\VSC31064\05-Oct-201
 6\0\\# CCSD(T,conver=5)/cc-pVTZ test geom=allcheck guess=read\\Al16-c-
 d\\1,2\Al,0,-1.34884882,-2.13604319,0.\Al,0,-1.8374184,0.23278599,1.58
 266423\Al,0,1.35391021,-2.56707693,0.\Al,0,-0.87291419,2.32240186,0.\A
 l,0,0.516563,1.35479948,2.26774368\Al,0,0.02959765,-1.50933276,-2.2969
 2202\Al,0,0.02959765,-1.50933276,2.29692202\Al,0,-1.8374184,0.23278599
 ,-1.58266423\Al,0,2.45735751,-0.60438171,-1.89920031\Al,0,1.79284981,2
 .40956906,0.\Al,0,0.516563,1.35479948,-2.26774368\Al,0,2.45735751,-0.6
 0438171,1.89920031\Al,0,-3.83993991,-1.08034437,0.\Al,0,3.69679695,0.6
 1571224,0.\Al,0,-3.65709912,1.52706464,0.\Al,0,0.542979,-0.03866502,0.
 \\Version=ES64L-G09RevD.01\State=2-A'\HF=-3870.6029674\MP2=-3872.10948
 37\MP3=-3871.8444172\MP4D=-3872.1192862\MP4DQ=-3872.0280231\PUHF=-3870
 .6171793\PMP2-0=-3872.1222752\PMP3-0=-3871.8542375\MP4SDQ=-3872.060440
 9\CCSD=-3871.9501652\CCSD(T)=-3872.1427939\S2=1.210211\S2-1=1.104099\S
 2A=0.873382\RMSD=9.315e-09\PG=CS [SG(Al8),X(Al8)]\\@


 WERE I TO AWAIT PERFECTION, MY BOOK WOULD NEVER BE FINISHED.
                                    -- HISTORY OF CHINESE WRITING

                                       TAI T'UNG, 13TH CENTURY
 Job cpu time:      35 days  4 hours 46 minutes 38.3 seconds.
 File lengths (MBytes):  RWF=  60204 Int=      0 D2E=      0 Chk=     22 Scr=      1
 Normal termination of Gaussian 09 at Wed Oct  5 00:01:30 2016.
