 Entering Gaussian System, Link 0=g09
 Initial command:
 /apps/leuven/thinking/software/G09//g09D1/l1.exe "/local_scratch/vsc31064/Gau-36568.inp" -scrdir="/local_scratch/vsc31064/"
 Entering Link 1 = /apps/leuven/thinking/software/G09//g09D1/l1.exe PID=     36572.
  
 Copyright (c) 1988,1990,1992,1993,1995,1998,2003,2009,2013,
            Gaussian, Inc.  All Rights Reserved.
  
 This is part of the Gaussian(R) 09 program.  It is based on
 the Gaussian(R) 03 system (copyright 2003, Gaussian, Inc.),
 the Gaussian(R) 98 system (copyright 1998, Gaussian, Inc.),
 the Gaussian(R) 94 system (copyright 1995, Gaussian, Inc.),
 the Gaussian 92(TM) system (copyright 1992, Gaussian, Inc.),
 the Gaussian 90(TM) system (copyright 1990, Gaussian, Inc.),
 the Gaussian 88(TM) system (copyright 1988, Gaussian, Inc.),
 the Gaussian 86(TM) system (copyright 1986, Carnegie Mellon
 University), and the Gaussian 82(TM) system (copyright 1983,
 Carnegie Mellon University). Gaussian is a federally registered
 trademark of Gaussian, Inc.
  
 This software contains proprietary and confidential information,
 including trade secrets, belonging to Gaussian, Inc.
  
 This software is provided under written license and may be
 used, copied, transmitted, or stored only in accord with that
 written license.
  
 The following legend is applicable only to US Government
 contracts under FAR:
  
                    RESTRICTED RIGHTS LEGEND
  
 Use, reproduction and disclosure by the US Government is
 subject to restrictions as set forth in subparagraphs (a)
 and (c) of the Commercial Computer Software - Restricted
 Rights clause in FAR 52.227-19.
  
 Gaussian, Inc.
 340 Quinnipiac St., Bldg. 40, Wallingford CT 06492
  
  
 ---------------------------------------------------------------
 Warning -- This program may not be used in any manner that
 competes with the business of Gaussian, Inc. or will provide
 assistance to any competitor of Gaussian, Inc.  The licensee
 of this program is prohibited from giving any competitor of
 Gaussian, Inc. access to this program.  By using this program,
 the user acknowledges that Gaussian, Inc. is engaged in the
 business of creating and licensing software in the field of
 computational chemistry and represents and warrants to the
 licensee that it is not a competitor of Gaussian, Inc. and that
 it will not use this program in any manner prohibited above.
 ---------------------------------------------------------------
  

 Cite this work as:
 Gaussian 09, Revision D.01,
 M. J. Frisch, G. W. Trucks, H. B. Schlegel, G. E. Scuseria, 
 M. A. Robb, J. R. Cheeseman, G. Scalmani, V. Barone, B. Mennucci, 
 G. A. Petersson, H. Nakatsuji, M. Caricato, X. Li, H. P. Hratchian, 
 A. F. Izmaylov, J. Bloino, G. Zheng, J. L. Sonnenberg, M. Hada, 
 M. Ehara, K. Toyota, R. Fukuda, J. Hasegawa, M. Ishida, T. Nakajima, 
 Y. Honda, O. Kitao, H. Nakai, T. Vreven, J. A. Montgomery, Jr., 
 J. E. Peralta, F. Ogliaro, M. Bearpark, J. J. Heyd, E. Brothers, 
 K. N. Kudin, V. N. Staroverov, T. Keith, R. Kobayashi, J. Normand, 
 K. Raghavachari, A. Rendell, J. C. Burant, S. S. Iyengar, J. Tomasi, 
 M. Cossi, N. Rega, J. M. Millam, M. Klene, J. E. Knox, J. B. Cross, 
 V. Bakken, C. Adamo, J. Jaramillo, R. Gomperts, R. E. Stratmann, 
 O. Yazyev, A. J. Austin, R. Cammi, C. Pomelli, J. W. Ochterski, 
 R. L. Martin, K. Morokuma, V. G. Zakrzewski, G. A. Voth, 
 P. Salvador, J. J. Dannenberg, S. Dapprich, A. D. Daniels, 
 O. Farkas, J. B. Foresman, J. V. Ortiz, J. Cioslowski, 
 and D. J. Fox, Gaussian, Inc., Wallingford CT, 2013.
 
 ******************************************
 Gaussian 09:  ES64L-G09RevD.01 24-Apr-2013
                 1-Oct-2016 
 ******************************************
 %NprocShared=20
 Will use up to   20 processors via shared memory.
 %mem=55000mb
 %chk=cc-Al17-a-s
 ------------------------
 # hf/6-31G* test scf=xqc
 ------------------------
 1/38=1/1;
 2/12=2,17=6,18=5,40=1/2;
 3/5=1,6=6,7=1,11=9,16=1,25=1,30=1/1,2,3;
 4//1;
 5/5=2,8=3,13=1,38=5/2,8;
 6/7=2,8=2,9=2,10=2,28=1/1;
 99/5=1,9=1/99;
 --------
 Al17-a-s
 --------
 Symbolic Z-matrix:
 Charge = -1 Multiplicity = 1
 Al                   -1.39826  -2.28101   0. 
 Al                   -2.23388   0.        1.49919 
 Al                    1.39826  -2.28101   0. 
 Al                   -1.39826   2.28101   0. 
 Al                    0.        1.41212   2.25094 
 Al                    0.       -1.41212  -2.25094 
 Al                    0.       -1.41212   2.25094 
 Al                   -2.23388   0.       -1.49919 
 Al                    2.23388   0.       -1.49919 
 Al                    1.39826   2.28101   0. 
 Al                    0.        1.41212  -2.25094 
 Al                    2.23388   0.        1.49919 
 Al                   -4.21267  -1.39529   0. 
 Al                    4.21267   1.39529   0. 
 Al                   -4.21267   1.39529   0. 
 Al                    0.        0.        0. 
 Al                    4.21267  -1.39529   0. 
 
                          Input orientation:                          
 ---------------------------------------------------------------------
 Center     Atomic      Atomic             Coordinates (Angstroms)
 Number     Number       Type             X           Y           Z
 ---------------------------------------------------------------------
      1         13           0       -1.398260   -2.281013    0.000000
      2         13           0       -2.233881    0.000000    1.499186
      3         13           0        1.398260   -2.281013    0.000000
      4         13           0       -1.398260    2.281013    0.000000
      5         13           0        0.000000    1.412118    2.250941
      6         13           0        0.000000   -1.412118   -2.250941
      7         13           0        0.000000   -1.412118    2.250941
      8         13           0       -2.233881    0.000000   -1.499186
      9         13           0        2.233881    0.000000   -1.499186
     10         13           0        1.398260    2.281013    0.000000
     11         13           0        0.000000    1.412118   -2.250941
     12         13           0        2.233881    0.000000    1.499186
     13         13           0       -4.212672   -1.395293    0.000000
     14         13           0        4.212672    1.395293    0.000000
     15         13           0       -4.212672    1.395293    0.000000
     16         13           0        0.000000    0.000000    0.000000
     17         13           0        4.212672   -1.395293    0.000000
 ---------------------------------------------------------------------
                    Distance matrix (angstroms):
                    1          2          3          4          5
     1  Al   0.000000
     2  Al   2.854618   0.000000
     3  Al   2.796520   4.543460   0.000000
     4  Al   4.562026   2.854618   5.350945   0.000000
     5  Al   4.545446   2.747624   4.545446   2.788699   0.000000
     6  Al   2.788699   4.587783   2.788699   4.545446   5.314437
     7  Al   2.788699   2.747624   2.788699   4.545446   2.824235
     8  Al   2.854618   2.998372   4.543460   2.854618   4.587783
     9  Al   4.543460   5.380626   2.854618   4.543460   4.587783
    10  Al   5.350945   4.543460   4.562026   2.796520   2.788699
    11  Al   4.545446   4.587783   4.545446   2.788699   4.501881
    12  Al   4.543460   4.467762   2.854618   4.543460   2.747624
    13  Al   2.950494   2.847809   5.680410   4.629918   5.540297
    14  Al   6.708039   6.764056   4.629918   5.680410   4.776361
    15  Al   4.629918   2.847809   6.708039   2.950494   4.776361
    16  Al   2.675472   2.690313   2.675472   2.675472   2.657218
    17  Al   5.680410   6.764056   2.950494   6.708039   5.540297
                    6          7          8          9         10
     6  Al   0.000000
     7  Al   4.501881   0.000000
     8  Al   2.747624   4.587783   0.000000
     9  Al   2.747624   4.587783   4.467762   0.000000
    10  Al   4.545446   4.545446   4.543460   2.854618   0.000000
    11  Al   2.824235   5.314437   2.747624   2.747624   2.788699
    12  Al   4.587783   2.747624   5.380626   2.998372   2.854618
    13  Al   4.776361   4.776361   2.847809   6.764056   6.708039
    14  Al   5.540297   5.540297   6.764056   2.847809   2.950494
    15  Al   5.540297   5.540297   2.847809   6.764056   5.680410
    16  Al   2.657218   2.657218   2.690313   2.690313   2.675472
    17  Al   4.776361   4.776361   6.764056   2.847809   4.629918
                   11         12         13         14         15
    11  Al   0.000000
    12  Al   4.587783   0.000000
    13  Al   5.540297   6.764056   0.000000
    14  Al   4.776361   2.847809   8.875460   0.000000
    15  Al   4.776361   6.764056   2.790586   8.425344   0.000000
    16  Al   2.657218   2.690313   4.437730   4.437730   4.437730
    17  Al   5.540297   2.847809   8.425344   2.790586   8.875460
                   16         17
    16  Al   0.000000
    17  Al   4.437730   0.000000
 Stoichiometry    Al17(1-)
 Framework group  D2H[O(Al),SG(Al4),SG'(Al4),SG"(Al8)]
 Deg. of freedom     8
 Full point group                 D2H     NOp   8
 Largest Abelian subgroup         D2H     NOp   8
 Largest concise Abelian subgroup D2H     NOp   8
                         Standard orientation:                         
 ---------------------------------------------------------------------
 Center     Atomic      Atomic             Coordinates (Angstroms)
 Number     Number       Type             X           Y           Z
 ---------------------------------------------------------------------
      1         13           0        1.398260    2.281013    0.000000
      2         13           0        2.233881    0.000000    1.499186
      3         13           0       -1.398260    2.281013    0.000000
      4         13           0        1.398260   -2.281013    0.000000
      5         13           0        0.000000   -1.412118    2.250941
      6         13           0        0.000000    1.412118   -2.250941
      7         13           0        0.000000    1.412118    2.250941
      8         13           0        2.233881    0.000000   -1.499186
      9         13           0       -2.233881    0.000000   -1.499186
     10         13           0       -1.398260   -2.281013    0.000000
     11         13           0        0.000000   -1.412118   -2.250941
     12         13           0       -2.233881    0.000000    1.499186
     13         13           0        4.212672    1.395293    0.000000
     14         13           0       -4.212672   -1.395293    0.000000
     15         13           0        4.212672   -1.395293    0.000000
     16         13           0        0.000000    0.000000    0.000000
     17         13           0       -4.212672    1.395293    0.000000
 ---------------------------------------------------------------------
 Rotational constants (GHZ):      0.2845164      0.1463038      0.1383925
 Standard basis: 6-31G(d) (6D, 7F)
 There are    63 symmetry adapted cartesian basis functions of AG  symmetry.
 There are    39 symmetry adapted cartesian basis functions of B1G symmetry.
 There are    30 symmetry adapted cartesian basis functions of B2G symmetry.
 There are    30 symmetry adapted cartesian basis functions of B3G symmetry.
 There are    20 symmetry adapted cartesian basis functions of AU  symmetry.
 There are    41 symmetry adapted cartesian basis functions of B1U symmetry.
 There are    50 symmetry adapted cartesian basis functions of B2U symmetry.
 There are    50 symmetry adapted cartesian basis functions of B3U symmetry.
 There are    63 symmetry adapted basis functions of AG  symmetry.
 There are    39 symmetry adapted basis functions of B1G symmetry.
 There are    30 symmetry adapted basis functions of B2G symmetry.
 There are    30 symmetry adapted basis functions of B3G symmetry.
 There are    20 symmetry adapted basis functions of AU  symmetry.
 There are    41 symmetry adapted basis functions of B1U symmetry.
 There are    50 symmetry adapted basis functions of B2U symmetry.
 There are    50 symmetry adapted basis functions of B3U symmetry.
   323 basis functions,   884 primitive gaussians,   323 cartesian basis functions
   111 alpha electrons      111 beta electrons
       nuclear repulsion energy      3182.7322886827 Hartrees.
 NAtoms=   17 NActive=   17 NUniq=    5 SFac= 4.00D+00 NAtFMM=   60 NAOKFM=F Big=F
 Integral buffers will be    131072 words long.
 Raffenetti 1 integral format.
 Two-electron integral symmetry is turned on.
 One-electron integrals computed using PRISM.
 NBasis=   323 RedAO= T EigKep=  4.70D-04  NBF=    63    39    30    30    20    41    50    50
 NBsUse=   323 1.00D-06 EigRej= -1.00D+00 NBFU=    63    39    30    30    20    41    50    50
 ExpMin= 5.57D-02 ExpMax= 1.40D+04 ExpMxC= 2.10D+03 IAcc=2 IRadAn=         4 AccDes= 0.00D+00
 Harris functional with IExCor=  205 and IRadAn=       4 diagonalized for initial guess.
 HarFok:  IExCor=  205 AccDes= 0.00D+00 IRadAn=         4 IDoV= 1 UseB2=F ITyADJ=14
 ICtDFT=  3500011 ScaDFX=  1.000000  1.000000  1.000000  1.000000
 FoFCou: FMM=F IPFlag=           0 FMFlag=      100000 FMFlg1=           0
         NFxFlg=           0 DoJE=T BraDBF=F KetDBF=T FulRan=T
         wScrn=  0.000000 ICntrl=     500 IOpCl=  0 I1Cent=   200000004 NGrid=           0
         NMat0=    1 NMatS0=      1 NMatT0=    0 NMatD0=    1 NMtDS0=    0 NMtDT0=    0
 Petite list used in FoFCou.
 Initial guess orbital symmetries:
       Occupied  (AG) (B3U) (B1U) (AG) (B2G) (B2U) (B3U) (AG) (B1G)
                 (B1U) (B2U) (AG) (B3G) (B1G) (B2U) (B3U) (AG)
                 (AG) (B3U) (B1U) (B2G) (AG) (B2U) (AG) (B3U) (B1G)
                 (B1U) (AG) (B2U) (B3G) (B3U) (AG) (B1G) (B2U)
                 (B1U) (B2U) (B3U) (B3U) (AG) (B1U) (B2G) (B3U)
                 (B1G) (B2U) (AU) (B3G) (AG) (B2G) (B1U) (B2U)
                 (AG) (B3U) (B1G) (B1U) (AG) (B3G) (B2U) (AG) (B2U)
                 (B3U) (B1G) (B3G) (B2G) (B1U) (AU) (B3U) (B1G)
                 (B2G) (AU) (AG) (B1U) (B2U) (B3G) (B3U) (AG) (B1G)
                 (B2U) (B3U) (AG) (B2U) (B1G) (B1U) (B2G) (AU)
                 (B3G) (AG) (B3U) (B1U) (B2U) (AG) (B1G) (B3U)
                 (B2G) (AG) (B3G) (AG) (B2U) (B1U) (AG) (B1G) (B3U)
                 (AU) (B3U) (B1U) (B2U) (B1U) (B2U) (B2G) (B3U)
                 (AG) (B2U)
       Virtual   (B1G) (B3G) (AG) (B3G) (B3U) (AG) (B1G) (B2G)
                 (B1U) (AG) (AU) (B3G) (B2G) (B1G) (AG) (AG) (B2U)
                 (B3U) (AG) (B2G) (B2U) (B1U) (B3U) (B1U) (B3G)
                 (B2U) (B3U) (B1G) (B1U) (AU) (B2U) (B3U) (AU)
                 (B2U) (B1U) (B2U) (AG) (B3U) (B1U) (B2G) (B1G)
                 (AG) (AU) (B2U) (B1G) (B3G) (AG) (B3G) (B3U) (B2G)
                 (AG) (AG) (B2G) (B1G) (B3U) (B1G) (B3G) (B3U)
                 (B2U) (B1U) (AG) (B1G) (B3G) (B2U) (AG) (B1U)
                 (B3U) (B2G) (AG) (AU) (B2U) (B3U) (AG) (B1U) (B2G)
                 (B3G) (B1U) (B1G) (B2U) (AU) (B1U) (B2U) (B1G)
                 (B3U) (B2U) (AU) (B2G) (AG) (B3U) (B1U) (B2G)
                 (B3G) (AG) (B1G) (B3U) (B2U) (AG) (B1G) (B3G)
                 (B3G) (B2G) (B1U) (B3U) (B2U) (AG) (B3U) (B1U)
                 (AU) (AG) (B1G) (B2U) (B1U) (AU) (B2U) (B2G) (AU)
                 (B2U) (B3G) (B1G) (AG) (B3U) (AG) (B2G) (B3U)
                 (B1G) (AG) (B3G) (AG) (B1U) (B3U) (B1G) (B2G)
                 (AG) (B3U) (B3G) (B1U) (B1G) (AU) (AU) (B3U) (B1G)
                 (B1U) (B2U) (B2G) (B2U) (B3G) (AG) (B3U) (AG)
                 (B2U) (B1U) (AG) (B1U) (B2G) (B3G) (B2U) (B3U)
                 (AG) (B1U) (B1G) (B2U) (B2G) (B3G) (B2U) (B3U)
                 (AU) (B1G) (B2U) (B1U) (AG) (B3U) (AU) (B2U) (B2G)
                 (B3G) (B1U) (B3U) (B1G) (B2U) (B1G) (B3G) (AU)
                 (B1G) (B2G) (AG) (B2G) (AG) (B3G) (B1G) (B3U)
                 (AG) (B3U) (B2U) (B1U) (AG) (AG) (B3U) (AG) (B2G)
                 (B1U) (B3U) (B1G) (B2U) (AG) (B3G) (B2U) (B1G)
                 (AG) (B1U) (B2U) (B3U) (AG)
 The electronic state of the initial guess is 1-AG.
 Keep R1 ints in memory in symmetry-blocked form, NReq=1541549667.
 Requested convergence on RMS density matrix=1.00D-08 within  64 cycles.
 Requested convergence on MAX density matrix=1.00D-06.
 Requested convergence on             energy=1.00D-06.
 No special actions if energy rises.
 SCF Done:  E(RHF) =  -4112.40567648     A.U. after   16 cycles
            NFock= 16  Conv=0.86D-08     -V/T= 2.0002
 QCSCF skips out because SCF is already converged.

 **********************************************************************

            Population analysis using the SCF density.

 **********************************************************************

 Orbital symmetries:
       Occupied  (B2U) (B3U) (AG) (B1G) (B1U) (B2U) (B3G) (AG)
                 (B3U) (B1U) (B2G) (AG) (B1G) (B2U) (B3U) (AG)
                 (AG) (B2U) (AG) (B3U) (B1G) (B1U) (AG) (B3G) (B2U)
                 (B3U) (AG) (B2G) (B1U) (B3U) (AG) (B2U) (B1G)
                 (AG) (B2U) (AG) (B3U) (B1G) (B3G) (B1U) (AU) (B2G)
                 (AG) (B2U) (B1U) (AG) (B3G) (B2U) (B1G) (B3U)
                 (AG) (B1U) (B2U) (B3G) (B3U) (B2G) (B1G) (AU)
                 (B3U) (AG) (B2G) (B1U) (B2U) (B3G) (B1G) (AU)
                 (AG) (B3U) (B1U) (B2G) (B1U) (B2G) (AU) (B3G)
                 (B3U) (AG) (B1G) (B2U) (B3U) (AG) (B2U) (B1G)
                 (B1U) (B2U) (B3U) (AG) (B3U) (B1U) (B2U) (AG)
                 (B1G) (B3U) (B2G) (AG) (B3G) (AG) (B2U) (B1U)
                 (AG) (B1G) (B3U) (B3U) (AU) (B1U) (B2U) (B1U)
                 (B2U) (B2G) (B3U) (AG) (B2U)
       Virtual   (B1G) (B3G) (AG) (B3U) (AG) (B3G) (B1G) (B2G)
                 (AG) (B1U) (B3G) (B2G) (AG) (AU) (B1G) (AG) (B2U)
                 (B3U) (AG) (B1U) (B2G) (B2U) (B1U) (B3U) (B2U)
                 (B3U) (B1U) (B3G) (B1G) (B2U) (B3U) (AU) (B2U)
                 (AU) (AG) (B1U) (B2U) (B3U) (B1G) (B2G) (B1U)
                 (AG) (B3G) (B1G) (AG) (B2U) (B3G) (AU) (B2G) (B3U)
                 (B1G) (AG) (B3U) (AG) (B1G) (B3G) (B2G) (B2U)
                 (AG) (B3G) (B3U) (AG) (B1G) (B1U) (B2G) (B2U)
                 (AG) (B1U) (AU) (B3U) (B2U) (B2G) (B1U) (B3G)
                 (B3U) (B2U) (AU) (B1U) (AG) (B1U) (B1G) (B1G)
                 (B2U) (B3U) (AU) (B2U) (B1U) (B2G) (B3U) (AG)
                 (B2U) (B3G) (AG) (B3U) (B1G) (B2G) (B3G) (B1G)
                 (AG) (B1G) (B3U) (B3G) (B1U) (AG) (B2G) (B2U)
                 (B1U) (B3U) (AU) (B2U) (AG) (B1U) (B2U) (B3U)
                 (AU) (B1G) (B2G) (B3G) (B2U) (AG) (AU) (AG) (B3U)
                 (B1G) (B2G) (AG) (B3G) (B2G) (B1U) (B3U) (B1G)
                 (AG) (B3U) (AG) (B3G) (B1G) (B1U) (AU) (B2U) (B3U)
                 (B1U) (B1G) (B3G) (AU) (AG) (B2U) (B2G) (B3U)
                 (AG) (B2U) (AG) (B1U) (B3G) (AG) (B2U) (B2G) (B1U)
                 (B1G) (B2U) (B3U) (B1U) (B3G) (B2G) (B2U) (B1G)
                 (B3U) (AU) (B3U) (B2U) (AG) (B1U) (B2G) (AU) (B2U)
                 (B1U) (B3G) (B1G) (B3U) (B2U) (B1G) (AU) (B1G)
                 (B3G) (B3U) (B2G) (AG) (B2G) (AG) (B1G) (B3G)
                 (AG) (B3U) (B2U) (B1U) (AG) (AG) (B3U) (B2G) (B1U)
                 (B1G) (B2U) (B3U) (AG) (B3G) (B2U) (B1G) (AG)
                 (AG) (B1U) (B2U) (B3U) (AG)
 The electronic state is 1-AG.
 Alpha  occ. eigenvalues --  -58.37646 -58.37645 -58.37645 -58.37645 -58.37498
 Alpha  occ. eigenvalues --  -58.37498 -58.37498 -58.37498 -58.37214 -58.37214
 Alpha  occ. eigenvalues --  -58.37214 -58.37214 -58.36732 -58.36732 -58.36731
 Alpha  occ. eigenvalues --  -58.36731 -58.31992  -4.79620  -4.79620  -4.79615
 Alpha  occ. eigenvalues --   -4.79615  -4.79513  -4.79512  -4.79508  -4.79508
 Alpha  occ. eigenvalues --   -4.79291  -4.79291  -4.79289  -4.79288  -4.78528
 Alpha  occ. eigenvalues --   -4.78528  -4.78524  -4.78524  -4.75457  -3.10844
 Alpha  occ. eigenvalues --   -3.10843  -3.10835  -3.10835  -3.10784  -3.10784
 Alpha  occ. eigenvalues --   -3.10777  -3.10776  -3.10717  -3.10715  -3.10708
 Alpha  occ. eigenvalues --   -3.10704  -3.10694  -3.10694  -3.10681  -3.10681
 Alpha  occ. eigenvalues --   -3.10603  -3.10602  -3.10584  -3.10583  -3.10562
 Alpha  occ. eigenvalues --   -3.10561  -3.10560  -3.10558  -3.10550  -3.10549
 Alpha  occ. eigenvalues --   -3.10536  -3.10536  -3.10496  -3.10496  -3.10492
 Alpha  occ. eigenvalues --   -3.10492  -3.10396  -3.10394  -3.10393  -3.10390
 Alpha  occ. eigenvalues --   -3.09440  -3.09440  -3.09436  -3.09436  -3.09433
 Alpha  occ. eigenvalues --   -3.09433  -3.09416  -3.09416  -3.09415  -3.09415
 Alpha  occ. eigenvalues --   -3.09398  -3.09398  -3.06847  -3.06843  -3.06796
 Alpha  occ. eigenvalues --   -0.64985  -0.54464  -0.51742  -0.51655  -0.46148
 Alpha  occ. eigenvalues --   -0.38466  -0.36807  -0.36061  -0.34947  -0.34559
 Alpha  occ. eigenvalues --   -0.31207  -0.29833  -0.22775  -0.22156  -0.19786
 Alpha  occ. eigenvalues --   -0.19555  -0.16415  -0.16350  -0.15826  -0.15657
 Alpha  occ. eigenvalues --   -0.15609  -0.15467  -0.14295  -0.12650  -0.12448
 Alpha  occ. eigenvalues --   -0.10335
 Alpha virt. eigenvalues --    0.06642   0.06884   0.07625   0.09818   0.09856
 Alpha virt. eigenvalues --    0.09923   0.09953   0.12098   0.13712   0.13890
 Alpha virt. eigenvalues --    0.14602   0.15152   0.15255   0.15570   0.16271
 Alpha virt. eigenvalues --    0.16367   0.17246   0.17954   0.19643   0.20100
 Alpha virt. eigenvalues --    0.20835   0.20999   0.21373   0.21465   0.22590
 Alpha virt. eigenvalues --    0.23569   0.23898   0.24366   0.24369   0.24810
 Alpha virt. eigenvalues --    0.25746   0.26055   0.26107   0.26345   0.27176
 Alpha virt. eigenvalues --    0.27475   0.27656   0.28945   0.30364   0.31034
 Alpha virt. eigenvalues --    0.31359   0.32535   0.32633   0.33504   0.33813
 Alpha virt. eigenvalues --    0.34383   0.34592   0.35238   0.35709   0.36789
 Alpha virt. eigenvalues --    0.37636   0.38000   0.39661   0.40445   0.41003
 Alpha virt. eigenvalues --    0.41334   0.41531   0.42142   0.42299   0.42374
 Alpha virt. eigenvalues --    0.42636   0.43298   0.43804   0.44045   0.45243
 Alpha virt. eigenvalues --    0.45427   0.46370   0.46428   0.46525   0.46874
 Alpha virt. eigenvalues --    0.47266   0.47593   0.49070   0.49152   0.49322
 Alpha virt. eigenvalues --    0.50249   0.50515   0.51516   0.52271   0.52406
 Alpha virt. eigenvalues --    0.53171   0.53587   0.53856   0.54297   0.54374
 Alpha virt. eigenvalues --    0.55436   0.55833   0.57244   0.57431   0.57741
 Alpha virt. eigenvalues --    0.59006   0.59532   0.60069   0.60494   0.60677
 Alpha virt. eigenvalues --    0.61159   0.63024   0.63066   0.64573   0.65774
 Alpha virt. eigenvalues --    0.65823   0.66966   0.67443   0.67591   0.67811
 Alpha virt. eigenvalues --    0.68649   0.70028   0.70871   0.71342   0.71476
 Alpha virt. eigenvalues --    0.72327   0.72626   0.73826   0.74447   0.75016
 Alpha virt. eigenvalues --    0.76690   0.76727   0.77018   0.77468   0.77565
 Alpha virt. eigenvalues --    0.77594   0.77690   0.79463   0.80088   0.80325
 Alpha virt. eigenvalues --    0.81608   0.82410   0.82429   0.82494   0.82753
 Alpha virt. eigenvalues --    0.83105   0.83865   0.85640   0.86919   0.88566
 Alpha virt. eigenvalues --    0.88816   0.89463   0.89466   0.90336   0.90603
 Alpha virt. eigenvalues --    0.90687   0.90811   0.91113   0.91713   0.93009
 Alpha virt. eigenvalues --    0.93116   0.93307   0.96095   0.96679   0.97915
 Alpha virt. eigenvalues --    0.97962   0.98587   0.99664   0.99885   1.00301
 Alpha virt. eigenvalues --    1.00972   1.01195   1.01597   1.02719   1.03632
 Alpha virt. eigenvalues --    1.04961   1.05076   1.05280   1.05997   1.06615
 Alpha virt. eigenvalues --    1.06619   1.07585   1.08498   1.08586   1.08918
 Alpha virt. eigenvalues --    1.10053   1.10452   1.10843   1.12137   1.12946
 Alpha virt. eigenvalues --    1.12982   1.13614   1.13798   1.15021   1.18795
 Alpha virt. eigenvalues --    1.19329   1.19508   1.19566   1.20137   1.20385
 Alpha virt. eigenvalues --    1.22745   1.25019   1.25034   1.25595   1.25878
 Alpha virt. eigenvalues --    1.29354   1.90410   1.94894   1.97028   2.04210
 Alpha virt. eigenvalues --    2.41316   2.41703   2.46840   2.47166   2.47265
 Alpha virt. eigenvalues --    2.47595   2.47990   2.48691   2.48967   2.49010
 Alpha virt. eigenvalues --    2.49521   2.49629   2.54273   2.74099   2.74647
 Alpha virt. eigenvalues --    2.76343   3.81001
          Condensed to atoms (all electrons):
               1          2          3          4          5          6
     1  Al  13.757957  -0.069332   0.281118   0.009766   0.019972   0.005133
     2  Al  -0.069332  13.847217  -0.022231  -0.069332   0.199258   0.002650
     3  Al   0.281118  -0.022231  13.757957  -0.026974   0.019972   0.005133
     4  Al   0.009766  -0.069332  -0.026974  13.757957   0.005133   0.019972
     5  Al   0.019972   0.199258   0.019972   0.005133  13.315740  -0.034185
     6  Al   0.005133   0.002650   0.005133   0.019972  -0.034185  13.315740
     7  Al   0.005133   0.199258   0.005133   0.019972  -0.003755   0.037047
     8  Al  -0.069332  -0.086492  -0.022231  -0.069332   0.002650   0.199258
     9  Al  -0.022231  -0.011249  -0.069332  -0.022231   0.002650   0.199258
    10  Al  -0.026974  -0.022231   0.009766   0.281118   0.005133   0.019972
    11  Al   0.019972   0.002650   0.019972   0.005133   0.037047  -0.003755
    12  Al  -0.022231  -0.108623  -0.069332  -0.022231   0.199258   0.002650
    13  Al  -0.004958  -0.036110   0.015048  -0.028479   0.016708  -0.011438
    14  Al  -0.002587  -0.003042  -0.028479   0.015048  -0.011438   0.016708
    15  Al  -0.028479  -0.036110  -0.002587  -0.004958  -0.011438   0.016708
    16  Al  -0.721011  -0.646411  -0.721011  -0.721011  -0.718735  -0.718735
    17  Al   0.015048  -0.003042  -0.004958  -0.002587   0.016708  -0.011438
               7          8          9         10         11         12
     1  Al   0.005133  -0.069332  -0.022231  -0.026974   0.019972  -0.022231
     2  Al   0.199258  -0.086492  -0.011249  -0.022231   0.002650  -0.108623
     3  Al   0.005133  -0.022231  -0.069332   0.009766   0.019972  -0.069332
     4  Al   0.019972  -0.069332  -0.022231   0.281118   0.005133  -0.022231
     5  Al  -0.003755   0.002650   0.002650   0.005133   0.037047   0.199258
     6  Al   0.037047   0.199258   0.199258   0.019972  -0.003755   0.002650
     7  Al  13.315740   0.002650   0.002650   0.019972  -0.034185   0.199258
     8  Al   0.002650  13.847217  -0.108623  -0.022231   0.199258  -0.011249
     9  Al   0.002650  -0.108623  13.847217  -0.069332   0.199258  -0.086492
    10  Al   0.019972  -0.022231  -0.069332  13.757957   0.005133  -0.069332
    11  Al  -0.034185   0.199258   0.199258   0.005133  13.315740   0.002650
    12  Al   0.199258  -0.011249  -0.086492  -0.069332   0.002650  13.847217
    13  Al  -0.011438  -0.036110  -0.003042  -0.002587   0.016708  -0.003042
    14  Al   0.016708  -0.003042  -0.036110  -0.004958  -0.011438  -0.036110
    15  Al   0.016708  -0.036110  -0.003042   0.015048  -0.011438  -0.003042
    16  Al  -0.718735  -0.646411  -0.646411  -0.721011  -0.718735  -0.646411
    17  Al  -0.011438  -0.003042  -0.036110  -0.028479   0.016708  -0.036110
              13         14         15         16         17
     1  Al  -0.004958  -0.002587  -0.028479  -0.721011   0.015048
     2  Al  -0.036110  -0.003042  -0.036110  -0.646411  -0.003042
     3  Al   0.015048  -0.028479  -0.002587  -0.721011  -0.004958
     4  Al  -0.028479   0.015048  -0.004958  -0.721011  -0.002587
     5  Al   0.016708  -0.011438  -0.011438  -0.718735   0.016708
     6  Al  -0.011438   0.016708   0.016708  -0.718735  -0.011438
     7  Al  -0.011438   0.016708   0.016708  -0.718735  -0.011438
     8  Al  -0.036110  -0.003042  -0.036110  -0.646411  -0.003042
     9  Al  -0.003042  -0.036110  -0.003042  -0.646411  -0.036110
    10  Al  -0.002587  -0.004958   0.015048  -0.721011  -0.028479
    11  Al   0.016708  -0.011438  -0.011438  -0.718735   0.016708
    12  Al  -0.003042  -0.036110  -0.003042  -0.646411  -0.036110
    13  Al  12.932366  -0.000008   0.048792  -0.000594  -0.000009
    14  Al  -0.000008  12.932366  -0.000009  -0.000594   0.048792
    15  Al   0.048792  -0.000009  12.932366  -0.000594  -0.000008
    16  Al  -0.000594  -0.000594  -0.000594  21.401892  -0.000594
    17  Al  -0.000009   0.048792  -0.000008  -0.000594  12.932366
 Mulliken charges:
               1
     1  Al  -0.146965
     2  Al  -0.136830
     3  Al  -0.146965
     4  Al  -0.146965
     5  Al  -0.060677
     6  Al  -0.060677
     7  Al  -0.060677
     8  Al  -0.136830
     9  Al  -0.136830
    10  Al  -0.146965
    11  Al  -0.060677
    12  Al  -0.136830
    13  Al   0.108194
    14  Al   0.108194
    15  Al   0.108194
    16  Al  -0.054887
    17  Al   0.108194
 Sum of Mulliken charges =  -1.00000
 Mulliken charges with hydrogens summed into heavy atoms:
               1
     1  Al  -0.146965
     2  Al  -0.136830
     3  Al  -0.146965
     4  Al  -0.146965
     5  Al  -0.060677
     6  Al  -0.060677
     7  Al  -0.060677
     8  Al  -0.136830
     9  Al  -0.136830
    10  Al  -0.146965
    11  Al  -0.060677
    12  Al  -0.136830
    13  Al   0.108194
    14  Al   0.108194
    15  Al   0.108194
    16  Al  -0.054887
    17  Al   0.108194
 Electronic spatial extent (au):  <R**2>=           8248.3408
 Charge=             -1.0000 electrons
 Dipole moment (field-independent basis, Debye):
    X=              0.0000    Y=              0.0000    Z=              0.0000  Tot=              0.0000
 Quadrupole moment (field-independent basis, Debye-Ang):
   XX=           -323.8117   YY=           -252.8272   ZZ=           -239.7166
   XY=              0.0000   XZ=              0.0000   YZ=              0.0000
 Traceless Quadrupole moment (field-independent basis, Debye-Ang):
   XX=            -51.6932   YY=             19.2913   ZZ=             32.4019
   XY=              0.0000   XZ=              0.0000   YZ=              0.0000
 Octapole moment (field-independent basis, Debye-Ang**2):
  XXX=              0.0000  YYY=              0.0000  ZZZ=              0.0000  XYY=              0.0000
  XXY=              0.0000  XXZ=              0.0000  XZZ=              0.0000  YZZ=              0.0000
  YYZ=              0.0000  XYZ=              0.0000
 Hexadecapole moment (field-independent basis, Debye-Ang**3):
 XXXX=         -11658.8508 YYYY=          -3771.8606 ZZZZ=          -3040.8114 XXXY=              0.0000
 XXXZ=              0.0000 YYYX=              0.0000 YYYZ=              0.0000 ZZZX=              0.0000
 ZZZY=              0.0000 XXYY=          -2527.9226 XXZZ=          -2020.8591 YYZZ=          -1125.3933
 XXYZ=              0.0000 YYXZ=              0.0000 ZZXY=              0.0000
 N-N= 3.182732288683D+03 E-N=-1.622341282508D+04  KE= 4.111691646051D+03
 Symmetry AG   KE= 1.068446857987D+03
 Symmetry B1G  KE= 4.823019868437D+02
 Symmetry B2G  KE= 2.820211652174D+02
 Symmetry B3G  KE= 2.804693193433D+02
 Symmetry AU   KE= 8.032266879451D+01
 Symmetry B1U  KE= 5.047448622569D+02
 Symmetry B2U  KE= 7.069027800512D+02
 Symmetry B3U  KE= 7.064820055566D+02

 Test job not archived.
 1\1\GINC-R1I1N4\SP\RHF\6-31G(d)\Al17(1-)\VSC31064\01-Oct-2016\0\\# hf/
 6-31G* test scf=xqc\\Al17-a-s\\-1,1\Al,0,-1.3982601,-2.28101304,0.\Al,
 0,-2.23388107,0.,1.49918599\Al,0,1.3982601,-2.28101304,0.\Al,0,-1.3982
 601,2.28101304,0.\Al,0,0.,1.41211764,2.25094056\Al,0,0.,-1.41211764,-2
 .25094056\Al,0,0.,-1.41211764,2.25094056\Al,0,-2.23388107,0.,-1.499185
 99\Al,0,2.23388107,0.,-1.49918599\Al,0,1.3982601,2.28101304,0.\Al,0,0.
 ,1.41211764,-2.25094056\Al,0,2.23388107,0.,1.49918599\Al,0,-4.21267208
 ,-1.39529299,0.\Al,0,4.21267208,1.39529299,0.\Al,0,-4.21267208,1.39529
 299,0.\Al,0,0.,0.,0.\Al,0,4.21267208,-1.39529299,0.\\Version=ES64L-G09
 RevD.01\State=1-AG\HF=-4112.4056765\RMSD=8.570e-09\Dipole=0.,0.,0.\Qua
 drupole=-38.4326512,14.3426224,24.0900288,0.,0.,0.\PG=D02H [O(Al1),SG(
 Al4),SG'(Al4),SG"(Al8)]\\@


 SCIENCE IS LONG AND LIFE IS SHORT.

                     DON MOSER IN THE FEBRUARY 1979 SMITHSONIAN
 Job cpu time:       0 days  0 hours  2 minutes 41.9 seconds.
 File lengths (MBytes):  RWF=     40 Int=      0 D2E=      0 Chk=      5 Scr=      1
 Normal termination of Gaussian 09 at Sat Oct  1 15:23:09 2016.
 Initial command:
 /apps/leuven/thinking/software/G09//g09D1/l1.exe "/local_scratch/vsc31064/Gau-36568.inp" -scrdir="/local_scratch/vsc31064/"
 Entering Link 1 = /apps/leuven/thinking/software/G09//g09D1/l1.exe PID=     36802.
  
 Copyright (c) 1988,1990,1992,1993,1995,1998,2003,2009,2013,
            Gaussian, Inc.  All Rights Reserved.
  
 This is part of the Gaussian(R) 09 program.  It is based on
 the Gaussian(R) 03 system (copyright 2003, Gaussian, Inc.),
 the Gaussian(R) 98 system (copyright 1998, Gaussian, Inc.),
 the Gaussian(R) 94 system (copyright 1995, Gaussian, Inc.),
 the Gaussian 92(TM) system (copyright 1992, Gaussian, Inc.),
 the Gaussian 90(TM) system (copyright 1990, Gaussian, Inc.),
 the Gaussian 88(TM) system (copyright 1988, Gaussian, Inc.),
 the Gaussian 86(TM) system (copyright 1986, Carnegie Mellon
 University), and the Gaussian 82(TM) system (copyright 1983,
 Carnegie Mellon University). Gaussian is a federally registered
 trademark of Gaussian, Inc.
  
 This software contains proprietary and confidential information,
 including trade secrets, belonging to Gaussian, Inc.
  
 This software is provided under written license and may be
 used, copied, transmitted, or stored only in accord with that
 written license.
  
 The following legend is applicable only to US Government
 contracts under FAR:
  
                    RESTRICTED RIGHTS LEGEND
  
 Use, reproduction and disclosure by the US Government is
 subject to restrictions as set forth in subparagraphs (a)
 and (c) of the Commercial Computer Software - Restricted
 Rights clause in FAR 52.227-19.
  
 Gaussian, Inc.
 340 Quinnipiac St., Bldg. 40, Wallingford CT 06492
  
  
 ---------------------------------------------------------------
 Warning -- This program may not be used in any manner that
 competes with the business of Gaussian, Inc. or will provide
 assistance to any competitor of Gaussian, Inc.  The licensee
 of this program is prohibited from giving any competitor of
 Gaussian, Inc. access to this program.  By using this program,
 the user acknowledges that Gaussian, Inc. is engaged in the
 business of creating and licensing software in the field of
 computational chemistry and represents and warrants to the
 licensee that it is not a competitor of Gaussian, Inc. and that
 it will not use this program in any manner prohibited above.
 ---------------------------------------------------------------
  

 Cite this work as:
 Gaussian 09, Revision D.01,
 M. J. Frisch, G. W. Trucks, H. B. Schlegel, G. E. Scuseria, 
 M. A. Robb, J. R. Cheeseman, G. Scalmani, V. Barone, B. Mennucci, 
 G. A. Petersson, H. Nakatsuji, M. Caricato, X. Li, H. P. Hratchian, 
 A. F. Izmaylov, J. Bloino, G. Zheng, J. L. Sonnenberg, M. Hada, 
 M. Ehara, K. Toyota, R. Fukuda, J. Hasegawa, M. Ishida, T. Nakajima, 
 Y. Honda, O. Kitao, H. Nakai, T. Vreven, J. A. Montgomery, Jr., 
 J. E. Peralta, F. Ogliaro, M. Bearpark, J. J. Heyd, E. Brothers, 
 K. N. Kudin, V. N. Staroverov, T. Keith, R. Kobayashi, J. Normand, 
 K. Raghavachari, A. Rendell, J. C. Burant, S. S. Iyengar, J. Tomasi, 
 M. Cossi, N. Rega, J. M. Millam, M. Klene, J. E. Knox, J. B. Cross, 
 V. Bakken, C. Adamo, J. Jaramillo, R. Gomperts, R. E. Stratmann, 
 O. Yazyev, A. J. Austin, R. Cammi, C. Pomelli, J. W. Ochterski, 
 R. L. Martin, K. Morokuma, V. G. Zakrzewski, G. A. Voth, 
 P. Salvador, J. J. Dannenberg, S. Dapprich, A. D. Daniels, 
 O. Farkas, J. B. Foresman, J. V. Ortiz, J. Cioslowski, 
 and D. J. Fox, Gaussian, Inc., Wallingford CT, 2013.
 
 ******************************************
 Gaussian 09:  ES64L-G09RevD.01 24-Apr-2013
                 1-Oct-2016 
 ******************************************
 %NprocShared=20
 Will use up to   20 processors via shared memory.
 %mem=55000mb
 %chk=cc-Al17-a-s
 --------------------------------------------------------
 # CCSD(T,conver=5)/cc-pVTZ test geom=allcheck guess=read
 --------------------------------------------------------
 1/29=7,38=1/1;
 2/12=2,40=1/2;
 3/5=16,6=1,11=9,14=-4,16=1,25=1,30=1,116=-2/1,2,3;
 4/5=1/1;
 5/5=2,38=6/2;
 8/6=4,9=120000,10=1/1,4;
 9/5=7,9=5,14=2/13;
 6/7=2,8=2,9=2,10=2/1;
 99/5=1,9=1/99;
 Structure from the checkpoint file:  "cc-Al17-a-s.chk"
 --------
 Al17-a-s
 --------
 Charge = -1 Multiplicity = 1
 Z-Matrix found in file.
 Al,0,-1.3982601,-2.28101304,0.
 Al,0,-2.23388107,0.,1.49918599
 Al,0,1.3982601,-2.28101304,0.
 Al,0,-1.3982601,2.28101304,0.
 Al,0,0.,1.41211764,2.25094056
 Al,0,0.,-1.41211764,-2.25094056
 Al,0,0.,-1.41211764,2.25094056
 Al,0,-2.23388107,0.,-1.49918599
 Al,0,2.23388107,0.,-1.49918599
 Al,0,1.3982601,2.28101304,0.
 Al,0,0.,1.41211764,-2.25094056
 Al,0,2.23388107,0.,1.49918599
 Al,0,-4.21267208,-1.39529299,0.
 Al,0,4.21267208,1.39529299,0.
 Al,0,-4.21267208,1.39529299,0.
 Al,0,0.,0.,0.
 Al,0,4.21267208,-1.39529299,0.
 Recover connectivity data from disk.
                          Input orientation:                          
 ---------------------------------------------------------------------
 Center     Atomic      Atomic             Coordinates (Angstroms)
 Number     Number       Type             X           Y           Z
 ---------------------------------------------------------------------
      1         13           0       -1.398260   -2.281013    0.000000
      2         13           0       -2.233881    0.000000    1.499186
      3         13           0        1.398260   -2.281013    0.000000
      4         13           0       -1.398260    2.281013    0.000000
      5         13           0        0.000000    1.412118    2.250941
      6         13           0        0.000000   -1.412118   -2.250941
      7         13           0        0.000000   -1.412118    2.250941
      8         13           0       -2.233881    0.000000   -1.499186
      9         13           0        2.233881    0.000000   -1.499186
     10         13           0        1.398260    2.281013    0.000000
     11         13           0        0.000000    1.412118   -2.250941
     12         13           0        2.233881    0.000000    1.499186
     13         13           0       -4.212672   -1.395293    0.000000
     14         13           0        4.212672    1.395293    0.000000
     15         13           0       -4.212672    1.395293    0.000000
     16         13           0        0.000000    0.000000    0.000000
     17         13           0        4.212672   -1.395293    0.000000
 ---------------------------------------------------------------------
                    Distance matrix (angstroms):
                    1          2          3          4          5
     1  Al   0.000000
     2  Al   2.854618   0.000000
     3  Al   2.796520   4.543460   0.000000
     4  Al   4.562026   2.854618   5.350945   0.000000
     5  Al   4.545446   2.747624   4.545446   2.788699   0.000000
     6  Al   2.788699   4.587783   2.788699   4.545446   5.314437
     7  Al   2.788699   2.747624   2.788699   4.545446   2.824235
     8  Al   2.854618   2.998372   4.543460   2.854618   4.587783
     9  Al   4.543460   5.380626   2.854618   4.543460   4.587783
    10  Al   5.350945   4.543460   4.562026   2.796520   2.788699
    11  Al   4.545446   4.587783   4.545446   2.788699   4.501881
    12  Al   4.543460   4.467762   2.854618   4.543460   2.747624
    13  Al   2.950494   2.847809   5.680410   4.629918   5.540297
    14  Al   6.708039   6.764056   4.629918   5.680410   4.776361
    15  Al   4.629918   2.847809   6.708039   2.950494   4.776361
    16  Al   2.675472   2.690313   2.675472   2.675472   2.657218
    17  Al   5.680410   6.764056   2.950494   6.708039   5.540297
                    6          7          8          9         10
     6  Al   0.000000
     7  Al   4.501881   0.000000
     8  Al   2.747624   4.587783   0.000000
     9  Al   2.747624   4.587783   4.467762   0.000000
    10  Al   4.545446   4.545446   4.543460   2.854618   0.000000
    11  Al   2.824235   5.314437   2.747624   2.747624   2.788699
    12  Al   4.587783   2.747624   5.380626   2.998372   2.854618
    13  Al   4.776361   4.776361   2.847809   6.764056   6.708039
    14  Al   5.540297   5.540297   6.764056   2.847809   2.950494
    15  Al   5.540297   5.540297   2.847809   6.764056   5.680410
    16  Al   2.657218   2.657218   2.690313   2.690313   2.675472
    17  Al   4.776361   4.776361   6.764056   2.847809   4.629918
                   11         12         13         14         15
    11  Al   0.000000
    12  Al   4.587783   0.000000
    13  Al   5.540297   6.764056   0.000000
    14  Al   4.776361   2.847809   8.875460   0.000000
    15  Al   4.776361   6.764056   2.790586   8.425344   0.000000
    16  Al   2.657218   2.690313   4.437730   4.437730   4.437730
    17  Al   5.540297   2.847809   8.425344   2.790586   8.875460
                   16         17
    16  Al   0.000000
    17  Al   4.437730   0.000000
 Stoichiometry    Al17(1-)
 Framework group  D2H[O(Al),SG(Al4),SG'(Al4),SG"(Al8)]
 Deg. of freedom     8
 Full point group                 D2H     NOp   8
 Largest Abelian subgroup         D2H     NOp   8
 Largest concise Abelian subgroup D2H     NOp   8
                         Standard orientation:                         
 ---------------------------------------------------------------------
 Center     Atomic      Atomic             Coordinates (Angstroms)
 Number     Number       Type             X           Y           Z
 ---------------------------------------------------------------------
      1         13           0        1.398260    2.281013    0.000000
      2         13           0        2.233881    0.000000    1.499186
      3         13           0       -1.398260    2.281013    0.000000
      4         13           0        1.398260   -2.281013    0.000000
      5         13           0        0.000000   -1.412118    2.250941
      6         13           0        0.000000    1.412118   -2.250941
      7         13           0        0.000000    1.412118    2.250941
      8         13           0        2.233881    0.000000   -1.499186
      9         13           0       -2.233881    0.000000   -1.499186
     10         13           0       -1.398260   -2.281013    0.000000
     11         13           0        0.000000   -1.412118   -2.250941
     12         13           0       -2.233881    0.000000    1.499186
     13         13           0        4.212672    1.395293    0.000000
     14         13           0       -4.212672   -1.395293    0.000000
     15         13           0        4.212672   -1.395293    0.000000
     16         13           0        0.000000    0.000000    0.000000
     17         13           0       -4.212672    1.395293    0.000000
 ---------------------------------------------------------------------
 Rotational constants (GHZ):      0.2845164      0.1463038      0.1383925
 Standard basis: CC-pVTZ (5D, 7F)
 There are   119 symmetry adapted cartesian basis functions of AG  symmetry.
 There are    80 symmetry adapted cartesian basis functions of B1G symmetry.
 There are    65 symmetry adapted cartesian basis functions of B2G symmetry.
 There are    65 symmetry adapted cartesian basis functions of B3G symmetry.
 There are    49 symmetry adapted cartesian basis functions of AU  symmetry.
 There are    85 symmetry adapted cartesian basis functions of B1U symmetry.
 There are   100 symmetry adapted cartesian basis functions of B2U symmetry.
 There are   100 symmetry adapted cartesian basis functions of B3U symmetry.
 There are   101 symmetry adapted basis functions of AG  symmetry.
 There are    70 symmetry adapted basis functions of B1G symmetry.
 There are    58 symmetry adapted basis functions of B2G symmetry.
 There are    58 symmetry adapted basis functions of B3G symmetry.
 There are    45 symmetry adapted basis functions of AU  symmetry.
 There are    74 symmetry adapted basis functions of B1U symmetry.
 There are    86 symmetry adapted basis functions of B2U symmetry.
 There are    86 symmetry adapted basis functions of B3U symmetry.
   578 basis functions,  1615 primitive gaussians,   663 cartesian basis functions
   111 alpha electrons      111 beta electrons
       nuclear repulsion energy      3182.7322886827 Hartrees.
 NAtoms=   17 NActive=   17 NUniq=    5 SFac= 4.00D+00 NAtFMM=   60 NAOKFM=F Big=F
 Integral buffers will be    131072 words long.
 Raffenetti 1 integral format.
 Two-electron integral symmetry is turned on.
 One-electron integrals computed using PRISM.
 NBasis=   578 RedAO= T EigKep=  1.68D-04  NBF=   101    70    58    58    45    74    86    86
 NBsUse=   578 1.00D-06 EigRej= -1.00D+00 NBFU=   101    70    58    58    45    74    86    86
 Initial guess from the checkpoint file:  "cc-Al17-a-s.chk"
 B after Tr=     0.000000    0.000000    0.000000
         Rot=    1.000000    0.000000    0.000000    0.000000 Ang=   0.00 deg.
 Initial guess orbital symmetries:
       Occupied  (B2U) (B3U) (AG) (B1G) (B1U) (B2U) (B3G) (AG)
                 (B3U) (B1U) (B2G) (AG) (B1G) (B2U) (B3U) (AG)
                 (AG) (B2U) (AG) (B3U) (B1G) (B1U) (AG) (B3G) (B2U)
                 (B3U) (AG) (B2G) (B1U) (B3U) (AG) (B2U) (B1G)
                 (AG) (B2U) (AG) (B3U) (B1G) (B3G) (B1U) (AU) (B2G)
                 (AG) (B2U) (B1U) (AG) (B3G) (B2U) (B1G) (B3U)
                 (AG) (B1U) (B2U) (B3G) (B3U) (B2G) (B1G) (AU)
                 (B3U) (AG) (B2G) (B1U) (B2U) (B3G) (B1G) (AU)
                 (AG) (B3U) (B1U) (B2G) (B1U) (B2G) (AU) (B3G)
                 (B3U) (AG) (B1G) (B2U) (B3U) (AG) (B2U) (B1G)
                 (B1U) (B2U) (B3U) (AG) (B3U) (B1U) (B2U) (AG)
                 (B1G) (B3U) (B2G) (AG) (B3G) (AG) (B2U) (B1U)
                 (AG) (B1G) (B3U) (B3U) (AU) (B1U) (B2U) (B1U)
                 (B2U) (B2G) (B3U) (AG) (B2U)
       Virtual   (AG) (AG) (AG) (AG) (AG) (AG) (AG) (AG) (AG) (AG)
                 (AG) (AG) (AG) (AG) (AG) (AG) (AG) (AG) (AG) (AG)
                 (AG) (AG) (AG) (AG) (AG) (AG) (AG) (AG) (AG) (AG)
                 (AG) (AG) (AG) (AG) (AG) (AG) (AG) (AG) (AG) (AG)
                 (AG) (AG) (AG) (AG) (AG) (AG) (AG) (AG) (AG) (AG)
                 (AG) (AG) (AG) (AG) (AG) (AG) (AG) (AG) (AG) (AG)
                 (AG) (AG) (AG) (AG) (AG) (AG) (AG) (AG) (AG) (AG)
                 (AG) (AG) (AG) (AG) (AG) (AG) (AG) (B1G) (B1G)
                 (B1G) (B1G) (B1G) (B1G) (B1G) (B1G) (B1G) (B1G)
                 (B1G) (B1G) (B1G) (B1G) (B1G) (B1G) (B1G) (B1G)
                 (B1G) (B1G) (B1G) (B1G) (B1G) (B1G) (B1G) (B1G)
                 (B1G) (B1G) (B1G) (B1G) (B1G) (B1G) (B1G) (B1G)
                 (B1G) (B1G) (B1G) (B1G) (B1G) (B1G) (B1G) (B1G)
                 (B1G) (B1G) (B1G) (B1G) (B1G) (B1G) (B1G) (B1G)
                 (B1G) (B1G) (B1G) (B1G) (B1G) (B1G) (B1G) (B1G)
                 (B2G) (B2G) (B2G) (B2G) (B2G) (B2G) (B2G) (B2G)
                 (B2G) (B2G) (B2G) (B2G) (B2G) (B2G) (B2G) (B2G)
                 (B2G) (B2G) (B2G) (B2G) (B2G) (B2G) (B2G) (B2G)
                 (B2G) (B2G) (B2G) (B2G) (B2G) (B2G) (B2G) (B2G)
                 (B2G) (B2G) (B2G) (B2G) (B2G) (B2G) (B2G) (B2G)
                 (B2G) (B2G) (B2G) (B2G) (B2G) (B2G) (B2G) (B2G)
                 (B2G) (B3G) (B3G) (B3G) (B3G) (B3G) (B3G) (B3G)
                 (B3G) (B3G) (B3G) (B3G) (B3G) (B3G) (B3G) (B3G)
                 (B3G) (B3G) (B3G) (B3G) (B3G) (B3G) (B3G) (B3G)
                 (B3G) (B3G) (B3G) (B3G) (B3G) (B3G) (B3G) (B3G)
                 (B3G) (B3G) (B3G) (B3G) (B3G) (B3G) (B3G) (B3G)
                 (B3G) (B3G) (B3G) (B3G) (B3G) (B3G) (B3G) (B3G)
                 (B3G) (B3G) (B3G) (AU) (AU) (AU) (AU) (AU) (AU)
                 (AU) (AU) (AU) (AU) (AU) (AU) (AU) (AU) (AU) (AU)
                 (AU) (AU) (AU) (AU) (AU) (AU) (AU) (AU) (AU) (AU)
                 (AU) (AU) (AU) (AU) (AU) (AU) (AU) (AU) (AU) (AU)
                 (AU) (AU) (AU) (AU) (B1U) (B1U) (B1U) (B1U) (B1U)
                 (B1U) (B1U) (B1U) (B1U) (B1U) (B1U) (B1U) (B1U)
                 (B1U) (B1U) (B1U) (B1U) (B1U) (B1U) (B1U) (B1U)
                 (B1U) (B1U) (B1U) (B1U) (B1U) (B1U) (B1U) (B1U)
                 (B1U) (B1U) (B1U) (B1U) (B1U) (B1U) (B1U) (B1U)
                 (B1U) (B1U) (B1U) (B1U) (B1U) (B1U) (B1U) (B1U)
                 (B1U) (B1U) (B1U) (B1U) (B1U) (B1U) (B1U) (B1U)
                 (B1U) (B1U) (B1U) (B1U) (B1U) (B1U) (B2U) (B2U)
                 (B2U) (B2U) (B2U) (B2U) (B2U) (B2U) (B2U) (B2U)
                 (B2U) (B2U) (B2U) (B2U) (B2U) (B2U) (B2U) (B2U)
                 (B2U) (B2U) (B2U) (B2U) (B2U) (B2U) (B2U) (B2U)
                 (B2U) (B2U) (B2U) (B2U) (B2U) (B2U) (B2U) (B2U)
                 (B2U) (B2U) (B2U) (B2U) (B2U) (B2U) (B2U) (B2U)
                 (B2U) (B2U) (B2U) (B2U) (B2U) (B2U) (B2U) (B2U)
                 (B2U) (B2U) (B2U) (B2U) (B2U) (B2U) (B2U) (B2U)
                 (B2U) (B2U) (B2U) (B2U) (B2U) (B2U) (B2U) (B2U)
                 (B2U) (B3U) (B3U) (B3U) (B3U) (B3U) (B3U) (B3U)
                 (B3U) (B3U) (B3U) (B3U) (B3U) (B3U) (B3U) (B3U)
                 (B3U) (B3U) (B3U) (B3U) (B3U) (B3U) (B3U) (B3U)
                 (B3U) (B3U) (B3U) (B3U) (B3U) (B3U) (B3U) (B3U)
                 (B3U) (B3U) (B3U) (B3U) (B3U) (B3U) (B3U) (B3U)
                 (B3U) (B3U) (B3U) (B3U) (B3U) (B3U) (B3U) (B3U)
                 (B3U) (B3U) (B3U) (B3U) (B3U) (B3U) (B3U) (B3U)
                 (B3U) (B3U) (B3U) (B3U) (B3U) (B3U) (B3U) (B3U)
                 (B3U) (B3U) (B3U) (B3U)
 Requested convergence on RMS density matrix=1.00D-08 within 128 cycles.
 Requested convergence on MAX density matrix=1.00D-06.
 Requested convergence on             energy=1.00D-06.
 No special actions if energy rises.
 SCF Done:  E(RHF) =  -4112.77303337     A.U. after   14 cycles
            NFock= 14  Conv=0.46D-08     -V/T= 1.9999
 ExpMin= 5.56D-02 ExpMax= 2.06D+05 ExpMxC= 1.99D+03 IAcc=3 IRadAn=         5 AccDes= 0.00D+00
 HarFok:  IExCor=  205 AccDes= 0.00D+00 IRadAn=         5 IDoV=-2 UseB2=F ITyADJ=14
 ICtDFT= 12500011 ScaDFX=  1.000000  1.000000  1.000000  1.000000
 DSYEVD-2 returned Info=          69 IAlg= 4 N=    34 NDim=    34 NE2=   212000310 trying  DSYEV.
 Range of M.O.s used for correlation:    86   578
 NBasis=   578 NAE=   111 NBE=   111 NFC=    85 NFV=     0
 NROrb=    493 NOA=    26 NOB=    26 NVA=   467 NVB=   467

 **** Warning!!: The largest alpha MO coefficient is  0.52897668D+02

 Semi-Direct transformation.
 ModeAB=           4 MOrb=            26 LenV=    7201741601
 LASXX=    188830434 LTotXX=   188830434 LenRXX=   378888096
 LTotAB=   190057662 MaxLAS=   510694756 LenRXY=           0
 NonZer=   567718530 LenScr=   854918144 LnRSAI=   510694756
 LnScr1=   769046528 LExtra=           0 Total=   2513547524
 MaxDsk=          -1 SrtSym=           T ITran=            4
 JobTyp=0 Pass  1:  I=   1 to  26.
 (rs|ai) integrals will be sorted in core.
 Spin components of T(2) and E(2):
     alpha-alpha T2 =       0.2988430516D+00 E2=     -0.2673856496D+00
     alpha-beta  T2 =       0.1145179037D+01 E2=     -0.1189851737D+01
     beta-beta   T2 =       0.2988430516D+00 E2=     -0.2673856496D+00
 ANorm=    0.1656159757D+01
 E2 =    -0.1724623036D+01 EUMP2 =    -0.41144976564052D+04
 Would need an additional      8544287465 words for in-memory AO integral storage.
 Iterations=  50 Convergence= 0.100D-04
 Iteration Nr.   1
 **********************
 DD1Dir will call FoFJK   1 times, MxPair=       702
 NAB=   351 NAA=     0 NBB=     0 NumPrc= 20.
 FoFJK:  IHMeth= 1 ICntrl=     200 DoSepK=F KAlg= 0 I1Cent=   0 FoldK=F
 IRaf= 990000000 NMat= 702 IRICut=     877 DoRegI=T DoRafI=T ISym2E=-1.
 FoFCou: FMM=F IPFlag=           0 FMFlag=      100000 FMFlg1=           0
         NFxFlg=           0 DoJE=F BraDBF=F KetDBF=F FulRan=T
         wScrn=  0.000000 ICntrl=     200 IOpCl=  0 I1Cent=           0 NGrid=           0
         NMat0=  702 NMatS0=      0 NMatT0=  351 NMatD0=  702 NMtDS0=    0 NMtDT0=    0
 Petite list used in FoFCou.
 MP4(R+Q)=  0.95576133D-01
 E3=        0.36332266D+00        EUMP3=      -0.41141343337D+04
 E4(DQ)=   -0.29278947D+00        UMP4(DQ)=   -0.41144271232D+04
 E4(SDQ)=  -0.32475693D+00        UMP4(SDQ)=  -0.41144590907D+04
 DE(Corr)=  -1.2655512     E(Corr)=     -4114.0385845    
 NORM(A)=   0.14292188D+01
 Iteration Nr.   2
 **********************
 DD1Dir will call FoFJK   1 times, MxPair=       702
 NAB=   351 NAA=     0 NBB=     0 NumPrc= 20.
 DE(Corr)=  -1.5691090     E(CORR)=     -4114.3421424     Delta=-3.04D-01
 NORM(A)=   0.15087336D+01
 Iteration Nr.   3
 **********************
 DD1Dir will call FoFJK   1 times, MxPair=       702
 NAB=   351 NAA=     0 NBB=     0 NumPrc= 20.
 DE(Corr)=  -1.4878755     E(CORR)=     -4114.2609089     Delta= 8.12D-02
 NORM(A)=   0.15196247D+01
 Iteration Nr.   4
 **********************
 DD1Dir will call FoFJK   1 times, MxPair=       702
 NAB=   351 NAA=     0 NBB=     0 NumPrc= 20.
 DE(Corr)=  -1.5020345     E(CORR)=     -4114.2750679     Delta=-1.42D-02
 NORM(A)=   0.15224501D+01
 Iteration Nr.   5
 **********************
 DD1Dir will call FoFJK   1 times, MxPair=       702
 NAB=   351 NAA=     0 NBB=     0 NumPrc= 20.
 DE(Corr)=  -1.5045239     E(CORR)=     -4114.2775573     Delta=-2.49D-03
 NORM(A)=   0.15263270D+01
 Iteration Nr.   6
 **********************
 DD1Dir will call FoFJK   1 times, MxPair=       702
 NAB=   351 NAA=     0 NBB=     0 NumPrc= 20.
 DE(Corr)=  -1.5041430     E(CORR)=     -4114.2771764     Delta= 3.81D-04
 NORM(A)=   0.15287811D+01
 Iteration Nr.   7
 **********************
 DD1Dir will call FoFJK   1 times, MxPair=       702
 NAB=   351 NAA=     0 NBB=     0 NumPrc= 20.
 DE(Corr)=  -1.5039509     E(CORR)=     -4114.2769843     Delta= 1.92D-04
 NORM(A)=   0.15287885D+01
 Iteration Nr.   8
 **********************
 DD1Dir will call FoFJK   1 times, MxPair=       702
 NAB=   351 NAA=     0 NBB=     0 NumPrc= 20.
 DE(Corr)=  -1.5047130     E(CORR)=     -4114.2777464     Delta=-7.62D-04
 NORM(A)=   0.15295195D+01
 Iteration Nr.   9
 **********************
 DD1Dir will call FoFJK   1 times, MxPair=       702
 NAB=   351 NAA=     0 NBB=     0 NumPrc= 20.
 DE(Corr)=  -1.5040254     E(CORR)=     -4114.2770587     Delta= 6.88D-04
 NORM(A)=   0.15294456D+01
 Iteration Nr.  10
 **********************
 DD1Dir will call FoFJK   1 times, MxPair=       702
 NAB=   351 NAA=     0 NBB=     0 NumPrc= 20.
 DE(Corr)=  -1.5044516     E(CORR)=     -4114.2774850     Delta=-4.26D-04
 NORM(A)=   0.15294364D+01
 Iteration Nr.  11
 **********************
 DD1Dir will call FoFJK   1 times, MxPair=       702
 NAB=   351 NAA=     0 NBB=     0 NumPrc= 20.
 DE(Corr)=  -1.5043166     E(CORR)=     -4114.2773499     Delta= 1.35D-04
 NORM(A)=   0.15295329D+01
 Iteration Nr.  12
 **********************
 DD1Dir will call FoFJK   1 times, MxPair=       702
 NAB=   351 NAA=     0 NBB=     0 NumPrc= 20.
 DE(Corr)=  -1.5042863     E(CORR)=     -4114.2773196     Delta= 3.03D-05
 NORM(A)=   0.15294916D+01
 Iteration Nr.  13
 **********************
 DD1Dir will call FoFJK   1 times, MxPair=       702
 NAB=   351 NAA=     0 NBB=     0 NumPrc= 20.
 DE(Corr)=  -1.5043171     E(CORR)=     -4114.2773505     Delta=-3.08D-05
 NORM(A)=   0.15294821D+01
 Iteration Nr.  14
 **********************
 DD1Dir will call FoFJK   1 times, MxPair=       702
 NAB=   351 NAA=     0 NBB=     0 NumPrc= 20.
 DE(Corr)=  -1.5043230     E(CORR)=     -4114.2773563     Delta=-5.85D-06
 NORM(A)=   0.15294866D+01
 Iteration Nr.  15
 **********************
 DD1Dir will call FoFJK   1 times, MxPair=       702
 NAB=   351 NAA=     0 NBB=     0 NumPrc= 20.
 DE(Corr)=  -1.5043031     E(CORR)=     -4114.2773365     Delta= 1.99D-05
 NORM(A)=   0.15294698D+01
 Iteration Nr.  16
 **********************
 DD1Dir will call FoFJK   1 times, MxPair=       702
 NAB=   351 NAA=     0 NBB=     0 NumPrc= 20.
 DE(Corr)=  -1.5043179     E(CORR)=     -4114.2773513     Delta=-1.48D-05
 NORM(A)=   0.15294652D+01
 Iteration Nr.  17
 **********************
 DD1Dir will call FoFJK   1 times, MxPair=       702
 NAB=   351 NAA=     0 NBB=     0 NumPrc= 20.
 DE(Corr)=  -1.5043098     E(CORR)=     -4114.2773431     Delta= 8.16D-06
 NORM(A)=   0.15294644D+01
 Largest amplitude= 6.82D-02
 Time for triples=   108790.27 seconds.
 T4(CCSD)= -0.22438091D+00
 T5(CCSD)=  0.64312791D-02
 CCSD(T)= -0.41144952928D+04
 Discarding MO integrals.

 **********************************************************************

            Population analysis using the SCF density.

 **********************************************************************

 Orbital symmetries:
       Occupied  (B2U) (AG) (B1G) (B3U) (B1U) (AG) (B3G) (B2U)
                 (B3U) (AG) (B2G) (B1U) (B3U) (AG) (B2U) (B1G)
                 (AG) (B2U) (AG) (B3U) (B1G) (B1U) (AG) (B3G) (B2U)
                 (B3U) (AG) (B2G) (B1U) (B3U) (AG) (B2U) (B1G)
                 (AG) (B2U) (AG) (B3U) (B1G) (B3G) (B1U) (AU) (B2G)
                 (B2U) (AG) (B1G) (B3U) (B1U) (AG) (B2U) (B3G)
                 (AG) (B1U) (B2U) (B3G) (B3U) (B2G) (B1G) (AU)
                 (B3U) (AG) (B1U) (B2G) (B2U) (B3G) (B1G) (AU)
                 (AG) (B3U) (B1U) (B2G) (B3U) (AG) (B1U) (B2G)
                 (B3G) (AU) (B1G) (B2U) (B3U) (AG) (B1G) (B2U)
                 (B1U) (B2U) (B3U) (AG) (B3U) (B1U) (B2U) (AG)
                 (B1G) (B3U) (B2G) (AG) (B3G) (AG) (B2U) (B1U)
                 (AG) (B1G) (B3U) (B3U) (AU) (B1U) (B2U) (B1U)
                 (B2U) (B2G) (B3U) (AG) (B2U)
       Virtual   (B1G) (B3G) (AG) (AG) (B3U) (B1G) (B3G) (B2G)
                 (AG) (B1U) (B3G) (B2G) (AG) (AU) (AG) (B1G) (B2U)
                 (B3U) (B1U) (AG) (B2U) (B2G) (B3U) (B1U) (B2U)
                 (B3U) (B1G) (B1U) (B2U) (B3G) (B3U) (AU) (AG)
                 (B1U) (B2U) (AU) (B2U) (B3G) (B3U) (AG) (B1G)
                 (B1U) (AG) (B2G) (B1G) (B2U) (B2G) (AU) (B3U)
                 (AG) (B3G) (B1G) (B3U) (AG) (B3G) (AG) (B2G) (B1U)
                 (B1G) (B2G) (B2U) (B3G) (B3U) (AG) (B2U) (B1U)
                 (B3U) (B1G) (B2U) (AU) (AG) (B2G) (B1U) (AU) (B2U)
                 (B1U) (B3U) (AU) (B2G) (B3G) (B1U) (B2U) (B3U)
                 (B1G) (AG) (B1G) (B1U) (AG) (B3G) (B2U) (B3U)
                 (B2G) (AG) (B1U) (B3G) (B1G) (AG) (B1G) (B3U)
                 (B3G) (B1U) (B2U) (AU) (B2G) (AU) (B3U) (B2U)
                 (B2G) (B3U) (B3G) (AG) (AG) (B1G) (AG) (B1G) (B2U)
                 (B3U) (B1U) (AU) (B2G) (B3U) (B3G) (B1G) (B2U)
                 (AG) (B2U) (B2G) (AG) (B3G) (B1U) (AG) (AU) (B3U)
                 (B1U) (AG) (B2U) (B1G) (B2G) (B3G) (AU) (AG) (B1U)
                 (B3U) (B2U) (B1G) (B3U) (B3U) (B1U) (B2U) (B2G)
                 (AG) (AG) (B3G) (B1U) (B2G) (B1G) (AU) (B2U) (B1G)
                 (AU) (B2U) (B3U) (B3U) (B1U) (B1G) (B2U) (AG)
                 (B3G) (B2U) (B3G) (B1U) (AG) (B2U) (B2G) (B3U)
                 (B1G) (B1G) (B2G) (B3G) (AG) (B1U) (AU) (B1G)
                 (B3G) (AG) (B2U) (B3U) (B2G) (B1U) (AU) (B3U)
                 (AG) (B2G) (B3G) (B1U) (B3U) (B2U) (B1G) (B1U)
                 (AG) (B1G) (B3U) (B2U) (AG) (B3U) (AU) (B2G) (B3U)
                 (B1U) (B2G) (B3G) (AG) (B3G) (B1G) (B2U) (B1U)
                 (AU) (AG) (B2U) (B3G) (AU) (AG) (B1G) (B2G) (AG)
                 (B1G) (B1U) (B2G) (B2U) (B1U) (AG) (AG) (B3U)
                 (B3G) (B2U) (AU) (B2G) (B3U) (B3U) (B1G) (B1U)
                 (AG) (B2U) (B3G) (AG) (B2G) (B3U) (B1U) (B3G)
                 (B2G) (B2U) (B3U) (B1G) (AG) (B1G) (AU) (B3U)
                 (B1U) (B2U) (AU) (B3U) (B1G) (AU) (B2U) (B3G)
                 (B2G) (B1U) (B1U) (B3G) (AU) (B2U) (AG) (B1G)
                 (B3U) (B2G) (B1G) (B3U) (B2U) (B1U) (B3G) (AG)
                 (B2U) (B2G) (B1G) (AU) (AG) (B3G) (B2G) (B1U)
                 (AU) (B1G) (B3U) (B3U) (B3G) (B2U) (B2G) (AG)
                 (B1G) (B1U) (B2U) (B3G) (AG) (B1U) (AG) (B2G)
                 (AG) (AU) (B1G) (B2U) (B3G) (AU) (B3U) (AG) (AG)
                 (B2G) (B2U) (B1U) (B3G) (B3U) (B1G) (B2U) (B3U)
                 (B1U) (AU) (B3G) (B2U) (AG) (B2G) (AG) (B1U) (B1G)
                 (B3U) (B3U) (B1G) (B2G) (B2U) (AG) (AU) (B1U)
                 (B1G) (B3G) (AG) (B2U) (B1G) (AG) (B3U) (B2G)
                 (AU) (B2U) (B1U) (B3U) (B3G) (AG) (B1U) (B2U)
                 (B3U) (B2U) (AU) (B3G) (B1G) (B3U) (B1U) (B2G)
                 (AU) (AU) (B1G) (B2U) (B1U) (B3G) (B2U) (B3G)
                 (B3U) (AG) (B2G) (B1U) (B1G) (AG) (AU) (B3U) (B2G)
                 (B1G) (B1U) (B2U) (B3U) (B2G) (B3G) (AU) (B2U)
                 (B3U) (AG) (B1G) (B3U) (B2U) (B1U) (AG) (B3G)
                 (B1G) (AG) (B2G) (B3U) (B1U) (AG) (B2U) (AU) (B3U)
                 (B2G) (B1U) (B2U) (AG) (AG) (B1G) (B3G) (B3U)
                 (AG) (B1G) (B1U) (B3G) (B2U) (AG) (B2G) (AU) (B3U)
                 (B2U) (B1U) (B1G) (B2G) (B3G) (AG) (B1G) (B3U)
                 (B2U) (AG) (B2G) (AU) (B2U) (B3G) (B1U) (B1G)
                 (B2U) (B3G) (AG) (B3U) (AU) (B1U) (B3U) (B1G)
                 (B2G) (AG) (B2U) (B1G) (B3U) (B3U) (B2U) (B1U)
                 (B1U) (AG) (B3U) (B2U) (B2G) (B1G) (AG) (B3G)
                 (AG) (B2U) (B1U) (B3U) (AG)
 The electronic state is 1-AG.
 Alpha  occ. eigenvalues --  -58.38557 -58.38557 -58.38557 -58.38557 -58.38386
 Alpha  occ. eigenvalues --  -58.38386 -58.38386 -58.38386 -58.38162 -58.38162
 Alpha  occ. eigenvalues --  -58.38162 -58.38162 -58.37604 -58.37604 -58.37604
 Alpha  occ. eigenvalues --  -58.37604 -58.32986  -4.79766  -4.79766  -4.79761
 Alpha  occ. eigenvalues --   -4.79761  -4.79647  -4.79646  -4.79642  -4.79642
 Alpha  occ. eigenvalues --   -4.79448  -4.79448  -4.79446  -4.79446  -4.78650
 Alpha  occ. eigenvalues --   -4.78650  -4.78646  -4.78646  -4.75544  -3.11017
 Alpha  occ. eigenvalues --   -3.11016  -3.11007  -3.11006  -3.10962  -3.10962
 Alpha  occ. eigenvalues --   -3.10956  -3.10955  -3.10915  -3.10915  -3.10884
 Alpha  occ. eigenvalues --   -3.10884  -3.10862  -3.10862  -3.10848  -3.10847
 Alpha  occ. eigenvalues --   -3.10771  -3.10770  -3.10752  -3.10751  -3.10749
 Alpha  occ. eigenvalues --   -3.10748  -3.10745  -3.10744  -3.10732  -3.10732
 Alpha  occ. eigenvalues --   -3.10721  -3.10720  -3.10686  -3.10685  -3.10681
 Alpha  occ. eigenvalues --   -3.10681  -3.10618  -3.10615  -3.10613  -3.10610
 Alpha  occ. eigenvalues --   -3.09588  -3.09588  -3.09579  -3.09579  -3.09576
 Alpha  occ. eigenvalues --   -3.09576  -3.09576  -3.09576  -3.09573  -3.09573
 Alpha  occ. eigenvalues --   -3.09551  -3.09551  -3.06955  -3.06955  -3.06919
 Alpha  occ. eigenvalues --   -0.64689  -0.54212  -0.51541  -0.51456  -0.45906
 Alpha  occ. eigenvalues --   -0.38368  -0.36619  -0.35970  -0.34858  -0.34478
 Alpha  occ. eigenvalues --   -0.31131  -0.29772  -0.22698  -0.22064  -0.19787
 Alpha  occ. eigenvalues --   -0.19621  -0.16447  -0.16376  -0.15863  -0.15711
 Alpha  occ. eigenvalues --   -0.15624  -0.15451  -0.14287  -0.12588  -0.12559
 Alpha  occ. eigenvalues --   -0.10431
 Alpha virt. eigenvalues --    0.06556   0.06740   0.07491   0.09676   0.09764
 Alpha virt. eigenvalues --    0.09814   0.09827   0.11896   0.13295   0.13662
 Alpha virt. eigenvalues --    0.14284   0.14776   0.14857   0.15339   0.15939
 Alpha virt. eigenvalues --    0.16060   0.16745   0.17250   0.18628   0.19325
 Alpha virt. eigenvalues --    0.19782   0.20296   0.20633   0.20655   0.21569
 Alpha virt. eigenvalues --    0.22260   0.22818   0.23028   0.23492   0.23784
 Alpha virt. eigenvalues --    0.23862   0.24113   0.24540   0.24948   0.25264
 Alpha virt. eigenvalues --    0.25407   0.25987   0.26788   0.26896   0.27411
 Alpha virt. eigenvalues --    0.27479   0.27741   0.27888   0.28005   0.28250
 Alpha virt. eigenvalues --    0.29549   0.30172   0.31076   0.31401   0.31439
 Alpha virt. eigenvalues --    0.31826   0.31930   0.31967   0.32038   0.32326
 Alpha virt. eigenvalues --    0.32995   0.33570   0.33635   0.33670   0.34554
 Alpha virt. eigenvalues --    0.34794   0.35071   0.36239   0.36373   0.36442
 Alpha virt. eigenvalues --    0.36931   0.37107   0.37910   0.38518   0.38996
 Alpha virt. eigenvalues --    0.39150   0.39247   0.40018   0.40452   0.40820
 Alpha virt. eigenvalues --    0.40877   0.40914   0.41555   0.41789   0.42234
 Alpha virt. eigenvalues --    0.42314   0.42843   0.42993   0.43382   0.43839
 Alpha virt. eigenvalues --    0.44417   0.45521   0.46296   0.46722   0.46728
 Alpha virt. eigenvalues --    0.46925   0.47216   0.47243   0.47404   0.47872
 Alpha virt. eigenvalues --    0.47938   0.48858   0.48954   0.49111   0.49344
 Alpha virt. eigenvalues --    0.50223   0.50451   0.51234   0.51471   0.53161
 Alpha virt. eigenvalues --    0.53521   0.54019   0.54133   0.55879   0.55968
 Alpha virt. eigenvalues --    0.56368   0.57015   0.57083   0.57301   0.57356
 Alpha virt. eigenvalues --    0.57620   0.58327   0.58444   0.58973   0.59028
 Alpha virt. eigenvalues --    0.59560   0.59958   0.59972   0.60140   0.60948
 Alpha virt. eigenvalues --    0.61242   0.61492   0.61771   0.61921   0.62167
 Alpha virt. eigenvalues --    0.62253   0.62518   0.63039   0.63216   0.63648
 Alpha virt. eigenvalues --    0.64223   0.64430   0.64744   0.65055   0.66070
 Alpha virt. eigenvalues --    0.67494   0.67669   0.68157   0.68421   0.68730
 Alpha virt. eigenvalues --    0.69099   0.69176   0.69517   0.69651   0.70098
 Alpha virt. eigenvalues --    0.71601   0.71807   0.71891   0.72307   0.72485
 Alpha virt. eigenvalues --    0.73069   0.73138   0.73591   0.74146   0.74608
 Alpha virt. eigenvalues --    0.75043   0.75143   0.75522   0.75581   0.76087
 Alpha virt. eigenvalues --    0.77453   0.77527   0.78879   0.79629   0.79923
 Alpha virt. eigenvalues --    0.80090   0.80365   0.81358   0.82265   0.82367
 Alpha virt. eigenvalues --    0.82994   0.83807   0.84657   0.84796   0.85025
 Alpha virt. eigenvalues --    0.85848   0.86166   0.86719   0.86932   0.86948
 Alpha virt. eigenvalues --    0.87369   0.87865   0.88060   0.88498   0.88521
 Alpha virt. eigenvalues --    0.89514   0.89604   0.89921   0.90089   0.90618
 Alpha virt. eigenvalues --    0.90725   0.91823   0.93406   0.94040   0.94508
 Alpha virt. eigenvalues --    0.94691   0.94696   0.94881   0.97267   0.97873
 Alpha virt. eigenvalues --    0.98663   0.99057   0.99316   0.99484   0.99571
 Alpha virt. eigenvalues --    0.99803   1.01016   1.01678   1.01831   1.02251
 Alpha virt. eigenvalues --    1.02763   1.03173   1.03468   1.03672   1.03830
 Alpha virt. eigenvalues --    1.04251   1.04292   1.04802   1.05027   1.05506
 Alpha virt. eigenvalues --    1.05858   1.05960   1.06428   1.06625   1.07020
 Alpha virt. eigenvalues --    1.07036   1.07649   1.07722   1.07845   1.08047
 Alpha virt. eigenvalues --    1.08454   1.08910   1.09049   1.09312   1.09464
 Alpha virt. eigenvalues --    1.09646   1.09730   1.09736   1.10638   1.11234
 Alpha virt. eigenvalues --    1.12187   1.12372   1.14208   1.14407   1.14431
 Alpha virt. eigenvalues --    1.14744   1.14773   1.14830   1.15630   1.16456
 Alpha virt. eigenvalues --    1.16533   1.16785   1.16852   1.17086   1.17582
 Alpha virt. eigenvalues --    1.17906   1.18678   1.18881   1.18920   1.19000
 Alpha virt. eigenvalues --    1.20366   1.20532   1.21223   1.21339   1.21568
 Alpha virt. eigenvalues --    1.22379   1.22481   1.22856   1.23161   1.23178
 Alpha virt. eigenvalues --    1.23899   1.24447   1.24550   1.24729   1.25660
 Alpha virt. eigenvalues --    1.26035   1.26184   1.26190   1.26773   1.26839
 Alpha virt. eigenvalues --    1.27204   1.28286   1.29895   1.30285   1.30676
 Alpha virt. eigenvalues --    1.30697   1.31357   1.32848   1.32926   1.33781
 Alpha virt. eigenvalues --    1.34164   1.34369   1.35778   1.36488   1.37360
 Alpha virt. eigenvalues --    1.38050   1.38065   1.39044   1.39068   1.39440
 Alpha virt. eigenvalues --    1.40048   1.40720   1.41061   1.41219   1.41347
 Alpha virt. eigenvalues --    1.41900   1.42025   1.42440   1.42974   1.43984
 Alpha virt. eigenvalues --    1.44244   1.44961   1.45262   1.45847   1.47434
 Alpha virt. eigenvalues --    1.49139   1.49583   1.49656   1.50236   1.50282
 Alpha virt. eigenvalues --    1.50628   1.51154   1.52103   1.52425   1.52599
 Alpha virt. eigenvalues --    1.52907   1.53643   1.54021   1.54226   1.54228
 Alpha virt. eigenvalues --    1.54378   1.54552   1.55047   1.55600   1.56551
 Alpha virt. eigenvalues --    1.56892   1.57129   1.57569   1.57792   1.58490
 Alpha virt. eigenvalues --    1.58643   1.59207   1.59252   1.59291   1.59780
 Alpha virt. eigenvalues --    1.60141   1.60325   1.61089   1.61422   1.61645
 Alpha virt. eigenvalues --    1.62023   1.62537   1.63534   1.63602   1.63845
 Alpha virt. eigenvalues --    1.64155   1.64915   1.65749   1.66258   1.66578
 Alpha virt. eigenvalues --    1.67481   1.67940   1.69127   1.69607   1.69800
 Alpha virt. eigenvalues --    1.70601   1.71032   1.71681   1.72839   1.73222
 Alpha virt. eigenvalues --    1.73504   1.73598   1.74610   1.74651   1.75096
 Alpha virt. eigenvalues --    1.77590   1.78857   1.79088   1.79348   1.80037
 Alpha virt. eigenvalues --    1.81674   1.82234   1.82612   1.83196   1.84586
 Alpha virt. eigenvalues --    1.88695   2.01010   2.01151   2.01586   2.03029
 Alpha virt. eigenvalues --    2.04697   2.05845   2.07168   2.08880   2.63515
 Alpha virt. eigenvalues --    2.63550   2.63566   2.64740   2.65225   2.67168
 Alpha virt. eigenvalues --    2.67207   2.67874   2.68265   2.69271   2.71232
 Alpha virt. eigenvalues --    2.73591   2.75043   2.75380   2.76527   2.79957
 Alpha virt. eigenvalues --    2.81011   2.81688   2.83518   2.84634   2.85734
 Alpha virt. eigenvalues --    2.86023   2.88994   2.92003   2.95563   2.96260
 Alpha virt. eigenvalues --    2.96329   2.97901   2.98621   3.00683   3.01722
 Alpha virt. eigenvalues --    3.02232   3.04162   3.06771   3.07912   3.08749
 Alpha virt. eigenvalues --    3.10678   3.14838   3.16719   3.17582   3.20265
 Alpha virt. eigenvalues --    3.20594   3.21382   3.21703   3.26838   3.27132
 Alpha virt. eigenvalues --    3.27230   3.31172   3.32841   3.42072   3.44497
 Alpha virt. eigenvalues --    3.47194   3.62121   3.62340   3.63776   3.97009
 Alpha virt. eigenvalues --    4.01767   4.13523   4.15687   4.24476   4.24548
 Alpha virt. eigenvalues --    4.24860   4.27204   4.67736   6.02317   6.06692
 Alpha virt. eigenvalues --    6.13263   7.72269
          Condensed to atoms (all electrons):
               1          2          3          4          5          6
     1  Al  12.199202   0.120435   0.271166  -0.028726  -0.034270   0.212761
     2  Al   0.120435  12.049852  -0.019053   0.120435   0.279514  -0.023976
     3  Al   0.271166  -0.019053  12.199202  -0.006156  -0.034270   0.212761
     4  Al  -0.028726   0.120435  -0.006156  12.199202   0.212761  -0.034270
     5  Al  -0.034270   0.279514  -0.034270   0.212761  12.159776  -0.011403
     6  Al   0.212761  -0.023976   0.212761  -0.034270  -0.011403  12.159776
     7  Al   0.212761   0.279514   0.212761  -0.034270   0.168425  -0.041127
     8  Al   0.120435  -0.045340  -0.019053   0.120435  -0.023976   0.279514
     9  Al  -0.019053  -0.004135   0.120435  -0.019053  -0.023976   0.279514
    10  Al  -0.006156  -0.019053  -0.028726   0.271166   0.212761  -0.034270
    11  Al  -0.034270  -0.023976  -0.034270   0.212761  -0.041127   0.168425
    12  Al  -0.019053  -0.027413   0.120435  -0.019053   0.279514  -0.023976
    13  Al   0.155066   0.181903  -0.002698  -0.041924  -0.003069  -0.013891
    14  Al   0.003844   0.001578  -0.041924  -0.002698  -0.013891  -0.003069
    15  Al  -0.041924   0.181903   0.003844   0.155066  -0.013891  -0.003069
    16  Al   0.061804   0.052970   0.061804   0.061804   0.082054   0.082054
    17  Al  -0.002698   0.001578   0.155066   0.003844  -0.003069  -0.013891
               7          8          9         10         11         12
     1  Al   0.212761   0.120435  -0.019053  -0.006156  -0.034270  -0.019053
     2  Al   0.279514  -0.045340  -0.004135  -0.019053  -0.023976  -0.027413
     3  Al   0.212761  -0.019053   0.120435  -0.028726  -0.034270   0.120435
     4  Al  -0.034270   0.120435  -0.019053   0.271166   0.212761  -0.019053
     5  Al   0.168425  -0.023976  -0.023976   0.212761  -0.041127   0.279514
     6  Al  -0.041127   0.279514   0.279514  -0.034270   0.168425  -0.023976
     7  Al  12.159776  -0.023976  -0.023976  -0.034270  -0.011403   0.279514
     8  Al  -0.023976  12.049852  -0.027413  -0.019053   0.279514  -0.004135
     9  Al  -0.023976  -0.027413  12.049852   0.120435   0.279514  -0.045340
    10  Al  -0.034270  -0.019053   0.120435  12.199202   0.212761   0.120435
    11  Al  -0.011403   0.279514   0.279514   0.212761  12.159776  -0.023976
    12  Al   0.279514  -0.004135  -0.045340   0.120435  -0.023976  12.049852
    13  Al  -0.013891   0.181903   0.001578   0.003844  -0.003069   0.001578
    14  Al  -0.003069   0.001578   0.181903   0.155066  -0.013891   0.181903
    15  Al  -0.003069   0.181903   0.001578  -0.002698  -0.013891   0.001578
    16  Al   0.082054   0.052970   0.052970   0.061804   0.082054   0.052970
    17  Al  -0.013891   0.001578   0.181903  -0.041924  -0.003069   0.181903
              13         14         15         16         17
     1  Al   0.155066   0.003844  -0.041924   0.061804  -0.002698
     2  Al   0.181903   0.001578   0.181903   0.052970   0.001578
     3  Al  -0.002698  -0.041924   0.003844   0.061804   0.155066
     4  Al  -0.041924  -0.002698   0.155066   0.061804   0.003844
     5  Al  -0.003069  -0.013891  -0.013891   0.082054  -0.003069
     6  Al  -0.013891  -0.003069  -0.003069   0.082054  -0.013891
     7  Al  -0.013891  -0.003069  -0.003069   0.082054  -0.013891
     8  Al   0.181903   0.001578   0.181903   0.052970   0.001578
     9  Al   0.001578   0.181903   0.001578   0.052970   0.181903
    10  Al   0.003844   0.155066  -0.002698   0.061804  -0.041924
    11  Al  -0.003069  -0.013891  -0.013891   0.082054  -0.003069
    12  Al   0.001578   0.181903   0.001578   0.052970   0.181903
    13  Al  12.425817  -0.000322   0.211629  -0.017840  -0.000007
    14  Al  -0.000322  12.425817  -0.000007  -0.017840   0.211629
    15  Al   0.211629  -0.000007  12.425817  -0.017840  -0.000322
    16  Al  -0.017840  -0.017840  -0.017840  11.137933  -0.017840
    17  Al  -0.000007   0.211629  -0.000322  -0.017840  12.425817
 Mulliken charges:
               1
     1  Al  -0.171323
     2  Al  -0.106737
     3  Al  -0.171323
     4  Al  -0.171323
     5  Al  -0.191863
     6  Al  -0.191863
     7  Al  -0.191863
     8  Al  -0.106737
     9  Al  -0.106737
    10  Al  -0.171323
    11  Al  -0.191863
    12  Al  -0.106737
    13  Al  -0.066607
    14  Al  -0.066607
    15  Al  -0.066607
    16  Al   1.146116
    17  Al  -0.066607
 Sum of Mulliken charges =  -1.00000
 Mulliken charges with hydrogens summed into heavy atoms:
               1
     1  Al  -0.171323
     2  Al  -0.106737
     3  Al  -0.171323
     4  Al  -0.171323
     5  Al  -0.191863
     6  Al  -0.191863
     7  Al  -0.191863
     8  Al  -0.106737
     9  Al  -0.106737
    10  Al  -0.171323
    11  Al  -0.191863
    12  Al  -0.106737
    13  Al  -0.066607
    14  Al  -0.066607
    15  Al  -0.066607
    16  Al   1.146116
    17  Al  -0.066607
 Electronic spatial extent (au):  <R**2>=           8250.4287
 Charge=             -1.0000 electrons
 Dipole moment (field-independent basis, Debye):
    X=              0.0000    Y=              0.0000    Z=              0.0000  Tot=              0.0000
 Quadrupole moment (field-independent basis, Debye-Ang):
   XX=           -325.8505   YY=           -253.3419   ZZ=           -239.9714
   XY=              0.0000   XZ=              0.0000   YZ=              0.0000
 Traceless Quadrupole moment (field-independent basis, Debye-Ang):
   XX=            -52.7959   YY=             19.7127   ZZ=             33.0831
   XY=              0.0000   XZ=              0.0000   YZ=              0.0000
 Octapole moment (field-independent basis, Debye-Ang**2):
  XXX=              0.0000  YYY=              0.0000  ZZZ=              0.0000  XYY=              0.0000
  XXY=              0.0000  XXZ=              0.0000  XZZ=              0.0000  YZZ=              0.0000
  YYZ=              0.0000  XYZ=              0.0000
 Hexadecapole moment (field-independent basis, Debye-Ang**3):
 XXXX=         -11835.4019 YYYY=          -3827.0669 ZZZZ=          -3090.9335 XXXY=              0.0000
 XXXZ=              0.0000 YYYX=              0.0000 YYYZ=              0.0000 ZZZX=              0.0000
 ZZZY=              0.0000 XXYY=          -2562.8797 XXZZ=          -2029.1770 YYZZ=          -1141.0359
 XXYZ=              0.0000 YYXZ=              0.0000 ZZXY=              0.0000
 N-N= 3.182732288683D+03 E-N=-1.622525495755D+04  KE= 4.113296873800D+03
 Symmetry AG   KE= 1.068890848051D+03
 Symmetry B1G  KE= 4.825488186599D+02
 Symmetry B2G  KE= 2.821133775109D+02
 Symmetry B3G  KE= 2.805734233749D+02
 Symmetry AU   KE= 8.030264304778D+01
 Symmetry B1U  KE= 5.048965401391D+02
 Symmetry B2U  KE= 7.071919517938D+02
 Symmetry B3U  KE= 7.067792712224D+02

 Test job not archived.
 1\1\GINC-R1I1N4\SP\RCCSD(T)-FC\CC-pVTZ\Al17(1-)\VSC31064\01-Oct-2016\0
 \\# CCSD(T,conver=5)/cc-pVTZ test geom=allcheck guess=read\\Al17-a-s\\
 -1,1\Al,0,-1.3982601,-2.28101304,0.\Al,0,-2.23388107,0.,1.49918599\Al,
 0,1.3982601,-2.28101304,0.\Al,0,-1.3982601,2.28101304,0.\Al,0,0.,1.412
 11764,2.25094056\Al,0,0.,-1.41211764,-2.25094056\Al,0,0.,-1.41211764,2
 .25094056\Al,0,-2.23388107,0.,-1.49918599\Al,0,2.23388107,0.,-1.499185
 99\Al,0,1.3982601,2.28101304,0.\Al,0,0.,1.41211764,-2.25094056\Al,0,2.
 23388107,0.,1.49918599\Al,0,-4.21267208,-1.39529299,0.\Al,0,4.21267208
 ,1.39529299,0.\Al,0,-4.21267208,1.39529299,0.\Al,0,0.,0.,0.\Al,0,4.212
 67208,-1.39529299,0.\\Version=ES64L-G09RevD.01\State=1-AG\HF=-4112.773
 0334\MP2=-4114.4976564\MP3=-4114.1343337\MP4D=-4114.5226993\MP4DQ=-411
 4.4271232\MP4SDQ=-4114.4590907\CCSD=-4114.2773431\CCSD(T)=-4114.495292
 8\RMSD=4.596e-09\PG=D02H [O(Al1),SG(Al4),SG'(Al4),SG"(Al8)]\\@


 The mind is not a vessel to be filled but a fire to be kindled.
                                  -- Plutarch
 Job cpu time:       3 days  3 hours 48 minutes 30.0 seconds.
 File lengths (MBytes):  RWF=  19353 Int=      0 D2E=      0 Chk=     16 Scr=      1
 Normal termination of Gaussian 09 at Sat Oct  1 19:12:19 2016.
