 Entering Gaussian System, Link 0=g09
 Initial command:
 /apps/leuven/thinking/software/G09//g09D1/l1.exe "/local_scratch/vsc31064/Gau-51801.inp" -scrdir="/local_scratch/vsc31064/"
 Entering Link 1 = /apps/leuven/thinking/software/G09//g09D1/l1.exe PID=     51805.
  
 Copyright (c) 1988,1990,1992,1993,1995,1998,2003,2009,2013,
            Gaussian, Inc.  All Rights Reserved.
  
 This is part of the Gaussian(R) 09 program.  It is based on
 the Gaussian(R) 03 system (copyright 2003, Gaussian, Inc.),
 the Gaussian(R) 98 system (copyright 1998, Gaussian, Inc.),
 the Gaussian(R) 94 system (copyright 1995, Gaussian, Inc.),
 the Gaussian 92(TM) system (copyright 1992, Gaussian, Inc.),
 the Gaussian 90(TM) system (copyright 1990, Gaussian, Inc.),
 the Gaussian 88(TM) system (copyright 1988, Gaussian, Inc.),
 the Gaussian 86(TM) system (copyright 1986, Carnegie Mellon
 University), and the Gaussian 82(TM) system (copyright 1983,
 Carnegie Mellon University). Gaussian is a federally registered
 trademark of Gaussian, Inc.
  
 This software contains proprietary and confidential information,
 including trade secrets, belonging to Gaussian, Inc.
  
 This software is provided under written license and may be
 used, copied, transmitted, or stored only in accord with that
 written license.
  
 The following legend is applicable only to US Government
 contracts under FAR:
  
                    RESTRICTED RIGHTS LEGEND
  
 Use, reproduction and disclosure by the US Government is
 subject to restrictions as set forth in subparagraphs (a)
 and (c) of the Commercial Computer Software - Restricted
 Rights clause in FAR 52.227-19.
  
 Gaussian, Inc.
 340 Quinnipiac St., Bldg. 40, Wallingford CT 06492
  
  
 ---------------------------------------------------------------
 Warning -- This program may not be used in any manner that
 competes with the business of Gaussian, Inc. or will provide
 assistance to any competitor of Gaussian, Inc.  The licensee
 of this program is prohibited from giving any competitor of
 Gaussian, Inc. access to this program.  By using this program,
 the user acknowledges that Gaussian, Inc. is engaged in the
 business of creating and licensing software in the field of
 computational chemistry and represents and warrants to the
 licensee that it is not a competitor of Gaussian, Inc. and that
 it will not use this program in any manner prohibited above.
 ---------------------------------------------------------------
  

 Cite this work as:
 Gaussian 09, Revision D.01,
 M. J. Frisch, G. W. Trucks, H. B. Schlegel, G. E. Scuseria, 
 M. A. Robb, J. R. Cheeseman, G. Scalmani, V. Barone, B. Mennucci, 
 G. A. Petersson, H. Nakatsuji, M. Caricato, X. Li, H. P. Hratchian, 
 A. F. Izmaylov, J. Bloino, G. Zheng, J. L. Sonnenberg, M. Hada, 
 M. Ehara, K. Toyota, R. Fukuda, J. Hasegawa, M. Ishida, T. Nakajima, 
 Y. Honda, O. Kitao, H. Nakai, T. Vreven, J. A. Montgomery, Jr., 
 J. E. Peralta, F. Ogliaro, M. Bearpark, J. J. Heyd, E. Brothers, 
 K. N. Kudin, V. N. Staroverov, T. Keith, R. Kobayashi, J. Normand, 
 K. Raghavachari, A. Rendell, J. C. Burant, S. S. Iyengar, J. Tomasi, 
 M. Cossi, N. Rega, J. M. Millam, M. Klene, J. E. Knox, J. B. Cross, 
 V. Bakken, C. Adamo, J. Jaramillo, R. Gomperts, R. E. Stratmann, 
 O. Yazyev, A. J. Austin, R. Cammi, C. Pomelli, J. W. Ochterski, 
 R. L. Martin, K. Morokuma, V. G. Zakrzewski, G. A. Voth, 
 P. Salvador, J. J. Dannenberg, S. Dapprich, A. D. Daniels, 
 O. Farkas, J. B. Foresman, J. V. Ortiz, J. Cioslowski, 
 and D. J. Fox, Gaussian, Inc., Wallingford CT, 2013.
 
 ******************************************
 Gaussian 09:  ES64L-G09RevD.01 24-Apr-2013
                 1-Oct-2016 
 ******************************************
 %NprocShared=20
 Will use up to   20 processors via shared memory.
 %mem=55000mb
 %chk=cc-Al17-n-d
 ------------------------
 # hf/6-31G* test scf=xqc
 ------------------------
 1/38=1/1;
 2/12=2,17=6,18=5,40=1/2;
 3/5=1,6=6,7=1,11=9,16=1,25=1,30=1/1,2,3;
 4//1;
 5/5=2,8=3,13=1,38=5/2,8;
 6/7=2,8=2,9=2,10=2,28=1/1;
 99/5=1,9=1/99;
 --------
 Al17-n-d
 --------
 Symbolic Z-matrix:
 Charge =  0 Multiplicity = 2
 Al                    1.40197   2.29565   0. 
 Al                    2.18111   0.        1.56055 
 Al                   -1.40197   2.29565   0. 
 Al                    1.40197  -2.29565   0. 
 Al                    0.       -1.43038   2.2631 
 Al                    0.        1.43038  -2.2631 
 Al                    0.        1.43038   2.2631 
 Al                    2.18111   0.       -1.56055 
 Al                   -2.18111   0.       -1.56055 
 Al                   -1.40197  -2.29565   0. 
 Al                    0.       -1.43038  -2.2631 
 Al                   -2.18111   0.        1.56055 
 Al                    4.09639   1.32137   0. 
 Al                   -4.09639  -1.32137   0. 
 Al                    4.09639  -1.32137   0. 
 Al                    0.        0.        0. 
 Al                   -4.09639   1.32137   0. 
 
                          Input orientation:                          
 ---------------------------------------------------------------------
 Center     Atomic      Atomic             Coordinates (Angstroms)
 Number     Number       Type             X           Y           Z
 ---------------------------------------------------------------------
      1         13           0        1.401968    2.295645    0.000000
      2         13           0        2.181110    0.000000    1.560551
      3         13           0       -1.401968    2.295645    0.000000
      4         13           0        1.401968   -2.295645    0.000000
      5         13           0        0.000000   -1.430378    2.263097
      6         13           0        0.000000    1.430378   -2.263097
      7         13           0        0.000000    1.430378    2.263097
      8         13           0        2.181110    0.000000   -1.560551
      9         13           0       -2.181110    0.000000   -1.560551
     10         13           0       -1.401968   -2.295645    0.000000
     11         13           0        0.000000   -1.430378   -2.263097
     12         13           0       -2.181110    0.000000    1.560551
     13         13           0        4.096389    1.321367    0.000000
     14         13           0       -4.096389   -1.321367    0.000000
     15         13           0        4.096389   -1.321367    0.000000
     16         13           0        0.000000    0.000000    0.000000
     17         13           0       -4.096389    1.321367    0.000000
 ---------------------------------------------------------------------
                    Distance matrix (angstroms):
                    1          2          3          4          5
     1  Al   0.000000
     2  Al   2.883118   0.000000
     3  Al   2.803936   4.532522   0.000000
     4  Al   4.591290   2.883118   5.379777   0.000000
     5  Al   4.579342   2.701258   4.579342   2.799252   0.000000
     6  Al   2.799252   4.628554   2.799252   4.579342   5.354472
     7  Al   2.799252   2.701258   2.799252   4.579342   2.860757
     8  Al   2.883118   3.121102   4.532522   2.883118   4.628554
     9  Al   4.532522   5.363790   2.883118   4.532522   4.628554
    10  Al   5.379777   4.532522   4.591290   2.803936   2.799252
    11  Al   4.579342   4.628554   4.579342   2.799252   4.526195
    12  Al   4.532522   4.362220   2.883118   4.532522   2.701258
    13  Al   2.865157   2.801718   5.584008   4.510286   5.429007
    14  Al   6.581391   6.602146   4.510286   5.584008   4.681228
    15  Al   4.510286   2.801718   6.581391   2.865157   4.681228
    16  Al   2.689889   2.681895   2.689889   2.689889   2.677236
    17  Al   5.584008   6.602146   2.865157   6.581391   5.429007
                    6          7          8          9         10
     6  Al   0.000000
     7  Al   4.526195   0.000000
     8  Al   2.701258   4.628554   0.000000
     9  Al   2.701258   4.628554   4.362220   0.000000
    10  Al   4.579342   4.579342   4.532522   2.883118   0.000000
    11  Al   2.860757   5.354472   2.701258   2.701258   2.799252
    12  Al   4.628554   2.701258   5.363790   3.121102   2.883118
    13  Al   4.681228   4.681228   2.801718   6.602146   6.581391
    14  Al   5.429007   5.429007   6.602146   2.801718   2.865157
    15  Al   5.429007   5.429007   2.801718   6.602146   5.584008
    16  Al   2.677236   2.677236   2.681895   2.681895   2.689889
    17  Al   4.681228   4.681228   6.602146   2.801718   4.510286
                   11         12         13         14         15
    11  Al   0.000000
    12  Al   4.628554   0.000000
    13  Al   5.429007   6.602146   0.000000
    14  Al   4.681228   2.801718   8.608464   0.000000
    15  Al   4.681228   6.602146   2.642734   8.192778   0.000000
    16  Al   2.677236   2.681895   4.304232   4.304232   4.304232
    17  Al   5.429007   2.801718   8.192778   2.642734   8.608464
                   16         17
    16  Al   0.000000
    17  Al   4.304232   0.000000
 Stoichiometry    Al17(2)
 Framework group  D2H[O(Al),SG(Al4),SG'(Al4),SG"(Al8)]
 Deg. of freedom     8
 Full point group                 D2H     NOp   8
 Largest Abelian subgroup         D2H     NOp   8
 Largest concise Abelian subgroup D2H     NOp   8
                         Standard orientation:                         
 ---------------------------------------------------------------------
 Center     Atomic      Atomic             Coordinates (Angstroms)
 Number     Number       Type             X           Y           Z
 ---------------------------------------------------------------------
      1         13           0        1.401968    2.295645    0.000000
      2         13           0        2.181110    0.000000    1.560551
      3         13           0       -1.401968    2.295645    0.000000
      4         13           0        1.401968   -2.295645    0.000000
      5         13           0        0.000000   -1.430378    2.263097
      6         13           0        0.000000    1.430378   -2.263097
      7         13           0        0.000000    1.430378    2.263097
      8         13           0        2.181110    0.000000   -1.560551
      9         13           0       -2.181110    0.000000   -1.560551
     10         13           0       -1.401968   -2.295645    0.000000
     11         13           0        0.000000   -1.430378   -2.263097
     12         13           0       -2.181110    0.000000    1.560551
     13         13           0        4.096389    1.321367    0.000000
     14         13           0       -4.096389   -1.321367    0.000000
     15         13           0        4.096389   -1.321367    0.000000
     16         13           0        0.000000    0.000000    0.000000
     17         13           0       -4.096389    1.321367    0.000000
 ---------------------------------------------------------------------
 Rotational constants (GHZ):      0.2817656      0.1507606      0.1437929
 Standard basis: 6-31G(d) (6D, 7F)
 There are    63 symmetry adapted cartesian basis functions of AG  symmetry.
 There are    39 symmetry adapted cartesian basis functions of B1G symmetry.
 There are    30 symmetry adapted cartesian basis functions of B2G symmetry.
 There are    30 symmetry adapted cartesian basis functions of B3G symmetry.
 There are    20 symmetry adapted cartesian basis functions of AU  symmetry.
 There are    41 symmetry adapted cartesian basis functions of B1U symmetry.
 There are    50 symmetry adapted cartesian basis functions of B2U symmetry.
 There are    50 symmetry adapted cartesian basis functions of B3U symmetry.
 There are    63 symmetry adapted basis functions of AG  symmetry.
 There are    39 symmetry adapted basis functions of B1G symmetry.
 There are    30 symmetry adapted basis functions of B2G symmetry.
 There are    30 symmetry adapted basis functions of B3G symmetry.
 There are    20 symmetry adapted basis functions of AU  symmetry.
 There are    41 symmetry adapted basis functions of B1U symmetry.
 There are    50 symmetry adapted basis functions of B2U symmetry.
 There are    50 symmetry adapted basis functions of B3U symmetry.
   323 basis functions,   884 primitive gaussians,   323 cartesian basis functions
   111 alpha electrons      110 beta electrons
       nuclear repulsion energy      3204.6536767783 Hartrees.
 NAtoms=   17 NActive=   17 NUniq=    5 SFac= 4.00D+00 NAtFMM=   60 NAOKFM=F Big=F
 Integral buffers will be    131072 words long.
 Raffenetti 2 integral format.
 Two-electron integral symmetry is turned on.
 One-electron integrals computed using PRISM.
 NBasis=   323 RedAO= T EigKep=  4.57D-04  NBF=    63    39    30    30    20    41    50    50
 NBsUse=   323 1.00D-06 EigRej= -1.00D+00 NBFU=    63    39    30    30    20    41    50    50
 ExpMin= 5.57D-02 ExpMax= 1.40D+04 ExpMxC= 2.10D+03 IAcc=2 IRadAn=         4 AccDes= 0.00D+00
 Harris functional with IExCor=  205 and IRadAn=       4 diagonalized for initial guess.
 HarFok:  IExCor=  205 AccDes= 0.00D+00 IRadAn=         4 IDoV= 1 UseB2=F ITyADJ=14
 ICtDFT=  3500011 ScaDFX=  1.000000  1.000000  1.000000  1.000000
 FoFCou: FMM=F IPFlag=           0 FMFlag=      100000 FMFlg1=           0
         NFxFlg=           0 DoJE=T BraDBF=F KetDBF=T FulRan=T
         wScrn=  0.000000 ICntrl=     500 IOpCl=  0 I1Cent=   200000004 NGrid=           0
         NMat0=    1 NMatS0=      1 NMatT0=    0 NMatD0=    1 NMtDS0=    0 NMtDT0=    0
 Petite list used in FoFCou.
 Initial guess orbital symmetries:
 Alpha Orbitals:
       Occupied  (AG) (B3U) (B1U) (AG) (B2G) (B1U) (B2U) (AG) (B3G)
                 (B2U) (B3U) (AG) (B1G) (B1G) (B2U) (B3U) (AG)
                 (AG) (B1U) (B3U) (B2G) (AG) (B1U) (B2U) (AG) (B3G)
                 (B2U) (AG) (B3U) (B1G) (B3U) (AG) (B1G) (B2U)
                 (B1U) (B2U) (B3U) (AG) (B1U) (B3U) (B2G) (B1G)
                 (B2U) (AU) (B3U) (B3G) (AG) (B1U) (B2G) (B2U)
                 (AG) (B1U) (B3G) (AG) (B2U) (B3U) (B1G) (B2G)
                 (B3U) (AU) (B1G) (AG) (B2U) (B3U) (B1G) (B1U)
                 (B3G) (AG) (B2U) (AU) (B1U) (B2G) (B3G) (B3U)
                 (AG) (B1G) (B2U) (AG) (B3U) (B2U) (B1G) (B1U)
                 (B2G) (AU) (B3G) (AG) (B3U) (B1U) (B2U) (AG) (B1G)
                 (B3U) (B2G) (AG) (B3G) (AG) (B2U) (B1U) (AG) (B3U)
                 (AU) (B1G) (B3U) (B1U) (B2U) (B1U) (B2U) (B2G)
                 (B3U) (AG) (B2U)
       Virtual   (B1G) (B3G) (AG) (B3G) (B3U) (AG) (B2G) (B1G)
                 (B1U) (AG) (B3G) (AU) (B2G) (AG) (B1G) (AG) (B3U)
                 (B2U) (AG) (B1U) (B2G) (B2U) (B3U) (B1U) (B3G)
                 (B2U) (AU) (B1U) (B1G) (B2U) (B3U) (B3U) (AU)
                 (B2U) (B1U) (B2U) (B3U) (AG) (B1U) (B2G) (B1G)
                 (AG) (AU) (B2U) (B3G) (B1G) (B3U) (AG) (B3G) (B2G)
                 (AG) (B2G) (AG) (B1G) (B3U) (B3G) (B1G) (B3U)
                 (AG) (B1U) (B3G) (B2U) (AG) (B1G) (B2U) (B1U)
                 (B2G) (B3U) (AU) (AG) (B3U) (B2U) (B1U) (B2G)
                 (AG) (B3G) (B1U) (B2U) (AU) (B1U) (B1G) (B2U)
                 (B3U) (B1G) (B2G) (AU) (AG) (B2U) (B1U) (B3U)
                 (B2G) (B3G) (AG) (B1G) (B3U) (AG) (B3G) (B2U)
                 (B1G) (B3G) (B2G) (B1U) (B3U) (B2U) (B1U) (B3U)
                 (AG) (B1G) (AU) (B1U) (AU) (B2U) (AG) (B2G) (AU)
                 (B2U) (B3U) (B3G) (B1G) (AG) (B2U) (AG) (B2G)
                 (B3U) (AG) (B1G) (B3G) (B1U) (B2G) (B3U) (AG)
                 (B1G) (AG) (B3U) (B1U) (B3U) (B3G) (B1G) (AU)
                 (B2U) (B1U) (AU) (B2G) (B1G) (B3G) (AG) (B2U)
                 (B3U) (B1U) (AG) (B2U) (AG) (B1U) (B2G) (B3G)
                 (B2U) (B1U) (B3U) (AG) (B1G) (B3G) (B2U) (B2G)
                 (B3U) (B2U) (AU) (B2U) (B1U) (B3U) (AU) (AG) (B1G)
                 (B2G) (B3U) (B1U) (B3G) (B1G) (B2U) (B2U) (B3G)
                 (B1G) (AG) (B2G) (AG) (AU) (B3G) (B1G) (B2G) (B1G)
                 (B3U) (AG) (B3U) (B2U) (B1U) (AG) (B3U) (AG) (B2G)
                 (AG) (B1U) (B1G) (B3U) (AG) (B2U) (B3G) (B2U)
                 (B1G) (AG) (B3U) (B1U) (B2U) (AG)
 Beta  Orbitals:
       Occupied  (AG) (B3U) (B1U) (AG) (B2G) (B1U) (B2U) (AG) (B3G)
                 (B2U) (B3U) (AG) (B1G) (B1G) (B2U) (B3U) (AG)
                 (AG) (B1U) (B3U) (B2G) (AG) (B1U) (B2U) (AG) (B3G)
                 (B2U) (AG) (B3U) (B1G) (B3U) (AG) (B1G) (B2U)
                 (B1U) (B2U) (B3U) (AG) (B1U) (B3U) (B2G) (B1G)
                 (B2U) (AU) (B3U) (B3G) (AG) (B1U) (B2G) (B2U)
                 (AG) (B1U) (B3G) (AG) (B2U) (B3U) (B1G) (B2G)
                 (B3U) (AU) (B1G) (AG) (B2U) (B3U) (B1G) (B1U)
                 (B3G) (AG) (B2U) (AU) (B1U) (B2G) (B3G) (B3U)
                 (AG) (B1G) (B2U) (AG) (B3U) (B2U) (B1G) (B1U)
                 (B2G) (AU) (B3G) (AG) (B3U) (B1U) (B2U) (AG) (B1G)
                 (B3U) (B2G) (AG) (B3G) (AG) (B2U) (B1U) (AG) (B3U)
                 (AU) (B1G) (B3U) (B1U) (B2U) (B1U) (B2U) (B2G)
                 (B3U) (AG)
       Virtual   (B2U) (B1G) (B3G) (AG) (B3G) (B3U) (AG) (B2G)
                 (B1G) (B1U) (AG) (B3G) (AU) (B2G) (AG) (B1G) (AG)
                 (B3U) (B2U) (AG) (B1U) (B2G) (B2U) (B3U) (B1U)
                 (B3G) (B2U) (AU) (B1U) (B1G) (B2U) (B3U) (B3U)
                 (AU) (B2U) (B1U) (B2U) (B3U) (AG) (B1U) (B2G)
                 (B1G) (AG) (AU) (B2U) (B3G) (B1G) (B3U) (AG) (B3G)
                 (B2G) (AG) (B2G) (AG) (B1G) (B3U) (B3G) (B1G)
                 (B3U) (AG) (B1U) (B3G) (B2U) (AG) (B1G) (B2U)
                 (B1U) (B2G) (B3U) (AU) (AG) (B3U) (B2U) (B1U)
                 (B2G) (AG) (B3G) (B1U) (B2U) (AU) (B1U) (B1G)
                 (B2U) (B3U) (B1G) (B2G) (AU) (AG) (B2U) (B1U)
                 (B3U) (B2G) (B3G) (AG) (B1G) (B3U) (AG) (B3G)
                 (B2U) (B1G) (B3G) (B2G) (B1U) (B3U) (B2U) (B1U)
                 (B3U) (AG) (B1G) (AU) (B1U) (AU) (B2U) (AG) (B2G)
                 (AU) (B2U) (B3U) (B3G) (B1G) (AG) (B2U) (AG) (B2G)
                 (B3U) (AG) (B1G) (B3G) (B1U) (B2G) (B3U) (AG)
                 (B1G) (AG) (B3U) (B1U) (B3U) (B3G) (B1G) (AU)
                 (B2U) (B1U) (AU) (B2G) (B1G) (B3G) (AG) (B2U)
                 (B3U) (B1U) (AG) (B2U) (AG) (B1U) (B2G) (B3G)
                 (B2U) (B1U) (B3U) (AG) (B1G) (B3G) (B2U) (B2G)
                 (B3U) (B2U) (AU) (B2U) (B1U) (B3U) (AU) (AG) (B1G)
                 (B2G) (B3U) (B1U) (B3G) (B1G) (B2U) (B2U) (B3G)
                 (B1G) (AG) (B2G) (AG) (AU) (B3G) (B1G) (B2G) (B1G)
                 (B3U) (AG) (B3U) (B2U) (B1U) (AG) (B3U) (AG) (B2G)
                 (AG) (B1U) (B1G) (B3U) (AG) (B2U) (B3G) (B2U)
                 (B1G) (AG) (B3U) (B1U) (B2U) (AG)
 The electronic state of the initial guess is 2-B2U.
 Initial guess <Sx>= 0.0000 <Sy>= 0.0000 <Sz>= 0.5000 <S**2>= 0.7500 S= 0.5000
 Keep R1 and R2 ints in memory in symmetry-blocked form, NReq=1541549667.
 Requested convergence on RMS density matrix=1.00D-08 within  64 cycles.
 Requested convergence on MAX density matrix=1.00D-06.
 Requested convergence on             energy=1.00D-06.
 No special actions if energy rises.
 SCF Done:  E(UHF) =  -4112.34431633     A.U. after   23 cycles
            NFock= 23  Conv=0.31D-08     -V/T= 2.0002
 <Sx>= 0.0000 <Sy>= 0.0000 <Sz>= 0.5000 <S**2>= 1.4136 S= 0.7898
 <L.S>= 0.000000000000E+00
 Annihilation of the first spin contaminant:
 S**2 before annihilation     1.4136,   after     1.2358
 QCSCF skips out because SCF is already converged.

 **********************************************************************

            Population analysis using the SCF density.

 **********************************************************************

 Orbital symmetries:
 Alpha Orbitals:
       Occupied  (B2U) (B3U) (AG) (B1G) (B1G) (B2U) (B3U) (AG)
                 (B1U) (B2U) (B3G) (AG) (B3U) (B1U) (AG) (B2G)
                 (AG) (B2U) (AG) (B3U) (B1G) (B3U) (AG) (B2U) (B1G)
                 (B1U) (AG) (B3G) (B2U) (B3U) (AG) (B2G) (B1U)
                 (AG) (B2U) (AG) (B3U) (B1G) (B2U) (AG) (B3G) (B1U)
                 (AU) (B2G) (B1G) (B3U) (AG) (B3U) (B1U) (AG) (B2U)
                 (B1G) (B2U) (B3G) (B3U) (AG) (B1U) (AG) (B2G)
                 (B1U) (B3G) (B2U) (AU) (B1G) (B3G) (B2U) (B2G)
                 (B1U) (AU) (B3G) (B3U) (B2G) (B1G) (AU) (AG) (B1U)
                 (B3U) (B2G) (B3U) (AG) (B2U) (B1G) (B2U) (B3U)
                 (B1U) (AG) (B3U) (B2U) (B1U) (AG) (B1G) (B3U)
                 (B2G) (AG) (B3G) (AG) (B2U) (B1U) (AG) (B1G) (B3U)
                 (B3U) (AU) (B2U) (B1U) (B1U) (B2U) (B2G) (AG)
                 (B3U) (B2U)
       Virtual   (B1G) (B3G) (AG) (B1G) (B3G) (B3U) (AG) (B2G)
                 (B1U) (AG) (B3G) (B2G) (AU) (AG) (B1G) (AG) (B2U)
                 (B3U) (AG) (B2G) (B1U) (B1U) (B3U) (B2U) (B2U)
                 (B1U) (B3G) (B3U) (B1G) (AU) (B2U) (B3U) (B2U)
                 (AU) (AG) (B2U) (B1U) (B3U) (B1G) (B2G) (B1U)
                 (AG) (B3G) (B1G) (AG) (B2U) (B3G) (B2G) (AU) (B3U)
                 (B1G) (AG) (B3U) (AG) (B1G) (B3G) (B2G) (B3G)
                 (B2U) (AG) (B3U) (AG) (B1U) (B1G) (B2G) (B2U)
                 (AU) (B3U) (B1U) (AG) (B2G) (B2U) (B1U) (B3G)
                 (AU) (B1U) (B2U) (B3U) (B1U) (AG) (B2U) (B1G)
                 (B3U) (B1G) (AU) (B1U) (B2U) (B2G) (AG) (B3U)
                 (B3G) (B2U) (B2G) (B3U) (AG) (B1G) (B3G) (B1G)
                 (AG) (B3U) (B1G) (B3G) (B2G) (B1U) (AG) (B2U)
                 (B1U) (B3U) (B2U) (AU) (B1U) (AG) (B3U) (AU) (B2U)
                 (B2G) (B3G) (B1G) (AU) (AG) (AG) (B2U) (B3U) (B1G)
                 (B2G) (AG) (B2G) (B3G) (B1U) (B1G) (B3U) (AG)
                 (B3U) (AG) (B1U) (B3U) (B1G) (B3G) (B2U) (AU)
                 (B1U) (B3G) (B1G) (AU) (B2G) (AG) (B2U) (B3U)
                 (AG) (B1U) (AG) (B2U) (B3G) (B2G) (B2U) (B1U)
                 (AG) (B1G) (B2U) (B3U) (B3G) (B1U) (B2G) (B3U)
                 (B2U) (AU) (AG) (B2U) (B3U) (B1U) (AU) (B1G) (B2G)
                 (B1U) (B3G) (B1G) (B3U) (B2U) (B2U) (B3G) (B1G)
                 (B3U) (B2G) (B1G) (AG) (AU) (AG) (B3G) (B1G) (B2G)
                 (AG) (B3U) (B2U) (B1U) (AG) (B3U) (AG) (B1G) (B2G)
                 (B1U) (B2U) (B3U) (AG) (B3G) (B2U) (AG) (B1G)
                 (AG) (B3U) (B2U) (B1U) (AG)
 Beta  Orbitals:
       Occupied  (B2U) (B3U) (B1G) (AG) (B1U) (B2U) (B3G) (AG)
                 (B1G) (B2U) (B3U) (AG) (B3U) (B1U) (AG) (B2G)
                 (AG) (B2U) (AG) (B3U) (B1G) (B1U) (AG) (B3G) (B2U)
                 (B3U) (AG) (B2G) (B1U) (B3U) (AG) (B2U) (B1G)
                 (AG) (B2U) (AG) (B3U) (B1G) (B3G) (B1U) (AU) (B2G)
                 (AG) (B2U) (B1G) (B3U) (B1U) (AG) (B2U) (B3G)
                 (B3U) (AG) (B2G) (B1G) (AU) (B3U) (B1U) (B2G)
                 (AG) (B1U) (B2U) (B3G) (B2U) (B3G) (B1G) (AU)
                 (AG) (B1U) (B3U) (B2G) (B3U) (AG) (B2U) (B1G)
                 (B1U) (B2G) (AU) (B3G) (B3U) (AG) (B1G) (B2U)
                 (B1U) (B2U) (B3U) (AG) (B3U) (B1U) (B2U) (AG)
                 (B1G) (B3U) (B2G) (AG) (B3G) (AG) (B2U) (B1U)
                 (AG) (B3U) (AU) (B3U) (B1G) (B2U) (B1U) (B1U)
                 (B2U) (B2G) (AG) (B3U)
       Virtual   (B1G) (B3G) (AG) (B2U) (B3G) (B3U) (AG) (B2G)
                 (B1G) (B3G) (AG) (B1U) (B2G) (AG) (AU) (AG) (B1G)
                 (B3U) (B2U) (B1U) (B1U) (AG) (B2U) (B3U) (B2G)
                 (B2U) (B1U) (B3U) (AU) (B3U) (B1G) (B2U) (B3G)
                 (B2U) (AU) (B1U) (AG) (B2U) (B3U) (B2G) (B1G)
                 (B1U) (AG) (B3G) (AG) (B1G) (B3G) (B2U) (B2G)
                 (AU) (B3U) (AG) (B1G) (B3U) (B1G) (AG) (B3G) (B2G)
                 (B3U) (B3G) (AG) (AG) (B2U) (B1U) (B1G) (B2G)
                 (B3U) (B2U) (B1U) (AU) (AG) (B2G) (B2U) (B1U)
                 (AU) (B1U) (B2U) (B3G) (B3U) (B1U) (AG) (B1G)
                 (B3U) (B2U) (AU) (B1G) (B1U) (B2U) (B2G) (AG)
                 (B3U) (B3G) (B2U) (B2G) (B3U) (AG) (B1G) (B1G)
                 (B3G) (AG) (B3U) (B1G) (B3G) (B1U) (B2G) (AG)
                 (B2U) (B1U) (B3U) (B1U) (AU) (B2U) (B3U) (AG)
                 (AU) (B2U) (B2G) (B3G) (AG) (AU) (B1G) (AG) (B3U)
                 (B2U) (B1G) (B2G) (AG) (B2G) (B3G) (B1U) (B1G)
                 (B3U) (AG) (B3U) (AG) (B1U) (B3U) (B1G) (B3G)
                 (B2U) (AU) (B1U) (B3G) (B1G) (AU) (AG) (B2G) (B2U)
                 (AG) (B3U) (B1U) (AG) (B2U) (B3G) (B2G) (B2U)
                 (B1U) (AG) (B1G) (B2U) (B3U) (B3G) (B1U) (B2G)
                 (B3U) (B2U) (AU) (B2U) (AG) (B3U) (B1U) (AU) (B1G)
                 (B2G) (B1U) (B3G) (B1G) (B3U) (B2U) (B2U) (B3G)
                 (B1G) (B3U) (B2G) (B1G) (AG) (AU) (AG) (B3G) (B1G)
                 (B2G) (AG) (B3U) (B2U) (B1U) (AG) (B3U) (AG) (B2G)
                 (B1G) (B1U) (B3U) (B2U) (AG) (B3G) (B2U) (AG)
                 (B1G) (AG) (B3U) (B1U) (B2U) (AG)
 The electronic state is 2-B2U.
 Alpha  occ. eigenvalues --  -58.49183 -58.49183 -58.49183 -58.49183 -58.48058
 Alpha  occ. eigenvalues --  -58.48058 -58.48058 -58.48058 -58.47894 -58.47894
 Alpha  occ. eigenvalues --  -58.47894 -58.47893 -58.47662 -58.47662 -58.47662
 Alpha  occ. eigenvalues --  -58.47662 -58.42521  -4.91064  -4.91064  -4.91059
 Alpha  occ. eigenvalues --   -4.91059  -4.89958  -4.89957  -4.89950  -4.89950
 Alpha  occ. eigenvalues --   -4.89914  -4.89914  -4.89910  -4.89910  -4.89745
 Alpha  occ. eigenvalues --   -4.89745  -4.89744  -4.89743  -4.85923  -3.22241
 Alpha  occ. eigenvalues --   -3.22240  -3.22236  -3.22235  -3.22193  -3.22193
 Alpha  occ. eigenvalues --   -3.22192  -3.22192  -3.22187  -3.22187  -3.22159
 Alpha  occ. eigenvalues --   -3.22159  -3.21151  -3.21151  -3.21126  -3.21126
 Alpha  occ. eigenvalues --   -3.21121  -3.21121  -3.21117  -3.21116  -3.21024
 Alpha  occ. eigenvalues --   -3.21021  -3.21017  -3.21017  -3.21016  -3.21014
 Alpha  occ. eigenvalues --   -3.21000  -3.20999  -3.20999  -3.20997  -3.20989
 Alpha  occ. eigenvalues --   -3.20988  -3.20950  -3.20949  -3.20938  -3.20938
 Alpha  occ. eigenvalues --   -3.20920  -3.20917  -3.20891  -3.20891  -3.20877
 Alpha  occ. eigenvalues --   -3.20873  -3.20858  -3.20856  -3.20663  -3.20663
 Alpha  occ. eigenvalues --   -3.20632  -3.20632  -3.17326  -3.17288  -3.17286
 Alpha  occ. eigenvalues --   -0.75388  -0.65264  -0.62281  -0.62253  -0.57184
 Alpha  occ. eigenvalues --   -0.49642  -0.47569  -0.46865  -0.45878  -0.44993
 Alpha  occ. eigenvalues --   -0.41734  -0.41127  -0.33755  -0.33234  -0.31902
 Alpha  occ. eigenvalues --   -0.31224  -0.27633  -0.26981  -0.26482  -0.26160
 Alpha  occ. eigenvalues --   -0.25995  -0.25762  -0.25498  -0.24324  -0.23818
 Alpha  occ. eigenvalues --   -0.23262
 Alpha virt. eigenvalues --   -0.04015  -0.03350  -0.02218  -0.00564  -0.00472
 Alpha virt. eigenvalues --   -0.00259  -0.00223   0.01378   0.03777   0.04244
 Alpha virt. eigenvalues --    0.04286   0.04874   0.05154   0.05437   0.06153
 Alpha virt. eigenvalues --    0.06957   0.07615   0.08195   0.09672   0.10808
 Alpha virt. eigenvalues --    0.10844   0.11195   0.11509   0.11626   0.12775
 Alpha virt. eigenvalues --    0.13836   0.14345   0.14444   0.14805   0.15630
 Alpha virt. eigenvalues --    0.15638   0.16043   0.16060   0.16451   0.17323
 Alpha virt. eigenvalues --    0.17569   0.17679   0.18921   0.20605   0.21204
 Alpha virt. eigenvalues --    0.21892   0.22498   0.23249   0.23851   0.24125
 Alpha virt. eigenvalues --    0.24333   0.24762   0.25486   0.25542   0.25545
 Alpha virt. eigenvalues --    0.27709   0.27941   0.28426   0.30263   0.30536
 Alpha virt. eigenvalues --    0.30740   0.31094   0.31822   0.31952   0.32397
 Alpha virt. eigenvalues --    0.32487   0.32803   0.33484   0.33879   0.34498
 Alpha virt. eigenvalues --    0.35637   0.36252   0.36430   0.36436   0.36800
 Alpha virt. eigenvalues --    0.37209   0.37326   0.38998   0.39689   0.39787
 Alpha virt. eigenvalues --    0.39937   0.39973   0.40294   0.42597   0.42682
 Alpha virt. eigenvalues --    0.43915   0.44058   0.44141   0.44314   0.44466
 Alpha virt. eigenvalues --    0.45510   0.45660   0.46508   0.46758   0.47348
 Alpha virt. eigenvalues --    0.48995   0.49314   0.49630   0.50089   0.50407
 Alpha virt. eigenvalues --    0.50672   0.51929   0.52149   0.53800   0.55399
 Alpha virt. eigenvalues --    0.55903   0.56528   0.56993   0.57114   0.57591
 Alpha virt. eigenvalues --    0.58051   0.58993   0.60759   0.60901   0.61133
 Alpha virt. eigenvalues --    0.61274   0.62741   0.62785   0.63540   0.63722
 Alpha virt. eigenvalues --    0.66323   0.66443   0.66560   0.66586   0.66856
 Alpha virt. eigenvalues --    0.67375   0.67976   0.68119   0.68854   0.69626
 Alpha virt. eigenvalues --    0.70880   0.71240   0.71574   0.72183   0.72366
 Alpha virt. eigenvalues --    0.72549   0.73209   0.75972   0.76737   0.78682
 Alpha virt. eigenvalues --    0.79186   0.79499   0.79868   0.80101   0.80339
 Alpha virt. eigenvalues --    0.80467   0.81201   0.81569   0.82094   0.82794
 Alpha virt. eigenvalues --    0.82819   0.83111   0.86300   0.86369   0.87478
 Alpha virt. eigenvalues --    0.87975   0.88629   0.88990   0.89070   0.89160
 Alpha virt. eigenvalues --    0.89723   0.90350   0.91264   0.92104   0.92699
 Alpha virt. eigenvalues --    0.93441   0.93706   0.93939   0.94111   0.96253
 Alpha virt. eigenvalues --    0.96618   0.98059   0.98101   0.98263   0.98991
 Alpha virt. eigenvalues --    0.99300   1.00059   1.00874   1.03113   1.03835
 Alpha virt. eigenvalues --    1.03857   1.04025   1.05303   1.05910   1.08773
 Alpha virt. eigenvalues --    1.09277   1.10273   1.10698   1.11047   1.11658
 Alpha virt. eigenvalues --    1.11741   1.14140   1.14424   1.14424   1.15900
 Alpha virt. eigenvalues --    1.17106   1.73938   1.82232   1.86946   1.92406
 Alpha virt. eigenvalues --    2.29364   2.29431   2.35806   2.35824   2.36447
 Alpha virt. eigenvalues --    2.36839   2.36965   2.37319   2.38310   2.38740
 Alpha virt. eigenvalues --    2.39117   2.39335   2.45101   2.61486   2.62115
 Alpha virt. eigenvalues --    2.62206   3.57078
  Beta  occ. eigenvalues --  -58.49098 -58.49098 -58.49098 -58.49098 -58.47922
  Beta  occ. eigenvalues --  -58.47922 -58.47922 -58.47922 -58.47891 -58.47891
  Beta  occ. eigenvalues --  -58.47891 -58.47891 -58.47709 -58.47708 -58.47708
  Beta  occ. eigenvalues --  -58.47708 -58.42487  -4.90896  -4.90896  -4.90892
  Beta  occ. eigenvalues --   -4.90892  -4.89947  -4.89947  -4.89943  -4.89943
  Beta  occ. eigenvalues --   -4.89857  -4.89856  -4.89855  -4.89855  -4.89609
  Beta  occ. eigenvalues --   -4.89609  -4.89601  -4.89601  -4.85877  -3.22193
  Beta  occ. eigenvalues --   -3.22192  -3.22186  -3.22186  -3.22117  -3.22117
  Beta  occ. eigenvalues --   -3.22112  -3.22112  -3.21973  -3.21973  -3.21942
  Beta  occ. eigenvalues --   -3.21942  -3.21162  -3.21161  -3.21146  -3.21146
  Beta  occ. eigenvalues --   -3.21070  -3.21068  -3.21064  -3.21062  -3.21061
  Beta  occ. eigenvalues --   -3.21059  -3.21059  -3.21056  -3.21047  -3.21047
  Beta  occ. eigenvalues --   -3.21033  -3.21033  -3.21012  -3.21011  -3.21004
  Beta  occ. eigenvalues --   -3.21003  -3.20910  -3.20907  -3.20906  -3.20904
  Beta  occ. eigenvalues --   -3.20866  -3.20866  -3.20827  -3.20827  -3.20771
  Beta  occ. eigenvalues --   -3.20771  -3.20763  -3.20763  -3.20547  -3.20547
  Beta  occ. eigenvalues --   -3.20516  -3.20516  -3.17275  -3.17234  -3.17177
  Beta  occ. eigenvalues --   -0.75475  -0.65416  -0.62850  -0.62118  -0.57615
  Beta  occ. eigenvalues --   -0.49013  -0.47656  -0.47476  -0.45688  -0.45618
  Beta  occ. eigenvalues --   -0.41523  -0.39725  -0.34385  -0.31977  -0.30560
  Beta  occ. eigenvalues --   -0.27909  -0.26790  -0.26506  -0.26492  -0.26432
  Beta  occ. eigenvalues --   -0.26041  -0.25646  -0.25641  -0.22267  -0.22220
  Beta virt. eigenvalues --   -0.03088  -0.03002  -0.02479  -0.02193  -0.00128
  Beta virt. eigenvalues --   -0.00068   0.00167   0.01291   0.02080   0.04239
  Beta virt. eigenvalues --    0.04283   0.04421   0.05075   0.05395   0.06033
  Beta virt. eigenvalues --    0.07059   0.07528   0.07566   0.07737   0.10782
  Beta virt. eigenvalues --    0.11343   0.11474   0.11551   0.11833   0.11878
  Beta virt. eigenvalues --    0.12596   0.14166   0.14753   0.15715   0.15931
  Beta virt. eigenvalues --    0.15935   0.16104   0.16409   0.16435   0.16593
  Beta virt. eigenvalues --    0.17835   0.18494   0.19122   0.19221   0.21109
  Beta virt. eigenvalues --    0.21116   0.21939   0.22093   0.23214   0.24582
  Beta virt. eigenvalues --    0.24793   0.24855   0.25336   0.25447   0.25798
  Beta virt. eigenvalues --    0.26320   0.27439   0.28060   0.29900   0.30169
  Beta virt. eigenvalues --    0.30200   0.30705   0.30714   0.31613   0.31906
  Beta virt. eigenvalues --    0.32182   0.32810   0.33006   0.33725   0.34102
  Beta virt. eigenvalues --    0.34686   0.36229   0.36332   0.36421   0.37014
  Beta virt. eigenvalues --    0.37152   0.37392   0.37445   0.38964   0.39760
  Beta virt. eigenvalues --    0.40060   0.40079   0.40197   0.40566   0.42886
  Beta virt. eigenvalues --    0.43876   0.44021   0.44051   0.44142   0.44500
  Beta virt. eigenvalues --    0.45403   0.45525   0.46109   0.46895   0.47201
  Beta virt. eigenvalues --    0.47439   0.49290   0.49493   0.49499   0.50288
  Beta virt. eigenvalues --    0.51051   0.51213   0.52138   0.52273   0.53766
  Beta virt. eigenvalues --    0.56830   0.56959   0.56961   0.57394   0.57504
  Beta virt. eigenvalues --    0.57991   0.58623   0.59578   0.60848   0.61026
  Beta virt. eigenvalues --    0.61362   0.61375   0.63030   0.63359   0.63861
  Beta virt. eigenvalues --    0.64224   0.66062   0.66580   0.66711   0.66719
  Beta virt. eigenvalues --    0.66782   0.68140   0.68213   0.68796   0.69195
  Beta virt. eigenvalues --    0.69779   0.70798   0.71184   0.71701   0.72172
  Beta virt. eigenvalues --    0.72301   0.72918   0.73547   0.76567   0.77082
  Beta virt. eigenvalues --    0.78848   0.79174   0.79886   0.80022   0.80154
  Beta virt. eigenvalues --    0.80486   0.80757   0.81555   0.82373   0.82666
  Beta virt. eigenvalues --    0.82810   0.83174   0.83429   0.86343   0.86424
  Beta virt. eigenvalues --    0.87475   0.88027   0.88791   0.89033   0.89285
  Beta virt. eigenvalues --    0.89343   0.89587   0.90456   0.91289   0.92267
  Beta virt. eigenvalues --    0.92696   0.93553   0.93614   0.93922   0.94182
  Beta virt. eigenvalues --    0.96295   0.96810   0.98091   0.98341   0.98396
  Beta virt. eigenvalues --    0.99066   0.99169   1.00220   1.00803   1.03259
  Beta virt. eigenvalues --    1.03975   1.04055   1.04092   1.05187   1.06074
  Beta virt. eigenvalues --    1.08750   1.09388   1.10291   1.10574   1.10842
  Beta virt. eigenvalues --    1.11603   1.11724   1.14190   1.14400   1.14479
  Beta virt. eigenvalues --    1.15994   1.17108   1.73927   1.82253   1.86869
  Beta virt. eigenvalues --    1.92397   2.29829   2.29870   2.35669   2.36179
  Beta virt. eigenvalues --    2.36302   2.37100   2.37182   2.37495   2.38240
  Beta virt. eigenvalues --    2.38944   2.39109   2.39729   2.45022   2.61436
  Beta virt. eigenvalues --    2.62133   2.62319   3.57094
          Condensed to atoms (all electrons):
               1          2          3          4          5          6
     1  Al  13.599751  -0.165278   0.191421   0.038154   0.013513   0.048298
     2  Al  -0.165278  14.074347  -0.018716  -0.165278   0.219582  -0.000907
     3  Al   0.191421  -0.018716  13.599751  -0.017508   0.013513   0.048298
     4  Al   0.038154  -0.165278  -0.017508  13.599751   0.048298   0.013513
     5  Al   0.013513   0.219582   0.013513   0.048298  13.443778  -0.058000
     6  Al   0.048298  -0.000907   0.048298   0.013513  -0.058000  13.443778
     7  Al   0.048298   0.219582   0.048298   0.013513  -0.028206   0.041680
     8  Al  -0.165278   0.160829  -0.018716  -0.165278  -0.000907   0.219582
     9  Al  -0.018716  -0.019685  -0.165278  -0.018716  -0.000907   0.219582
    10  Al  -0.017508  -0.018716   0.038154   0.191421   0.048298   0.013513
    11  Al   0.013513  -0.000907   0.013513   0.048298   0.041680  -0.028206
    12  Al  -0.018716  -0.134890  -0.165278  -0.018716   0.219582  -0.000907
    13  Al   0.180325  -0.162647   0.026457  -0.016245   0.022699  -0.022742
    14  Al  -0.009213  -0.003809  -0.016245   0.026457  -0.022742   0.022699
    15  Al  -0.016245  -0.162647  -0.009213   0.180325  -0.022742   0.022699
    16  Al  -0.690169  -0.766134  -0.690169  -0.690169  -0.949367  -0.949367
    17  Al   0.026457  -0.003809   0.180325  -0.009213   0.022699  -0.022742
               7          8          9         10         11         12
     1  Al   0.048298  -0.165278  -0.018716  -0.017508   0.013513  -0.018716
     2  Al   0.219582   0.160829  -0.019685  -0.018716  -0.000907  -0.134890
     3  Al   0.048298  -0.018716  -0.165278   0.038154   0.013513  -0.165278
     4  Al   0.013513  -0.165278  -0.018716   0.191421   0.048298  -0.018716
     5  Al  -0.028206  -0.000907  -0.000907   0.048298   0.041680   0.219582
     6  Al   0.041680   0.219582   0.219582   0.013513  -0.028206  -0.000907
     7  Al  13.443778  -0.000907  -0.000907   0.013513  -0.058000   0.219582
     8  Al  -0.000907  14.074347  -0.134890  -0.018716   0.219582  -0.019685
     9  Al  -0.000907  -0.134890  14.074347  -0.165278   0.219582   0.160829
    10  Al   0.013513  -0.018716  -0.165278  13.599751   0.048298  -0.165278
    11  Al  -0.058000   0.219582   0.219582   0.048298  13.443778  -0.000907
    12  Al   0.219582  -0.019685   0.160829  -0.165278  -0.000907  14.074347
    13  Al  -0.022742  -0.162647  -0.003809  -0.009213   0.022699  -0.003809
    14  Al   0.022699  -0.003809  -0.162647   0.180325  -0.022742  -0.162647
    15  Al   0.022699  -0.162647  -0.003809   0.026457  -0.022742  -0.003809
    16  Al  -0.949367  -0.766134  -0.766134  -0.690169  -0.949367  -0.766134
    17  Al  -0.022742  -0.003809  -0.162647  -0.016245   0.022699  -0.162647
              13         14         15         16         17
     1  Al   0.180325  -0.009213  -0.016245  -0.690169   0.026457
     2  Al  -0.162647  -0.003809  -0.162647  -0.766134  -0.003809
     3  Al   0.026457  -0.016245  -0.009213  -0.690169   0.180325
     4  Al  -0.016245   0.026457   0.180325  -0.690169  -0.009213
     5  Al   0.022699  -0.022742  -0.022742  -0.949367   0.022699
     6  Al  -0.022742   0.022699   0.022699  -0.949367  -0.022742
     7  Al  -0.022742   0.022699   0.022699  -0.949367  -0.022742
     8  Al  -0.162647  -0.003809  -0.162647  -0.766134  -0.003809
     9  Al  -0.003809  -0.162647  -0.003809  -0.766134  -0.162647
    10  Al  -0.009213   0.180325   0.026457  -0.690169  -0.016245
    11  Al   0.022699  -0.022742  -0.022742  -0.949367   0.022699
    12  Al  -0.003809  -0.162647  -0.003809  -0.766134  -0.162647
    13  Al  12.798225   0.000240   0.204149  -0.003743  -0.000046
    14  Al   0.000240  12.798225  -0.000046  -0.003743   0.204149
    15  Al   0.204149  -0.000046  12.798225  -0.003743   0.000240
    16  Al  -0.003743  -0.003743  -0.003743  22.767874  -0.003743
    17  Al  -0.000046   0.204149   0.000240  -0.003743  12.798225
          Atomic-Atomic Spin Densities.
               1          2          3          4          5          6
     1  Al   0.165499   0.154994   0.101851  -0.002953   0.004925  -0.038906
     2  Al   0.154994  -0.620898  -0.014667   0.154994  -0.006219   0.004454
     3  Al   0.101851  -0.014667   0.165499  -0.027349   0.004925  -0.038906
     4  Al  -0.002953   0.154994  -0.027349   0.165499  -0.038906   0.004925
     5  Al   0.004925  -0.006219   0.004925  -0.038906  -0.040622   0.001005
     6  Al  -0.038906   0.004454  -0.038906   0.004925   0.001005  -0.040622
     7  Al  -0.038906  -0.006219  -0.038906   0.004925   0.011781   0.007311
     8  Al   0.154994  -0.383055  -0.014667   0.154994   0.004454  -0.006219
     9  Al  -0.014667   0.008617   0.154994  -0.014667   0.004454  -0.006219
    10  Al  -0.027349  -0.014667  -0.002953   0.101851  -0.038906   0.004925
    11  Al   0.004925   0.004454   0.004925  -0.038906   0.007311   0.011781
    12  Al  -0.014667   0.006577   0.154994  -0.014667  -0.006219   0.004454
    13  Al  -0.209967   0.266096  -0.015007  -0.034557  -0.004243   0.010255
    14  Al   0.008442   0.000071  -0.034557  -0.015007   0.010255  -0.004243
    15  Al  -0.034557   0.266096   0.008442  -0.209967   0.010255  -0.004243
    16  Al  -0.130968   0.216733  -0.130968  -0.130968   0.004876   0.004876
    17  Al  -0.015007   0.000071  -0.209967   0.008442  -0.004243   0.010255
               7          8          9         10         11         12
     1  Al  -0.038906   0.154994  -0.014667  -0.027349   0.004925  -0.014667
     2  Al  -0.006219  -0.383055   0.008617  -0.014667   0.004454   0.006577
     3  Al  -0.038906  -0.014667   0.154994  -0.002953   0.004925   0.154994
     4  Al   0.004925   0.154994  -0.014667   0.101851  -0.038906  -0.014667
     5  Al   0.011781   0.004454   0.004454  -0.038906   0.007311  -0.006219
     6  Al   0.007311  -0.006219  -0.006219   0.004925   0.011781   0.004454
     7  Al  -0.040622   0.004454   0.004454   0.004925   0.001005  -0.006219
     8  Al   0.004454  -0.620898   0.006577  -0.014667  -0.006219   0.008617
     9  Al   0.004454   0.006577  -0.620898   0.154994  -0.006219  -0.383055
    10  Al   0.004925  -0.014667   0.154994   0.165499  -0.038906   0.154994
    11  Al   0.001005  -0.006219  -0.006219  -0.038906  -0.040622   0.004454
    12  Al  -0.006219   0.008617  -0.383055   0.154994   0.004454  -0.620898
    13  Al   0.010255   0.266096   0.000071   0.008442  -0.004243   0.000071
    14  Al  -0.004243   0.000071   0.266096  -0.209967   0.010255   0.266096
    15  Al  -0.004243   0.266096   0.000071  -0.015007   0.010255   0.000071
    16  Al   0.004876   0.216733   0.216733  -0.130968   0.004876   0.216733
    17  Al   0.010255   0.000071   0.266096  -0.034557  -0.004243   0.266096
              13         14         15         16         17
     1  Al  -0.209967   0.008442  -0.034557  -0.130968  -0.015007
     2  Al   0.266096   0.000071   0.266096   0.216733   0.000071
     3  Al  -0.015007  -0.034557   0.008442  -0.130968  -0.209967
     4  Al  -0.034557  -0.015007  -0.209967  -0.130968   0.008442
     5  Al  -0.004243   0.010255   0.010255   0.004876  -0.004243
     6  Al   0.010255  -0.004243  -0.004243   0.004876   0.010255
     7  Al   0.010255  -0.004243  -0.004243   0.004876   0.010255
     8  Al   0.266096   0.000071   0.266096   0.216733   0.000071
     9  Al   0.000071   0.266096   0.000071   0.216733   0.266096
    10  Al   0.008442  -0.209967  -0.015007  -0.130968  -0.034557
    11  Al  -0.004243   0.010255   0.010255   0.004876  -0.004243
    12  Al   0.000071   0.266096   0.000071   0.216733   0.266096
    13  Al   0.150274  -0.000296  -0.173680  -0.057033  -0.000004
    14  Al  -0.000296   0.150274  -0.000004  -0.057033  -0.173680
    15  Al  -0.173680  -0.000004   0.150274  -0.057033  -0.000296
    16  Al  -0.057033  -0.057033  -0.057033  -0.104565  -0.057033
    17  Al  -0.000004  -0.173680  -0.000296  -0.057033   0.150274
 Mulliken charges and spin densities:
               1          2
     1  Al  -0.058607   0.067683
     2  Al  -0.050917   0.037432
     3  Al  -0.058607   0.067683
     4  Al  -0.058607   0.067683
     5  Al  -0.010771  -0.075114
     6  Al  -0.010771  -0.075114
     7  Al  -0.010771  -0.075114
     8  Al  -0.050917   0.037432
     9  Al  -0.050917   0.037432
    10  Al  -0.058607   0.067683
    11  Al  -0.010771  -0.075114
    12  Al  -0.050917   0.037432
    13  Al   0.152850   0.212532
    14  Al   0.152850   0.212532
    15  Al   0.152850   0.212532
    16  Al  -0.130221   0.029867
    17  Al   0.152850   0.212532
 Sum of Mulliken charges =   0.00000   1.00000
 Mulliken charges and spin densities with hydrogens summed into heavy atoms:
               1          2
     1  Al  -0.058607   0.067683
     2  Al  -0.050917   0.037432
     3  Al  -0.058607   0.067683
     4  Al  -0.058607   0.067683
     5  Al  -0.010771  -0.075114
     6  Al  -0.010771  -0.075114
     7  Al  -0.010771  -0.075114
     8  Al  -0.050917   0.037432
     9  Al  -0.050917   0.037432
    10  Al  -0.058607   0.067683
    11  Al  -0.010771  -0.075114
    12  Al  -0.050917   0.037432
    13  Al   0.152850   0.212532
    14  Al   0.152850   0.212532
    15  Al   0.152850   0.212532
    16  Al  -0.130221   0.029867
    17  Al   0.152850   0.212532
 Electronic spatial extent (au):  <R**2>=           7955.9863
 Charge=              0.0000 electrons
 Dipole moment (field-independent basis, Debye):
    X=              0.0000    Y=              0.0000    Z=              0.0000  Tot=              0.0000
 Quadrupole moment (field-independent basis, Debye-Ang):
   XX=           -242.1168   YY=           -220.5118   ZZ=           -217.2917
   XY=              0.0000   XZ=              0.0000   YZ=              0.0000
 Traceless Quadrupole moment (field-independent basis, Debye-Ang):
   XX=            -15.4767   YY=              6.1283   ZZ=              9.3484
   XY=              0.0000   XZ=              0.0000   YZ=              0.0000
 Octapole moment (field-independent basis, Debye-Ang**2):
  XXX=              0.0000  YYY=              0.0000  ZZZ=              0.0000  XYY=              0.0000
  XXY=              0.0000  XXZ=              0.0000  XZZ=              0.0000  YZZ=              0.0000
  YYZ=              0.0000  XYZ=              0.0000
 Hexadecapole moment (field-independent basis, Debye-Ang**3):
 XXXX=          -8893.3377 YYYY=          -3399.1237 ZZZZ=          -2852.2950 XXXY=              0.0000
 XXXZ=              0.0000 YYYX=              0.0000 YYYZ=              0.0000 ZZZX=              0.0000
 ZZZY=              0.0000 XXYY=          -2002.5442 XXZZ=          -1798.0830 YYZZ=          -1037.8859
 XXYZ=              0.0000 YYXZ=              0.0000 ZZXY=              0.0000
 N-N= 3.204653676778D+03 E-N=-1.624305277527D+04  KE= 4.111503965989D+03
 Symmetry AG   KE= 1.068629308964D+03
 Symmetry B1G  KE= 4.823335240965D+02
 Symmetry B2G  KE= 2.821203311318D+02
 Symmetry B3G  KE= 2.804789281360D+02
 Symmetry AU   KE= 8.035624863651D+01
 Symmetry B1U  KE= 5.048284709007D+02
 Symmetry B2U  KE= 7.060505520508D+02
 Symmetry B3U  KE= 7.067066020720D+02
                          Isotropic Fermi Contact Couplings
        Atom                 a.u.       MegaHertz       Gauss      10(-4) cm-1
     1  Al(27)             0.15135     176.41201      62.94819      58.84471
     2  Al(27)            -0.13925    -162.30866     -57.91576     -54.14034
     3  Al(27)             0.15135     176.41201      62.94819      58.84471
     4  Al(27)             0.15135     176.41201      62.94819      58.84471
     5  Al(27)             0.01620      18.88437       6.73841       6.29915
     6  Al(27)             0.01620      18.88437       6.73841       6.29915
     7  Al(27)             0.01620      18.88437       6.73841       6.29915
     8  Al(27)            -0.13925    -162.30866     -57.91576     -54.14034
     9  Al(27)            -0.13925    -162.30866     -57.91576     -54.14034
    10  Al(27)             0.15135     176.41201      62.94819      58.84471
    11  Al(27)             0.01620      18.88437       6.73841       6.29915
    12  Al(27)            -0.13925    -162.30866     -57.91576     -54.14034
    13  Al(27)             0.37148     433.00551     154.50713     144.43509
    14  Al(27)             0.37148     433.00551     154.50713     144.43509
    15  Al(27)             0.37148     433.00551     154.50713     144.43509
    16  Al(27)             0.00552       6.43080       2.29467       2.14508
    17  Al(27)             0.37148     433.00551     154.50713     144.43509
 --------------------------------------------------------
       Center         ----  Spin Dipole Couplings  ----
                      3XX-RR        3YY-RR        3ZZ-RR
 --------------------------------------------------------
     1   Atom        0.083798     -0.046674     -0.037124
     2   Atom        0.005785      0.011538     -0.017323
     3   Atom        0.083798     -0.046674     -0.037124
     4   Atom        0.083798     -0.046674     -0.037124
     5   Atom       -0.072944      0.013220      0.059724
     6   Atom       -0.072944      0.013220      0.059724
     7   Atom       -0.072944      0.013220      0.059724
     8   Atom        0.005785      0.011538     -0.017323
     9   Atom        0.005785      0.011538     -0.017323
    10   Atom        0.083798     -0.046674     -0.037124
    11   Atom       -0.072944      0.013220      0.059724
    12   Atom        0.005785      0.011538     -0.017323
    13   Atom        0.065915     -0.047502     -0.018413
    14   Atom        0.065915     -0.047502     -0.018413
    15   Atom        0.065915     -0.047502     -0.018413
    16   Atom        0.037805      0.019347     -0.057153
    17   Atom        0.065915     -0.047502     -0.018413
 --------------------------------------------------------
                        XY            XZ            YZ
 --------------------------------------------------------
     1   Atom       -0.044981      0.000000      0.000000
     2   Atom        0.000000     -0.000312      0.000000
     3   Atom        0.044981      0.000000      0.000000
     4   Atom        0.044981      0.000000      0.000000
     5   Atom        0.000000      0.000000      0.008286
     6   Atom        0.000000      0.000000      0.008286
     7   Atom        0.000000      0.000000     -0.008286
     8   Atom        0.000000      0.000312      0.000000
     9   Atom        0.000000     -0.000312      0.000000
    10   Atom       -0.044981      0.000000      0.000000
    11   Atom        0.000000      0.000000     -0.008286
    12   Atom        0.000000      0.000312      0.000000
    13   Atom        0.351059      0.000000      0.000000
    14   Atom        0.351059      0.000000      0.000000
    15   Atom       -0.351059      0.000000      0.000000
    16   Atom        0.000000      0.000000      0.000000
    17   Atom       -0.351059      0.000000      0.000000
 --------------------------------------------------------


 ---------------------------------------------------------------------------------
              Anisotropic Spin Dipole Couplings in Principal Axis System
 ---------------------------------------------------------------------------------

       Atom             a.u.   MegaHertz   Gauss  10(-4) cm-1        Axes

              Baa    -0.0607    -8.443    -3.013    -2.816  0.2973  0.9548  0.0000
     1 Al(27) Bbb    -0.0371    -5.165    -1.843    -1.723  0.0000  0.0000  1.0000
              Bcc     0.0978    13.608     4.856     4.539  0.9548 -0.2973  0.0000
 
              Baa    -0.0173    -2.411    -0.860    -0.804  0.0135  0.0000  0.9999
     2 Al(27) Bbb     0.0058     0.805     0.287     0.269  0.9999  0.0000 -0.0135
              Bcc     0.0115     1.605     0.573     0.535  0.0000  1.0000  0.0000
 
              Baa    -0.0607    -8.443    -3.013    -2.816 -0.2973  0.9548  0.0000
     3 Al(27) Bbb    -0.0371    -5.165    -1.843    -1.723  0.0000  0.0000  1.0000
              Bcc     0.0978    13.608     4.856     4.539  0.9548  0.2973  0.0000
 
              Baa    -0.0607    -8.443    -3.013    -2.816 -0.2973  0.9548  0.0000
     4 Al(27) Bbb    -0.0371    -5.165    -1.843    -1.723  0.0000  0.0000  1.0000
              Bcc     0.0978    13.608     4.856     4.539  0.9548  0.2973  0.0000
 
              Baa    -0.0729   -10.149    -3.621    -3.385  1.0000  0.0000  0.0000
     5 Al(27) Bbb     0.0118     1.640     0.585     0.547  0.0000  0.9854 -0.1703
              Bcc     0.0612     8.509     3.036     2.838  0.0000  0.1703  0.9854
 
              Baa    -0.0729   -10.149    -3.621    -3.385  1.0000  0.0000  0.0000
     6 Al(27) Bbb     0.0118     1.640     0.585     0.547  0.0000  0.9854 -0.1703
              Bcc     0.0612     8.509     3.036     2.838  0.0000  0.1703  0.9854
 
              Baa    -0.0729   -10.149    -3.621    -3.385  1.0000  0.0000  0.0000
     7 Al(27) Bbb     0.0118     1.640     0.585     0.547  0.0000  0.9854  0.1703
              Bcc     0.0612     8.509     3.036     2.838  0.0000 -0.1703  0.9854
 
              Baa    -0.0173    -2.411    -0.860    -0.804 -0.0135  0.0000  0.9999
     8 Al(27) Bbb     0.0058     0.805     0.287     0.269  0.9999  0.0000  0.0135
              Bcc     0.0115     1.605     0.573     0.535  0.0000  1.0000  0.0000
 
              Baa    -0.0173    -2.411    -0.860    -0.804  0.0135  0.0000  0.9999
     9 Al(27) Bbb     0.0058     0.805     0.287     0.269  0.9999  0.0000 -0.0135
              Bcc     0.0115     1.605     0.573     0.535  0.0000  1.0000  0.0000
 
              Baa    -0.0607    -8.443    -3.013    -2.816  0.2973  0.9548  0.0000
    10 Al(27) Bbb    -0.0371    -5.165    -1.843    -1.723  0.0000  0.0000  1.0000
              Bcc     0.0978    13.608     4.856     4.539  0.9548 -0.2973  0.0000
 
              Baa    -0.0729   -10.149    -3.621    -3.385  1.0000  0.0000  0.0000
    11 Al(27) Bbb     0.0118     1.640     0.585     0.547  0.0000  0.9854  0.1703
              Bcc     0.0612     8.509     3.036     2.838  0.0000 -0.1703  0.9854
 
              Baa    -0.0173    -2.411    -0.860    -0.804 -0.0135  0.0000  0.9999
    12 Al(27) Bbb     0.0058     0.805     0.287     0.269  0.9999  0.0000  0.0135
              Bcc     0.0115     1.605     0.573     0.535  0.0000  1.0000  0.0000
 
              Baa    -0.3464   -48.197   -17.198   -16.077 -0.6483  0.7614  0.0000
    13 Al(27) Bbb    -0.0184    -2.562    -0.914    -0.855  0.0000  0.0000  1.0000
              Bcc     0.3648    50.759    18.112    16.931  0.7614  0.6483  0.0000
 
              Baa    -0.3464   -48.197   -17.198   -16.077 -0.6483  0.7614  0.0000
    14 Al(27) Bbb    -0.0184    -2.562    -0.914    -0.855  0.0000  0.0000  1.0000
              Bcc     0.3648    50.759    18.112    16.931  0.7614  0.6483  0.0000
 
              Baa    -0.3464   -48.197   -17.198   -16.077  0.6483  0.7614  0.0000
    15 Al(27) Bbb    -0.0184    -2.562    -0.914    -0.855  0.0000  0.0000  1.0000
              Bcc     0.3648    50.759    18.112    16.931  0.7614 -0.6483  0.0000
 
              Baa    -0.0572    -7.952    -2.837    -2.653  0.0000  0.0000  1.0000
    16 Al(27) Bbb     0.0193     2.692     0.961     0.898  0.0000  1.0000  0.0000
              Bcc     0.0378     5.260     1.877     1.755  1.0000  0.0000  0.0000
 
              Baa    -0.3464   -48.197   -17.198   -16.077  0.6483  0.7614  0.0000
    17 Al(27) Bbb    -0.0184    -2.562    -0.914    -0.855  0.0000  0.0000  1.0000
              Bcc     0.3648    50.759    18.112    16.931  0.7614 -0.6483  0.0000
 

 ---------------------------------------------------------------------------------


 Test job not archived.
 1\1\GINC-R1I1N14\SP\UHF\6-31G(d)\Al17(2)\VSC31064\01-Oct-2016\0\\# hf/
 6-31G* test scf=xqc\\Al17-n-d\\0,2\Al,0,1.40196811,2.29564503,0.\Al,0,
 2.18111008,0.,1.56055092\Al,0,-1.40196811,2.29564503,0.\Al,0,1.4019681
 1,-2.29564503,0.\Al,0,0.,-1.43037835,2.26309731\Al,0,0.,1.43037835,-2.
 26309731\Al,0,0.,1.43037835,2.26309731\Al,0,2.18111008,0.,-1.56055092\
 Al,0,-2.18111008,0.,-1.56055092\Al,0,-1.40196811,-2.29564503,0.\Al,0,0
 .,-1.43037835,-2.26309731\Al,0,-2.18111008,0.,1.56055092\Al,0,4.096389
 09,1.32136697,0.\Al,0,-4.09638909,-1.32136697,0.\Al,0,4.09638909,-1.32
 136697,0.\Al,0,0.,0.,0.\Al,0,-4.09638909,1.32136697,0.\\Version=ES64L-
 G09RevD.01\State=2-B2U\HF=-4112.3443163\S2=1.413569\S2-1=0.\S2A=1.2358
 15\RMSD=3.119e-09\Dipole=0.,0.,0.\Quadrupole=-11.5065449,4.5562609,6.9
 50284,0.,0.,0.\PG=D02H [O(Al1),SG(Al4),SG'(Al4),SG"(Al8)]\\@


 IN THE FIGHT BETWEEN YOU AND THE WORLD, BACK THE WORLD

                                        -- FRANZ KAFKA
 Job cpu time:       0 days  0 hours  3 minutes 17.6 seconds.
 File lengths (MBytes):  RWF=     67 Int=      0 D2E=      0 Chk=      6 Scr=      1
 Normal termination of Gaussian 09 at Sat Oct  1 15:44:41 2016.
 Initial command:
 /apps/leuven/thinking/software/G09//g09D1/l1.exe "/local_scratch/vsc31064/Gau-51801.inp" -scrdir="/local_scratch/vsc31064/"
 Entering Link 1 = /apps/leuven/thinking/software/G09//g09D1/l1.exe PID=     52073.
  
 Copyright (c) 1988,1990,1992,1993,1995,1998,2003,2009,2013,
            Gaussian, Inc.  All Rights Reserved.
  
 This is part of the Gaussian(R) 09 program.  It is based on
 the Gaussian(R) 03 system (copyright 2003, Gaussian, Inc.),
 the Gaussian(R) 98 system (copyright 1998, Gaussian, Inc.),
 the Gaussian(R) 94 system (copyright 1995, Gaussian, Inc.),
 the Gaussian 92(TM) system (copyright 1992, Gaussian, Inc.),
 the Gaussian 90(TM) system (copyright 1990, Gaussian, Inc.),
 the Gaussian 88(TM) system (copyright 1988, Gaussian, Inc.),
 the Gaussian 86(TM) system (copyright 1986, Carnegie Mellon
 University), and the Gaussian 82(TM) system (copyright 1983,
 Carnegie Mellon University). Gaussian is a federally registered
 trademark of Gaussian, Inc.
  
 This software contains proprietary and confidential information,
 including trade secrets, belonging to Gaussian, Inc.
  
 This software is provided under written license and may be
 used, copied, transmitted, or stored only in accord with that
 written license.
  
 The following legend is applicable only to US Government
 contracts under FAR:
  
                    RESTRICTED RIGHTS LEGEND
  
 Use, reproduction and disclosure by the US Government is
 subject to restrictions as set forth in subparagraphs (a)
 and (c) of the Commercial Computer Software - Restricted
 Rights clause in FAR 52.227-19.
  
 Gaussian, Inc.
 340 Quinnipiac St., Bldg. 40, Wallingford CT 06492
  
  
 ---------------------------------------------------------------
 Warning -- This program may not be used in any manner that
 competes with the business of Gaussian, Inc. or will provide
 assistance to any competitor of Gaussian, Inc.  The licensee
 of this program is prohibited from giving any competitor of
 Gaussian, Inc. access to this program.  By using this program,
 the user acknowledges that Gaussian, Inc. is engaged in the
 business of creating and licensing software in the field of
 computational chemistry and represents and warrants to the
 licensee that it is not a competitor of Gaussian, Inc. and that
 it will not use this program in any manner prohibited above.
 ---------------------------------------------------------------
  

 Cite this work as:
 Gaussian 09, Revision D.01,
 M. J. Frisch, G. W. Trucks, H. B. Schlegel, G. E. Scuseria, 
 M. A. Robb, J. R. Cheeseman, G. Scalmani, V. Barone, B. Mennucci, 
 G. A. Petersson, H. Nakatsuji, M. Caricato, X. Li, H. P. Hratchian, 
 A. F. Izmaylov, J. Bloino, G. Zheng, J. L. Sonnenberg, M. Hada, 
 M. Ehara, K. Toyota, R. Fukuda, J. Hasegawa, M. Ishida, T. Nakajima, 
 Y. Honda, O. Kitao, H. Nakai, T. Vreven, J. A. Montgomery, Jr., 
 J. E. Peralta, F. Ogliaro, M. Bearpark, J. J. Heyd, E. Brothers, 
 K. N. Kudin, V. N. Staroverov, T. Keith, R. Kobayashi, J. Normand, 
 K. Raghavachari, A. Rendell, J. C. Burant, S. S. Iyengar, J. Tomasi, 
 M. Cossi, N. Rega, J. M. Millam, M. Klene, J. E. Knox, J. B. Cross, 
 V. Bakken, C. Adamo, J. Jaramillo, R. Gomperts, R. E. Stratmann, 
 O. Yazyev, A. J. Austin, R. Cammi, C. Pomelli, J. W. Ochterski, 
 R. L. Martin, K. Morokuma, V. G. Zakrzewski, G. A. Voth, 
 P. Salvador, J. J. Dannenberg, S. Dapprich, A. D. Daniels, 
 O. Farkas, J. B. Foresman, J. V. Ortiz, J. Cioslowski, 
 and D. J. Fox, Gaussian, Inc., Wallingford CT, 2013.
 
 ******************************************
 Gaussian 09:  ES64L-G09RevD.01 24-Apr-2013
                 1-Oct-2016 
 ******************************************
 %NprocShared=20
 Will use up to   20 processors via shared memory.
 %mem=55000mb
 %chk=cc-Al17-n-d
 --------------------------------------------------------
 # CCSD(T,conver=5)/cc-pVTZ test geom=allcheck guess=read
 --------------------------------------------------------
 1/29=7,38=1/1;
 2/12=2,40=1/2;
 3/5=16,6=1,11=9,14=-4,16=1,25=1,30=1,116=-2/1,2,3;
 4/5=1/1;
 5/5=2,38=6/2;
 8/6=4,9=120000,10=1/1,4;
 9/5=7,9=5,14=2/13;
 6/7=2,8=2,9=2,10=2/1;
 99/5=1,9=1/99;
 Structure from the checkpoint file:  "cc-Al17-n-d.chk"
 --------
 Al17-n-d
 --------
 Charge =  0 Multiplicity = 2
 Z-Matrix found in file.
 Al,0,1.40196811,2.29564503,0.
 Al,0,2.18111008,0.,1.56055092
 Al,0,-1.40196811,2.29564503,0.
 Al,0,1.40196811,-2.29564503,0.
 Al,0,0.,-1.43037835,2.26309731
 Al,0,0.,1.43037835,-2.26309731
 Al,0,0.,1.43037835,2.26309731
 Al,0,2.18111008,0.,-1.56055092
 Al,0,-2.18111008,0.,-1.56055092
 Al,0,-1.40196811,-2.29564503,0.
 Al,0,0.,-1.43037835,-2.26309731
 Al,0,-2.18111008,0.,1.56055092
 Al,0,4.09638909,1.32136697,0.
 Al,0,-4.09638909,-1.32136697,0.
 Al,0,4.09638909,-1.32136697,0.
 Al,0,0.,0.,0.
 Al,0,-4.09638909,1.32136697,0.
 Recover connectivity data from disk.
                          Input orientation:                          
 ---------------------------------------------------------------------
 Center     Atomic      Atomic             Coordinates (Angstroms)
 Number     Number       Type             X           Y           Z
 ---------------------------------------------------------------------
      1         13           0        1.401968    2.295645    0.000000
      2         13           0        2.181110    0.000000    1.560551
      3         13           0       -1.401968    2.295645    0.000000
      4         13           0        1.401968   -2.295645    0.000000
      5         13           0        0.000000   -1.430378    2.263097
      6         13           0        0.000000    1.430378   -2.263097
      7         13           0        0.000000    1.430378    2.263097
      8         13           0        2.181110    0.000000   -1.560551
      9         13           0       -2.181110    0.000000   -1.560551
     10         13           0       -1.401968   -2.295645    0.000000
     11         13           0        0.000000   -1.430378   -2.263097
     12         13           0       -2.181110    0.000000    1.560551
     13         13           0        4.096389    1.321367    0.000000
     14         13           0       -4.096389   -1.321367    0.000000
     15         13           0        4.096389   -1.321367    0.000000
     16         13           0        0.000000    0.000000    0.000000
     17         13           0       -4.096389    1.321367    0.000000
 ---------------------------------------------------------------------
                    Distance matrix (angstroms):
                    1          2          3          4          5
     1  Al   0.000000
     2  Al   2.883118   0.000000
     3  Al   2.803936   4.532522   0.000000
     4  Al   4.591290   2.883118   5.379777   0.000000
     5  Al   4.579342   2.701258   4.579342   2.799252   0.000000
     6  Al   2.799252   4.628554   2.799252   4.579342   5.354472
     7  Al   2.799252   2.701258   2.799252   4.579342   2.860757
     8  Al   2.883118   3.121102   4.532522   2.883118   4.628554
     9  Al   4.532522   5.363790   2.883118   4.532522   4.628554
    10  Al   5.379777   4.532522   4.591290   2.803936   2.799252
    11  Al   4.579342   4.628554   4.579342   2.799252   4.526195
    12  Al   4.532522   4.362220   2.883118   4.532522   2.701258
    13  Al   2.865157   2.801718   5.584008   4.510286   5.429007
    14  Al   6.581391   6.602146   4.510286   5.584008   4.681228
    15  Al   4.510286   2.801718   6.581391   2.865157   4.681228
    16  Al   2.689889   2.681895   2.689889   2.689889   2.677236
    17  Al   5.584008   6.602146   2.865157   6.581391   5.429007
                    6          7          8          9         10
     6  Al   0.000000
     7  Al   4.526195   0.000000
     8  Al   2.701258   4.628554   0.000000
     9  Al   2.701258   4.628554   4.362220   0.000000
    10  Al   4.579342   4.579342   4.532522   2.883118   0.000000
    11  Al   2.860757   5.354472   2.701258   2.701258   2.799252
    12  Al   4.628554   2.701258   5.363790   3.121102   2.883118
    13  Al   4.681228   4.681228   2.801718   6.602146   6.581391
    14  Al   5.429007   5.429007   6.602146   2.801718   2.865157
    15  Al   5.429007   5.429007   2.801718   6.602146   5.584008
    16  Al   2.677236   2.677236   2.681895   2.681895   2.689889
    17  Al   4.681228   4.681228   6.602146   2.801718   4.510286
                   11         12         13         14         15
    11  Al   0.000000
    12  Al   4.628554   0.000000
    13  Al   5.429007   6.602146   0.000000
    14  Al   4.681228   2.801718   8.608464   0.000000
    15  Al   4.681228   6.602146   2.642734   8.192778   0.000000
    16  Al   2.677236   2.681895   4.304232   4.304232   4.304232
    17  Al   5.429007   2.801718   8.192778   2.642734   8.608464
                   16         17
    16  Al   0.000000
    17  Al   4.304232   0.000000
 Stoichiometry    Al17(2)
 Framework group  D2H[O(Al),SG(Al4),SG'(Al4),SG"(Al8)]
 Deg. of freedom     8
 Full point group                 D2H     NOp   8
 Largest Abelian subgroup         D2H     NOp   8
 Largest concise Abelian subgroup D2H     NOp   8
                         Standard orientation:                         
 ---------------------------------------------------------------------
 Center     Atomic      Atomic             Coordinates (Angstroms)
 Number     Number       Type             X           Y           Z
 ---------------------------------------------------------------------
      1         13           0        1.401968    2.295645    0.000000
      2         13           0        2.181110    0.000000    1.560551
      3         13           0       -1.401968    2.295645    0.000000
      4         13           0        1.401968   -2.295645    0.000000
      5         13           0        0.000000   -1.430378    2.263097
      6         13           0        0.000000    1.430378   -2.263097
      7         13           0        0.000000    1.430378    2.263097
      8         13           0        2.181110    0.000000   -1.560551
      9         13           0       -2.181110    0.000000   -1.560551
     10         13           0       -1.401968   -2.295645    0.000000
     11         13           0        0.000000   -1.430378   -2.263097
     12         13           0       -2.181110    0.000000    1.560551
     13         13           0        4.096389    1.321367    0.000000
     14         13           0       -4.096389   -1.321367    0.000000
     15         13           0        4.096389   -1.321367    0.000000
     16         13           0        0.000000    0.000000    0.000000
     17         13           0       -4.096389    1.321367    0.000000
 ---------------------------------------------------------------------
 Rotational constants (GHZ):      0.2817656      0.1507606      0.1437929
 Standard basis: CC-pVTZ (5D, 7F)
 There are   119 symmetry adapted cartesian basis functions of AG  symmetry.
 There are    80 symmetry adapted cartesian basis functions of B1G symmetry.
 There are    65 symmetry adapted cartesian basis functions of B2G symmetry.
 There are    65 symmetry adapted cartesian basis functions of B3G symmetry.
 There are    49 symmetry adapted cartesian basis functions of AU  symmetry.
 There are    85 symmetry adapted cartesian basis functions of B1U symmetry.
 There are   100 symmetry adapted cartesian basis functions of B2U symmetry.
 There are   100 symmetry adapted cartesian basis functions of B3U symmetry.
 There are   101 symmetry adapted basis functions of AG  symmetry.
 There are    70 symmetry adapted basis functions of B1G symmetry.
 There are    58 symmetry adapted basis functions of B2G symmetry.
 There are    58 symmetry adapted basis functions of B3G symmetry.
 There are    45 symmetry adapted basis functions of AU  symmetry.
 There are    74 symmetry adapted basis functions of B1U symmetry.
 There are    86 symmetry adapted basis functions of B2U symmetry.
 There are    86 symmetry adapted basis functions of B3U symmetry.
   578 basis functions,  1615 primitive gaussians,   663 cartesian basis functions
   111 alpha electrons      110 beta electrons
       nuclear repulsion energy      3204.6536767783 Hartrees.
 NAtoms=   17 NActive=   17 NUniq=    5 SFac= 4.00D+00 NAtFMM=   60 NAOKFM=F Big=F
 Integral buffers will be    131072 words long.
 Raffenetti 2 integral format.
 Two-electron integral symmetry is turned on.
 One-electron integrals computed using PRISM.
 NBasis=   578 RedAO= T EigKep=  1.61D-04  NBF=   101    70    58    58    45    74    86    86
 NBsUse=   578 1.00D-06 EigRej= -1.00D+00 NBFU=   101    70    58    58    45    74    86    86
 Initial guess from the checkpoint file:  "cc-Al17-n-d.chk"
 B after Tr=     0.000000    0.000000    0.000000
         Rot=    1.000000    0.000000    0.000000    0.000000 Ang=   0.00 deg.
 Initial guess orbital symmetries:
 Alpha Orbitals:
       Occupied  (B2U) (B3U) (AG) (B1G) (B1G) (B2U) (B3U) (AG)
                 (B1U) (B2U) (B3G) (AG) (B3U) (B1U) (AG) (B2G)
                 (AG) (B2U) (AG) (B3U) (B1G) (B3U) (AG) (B2U) (B1G)
                 (B1U) (AG) (B3G) (B2U) (B3U) (AG) (B2G) (B1U)
                 (AG) (B2U) (AG) (B3U) (B1G) (B2U) (AG) (B3G) (B1U)
                 (AU) (B2G) (B1G) (B3U) (AG) (B3U) (B1U) (AG) (B2U)
                 (B1G) (B2U) (B3G) (B3U) (AG) (B1U) (AG) (B2G)
                 (B1U) (B3G) (B2U) (AU) (B1G) (B3G) (B2U) (B2G)
                 (B1U) (AU) (B3G) (B3U) (B2G) (B1G) (AU) (AG) (B1U)
                 (B3U) (B2G) (B3U) (AG) (B2U) (B1G) (B2U) (B3U)
                 (B1U) (AG) (B3U) (B2U) (B1U) (AG) (B1G) (B3U)
                 (B2G) (AG) (B3G) (AG) (B2U) (B1U) (AG) (B1G) (B3U)
                 (B3U) (AU) (B2U) (B1U) (B1U) (B2U) (B2G) (AG)
                 (B3U) (B2U)
       Virtual   (AG) (AG) (AG) (AG) (AG) (AG) (AG) (AG) (AG) (AG)
                 (AG) (AG) (AG) (AG) (AG) (AG) (AG) (AG) (AG) (AG)
                 (AG) (AG) (AG) (AG) (AG) (AG) (AG) (AG) (AG) (AG)
                 (AG) (AG) (AG) (AG) (AG) (AG) (AG) (AG) (AG) (AG)
                 (AG) (AG) (AG) (AG) (AG) (AG) (AG) (AG) (AG) (AG)
                 (AG) (AG) (AG) (AG) (AG) (AG) (AG) (AG) (AG) (AG)
                 (AG) (AG) (AG) (AG) (AG) (AG) (AG) (AG) (AG) (AG)
                 (AG) (AG) (AG) (AG) (AG) (AG) (AG) (B1G) (B1G)
                 (B1G) (B1G) (B1G) (B1G) (B1G) (B1G) (B1G) (B1G)
                 (B1G) (B1G) (B1G) (B1G) (B1G) (B1G) (B1G) (B1G)
                 (B1G) (B1G) (B1G) (B1G) (B1G) (B1G) (B1G) (B1G)
                 (B1G) (B1G) (B1G) (B1G) (B1G) (B1G) (B1G) (B1G)
                 (B1G) (B1G) (B1G) (B1G) (B1G) (B1G) (B1G) (B1G)
                 (B1G) (B1G) (B1G) (B1G) (B1G) (B1G) (B1G) (B1G)
                 (B1G) (B1G) (B1G) (B1G) (B1G) (B1G) (B1G) (B1G)
                 (B2G) (B2G) (B2G) (B2G) (B2G) (B2G) (B2G) (B2G)
                 (B2G) (B2G) (B2G) (B2G) (B2G) (B2G) (B2G) (B2G)
                 (B2G) (B2G) (B2G) (B2G) (B2G) (B2G) (B2G) (B2G)
                 (B2G) (B2G) (B2G) (B2G) (B2G) (B2G) (B2G) (B2G)
                 (B2G) (B2G) (B2G) (B2G) (B2G) (B2G) (B2G) (B2G)
                 (B2G) (B2G) (B2G) (B2G) (B2G) (B2G) (B2G) (B2G)
                 (B2G) (B3G) (B3G) (B3G) (B3G) (B3G) (B3G) (B3G)
                 (B3G) (B3G) (B3G) (B3G) (B3G) (B3G) (B3G) (B3G)
                 (B3G) (B3G) (B3G) (B3G) (B3G) (B3G) (B3G) (B3G)
                 (B3G) (B3G) (B3G) (B3G) (B3G) (B3G) (B3G) (B3G)
                 (B3G) (B3G) (B3G) (B3G) (B3G) (B3G) (B3G) (B3G)
                 (B3G) (B3G) (B3G) (B3G) (B3G) (B3G) (B3G) (B3G)
                 (B3G) (B3G) (B3G) (AU) (AU) (AU) (AU) (AU) (AU)
                 (AU) (AU) (AU) (AU) (AU) (AU) (AU) (AU) (AU) (AU)
                 (AU) (AU) (AU) (AU) (AU) (AU) (AU) (AU) (AU) (AU)
                 (AU) (AU) (AU) (AU) (AU) (AU) (AU) (AU) (AU) (AU)
                 (AU) (AU) (AU) (AU) (B1U) (B1U) (B1U) (B1U) (B1U)
                 (B1U) (B1U) (B1U) (B1U) (B1U) (B1U) (B1U) (B1U)
                 (B1U) (B1U) (B1U) (B1U) (B1U) (B1U) (B1U) (B1U)
                 (B1U) (B1U) (B1U) (B1U) (B1U) (B1U) (B1U) (B1U)
                 (B1U) (B1U) (B1U) (B1U) (B1U) (B1U) (B1U) (B1U)
                 (B1U) (B1U) (B1U) (B1U) (B1U) (B1U) (B1U) (B1U)
                 (B1U) (B1U) (B1U) (B1U) (B1U) (B1U) (B1U) (B1U)
                 (B1U) (B1U) (B1U) (B1U) (B1U) (B1U) (B2U) (B2U)
                 (B2U) (B2U) (B2U) (B2U) (B2U) (B2U) (B2U) (B2U)
                 (B2U) (B2U) (B2U) (B2U) (B2U) (B2U) (B2U) (B2U)
                 (B2U) (B2U) (B2U) (B2U) (B2U) (B2U) (B2U) (B2U)
                 (B2U) (B2U) (B2U) (B2U) (B2U) (B2U) (B2U) (B2U)
                 (B2U) (B2U) (B2U) (B2U) (B2U) (B2U) (B2U) (B2U)
                 (B2U) (B2U) (B2U) (B2U) (B2U) (B2U) (B2U) (B2U)
                 (B2U) (B2U) (B2U) (B2U) (B2U) (B2U) (B2U) (B2U)
                 (B2U) (B2U) (B2U) (B2U) (B2U) (B2U) (B2U) (B2U)
                 (B2U) (B3U) (B3U) (B3U) (B3U) (B3U) (B3U) (B3U)
                 (B3U) (B3U) (B3U) (B3U) (B3U) (B3U) (B3U) (B3U)
                 (B3U) (B3U) (B3U) (B3U) (B3U) (B3U) (B3U) (B3U)
                 (B3U) (B3U) (B3U) (B3U) (B3U) (B3U) (B3U) (B3U)
                 (B3U) (B3U) (B3U) (B3U) (B3U) (B3U) (B3U) (B3U)
                 (B3U) (B3U) (B3U) (B3U) (B3U) (B3U) (B3U) (B3U)
                 (B3U) (B3U) (B3U) (B3U) (B3U) (B3U) (B3U) (B3U)
                 (B3U) (B3U) (B3U) (B3U) (B3U) (B3U) (B3U) (B3U)
                 (B3U) (B3U) (B3U) (B3U)
 Beta  Orbitals:
       Occupied  (B2U) (B3U) (B1G) (AG) (B1U) (B2U) (B3G) (AG)
                 (B1G) (B2U) (B3U) (AG) (B3U) (B1U) (AG) (B2G)
                 (AG) (B2U) (AG) (B3U) (B1G) (B1U) (AG) (B3G) (B2U)
                 (B3U) (AG) (B2G) (B1U) (B3U) (AG) (B2U) (B1G)
                 (AG) (B2U) (AG) (B3U) (B1G) (B3G) (B1U) (AU) (B2G)
                 (AG) (B2U) (B1G) (B3U) (B1U) (AG) (B2U) (B3G)
                 (B3U) (AG) (B2G) (B1G) (AU) (B3U) (B1U) (B2G)
                 (AG) (B1U) (B2U) (B3G) (B2U) (B3G) (B1G) (AU)
                 (AG) (B1U) (B3U) (B2G) (B3U) (AG) (B2U) (B1G)
                 (B1U) (B2G) (AU) (B3G) (B3U) (AG) (B1G) (B2U)
                 (B1U) (B2U) (B3U) (AG) (B3U) (B1U) (B2U) (AG)
                 (B1G) (B3U) (B2G) (AG) (B3G) (AG) (B2U) (B1U)
                 (AG) (B3U) (AU) (B3U) (B1G) (B2U) (B1U) (B1U)
                 (B2U) (B2G) (AG) (B3U)
       Virtual   (AG) (AG) (AG) (AG) (AG) (AG) (AG) (AG) (AG) (AG)
                 (AG) (AG) (AG) (AG) (AG) (AG) (AG) (AG) (AG) (AG)
                 (AG) (AG) (AG) (AG) (AG) (AG) (AG) (AG) (AG) (AG)
                 (AG) (AG) (AG) (AG) (AG) (AG) (AG) (AG) (AG) (AG)
                 (AG) (AG) (AG) (AG) (AG) (AG) (AG) (AG) (AG) (AG)
                 (AG) (AG) (AG) (AG) (AG) (AG) (AG) (AG) (AG) (AG)
                 (AG) (AG) (AG) (AG) (AG) (AG) (AG) (AG) (AG) (AG)
                 (AG) (AG) (AG) (AG) (AG) (AG) (AG) (B1G) (B1G)
                 (B1G) (B1G) (B1G) (B1G) (B1G) (B1G) (B1G) (B1G)
                 (B1G) (B1G) (B1G) (B1G) (B1G) (B1G) (B1G) (B1G)
                 (B1G) (B1G) (B1G) (B1G) (B1G) (B1G) (B1G) (B1G)
                 (B1G) (B1G) (B1G) (B1G) (B1G) (B1G) (B1G) (B1G)
                 (B1G) (B1G) (B1G) (B1G) (B1G) (B1G) (B1G) (B1G)
                 (B1G) (B1G) (B1G) (B1G) (B1G) (B1G) (B1G) (B1G)
                 (B1G) (B1G) (B1G) (B1G) (B1G) (B1G) (B1G) (B1G)
                 (B2G) (B2G) (B2G) (B2G) (B2G) (B2G) (B2G) (B2G)
                 (B2G) (B2G) (B2G) (B2G) (B2G) (B2G) (B2G) (B2G)
                 (B2G) (B2G) (B2G) (B2G) (B2G) (B2G) (B2G) (B2G)
                 (B2G) (B2G) (B2G) (B2G) (B2G) (B2G) (B2G) (B2G)
                 (B2G) (B2G) (B2G) (B2G) (B2G) (B2G) (B2G) (B2G)
                 (B2G) (B2G) (B2G) (B2G) (B2G) (B2G) (B2G) (B2G)
                 (B2G) (B3G) (B3G) (B3G) (B3G) (B3G) (B3G) (B3G)
                 (B3G) (B3G) (B3G) (B3G) (B3G) (B3G) (B3G) (B3G)
                 (B3G) (B3G) (B3G) (B3G) (B3G) (B3G) (B3G) (B3G)
                 (B3G) (B3G) (B3G) (B3G) (B3G) (B3G) (B3G) (B3G)
                 (B3G) (B3G) (B3G) (B3G) (B3G) (B3G) (B3G) (B3G)
                 (B3G) (B3G) (B3G) (B3G) (B3G) (B3G) (B3G) (B3G)
                 (B3G) (B3G) (B3G) (AU) (AU) (AU) (AU) (AU) (AU)
                 (AU) (AU) (AU) (AU) (AU) (AU) (AU) (AU) (AU) (AU)
                 (AU) (AU) (AU) (AU) (AU) (AU) (AU) (AU) (AU) (AU)
                 (AU) (AU) (AU) (AU) (AU) (AU) (AU) (AU) (AU) (AU)
                 (AU) (AU) (AU) (AU) (B1U) (B1U) (B1U) (B1U) (B1U)
                 (B1U) (B1U) (B1U) (B1U) (B1U) (B1U) (B1U) (B1U)
                 (B1U) (B1U) (B1U) (B1U) (B1U) (B1U) (B1U) (B1U)
                 (B1U) (B1U) (B1U) (B1U) (B1U) (B1U) (B1U) (B1U)
                 (B1U) (B1U) (B1U) (B1U) (B1U) (B1U) (B1U) (B1U)
                 (B1U) (B1U) (B1U) (B1U) (B1U) (B1U) (B1U) (B1U)
                 (B1U) (B1U) (B1U) (B1U) (B1U) (B1U) (B1U) (B1U)
                 (B1U) (B1U) (B1U) (B1U) (B1U) (B1U) (B2U) (B2U)
                 (B2U) (B2U) (B2U) (B2U) (B2U) (B2U) (B2U) (B2U)
                 (B2U) (B2U) (B2U) (B2U) (B2U) (B2U) (B2U) (B2U)
                 (B2U) (B2U) (B2U) (B2U) (B2U) (B2U) (B2U) (B2U)
                 (B2U) (B2U) (B2U) (B2U) (B2U) (B2U) (B2U) (B2U)
                 (B2U) (B2U) (B2U) (B2U) (B2U) (B2U) (B2U) (B2U)
                 (B2U) (B2U) (B2U) (B2U) (B2U) (B2U) (B2U) (B2U)
                 (B2U) (B2U) (B2U) (B2U) (B2U) (B2U) (B2U) (B2U)
                 (B2U) (B2U) (B2U) (B2U) (B2U) (B2U) (B2U) (B2U)
                 (B2U) (B2U) (B3U) (B3U) (B3U) (B3U) (B3U) (B3U)
                 (B3U) (B3U) (B3U) (B3U) (B3U) (B3U) (B3U) (B3U)
                 (B3U) (B3U) (B3U) (B3U) (B3U) (B3U) (B3U) (B3U)
                 (B3U) (B3U) (B3U) (B3U) (B3U) (B3U) (B3U) (B3U)
                 (B3U) (B3U) (B3U) (B3U) (B3U) (B3U) (B3U) (B3U)
                 (B3U) (B3U) (B3U) (B3U) (B3U) (B3U) (B3U) (B3U)
                 (B3U) (B3U) (B3U) (B3U) (B3U) (B3U) (B3U) (B3U)
                 (B3U) (B3U) (B3U) (B3U) (B3U) (B3U) (B3U) (B3U)
                 (B3U) (B3U) (B3U) (B3U) (B3U)
 Initial guess <Sx>= 0.0000 <Sy>= 0.0000 <Sz>= 0.5000 <S**2>= 1.4271 S= 0.7950
 Requested convergence on RMS density matrix=1.00D-08 within 128 cycles.
 Requested convergence on MAX density matrix=1.00D-06.
 Requested convergence on             energy=1.00D-06.
 No special actions if energy rises.
 SCF Done:  E(UHF) =  -4112.71224893     A.U. after   19 cycles
            NFock= 19  Conv=0.59D-08     -V/T= 1.9999
 <Sx>= 0.0000 <Sy>= 0.0000 <Sz>= 0.5000 <S**2>= 1.5264 S= 0.8328
 <L.S>= 0.000000000000E+00
 Annihilation of the first spin contaminant:
 S**2 before annihilation     1.5264,   after     1.4567
 ExpMin= 5.56D-02 ExpMax= 2.06D+05 ExpMxC= 1.99D+03 IAcc=3 IRadAn=         5 AccDes= 0.00D+00
 HarFok:  IExCor=  205 AccDes= 0.00D+00 IRadAn=         5 IDoV=-2 UseB2=F ITyADJ=14
 ICtDFT= 12500011 ScaDFX=  1.000000  1.000000  1.000000  1.000000
 DSYEVD-2 returned Info=          69 IAlg= 4 N=    34 NDim=    34 NE2=   212000310 trying  DSYEV.
 Range of M.O.s used for correlation:    86   578
 NBasis=   578 NAE=   111 NBE=   110 NFC=    85 NFV=     0
 NROrb=    493 NOA=    26 NOB=    25 NVA=   467 NVB=   468

 **** Warning!!: The largest alpha MO coefficient is  0.52673428D+02


 **** Warning!!: The largest beta MO coefficient is  0.52674723D+02

 Semi-Direct transformation.
 ModeAB=           4 MOrb=            26 LenV=    7200616555
 LASXX=    188830434 LTotXX=   188830434 LenRXX=   379428975
 LTotAB=   190598541 MaxLAS=   512066282 LenRXY=           0
 NonZer=   568259409 LenScr=   855732224 LnRSAI=   512066282
 LnScr1=   771111936 LExtra=           0 Total=   2518339417
 MaxDsk=          -1 SrtSym=           T ITran=            4
 JobTyp=1 Pass  1:  I=   1 to  26.
 (rs|ai) integrals will be sorted in core.
 ModeAB=           4 MOrb=            25 LenV=    7200616555
 LASXX=    181779820 LTotXX=   181779820 LenRXX=   346352488
 LTotAB=   164572668 MaxLAS=   492371425 LenRXY=           0
 NonZer=   528132308 LenScr=   795305984 LnRSAI=   492371425
 LnScr1=   741453824 LExtra=           0 Total=   2375483721
 MaxDsk=          -1 SrtSym=           T ITran=            4
 JobTyp=2 Pass  1:  I=   1 to  25.
[...]
  Beta virt. eigenvalues --   -0.03079  -0.03030  -0.02571  -0.01923  -0.00113
  Beta virt. eigenvalues --   -0.00005   0.00086   0.01185   0.02014   0.04016
  Beta virt. eigenvalues --    0.04081   0.04239   0.04890   0.05140   0.05863
  Beta virt. eigenvalues --    0.06825   0.07182   0.07419   0.07488   0.09673
  Beta virt. eigenvalues --    0.10809   0.10916   0.10918   0.11312   0.11407
  Beta virt. eigenvalues --    0.11671   0.13449   0.13605   0.14435   0.14608
  Beta virt. eigenvalues --    0.14708   0.14916   0.15395   0.15585   0.15590
  Beta virt. eigenvalues --    0.15853   0.16526   0.16837   0.17711   0.17754
  Beta virt. eigenvalues --    0.18042   0.18274   0.18286   0.18290   0.19056
  Beta virt. eigenvalues --    0.19829   0.20579   0.20871   0.21188   0.21756
  Beta virt. eigenvalues --    0.21881   0.22397   0.22458   0.22526   0.22918
  Beta virt. eigenvalues --    0.23275   0.23605   0.23627   0.23961   0.24426
  Beta virt. eigenvalues --    0.24927   0.25180   0.26027   0.26467   0.26594
  Beta virt. eigenvalues --    0.27347   0.27456   0.27469   0.28729   0.28952
  Beta virt. eigenvalues --    0.29174   0.29457   0.29756   0.29924   0.30994
  Beta virt. eigenvalues --    0.31374   0.31458   0.31485   0.31716   0.32161
  Beta virt. eigenvalues --    0.32381   0.33036   0.33588   0.33706   0.33942
  Beta virt. eigenvalues --    0.34820   0.34933   0.35483   0.36136   0.36539
  Beta virt. eigenvalues --    0.37222   0.37297   0.37335   0.37546   0.38077
  Beta virt. eigenvalues --    0.38141   0.38917   0.39128   0.39626   0.39801
  Beta virt. eigenvalues --    0.39905   0.40893   0.41487   0.41715   0.41858
  Beta virt. eigenvalues --    0.43858   0.43985   0.44239   0.44503   0.45800
  Beta virt. eigenvalues --    0.46649   0.47193   0.47207   0.47366   0.47633
  Beta virt. eigenvalues --    0.47789   0.48174   0.48266   0.48374   0.48717
  Beta virt. eigenvalues --    0.49251   0.49594   0.50037   0.50188   0.50449
  Beta virt. eigenvalues --    0.51118   0.51696   0.51722   0.51867   0.52251
  Beta virt. eigenvalues --    0.52314   0.52375   0.52807   0.52983   0.53043
  Beta virt. eigenvalues --    0.54037   0.54104   0.54423   0.54933   0.55236
  Beta virt. eigenvalues --    0.56685   0.57888   0.58226   0.58490   0.58537
  Beta virt. eigenvalues --    0.59511   0.59716   0.60105   0.60312   0.60652
  Beta virt. eigenvalues --    0.61061   0.61943   0.62188   0.62500   0.62677
  Beta virt. eigenvalues --    0.62700   0.62782   0.63363   0.64117   0.64247
  Beta virt. eigenvalues --    0.64766   0.65390   0.65922   0.66013   0.66526
  Beta virt. eigenvalues --    0.66943   0.68194   0.68614   0.69219   0.69468
  Beta virt. eigenvalues --    0.69673   0.70500   0.70544   0.71600   0.71974
  Beta virt. eigenvalues --    0.72121   0.72752   0.73656   0.74451   0.74451
  Beta virt. eigenvalues --    0.74612   0.75027   0.75839   0.76347   0.76817
  Beta virt. eigenvalues --    0.77113   0.77694   0.77787   0.78139   0.78185
  Beta virt. eigenvalues --    0.78555   0.79299   0.79687   0.80284   0.80327
  Beta virt. eigenvalues --    0.80731   0.81455   0.82772   0.83447   0.83691
  Beta virt. eigenvalues --    0.83781   0.84655   0.85076   0.85780   0.86477
  Beta virt. eigenvalues --    0.86710   0.88068   0.88125   0.88588   0.88657
  Beta virt. eigenvalues --    0.88703   0.88718   0.91181   0.91373   0.91377
  Beta virt. eigenvalues --    0.91405   0.92071   0.93090   0.93193   0.93446
  Beta virt. eigenvalues --    0.93478   0.94011   0.94049   0.94473   0.94958
  Beta virt. eigenvalues --    0.95045   0.95659   0.95780   0.96114   0.96339
  Beta virt. eigenvalues --    0.96527   0.96560   0.96935   0.97618   0.97627
  Beta virt. eigenvalues --    0.97729   0.97803   0.98846   0.99318   0.99335
  Beta virt. eigenvalues --    0.99416   0.99771   0.99940   0.99993   1.00815
  Beta virt. eigenvalues --    1.01369   1.01723   1.01775   1.04542   1.04706
  Beta virt. eigenvalues --    1.04763   1.04763   1.05375   1.05548   1.05823
  Beta virt. eigenvalues --    1.06154   1.06326   1.06836   1.06939   1.07990
  Beta virt. eigenvalues --    1.08196   1.08464   1.08644   1.09030   1.09082
  Beta virt. eigenvalues --    1.09164   1.09417   1.10288   1.10856   1.11366
  Beta virt. eigenvalues --    1.11383   1.11526   1.12695   1.13500   1.13920
  Beta virt. eigenvalues --    1.13935   1.14902   1.14981   1.15163   1.15699
  Beta virt. eigenvalues --    1.16075   1.16526   1.16839   1.16998   1.17656
  Beta virt. eigenvalues --    1.18325   1.18535   1.19228   1.19546   1.19598
  Beta virt. eigenvalues --    1.19700   1.20527   1.22756   1.22811   1.22894
  Beta virt. eigenvalues --    1.24426   1.24450   1.25799   1.25842   1.26028
  Beta virt. eigenvalues --    1.26603   1.27423   1.27751   1.29180   1.29537
  Beta virt. eigenvalues --    1.29692   1.30440   1.31231   1.31316   1.32143
  Beta virt. eigenvalues --    1.32270   1.32363   1.32732   1.33734   1.34133
  Beta virt. eigenvalues --    1.35123   1.35564   1.36573   1.36682   1.36825
  Beta virt. eigenvalues --    1.37712   1.38935   1.39120   1.39869   1.40364
  Beta virt. eigenvalues --    1.40376   1.41039   1.41367   1.41861   1.42656
  Beta virt. eigenvalues --    1.42904   1.43170   1.43724   1.43984   1.44398
  Beta virt. eigenvalues --    1.44756   1.45028   1.45394   1.45783   1.46144
  Beta virt. eigenvalues --    1.46388   1.46716   1.47152   1.47848   1.48243
  Beta virt. eigenvalues --    1.48251   1.49006   1.49040   1.49206   1.49422
  Beta virt. eigenvalues --    1.50048   1.50201   1.50290   1.50374   1.50837
  Beta virt. eigenvalues --    1.50945   1.52246   1.53259   1.53723   1.53804
  Beta virt. eigenvalues --    1.54111   1.54296   1.54743   1.54893   1.55178
  Beta virt. eigenvalues --    1.55746   1.58474   1.59425   1.59451   1.59803
  Beta virt. eigenvalues --    1.59890   1.60105   1.60604   1.61109   1.62395
  Beta virt. eigenvalues --    1.63036   1.63640   1.64036   1.64179   1.65095
  Beta virt. eigenvalues --    1.65113   1.67780   1.67899   1.69786   1.69904
  Beta virt. eigenvalues --    1.70282   1.70749   1.71794   1.73553   1.73603
  Beta virt. eigenvalues --    1.73663   1.79138   1.89690   1.89775   1.89935
  Beta virt. eigenvalues --    1.91364   1.94486   1.94923   1.96285   1.97589
  Beta virt. eigenvalues --    2.52336   2.54202   2.54800   2.55110   2.55593
  Beta virt. eigenvalues --    2.55792   2.56261   2.58340   2.58725   2.59819
  Beta virt. eigenvalues --    2.60886   2.63643   2.66157   2.66521   2.68079
  Beta virt. eigenvalues --    2.70236   2.70546   2.72314   2.72704   2.75997
  Beta virt. eigenvalues --    2.76120   2.78306   2.78980   2.82114   2.83313
  Beta virt. eigenvalues --    2.85518   2.86342   2.87382   2.87603   2.89167
  Beta virt. eigenvalues --    2.90733   2.95023   2.95156   2.96111   2.96113
  Beta virt. eigenvalues --    2.99639   2.99711   3.03383   3.08022   3.10089
  Beta virt. eigenvalues --    3.10315   3.10967   3.12060   3.14360   3.18814
  Beta virt. eigenvalues --    3.19841   3.20755   3.25000   3.30823   3.45632
  Beta virt. eigenvalues --    3.48450   3.51034   3.52445   3.53441   3.54858
  Beta virt. eigenvalues --    3.88666   3.91243   4.01175   4.05997   4.10043
  Beta virt. eigenvalues --    4.10793   4.14680   4.25090   4.51195   5.81963
  Beta virt. eigenvalues --    5.87861   5.99355   7.52747
          Condensed to atoms (all electrons):
               1          2          3          4          5          6
     1  Al  12.161953   0.087683   0.250209  -0.006191  -0.018401   0.180003
     2  Al   0.087683  12.180432  -0.016105   0.087683   0.272755  -0.009188
     3  Al   0.250209  -0.016105  12.161953  -0.001648  -0.018401   0.180003
     4  Al  -0.006191   0.087683  -0.001648  12.161953   0.180003  -0.018401
     5  Al  -0.018401   0.272755  -0.018401   0.180003  12.161617   0.002236
     6  Al   0.180003  -0.009188   0.180003  -0.018401   0.002236  12.161617
     7  Al   0.180003   0.272755   0.180003  -0.018401   0.119748  -0.023106
     8  Al   0.087683  -0.040163  -0.016105   0.087683  -0.009188   0.272755
     9  Al  -0.016105  -0.003843   0.087683  -0.016105  -0.009188   0.272755
    10  Al  -0.001648  -0.016105  -0.006191   0.250209   0.180003  -0.018401
    11  Al  -0.018401  -0.009188  -0.018401   0.180003  -0.023106   0.119748
    12  Al  -0.016105  -0.029244   0.087683  -0.016105   0.272755  -0.009188
    13  Al   0.199187   0.126524  -0.002280  -0.031624  -0.000358  -0.015241
    14  Al   0.001537   0.001235  -0.031624  -0.002280  -0.015241  -0.000358
    15  Al  -0.031624   0.126524   0.001537   0.199187  -0.015241  -0.000358
    16  Al   0.063641   0.049548   0.063641   0.063641   0.036147   0.036147
    17  Al  -0.002280   0.001235   0.199187   0.001537  -0.000358  -0.015241
               7          8          9         10         11         12
     1  Al   0.180003   0.087683  -0.016105  -0.001648  -0.018401  -0.016105
     2  Al   0.272755  -0.040163  -0.003843  -0.016105  -0.009188  -0.029244
     3  Al   0.180003  -0.016105   0.087683  -0.006191  -0.018401   0.087683
     4  Al  -0.018401   0.087683  -0.016105   0.250209   0.180003  -0.016105
     5  Al   0.119748  -0.009188  -0.009188   0.180003  -0.023106   0.272755
     6  Al  -0.023106   0.272755   0.272755  -0.018401   0.119748  -0.009188
     7  Al  12.161617  -0.009188  -0.009188  -0.018401   0.002236   0.272755
     8  Al  -0.009188  12.180432  -0.029244  -0.016105   0.272755  -0.003843
     9  Al  -0.009188  -0.029244  12.180432   0.087683   0.272755  -0.040163
    10  Al  -0.018401  -0.016105   0.087683  12.161953   0.180003   0.087683
    11  Al   0.002236   0.272755   0.272755   0.180003  12.161617  -0.009188
    12  Al   0.272755  -0.003843  -0.040163   0.087683  -0.009188  12.180432
    13  Al  -0.015241   0.126524   0.001235   0.001537  -0.000358   0.001235
    14  Al  -0.000358   0.001235   0.126524   0.199187  -0.015241   0.126524
    15  Al  -0.000358   0.126524   0.001235  -0.002280  -0.015241   0.001235
    16  Al   0.036147   0.049548   0.049548   0.063641   0.036147   0.049548
    17  Al  -0.015241   0.001235   0.126524  -0.031624  -0.000358   0.126524
              13         14         15         16         17
     1  Al   0.199187   0.001537  -0.031624   0.063641  -0.002280
     2  Al   0.126524   0.001235   0.126524   0.049548   0.001235
     3  Al  -0.002280  -0.031624   0.001537   0.063641   0.199187
     4  Al  -0.031624  -0.002280   0.199187   0.063641   0.001537
     5  Al  -0.000358  -0.015241  -0.015241   0.036147  -0.000358
     6  Al  -0.015241  -0.000358  -0.000358   0.036147  -0.015241
     7  Al  -0.015241  -0.000358  -0.000358   0.036147  -0.015241
     8  Al   0.126524   0.001235   0.126524   0.049548   0.001235
     9  Al   0.001235   0.126524   0.001235   0.049548   0.126524
    10  Al   0.001537   0.199187  -0.002280   0.063641  -0.031624
    11  Al  -0.000358  -0.015241  -0.015241   0.036147  -0.000358
    12  Al   0.001235   0.126524   0.001235   0.049548   0.126524
    13  Al  12.306322  -0.000133   0.270968  -0.015341  -0.000119
    14  Al  -0.000133  12.306322  -0.000119  -0.015341   0.270968
    15  Al   0.270968  -0.000119  12.306322  -0.015341  -0.000133
    16  Al  -0.015341  -0.015341  -0.015341  11.454820  -0.015341
    17  Al  -0.000119   0.270968  -0.000133  -0.015341  12.306322
          Atomic-Atomic Spin Densities.
               1          2          3          4          5          6
     1  Al   0.138933   0.026191   0.004317   0.000341   0.001936  -0.007833
     2  Al   0.026191  -0.065875  -0.002130   0.026191   0.004570   0.000042
     3  Al   0.004317  -0.002130   0.138933  -0.002844   0.001936  -0.007833
     4  Al   0.000341   0.026191  -0.002844   0.138933  -0.007833   0.001936
     5  Al   0.001936   0.004570   0.001936  -0.007833  -0.048297  -0.000920
     6  Al  -0.007833   0.000042  -0.007833   0.001936  -0.000920  -0.048297
     7  Al  -0.007833   0.004570  -0.007833   0.001936  -0.008313  -0.000030
     8  Al   0.026191  -0.022995  -0.002130   0.026191   0.000042   0.004570
     9  Al  -0.002130  -0.001397   0.026191  -0.002130   0.000042   0.004570
    10  Al  -0.002844  -0.002130   0.000341   0.004317  -0.007833   0.001936
    11  Al   0.001936   0.000042   0.001936  -0.007833  -0.000030  -0.008313
    12  Al  -0.002130   0.000257   0.026191  -0.002130   0.004570   0.000042
    13  Al  -0.089090  -0.002278  -0.001083   0.002145  -0.000391   0.004880
    14  Al   0.000984   0.000026   0.002145  -0.001083   0.004880  -0.000391
    15  Al   0.002145  -0.002278   0.000984  -0.089090   0.004880  -0.000391
    16  Al   0.010332   0.015669   0.010332   0.010332  -0.016668  -0.016668
    17  Al  -0.001083   0.000026  -0.089090   0.000984  -0.000391   0.004880
               7          8          9         10         11         12
     1  Al  -0.007833   0.026191  -0.002130  -0.002844   0.001936  -0.002130
     2  Al   0.004570  -0.022995  -0.001397  -0.002130   0.000042   0.000257
     3  Al  -0.007833  -0.002130   0.026191   0.000341   0.001936   0.026191
     4  Al   0.001936   0.026191  -0.002130   0.004317  -0.007833  -0.002130
     5  Al  -0.008313   0.000042   0.000042  -0.007833  -0.000030   0.004570
     6  Al  -0.000030   0.004570   0.004570   0.001936  -0.008313   0.000042
     7  Al  -0.048297   0.000042   0.000042   0.001936  -0.000920   0.004570
     8  Al   0.000042  -0.065875   0.000257  -0.002130   0.004570  -0.001397
     9  Al   0.000042   0.000257  -0.065875   0.026191   0.004570  -0.022995
    10  Al   0.001936  -0.002130   0.026191   0.138933  -0.007833   0.026191
    11  Al  -0.000920   0.004570   0.004570  -0.007833  -0.048297   0.000042
    12  Al   0.004570  -0.001397  -0.022995   0.026191   0.000042  -0.065875
    13  Al   0.004880  -0.002278   0.000026   0.000984  -0.000391   0.000026
    14  Al  -0.000391   0.000026  -0.002278  -0.089090   0.004880  -0.002278
    15  Al  -0.000391  -0.002278   0.000026  -0.001083   0.004880   0.000026
    16  Al  -0.016668   0.015669   0.015669   0.010332  -0.016668   0.015669
    17  Al   0.004880   0.000026  -0.002278   0.002145  -0.000391  -0.002278
              13         14         15         16         17
     1  Al  -0.089090   0.000984   0.002145   0.010332  -0.001083
     2  Al  -0.002278   0.000026  -0.002278   0.015669   0.000026
     3  Al  -0.001083   0.002145   0.000984   0.010332  -0.089090
     4  Al   0.002145  -0.001083  -0.089090   0.010332   0.000984
     5  Al  -0.000391   0.004880   0.004880  -0.016668  -0.000391
     6  Al   0.004880  -0.000391  -0.000391  -0.016668   0.004880
     7  Al   0.004880  -0.000391  -0.000391  -0.016668   0.004880
     8  Al  -0.002278   0.000026  -0.002278   0.015669   0.000026
     9  Al   0.000026  -0.002278   0.000026   0.015669  -0.002278
    10  Al   0.000984  -0.089090  -0.001083   0.010332   0.002145
    11  Al  -0.000391   0.004880   0.004880  -0.016668  -0.000391
    12  Al   0.000026  -0.002278   0.000026   0.015669  -0.002278
    13  Al   0.435223  -0.000028  -0.119446  -0.001819   0.000119
    14  Al  -0.000028   0.435223   0.000119  -0.001819  -0.119446
    15  Al  -0.119446   0.000119   0.435223  -0.001819  -0.000028
    16  Al  -0.001819  -0.001819  -0.001819  -0.000167  -0.001819
    17  Al   0.000119  -0.119446  -0.000028  -0.001819   0.435223
 Mulliken charges and spin densities:
               1          2
     1  Al  -0.101143   0.100366
     2  Al  -0.082536  -0.021498
     3  Al  -0.101143   0.100366
     4  Al  -0.101143   0.100366
     5  Al  -0.115785  -0.067821
     6  Al  -0.115785  -0.067821
     7  Al  -0.115785  -0.067821
     8  Al  -0.082536  -0.021498
     9  Al  -0.082536  -0.021498
    10  Al  -0.101143   0.100366
    11  Al  -0.115785  -0.067821
    12  Al  -0.082536  -0.021498
    13  Al   0.047164   0.231481
    14  Al   0.047164   0.231481
    15  Al   0.047164   0.231481
    16  Al   1.009204   0.029890
    17  Al   0.047164   0.231481
 Sum of Mulliken charges =   0.00000   1.00000
 Mulliken charges and spin densities with hydrogens summed into heavy atoms:
               1          2
     1  Al  -0.101143   0.100366
     2  Al  -0.082536  -0.021498
     3  Al  -0.101143   0.100366
     4  Al  -0.101143   0.100366
     5  Al  -0.115785  -0.067821
     6  Al  -0.115785  -0.067821
     7  Al  -0.115785  -0.067821
     8  Al  -0.082536  -0.021498
     9  Al  -0.082536  -0.021498
    10  Al  -0.101143   0.100366
    11  Al  -0.115785  -0.067821
    12  Al  -0.082536  -0.021498
    13  Al   0.047164   0.231481
    14  Al   0.047164   0.231481
    15  Al   0.047164   0.231481
    16  Al   1.009204   0.029890
    17  Al   0.047164   0.231481
 Electronic spatial extent (au):  <R**2>=           7955.8657
 Charge=              0.0000 electrons
 Dipole moment (field-independent basis, Debye):
    X=              0.0000    Y=              0.0000    Z=              0.0000  Tot=              0.0000
 Quadrupole moment (field-independent basis, Debye-Ang):
   XX=           -242.9014   YY=           -220.0981   ZZ=           -216.7587
   XY=              0.0000   XZ=              0.0000   YZ=              0.0000
 Traceless Quadrupole moment (field-independent basis, Debye-Ang):
   XX=            -16.3153   YY=              6.4880   ZZ=              9.8274
   XY=              0.0000   XZ=              0.0000   YZ=              0.0000
 Octapole moment (field-independent basis, Debye-Ang**2):
  XXX=              0.0000  YYY=              0.0000  ZZZ=              0.0000  XYY=              0.0000
  XXY=              0.0000  XXZ=              0.0000  XZZ=              0.0000  YZZ=              0.0000
  YYZ=              0.0000  XYZ=              0.0000
 Hexadecapole moment (field-independent basis, Debye-Ang**3):
 XXXX=          -8968.4842 YYYY=          -3420.7181 ZZZZ=          -2883.1115 XXXY=              0.0000
 XXXZ=              0.0000 YYYX=              0.0000 YYYZ=              0.0000 ZZZX=              0.0000
 ZZZY=              0.0000 XXYY=          -2016.5027 XXZZ=          -1792.9583 YYZZ=          -1045.2974
 XXYZ=              0.0000 YYXZ=              0.0000 ZZXY=              0.0000
 N-N= 3.204653676778D+03 E-N=-1.624505444869D+04  KE= 4.113109849318D+03
 Symmetry AG   KE= 1.069075599845D+03
 Symmetry B1G  KE= 4.825713363244D+02
 Symmetry B2G  KE= 2.822134375683D+02
 Symmetry B3G  KE= 2.805787396457D+02
 Symmetry AU   KE= 8.033415526161D+01
 Symmetry B1U  KE= 5.049751588656D+02
 Symmetry B2U  KE= 7.063479339199D+02
 Symmetry B3U  KE= 7.070134878878D+02

 Test job not archived.
 1\1\GINC-R1I1N14\SP\UCCSD(T)-FC\CC-pVTZ\Al17(2)\VSC31064\02-Oct-2016\0
 \\# CCSD(T,conver=5)/cc-pVTZ test geom=allcheck guess=read\\Al17-n-d\\
 0,2\Al,0,1.40196811,2.29564503,0.\Al,0,2.18111008,0.,1.56055092\Al,0,-
 1.40196811,2.29564503,0.\Al,0,1.40196811,-2.29564503,0.\Al,0,0.,-1.430
 37835,2.26309731\Al,0,0.,1.43037835,-2.26309731\Al,0,0.,1.43037835,2.2
 6309731\Al,0,2.18111008,0.,-1.56055092\Al,0,-2.18111008,0.,-1.56055092
 \Al,0,-1.40196811,-2.29564503,0.\Al,0,0.,-1.43037835,-2.26309731\Al,0,
 -2.18111008,0.,1.56055092\Al,0,4.09638909,1.32136697,0.\Al,0,-4.096389
 09,-1.32136697,0.\Al,0,4.09638909,-1.32136697,0.\Al,0,0.,0.,0.\Al,0,-4
 .09638909,1.32136697,0.\\Version=ES64L-G09RevD.01\State=2-B2U\HF=-4112
 .7122489\MP2=-4114.3576385\MP3=-4114.044381\MP4D=-4114.3755388\MP4DQ=-
 4114.2831266\PUHF=-4112.7413552\PMP2-0=-4114.3844556\PMP3-0=-4114.0667
 463\MP4SDQ=-4114.3198676\CCSD=-4114.1783523\CCSD(T)=-4114.3899076\S2=1
 .526377\S2-1=1.342733\S2A=1.456681\RMSD=5.894e-09\PG=D02H [O(Al1),SG(A
 l4),SG'(Al4),SG"(Al8)]\\@


 IF MATHEMATICALLY YOU END UP WITH THE INCORRECT ANSWER,
 TRY MULTIPLYING BY THE PAGE NUMBER.
 Job cpu time:       8 days  1 hours  5 minutes 24.9 seconds.
 File lengths (MBytes):  RWF=  21331 Int=      0 D2E=      0 Chk=     24 Scr=      1
 Normal termination of Gaussian 09 at Sun Oct  2 01:29:33 2016.
