This job is running on host node3.local with 36 core and 61200MB RAM
 Entering Gaussian System, Link 0=/share/apps/Gaussian/g09/g09
 Initial command:
 /share/apps/Gaussian/g09/l1.exe /state/partition1/u2/422.hpcc.tdt.edu.vn/Gau-9913.inp -scrdir=/state/partition1/u2/422.hpcc.tdt.edu.vn/
 Entering Link 1 = /share/apps/Gaussian/g09/l1.exe PID=      9914.
  
 Copyright (c) 1988,1990,1992,1993,1995,1998,2003,2009, Gaussian, Inc.
                  All Rights Reserved.
  
 This is part of the Gaussian(R) 09 program.  It is based on
 the Gaussian(R) 03 system (copyright 2003, Gaussian, Inc.),
 the Gaussian(R) 98 system (copyright 1998, Gaussian, Inc.),
 the Gaussian(R) 94 system (copyright 1995, Gaussian, Inc.),
 the Gaussian 92(TM) system (copyright 1992, Gaussian, Inc.),
 the Gaussian 90(TM) system (copyright 1990, Gaussian, Inc.),
 the Gaussian 88(TM) system (copyright 1988, Gaussian, Inc.),
 the Gaussian 86(TM) system (copyright 1986, Carnegie Mellon
 University), and the Gaussian 82(TM) system (copyright 1983,
 Carnegie Mellon University). Gaussian is a federally registered
 trademark of Gaussian, Inc.
  
 This software contains proprietary and confidential information,
 including trade secrets, belonging to Gaussian, Inc.
  
 This software is provided under written license and may be
 used, copied, transmitted, or stored only in accord with that
 written license.
  
 The following legend is applicable only to US Government
 contracts under FAR:
  
                    RESTRICTED RIGHTS LEGEND
  
 Use, reproduction and disclosure by the US Government is
 subject to restrictions as set forth in subparagraphs (a)
 and (c) of the Commercial Computer Software - Restricted
 Rights clause in FAR 52.227-19.
  
 Gaussian, Inc.
 340 Quinnipiac St., Bldg. 40, Wallingford CT 06492
  
  
 ---------------------------------------------------------------
 Warning -- This program may not be used in any manner that
 competes with the business of Gaussian, Inc. or will provide
 assistance to any competitor of Gaussian, Inc.  The licensee
 of this program is prohibited from giving any competitor of
 Gaussian, Inc. access to this program.  By using this program,
 the user acknowledges that Gaussian, Inc. is engaged in the
 business of creating and licensing software in the field of
 computational chemistry and represents and warrants to the
 licensee that it is not a competitor of Gaussian, Inc. and that
 it will not use this program in any manner prohibited above.
 ---------------------------------------------------------------
  

 Cite this work as:
 Gaussian 09, Revision A.01,
 M. J. Frisch, G. W. Trucks, H. B. Schlegel, G. E. Scuseria, 
 M. A. Robb, J. R. Cheeseman, G. Scalmani, V. Barone, B. Mennucci, 
 G. A. Petersson, H. Nakatsuji, M. Caricato, X. Li, H. P. Hratchian, 
 A. F. Izmaylov, J. Bloino, G. Zheng, J. L. Sonnenberg, M. Hada, 
 M. Ehara, K. Toyota, R. Fukuda, J. Hasegawa, M. Ishida, T. Nakajima, 
 Y. Honda, O. Kitao, H. Nakai, T. Vreven, J. A. Montgomery, Jr., 
 J. E. Peralta, F. Ogliaro, M. Bearpark, J. J. Heyd, E. Brothers, 
 K. N. Kudin, V. N. Staroverov, R. Kobayashi, J. Normand, 
 K. Raghavachari, A. Rendell, J. C. Burant, S. S. Iyengar, J. Tomasi, 
 M. Cossi, N. Rega, J. M. Millam, M. Klene, J. E. Knox, J. B. Cross, 
 V. Bakken, C. Adamo, J. Jaramillo, R. Gomperts, R. E. Stratmann, 
 O. Yazyev, A. J. Austin, R. Cammi, C. Pomelli, J. W. Ochterski, 
 R. L. Martin, K. Morokuma, V. G. Zakrzewski, G. A. Voth, 
 P. Salvador, J. J. Dannenberg, S. Dapprich, A. D. Daniels, 
 O. Farkas, J. B. Foresman, J. V. Ortiz, J. Cioslowski, 
 and D. J. Fox, Gaussian, Inc., Wallingford CT, 2009.
 
 ******************************************
 Gaussian 09:  EM64L-G09RevA.01  8-May-2009
                29-Jun-2017 
 ******************************************
 %Nprocshared=36
 Will use up to   36 processors via shared memory.
 %nproc=36
 Will use up to   36 processors via shared memory.
 %mem=61200MB
 %chk=ccsdt-Al18-c-d.chk
 -------------------------
 #n hf/6-31G* test scf=xqc
 -------------------------
 1/38=1/1;
 2/12=2,17=6,18=5,40=1/2;
 3/5=1,6=6,7=1,11=9,16=1,25=1,30=1/1,2,3;
 4//1;
 5/5=2,8=3,13=1,38=5/2,8;
 6/7=2,8=2,9=2,10=2,28=1/1;
 99/5=1,9=1/99;
 -----------------
 ccsdt-Al18-c-d-01
 -----------------
 Symbolic Z-matrix:
 Charge =  1 Multiplicity = 2
 13                    1.6588    2.2883   -0.13459 
 13                    2.64008   0.03663   1.30408 
 13                   -1.05851   2.3734    0.29078 
 13                    1.66716  -2.28579  -0.00327 
 13                    0.63231  -1.33738   2.42325 
 13                   -0.02668   1.42681  -2.18387 
 13                    0.63479   1.47784   2.33965 
 13                    2.14926  -0.04671  -1.76267 
 13                   -2.14418  -0.05093  -1.53468 
 13                   -1.04936  -2.3555    0.42132 
 13                   -0.01962  -1.54815  -2.10117 
 13                   -1.64676   0.06592   2.13093 
 13                    4.24761   1.28387  -0.55792 
 13                   -3.53554  -1.31081   0.60907 
 13                    4.25917  -1.31415  -0.4872 
 13                    0.126     0.00295   0.09541 
 13                   -3.54185   1.33831   0.53257 
 13                   -4.99268  -0.04463  -1.38168 
 
                          Input orientation:                          
 ---------------------------------------------------------------------
 Center     Atomic      Atomic             Coordinates (Angstroms)
 Number     Number       Type             X           Y           Z
 ---------------------------------------------------------------------
      1         13           0        1.658800    2.288300   -0.134593
      2         13           0        2.640076    0.036629    1.304078
      3         13           0       -1.058511    2.373399    0.290778
      4         13           0        1.667158   -2.285794   -0.003272
      5         13           0        0.632314   -1.337375    2.423248
      6         13           0       -0.026680    1.426812   -2.183872
      7         13           0        0.634787    1.477844    2.339654
      8         13           0        2.149260   -0.046712   -1.762669
      9         13           0       -2.144177   -0.050926   -1.534678
     10         13           0       -1.049361   -2.355502    0.421321
     11         13           0       -0.019617   -1.548146   -2.101169
     12         13           0       -1.646756    0.065922    2.130927
     13         13           0        4.247612    1.283869   -0.557917
     14         13           0       -3.535541   -1.310805    0.609066
     15         13           0        4.259165   -1.314145   -0.487199
     16         13           0        0.126003    0.002949    0.095407
     17         13           0       -3.541848    1.338309    0.532567
     18         13           0       -4.992683   -0.044628   -1.381676
 ---------------------------------------------------------------------
                    Distance matrix (angstroms):
                    1          2          3          4          5
     1  Al   0.000000
     2  Al   2.846524   0.000000
     3  Al   2.751720   4.490748   0.000000
     4  Al   4.575986   2.837143   5.405906   0.000000
     5  Al   4.554310   2.677973   4.601756   2.803284   0.000000
     6  Al   2.789722   4.605431   2.843342   4.626829   5.412999
     7  Al   2.797738   2.677817   2.804848   4.551930   2.816461
     8  Al   2.888505   3.106893   4.512580   2.888146   4.635605
     9  Al   4.679193   5.563747   3.223090   4.676122   5.002902
    10  Al   5.404449   4.484807   4.730711   2.750384   2.805766
    11  Al   4.626318   4.602302   4.709483   2.791148   4.576001
    12  Al   4.582384   4.365944   3.009424   4.589924   2.692370
    13  Al   2.808920   2.758044   5.482910   4.439467   5.369231
    14  Al   6.363000   6.358999   4.450881   5.328568   4.545655
    15  Al   4.456887   2.766715   6.517738   2.810122   4.650300
    16  Al   2.761376   2.789728   2.657118   2.761022   2.733434
    17  Al   5.328633   6.364415   2.701266   6.368280   5.306372
    18  Al   7.158212   8.091903   4.911381   7.160748   6.912976
                    6          7          8          9         10
     6  Al   0.000000
     7  Al   4.571918   0.000000
     8  Al   2.661466   4.631086   0.000000
     9  Al   2.662509   5.007018   4.299488   0.000000
    10  Al   4.705189   4.605529   4.509046   3.214907   0.000000
    11  Al   2.976116   5.413480   2.659495   2.660138   2.841681
    12  Al   4.805638   2.691195   5.438981   3.701046   3.023727
    13  Al   4.575340   4.635305   2.761332   6.602326   6.500912
    14  Al   5.254251   5.306895   6.288086   2.849356   2.703282
    15  Al   5.362836   5.377957   2.772167   6.610274   5.485461
    16  Al   2.691804   2.733280   2.747450   2.795317   2.655182
    17  Al   4.443341   4.552946   6.290874   2.856039   4.457478
    18  Al   5.241168   6.916259   7.152098   2.852619   4.913321
                   11         12         13         14         15
    11  Al   0.000000
    12  Al   4.812840   0.000000
    13  Al   5.348942   6.592181   0.000000
    14  Al   4.445608   2.789076   8.286836   0.000000
    15  Al   4.579043   6.605988   2.599002   7.871420   0.000000
    16  Al   2.692962   2.699997   4.365232   3.923863   4.376893
    17  Al   5.260637   2.786592   7.865609   2.650226   8.302484
    18  Al   5.244962   4.852404   9.371581   2.772999   9.381282
                   16         17         18
    16  Al   0.000000
    17  Al   3.927776   0.000000
    18  Al   5.327756   2.771599   0.000000
 Stoichiometry    Al18(1+,2)
 Framework group  C1[X(Al18)]
 Deg. of freedom    48
 Full point group                 C1      NOp   1
 Largest Abelian subgroup         C1      NOp   1
 Largest concise Abelian subgroup C1      NOp   1
                         Standard orientation:                         
 ---------------------------------------------------------------------
 Center     Atomic      Atomic             Coordinates (Angstroms)
 Number     Number       Type             X           Y           Z
 ---------------------------------------------------------------------
      1         13           0        1.658800    2.288300   -0.134593
      2         13           0        2.640076    0.036629    1.304078
      3         13           0       -1.058511    2.373399    0.290778
      4         13           0        1.667158   -2.285794   -0.003272
      5         13           0        0.632314   -1.337375    2.423248
      6         13           0       -0.026680    1.426812   -2.183872
      7         13           0        0.634787    1.477844    2.339654
      8         13           0        2.149260   -0.046712   -1.762669
      9         13           0       -2.144177   -0.050926   -1.534678
     10         13           0       -1.049361   -2.355502    0.421321
     11         13           0       -0.019617   -1.548146   -2.101169
     12         13           0       -1.646756    0.065922    2.130927
     13         13           0        4.247612    1.283869   -0.557917
     14         13           0       -3.535541   -1.310805    0.609066
     15         13           0        4.259165   -1.314145   -0.487199
     16         13           0        0.126003    0.002949    0.095407
     17         13           0       -3.541848    1.338309    0.532567
     18         13           0       -4.992683   -0.044628   -1.381676
 ---------------------------------------------------------------------
 Rotational constants (GHZ):      0.2580664      0.1254886      0.1243975
 Standard basis: 6-31G(d) (6D, 7F)
 There are   342 symmetry adapted basis functions of A   symmetry.
 Integral buffers will be    131072 words long.
 Raffenetti 2 integral format.
 Two-electron integral symmetry is turned on.
   342 basis functions,   936 primitive gaussians,   342 cartesian basis functions
   117 alpha electrons      116 beta electrons
       nuclear repulsion energy      3499.4753268520 Hartrees.
 NAtoms=   18 NActive=   18 NUniq=   18 SFac= 7.50D-01 NAtFMM=   80 NAOKFM=F Big=F
 One-electron integrals computed using PRISM.
 NBasis=   342 RedAO= T  NBF=   342
 NBsUse=   342 1.00D-06 NBFU=   342
 Harris functional with IExCor=  205 diagonalized for initial guess.
 ExpMin= 5.57D-02 ExpMax= 1.40D+04 ExpMxC= 2.10D+03 IAcc=2 IRadAn=         0 AccDes= 0.00D+00
 HarFok:  IExCor=  205 AccDes= 0.00D+00 IRadAn=         0 IDoV= 1
 ScaDFX=  1.000000  1.000000  1.000000  1.000000
 FoFCou: FMM=F IPFlag=           0 FMFlag=      100000 FMFlg1=           0
         NFxFlg=           0 DoJE=T BraDBF=F KetDBF=T FulRan=T
         Omega=  0.000000  0.000000  1.000000  0.000000  0.000000 ICntrl=     500 IOpCl=  0
         NMat0=    1 NMatS0=    1 NMatT0=    0 NMatD0=    1 NMtDS0=    0 NMtDT0=    0
         I1Cent=           4 NGrid=           0.
 Petite list used in FoFCou.
 Initial guess orbital symmetries:
 Alpha Orbitals:
       Occupied  (A) (A) (A) (A) (A) (A) (A) (A) (A) (A) (A) (A)
                 (A) (A) (A) (A) (A) (A) (A) (A) (A) (A) (A) (A)
                 (A) (A) (A) (A) (A) (A) (A) (A) (A) (A) (A) (A)
                 (A) (A) (A) (A) (A) (A) (A) (A) (A) (A) (A) (A)
                 (A) (A) (A) (A) (A) (A) (A) (A) (A) (A) (A) (A)
                 (A) (A) (A) (A) (A) (A) (A) (A) (A) (A) (A) (A)
                 (A) (A) (A) (A) (A) (A) (A) (A) (A) (A) (A) (A)
                 (A) (A) (A) (A) (A) (A) (A) (A) (A) (A) (A) (A)
                 (A) (A) (A) (A) (A) (A) (A) (A) (A) (A) (A) (A)
                 (A) (A) (A) (A) (A) (A) (A) (A) (A)
       Virtual   (A) (A) (A) (A) (A) (A) (A) (A) (A) (A) (A) (A)
                 (A) (A) (A) (A) (A) (A) (A) (A) (A) (A) (A) (A)
                 (A) (A) (A) (A) (A) (A) (A) (A) (A) (A) (A) (A)
                 (A) (A) (A) (A) (A) (A) (A) (A) (A) (A) (A) (A)
                 (A) (A) (A) (A) (A) (A) (A) (A) (A) (A) (A) (A)
                 (A) (A) (A) (A) (A) (A) (A) (A) (A) (A) (A) (A)
                 (A) (A) (A) (A) (A) (A) (A) (A) (A) (A) (A) (A)
                 (A) (A) (A) (A) (A) (A) (A) (A) (A) (A) (A) (A)
                 (A) (A) (A) (A) (A) (A) (A) (A) (A) (A) (A) (A)
                 (A) (A) (A) (A) (A) (A) (A) (A) (A) (A) (A) (A)
                 (A) (A) (A) (A) (A) (A) (A) (A) (A) (A) (A) (A)
                 (A) (A) (A) (A) (A) (A) (A) (A) (A) (A) (A) (A)
                 (A) (A) (A) (A) (A) (A) (A) (A) (A) (A) (A) (A)
                 (A) (A) (A) (A) (A) (A) (A) (A) (A) (A) (A) (A)
                 (A) (A) (A) (A) (A) (A) (A) (A) (A) (A) (A) (A)
                 (A) (A) (A) (A) (A) (A) (A) (A) (A) (A) (A) (A)
                 (A) (A) (A) (A) (A) (A) (A) (A) (A) (A) (A) (A)
                 (A) (A) (A) (A) (A) (A) (A) (A) (A) (A) (A) (A)
                 (A) (A) (A) (A) (A) (A) (A) (A) (A)
 Beta  Orbitals:
       Occupied  (A) (A) (A) (A) (A) (A) (A) (A) (A) (A) (A) (A)
                 (A) (A) (A) (A) (A) (A) (A) (A) (A) (A) (A) (A)
                 (A) (A) (A) (A) (A) (A) (A) (A) (A) (A) (A) (A)
                 (A) (A) (A) (A) (A) (A) (A) (A) (A) (A) (A) (A)
                 (A) (A) (A) (A) (A) (A) (A) (A) (A) (A) (A) (A)
                 (A) (A) (A) (A) (A) (A) (A) (A) (A) (A) (A) (A)
                 (A) (A) (A) (A) (A) (A) (A) (A) (A) (A) (A) (A)
                 (A) (A) (A) (A) (A) (A) (A) (A) (A) (A) (A) (A)
                 (A) (A) (A) (A) (A) (A) (A) (A) (A) (A) (A) (A)
                 (A) (A) (A) (A) (A) (A) (A) (A)
       Virtual   (A) (A) (A) (A) (A) (A) (A) (A) (A) (A) (A) (A)
                 (A) (A) (A) (A) (A) (A) (A) (A) (A) (A) (A) (A)
                 (A) (A) (A) (A) (A) (A) (A) (A) (A) (A) (A) (A)
                 (A) (A) (A) (A) (A) (A) (A) (A) (A) (A) (A) (A)
                 (A) (A) (A) (A) (A) (A) (A) (A) (A) (A) (A) (A)
                 (A) (A) (A) (A) (A) (A) (A) (A) (A) (A) (A) (A)
                 (A) (A) (A) (A) (A) (A) (A) (A) (A) (A) (A) (A)
                 (A) (A) (A) (A) (A) (A) (A) (A) (A) (A) (A) (A)
                 (A) (A) (A) (A) (A) (A) (A) (A) (A) (A) (A) (A)
                 (A) (A) (A) (A) (A) (A) (A) (A) (A) (A) (A) (A)
                 (A) (A) (A) (A) (A) (A) (A) (A) (A) (A) (A) (A)
                 (A) (A) (A) (A) (A) (A) (A) (A) (A) (A) (A) (A)
                 (A) (A) (A) (A) (A) (A) (A) (A) (A) (A) (A) (A)
                 (A) (A) (A) (A) (A) (A) (A) (A) (A) (A) (A) (A)
                 (A) (A) (A) (A) (A) (A) (A) (A) (A) (A) (A) (A)
                 (A) (A) (A) (A) (A) (A) (A) (A) (A) (A) (A) (A)
                 (A) (A) (A) (A) (A) (A) (A) (A) (A) (A) (A) (A)
                 (A) (A) (A) (A) (A) (A) (A) (A) (A) (A) (A) (A)
                 (A) (A) (A) (A) (A) (A) (A) (A) (A) (A)
 The electronic state of the initial guess is 2-A.
 Initial guess <Sx>= 0.0000 <Sy>= 0.0000 <Sz>= 0.5000 <S**2>= 0.7500 S= 0.5000
 Requested convergence on RMS density matrix=1.00D-08 within  64 cycles.
 Requested convergence on MAX density matrix=1.00D-06.
 Requested convergence on             energy=1.00D-06.
 No special actions if energy rises.
 Keep R1 and R2 ints in memory in canonical form, NReq=3460780977.
 Matrix for removal  1 Erem= -4352.55586290925     Crem= 0.000D+00
 Rare condition: small coef for last iteration:  0.000D+00
 Matrix for removal  1 Erem= -4352.66949274750     Crem= 0.000D+00
 Rare condition: small coef for last iteration:  0.000D+00
 Matrix for removal  1 Erem= -4353.81668822374     Crem= 0.000D+00
 Rare condition: small coef for last iteration:  0.000D+00
 Matrix for removal  1 Erem= -4353.97157851724     Crem= 0.000D+00
 Matrix for removal  1 Erem= -4354.03428128448     Crem= 0.000D+00
 Matrix for removal  1 Erem= -4354.05627729006     Crem= 0.000D+00
 >>>>>>>>>> Convergence criterion not met.
 SCF Done:  E(UHF) =  -4354.06550321     A.U. after   65 cycles
             Convg  =    0.1422D-07             -V/T =  2.0002
 <Sx>= 0.0000 <Sy>= 0.0000 <Sz>= 0.5000 <S**2>= 1.3758 S= 0.7751
 <L.S>= 0.000000000000E+00
 Annihilation of the first spin contaminant:
 S**2 before annihilation     1.3758,   after     1.2075
 Keep R1 and R2 ints in memory in canonical form, NReq=3442109264.
 SCF Done:  E(UHF) =  -4354.06550321     a.u. after    1 cycles
            Convg  =    0.1448D-06                     1 Fock formations.
              S**2 =  1.3758                  -V/T =  2.0002
 <Sx>= 0.0000 <Sy>= 0.0000 <Sz>= 0.5000 <S**2>= 1.3758 S= 0.7751
 <L.S>= 0.000000000000E+00
 Annihilation of the first spin contaminant:
 S**2 before annihilation     1.3758,   after     1.2075

 **********************************************************************

            Population analysis using the SCF density.

 **********************************************************************

 Orbital symmetries:
 Alpha Orbitals:
       Occupied  (A) (A) (A) (A) (A) (A) (A) (A) (A) (A) (A) (A)
                 (A) (A) (A) (A) (A) (A) (A) (A) (A) (A) (A) (A)
                 (A) (A) (A) (A) (A) (A) (A) (A) (A) (A) (A) (A)
                 (A) (A) (A) (A) (A) (A) (A) (A) (A) (A) (A) (A)
                 (A) (A) (A) (A) (A) (A) (A) (A) (A) (A) (A) (A)
                 (A) (A) (A) (A) (A) (A) (A) (A) (A) (A) (A) (A)
                 (A) (A) (A) (A) (A) (A) (A) (A) (A) (A) (A) (A)
                 (A) (A) (A) (A) (A) (A) (A) (A) (A) (A) (A) (A)
                 (A) (A) (A) (A) (A) (A) (A) (A) (A) (A) (A) (A)
                 (A) (A) (A) (A) (A) (A) (A) (A) (A)
       Virtual   (A) (A) (A) (A) (A) (A) (A) (A) (A) (A) (A) (A)
                 (A) (A) (A) (A) (A) (A) (A) (A) (A) (A) (A) (A)
                 (A) (A) (A) (A) (A) (A) (A) (A) (A) (A) (A) (A)
                 (A) (A) (A) (A) (A) (A) (A) (A) (A) (A) (A) (A)
                 (A) (A) (A) (A) (A) (A) (A) (A) (A) (A) (A) (A)
                 (A) (A) (A) (A) (A) (A) (A) (A) (A) (A) (A) (A)
                 (A) (A) (A) (A) (A) (A) (A) (A) (A) (A) (A) (A)
                 (A) (A) (A) (A) (A) (A) (A) (A) (A) (A) (A) (A)
                 (A) (A) (A) (A) (A) (A) (A) (A) (A) (A) (A) (A)
                 (A) (A) (A) (A) (A) (A) (A) (A) (A) (A) (A) (A)
                 (A) (A) (A) (A) (A) (A) (A) (A) (A) (A) (A) (A)
                 (A) (A) (A) (A) (A) (A) (A) (A) (A) (A) (A) (A)
                 (A) (A) (A) (A) (A) (A) (A) (A) (A) (A) (A) (A)
                 (A) (A) (A) (A) (A) (A) (A) (A) (A) (A) (A) (A)
                 (A) (A) (A) (A) (A) (A) (A) (A) (A) (A) (A) (A)
                 (A) (A) (A) (A) (A) (A) (A) (A) (A) (A) (A) (A)
                 (A) (A) (A) (A) (A) (A) (A) (A) (A) (A) (A) (A)
                 (A) (A) (A) (A) (A) (A) (A) (A) (A) (A) (A) (A)
                 (A) (A) (A) (A) (A) (A) (A) (A) (A)
 Beta  Orbitals:
       Occupied  (A) (A) (A) (A) (A) (A) (A) (A) (A) (A) (A) (A)
                 (A) (A) (A) (A) (A) (A) (A) (A) (A) (A) (A) (A)
                 (A) (A) (A) (A) (A) (A) (A) (A) (A) (A) (A) (A)
                 (A) (A) (A) (A) (A) (A) (A) (A) (A) (A) (A) (A)
                 (A) (A) (A) (A) (A) (A) (A) (A) (A) (A) (A) (A)
                 (A) (A) (A) (A) (A) (A) (A) (A) (A) (A) (A) (A)
                 (A) (A) (A) (A) (A) (A) (A) (A) (A) (A) (A) (A)
                 (A) (A) (A) (A) (A) (A) (A) (A) (A) (A) (A) (A)
                 (A) (A) (A) (A) (A) (A) (A) (A) (A) (A) (A) (A)
                 (A) (A) (A) (A) (A) (A) (A) (A)
       Virtual   (A) (A) (A) (A) (A) (A) (A) (A) (A) (A) (A) (A)
                 (A) (A) (A) (A) (A) (A) (A) (A) (A) (A) (A) (A)
                 (A) (A) (A) (A) (A) (A) (A) (A) (A) (A) (A) (A)
                 (A) (A) (A) (A) (A) (A) (A) (A) (A) (A) (A) (A)
                 (A) (A) (A) (A) (A) (A) (A) (A) (A) (A) (A) (A)
                 (A) (A) (A) (A) (A) (A) (A) (A) (A) (A) (A) (A)
                 (A) (A) (A) (A) (A) (A) (A) (A) (A) (A) (A) (A)
                 (A) (A) (A) (A) (A) (A) (A) (A) (A) (A) (A) (A)
                 (A) (A) (A) (A) (A) (A) (A) (A) (A) (A) (A) (A)
                 (A) (A) (A) (A) (A) (A) (A) (A) (A) (A) (A) (A)
                 (A) (A) (A) (A) (A) (A) (A) (A) (A) (A) (A) (A)
                 (A) (A) (A) (A) (A) (A) (A) (A) (A) (A) (A) (A)
                 (A) (A) (A) (A) (A) (A) (A) (A) (A) (A) (A) (A)
                 (A) (A) (A) (A) (A) (A) (A) (A) (A) (A) (A) (A)
                 (A) (A) (A) (A) (A) (A) (A) (A) (A) (A) (A) (A)
                 (A) (A) (A) (A) (A) (A) (A) (A) (A) (A) (A) (A)
                 (A) (A) (A) (A) (A) (A) (A) (A) (A) (A) (A) (A)
                 (A) (A) (A) (A) (A) (A) (A) (A) (A) (A) (A) (A)
                 (A) (A) (A) (A) (A) (A) (A) (A) (A) (A)
 The electronic state is 2-A.
 Alpha  occ. eigenvalues --  -58.60583 -58.60557 -58.60542 -58.60523 -58.59709
 Alpha  occ. eigenvalues --  -58.59635 -58.59185 -58.59147 -58.59108 -58.59104
 Alpha  occ. eigenvalues --  -58.58966 -58.58915 -58.58791 -58.58790 -58.58348
 Alpha  occ. eigenvalues --  -58.58185 -58.58137 -58.54028  -5.02480  -5.02439
 Alpha  occ. eigenvalues --   -5.02322  -5.02286  -5.01662  -5.01601  -5.01171
 Alpha  occ. eigenvalues --   -5.01145  -5.01136  -5.01036  -5.00947  -5.00892
 Alpha  occ. eigenvalues --   -5.00786  -5.00783  -5.00490  -5.00297  -4.99990
 Alpha  occ. eigenvalues --   -4.97186  -3.33742  -3.33699  -3.33622  -3.33575
 Alpha  occ. eigenvalues --   -3.33573  -3.33550  -3.33542  -3.33534  -3.33520
 Alpha  occ. eigenvalues --   -3.33503  -3.33438  -3.33401  -3.32958  -3.32881
 Alpha  occ. eigenvalues --   -3.32812  -3.32751  -3.32518  -3.32433  -3.32390
 Alpha  occ. eigenvalues --   -3.32379  -3.32363  -3.32346  -3.32292  -3.32259
 Alpha  occ. eigenvalues --   -3.32248  -3.32200  -3.32177  -3.32163  -3.32150
 Alpha  occ. eigenvalues --   -3.32145  -3.32068  -3.32041  -3.32007  -3.32001
 Alpha  occ. eigenvalues --   -3.31999  -3.31891  -3.31880  -3.31862  -3.31794
 Alpha  occ. eigenvalues --   -3.31788  -3.31785  -3.31775  -3.31766  -3.31631
 Alpha  occ. eigenvalues --   -3.31622  -3.31575  -3.31525  -3.31420  -3.30982
 Alpha  occ. eigenvalues --   -3.30836  -3.30745  -3.28587  -3.28543  -3.28518
 Alpha  occ. eigenvalues --   -0.85681  -0.76621  -0.73399  -0.73267  -0.70155
 Alpha  occ. eigenvalues --   -0.61900  -0.61064  -0.58130  -0.57669  -0.56109
 Alpha  occ. eigenvalues --   -0.52929  -0.52661  -0.51307  -0.44525  -0.42999
 Alpha  occ. eigenvalues --   -0.42442  -0.41534  -0.38296  -0.38166  -0.37627
 Alpha  occ. eigenvalues --   -0.37361  -0.36783  -0.36587  -0.35896  -0.34899
 Alpha  occ. eigenvalues --   -0.34784  -0.34450
 Alpha virt. eigenvalues --   -0.14588  -0.14049  -0.13164  -0.12450  -0.11414
 Alpha virt. eigenvalues --   -0.10679  -0.10674  -0.10533  -0.07712  -0.07361
 Alpha virt. eigenvalues --   -0.06148  -0.06009  -0.05701  -0.05537  -0.04737
 Alpha virt. eigenvalues --   -0.04099  -0.02810  -0.02135  -0.01280  -0.01016
 Alpha virt. eigenvalues --   -0.00823   0.00869   0.01345   0.01457   0.01743
 Alpha virt. eigenvalues --    0.02217   0.02565   0.02872   0.03884   0.04489
 Alpha virt. eigenvalues --    0.05057   0.05293   0.05736   0.06138   0.06488
 Alpha virt. eigenvalues --    0.06800   0.07443   0.07466   0.08525   0.08614
 Alpha virt. eigenvalues --    0.10325   0.11573   0.11625   0.12068   0.12640
 Alpha virt. eigenvalues --    0.13736   0.13891   0.14539   0.14602   0.14978
 Alpha virt. eigenvalues --    0.15186   0.15804   0.16070   0.17665   0.17688
 Alpha virt. eigenvalues --    0.18389   0.18602   0.18960   0.19755   0.19842
 Alpha virt. eigenvalues --    0.20306   0.20715   0.21544   0.22111   0.22478
 Alpha virt. eigenvalues --    0.22557   0.23350   0.23447   0.24777   0.25095
 Alpha virt. eigenvalues --    0.25192   0.25793   0.26282   0.26764   0.26852
 Alpha virt. eigenvalues --    0.27408   0.28336   0.28694   0.28897   0.29051
 Alpha virt. eigenvalues --    0.29486   0.30668   0.31387   0.31919   0.32000
 Alpha virt. eigenvalues --    0.32438   0.33397   0.33486   0.34263   0.34336
 Alpha virt. eigenvalues --    0.34754   0.35107   0.35671   0.35896   0.36508
 Alpha virt. eigenvalues --    0.38101   0.38252   0.38630   0.38868   0.39690
 Alpha virt. eigenvalues --    0.40157   0.40870   0.41221   0.41866   0.43420
 Alpha virt. eigenvalues --    0.44039   0.44686   0.44897   0.46236   0.46400
 Alpha virt. eigenvalues --    0.46816   0.47258   0.47389   0.48966   0.49040
 Alpha virt. eigenvalues --    0.49500   0.50494   0.50910   0.51212   0.52619
 Alpha virt. eigenvalues --    0.53336   0.53403   0.53809   0.54001   0.55644
 Alpha virt. eigenvalues --    0.56198   0.56641   0.56727   0.57118   0.57738
 Alpha virt. eigenvalues --    0.58334   0.58891   0.59096   0.60024   0.60297
 Alpha virt. eigenvalues --    0.60911   0.61074   0.62244   0.62641   0.62925
 Alpha virt. eigenvalues --    0.63771   0.63807   0.64849   0.66036   0.67871
 Alpha virt. eigenvalues --    0.68637   0.68904   0.69481   0.69659   0.70471
 Alpha virt. eigenvalues --    0.70664   0.70916   0.71678   0.72159   0.72510
 Alpha virt. eigenvalues --    0.73395   0.73699   0.75412   0.75659   0.76765
 Alpha virt. eigenvalues --    0.78017   0.78298   0.78545   0.78685   0.78957
 Alpha virt. eigenvalues --    0.79377   0.79735   0.80421   0.81216   0.81751
 Alpha virt. eigenvalues --    0.81913   0.82577   0.82921   0.83821   0.84098
 Alpha virt. eigenvalues --    0.85324   0.85574   0.86493   0.87345   0.87381
 Alpha virt. eigenvalues --    0.87892   0.88290   0.89196   0.90111   0.90836
 Alpha virt. eigenvalues --    0.92138   0.92499   0.92831   0.93088   0.94821
 Alpha virt. eigenvalues --    0.96607   0.97392   0.97801   0.99310   0.99777
 Alpha virt. eigenvalues --    1.00486   1.01410   1.01751   1.02419   1.02817
 Alpha virt. eigenvalues --    1.03041   1.03239   1.07005   1.35393   1.63135
 Alpha virt. eigenvalues --    1.69748   1.77571   2.13608   2.18012   2.21847
 Alpha virt. eigenvalues --    2.23633   2.24206   2.25209   2.25354   2.26073
 Alpha virt. eigenvalues --    2.26758   2.26830   2.27938   2.28577   2.29585
 Alpha virt. eigenvalues --    2.34594   2.36860   2.43035   2.44036   3.13677
  Beta  occ. eigenvalues --  -58.60604 -58.60577 -58.60406 -58.60370 -58.59718
  Beta  occ. eigenvalues --  -58.59644 -58.59225 -58.59189 -58.59152 -58.58926
  Beta  occ. eigenvalues --  -58.58870 -58.58803 -58.58802 -58.58764 -58.58359
  Beta  occ. eigenvalues --  -58.58170 -58.58120 -58.53995  -5.02408  -5.02387
  Beta  occ. eigenvalues --   -5.02161  -5.02127  -5.01708  -5.01640  -5.01244
  Beta  occ. eigenvalues --   -5.01231  -5.01203  -5.00971  -5.00800  -5.00796
  Beta  occ. eigenvalues --   -5.00555  -5.00550  -5.00469  -5.00374  -4.99908
  Beta  occ. eigenvalues --   -4.97140  -3.33733  -3.33710  -3.33572  -3.33545
  Beta  occ. eigenvalues --   -3.33462  -3.33450  -3.33432  -3.33417  -3.33411
  Beta  occ. eigenvalues --   -3.33379  -3.33187  -3.33166  -3.32915  -3.32831
  Beta  occ. eigenvalues --   -3.32788  -3.32727  -3.32506  -3.32460  -3.32448
  Beta  occ. eigenvalues --   -3.32433  -3.32412  -3.32401  -3.32345  -3.32316
  Beta  occ. eigenvalues --   -3.32307  -3.32274  -3.32268  -3.32182  -3.32170
  Beta  occ. eigenvalues --   -3.32071  -3.32004  -3.31998  -3.31912  -3.31903
  Beta  occ. eigenvalues --   -3.31865  -3.31861  -3.31784  -3.31781  -3.31762
  Beta  occ. eigenvalues --   -3.31683  -3.31672  -3.31657  -3.31618  -3.31597
  Beta  occ. eigenvalues --   -3.31570  -3.31558  -3.31462  -3.31444  -3.30767
  Beta  occ. eigenvalues --   -3.30704  -3.30583  -3.28517  -3.28507  -3.28414
  Beta  occ. eigenvalues --   -0.85648  -0.76321  -0.73749  -0.73071  -0.69588
  Beta  occ. eigenvalues --   -0.60800  -0.60222  -0.58195  -0.57400  -0.56575
  Beta  occ. eigenvalues --   -0.52494  -0.51361  -0.50735  -0.43732  -0.43217
  Beta  occ. eigenvalues --   -0.40491  -0.38833  -0.38244  -0.37773  -0.37138
  Beta  occ. eigenvalues --   -0.37067  -0.36813  -0.36478  -0.35405  -0.34332
  Beta  occ. eigenvalues --   -0.32935
  Beta virt. eigenvalues --   -0.14730  -0.13992  -0.13299  -0.13252  -0.11859
  Beta virt. eigenvalues --   -0.11233  -0.10840  -0.10493  -0.09068  -0.07535
  Beta virt. eigenvalues --   -0.06979  -0.05676  -0.05639  -0.05565  -0.05320
  Beta virt. eigenvalues --   -0.04770  -0.02900  -0.02723  -0.02429  -0.00484
  Beta virt. eigenvalues --   -0.00196   0.00501   0.01239   0.01796   0.01869
  Beta virt. eigenvalues --    0.01969   0.02238   0.02943   0.03132   0.04447
  Beta virt. eigenvalues --    0.05093   0.05382   0.05473   0.06056   0.06465
  Beta virt. eigenvalues --    0.06780   0.07016   0.07582   0.08642   0.09178
  Beta virt. eigenvalues --    0.09211   0.10384   0.11520   0.11656   0.12085
  Beta virt. eigenvalues --    0.12512   0.13768   0.14267   0.14711   0.15103
  Beta virt. eigenvalues --    0.15450   0.15667   0.15769   0.16344   0.17764
  Beta virt. eigenvalues --    0.17947   0.18526   0.18939   0.18984   0.19822
  Beta virt. eigenvalues --    0.19932   0.20564   0.21054   0.21610   0.22008
  Beta virt. eigenvalues --    0.22416   0.22773   0.23529   0.23560   0.24867
  Beta virt. eigenvalues --    0.24982   0.25749   0.26111   0.26519   0.27154
  Beta virt. eigenvalues --    0.27341   0.27604   0.28622   0.28862   0.29011
  Beta virt. eigenvalues --    0.29474   0.29716   0.31400   0.31841   0.32040
  Beta virt. eigenvalues --    0.32342   0.32990   0.33584   0.33831   0.34195
  Beta virt. eigenvalues --    0.34837   0.35024   0.35262   0.35745   0.36231
  Beta virt. eigenvalues --    0.37095   0.38400   0.38460   0.38844   0.39142
  Beta virt. eigenvalues --    0.39932   0.40556   0.41161   0.41220   0.42114
  Beta virt. eigenvalues --    0.43384   0.44080   0.44933   0.45250   0.46827
  Beta virt. eigenvalues --    0.46842   0.47143   0.47445   0.48178   0.49162
  Beta virt. eigenvalues --    0.49486   0.49739   0.50670   0.51309   0.51730
  Beta virt. eigenvalues --    0.52832   0.53452   0.53591   0.53972   0.54111
  Beta virt. eigenvalues --    0.55710   0.56416   0.56847   0.57212   0.57372
  Beta virt. eigenvalues --    0.58097   0.58925   0.59123   0.59393   0.60287
  Beta virt. eigenvalues --    0.60572   0.60814   0.61389   0.62390   0.62905
  Beta virt. eigenvalues --    0.63064   0.63773   0.64415   0.65102   0.66256
  Beta virt. eigenvalues --    0.68122   0.68777   0.68859   0.69423   0.70007
  Beta virt. eigenvalues --    0.70844   0.70989   0.71250   0.72308   0.72410
  Beta virt. eigenvalues --    0.72907   0.73809   0.73876   0.75555   0.75770
  Beta virt. eigenvalues --    0.76690   0.78038   0.78445   0.78665   0.78880
  Beta virt. eigenvalues --    0.79076   0.79526   0.79757   0.80475   0.81292
  Beta virt. eigenvalues --    0.81762   0.81973   0.82673   0.82962   0.83904
  Beta virt. eigenvalues --    0.84249   0.85413   0.85596   0.86476   0.87383
  Beta virt. eigenvalues --    0.87427   0.88418   0.88648   0.89365   0.90080
  Beta virt. eigenvalues --    0.90880   0.92315   0.92537   0.92879   0.93094
  Beta virt. eigenvalues --    0.94805   0.96865   0.97396   0.97862   0.99331
  Beta virt. eigenvalues --    0.99746   1.00607   1.01401   1.01779   1.02446
  Beta virt. eigenvalues --    1.02940   1.03261   1.03365   1.07029   1.35455
  Beta virt. eigenvalues --    1.63158   1.69705   1.77548   2.13701   2.18545
  Beta virt. eigenvalues --    2.22097   2.23721   2.24240   2.25337   2.25518
  Beta virt. eigenvalues --    2.26010   2.26698   2.26811   2.27995   2.28590
  Beta virt. eigenvalues --    2.29886   2.34613   2.36945   2.43239   2.43985
  Beta virt. eigenvalues --    3.13674
          Condensed to atoms (all electrons):
              1          2          3          4          5          6
     1  Al  13.604914  -0.155417   0.192294   0.024820   0.019374   0.077071
     2  Al  -0.155417  14.430826  -0.026321  -0.142416   0.156988   0.007027
     3  Al   0.192294  -0.026321  13.459192  -0.007602   0.007651   0.118500
     4  Al   0.024820  -0.142416  -0.007602  13.605488   0.047336   0.009654
     5  Al   0.019374   0.156988   0.007651   0.047336  13.534895  -0.071925
     6  Al   0.077071   0.007027   0.118500   0.009654  -0.071925  13.446119
     7  Al   0.042940   0.167899   0.113028   0.019490  -0.044220   0.033095
     8  Al  -0.148619   0.277054  -0.033821  -0.134697  -0.003991   0.249484
     9  Al  -0.052465  -0.042241  -0.036738  -0.053039  -0.000204   0.241984
    10  Al  -0.006989  -0.022208  -0.012472   0.183081   0.108757  -0.012189
    11  Al   0.010585   0.005472  -0.011640   0.080070   0.033378  -0.039638
    12  Al  -0.026636  -0.144566  -0.086528  -0.028751   0.262530   0.000199
    13  Al   0.151758  -0.232117   0.033499  -0.003019   0.024933  -0.024427
    14  Al  -0.008973  -0.009866   0.032273   0.038252  -0.027247   0.013903
    15  Al   0.004056  -0.258570  -0.012085   0.150758  -0.018486   0.022935
    16  Al  -0.761449  -0.977097  -0.892102  -0.774886  -1.116617  -1.150695
    17  Al   0.037306  -0.009528   0.067780  -0.008799   0.022847  -0.032742
    18  Al  -0.000875   0.000021   0.031846  -0.000964  -0.001085   0.004109
              7          8          9         10         11         12
     1  Al   0.042940  -0.148619  -0.052465  -0.006989   0.010585  -0.026636
     2  Al   0.167899   0.277054  -0.042241  -0.022208   0.005472  -0.144566
     3  Al   0.113028  -0.033821  -0.036738  -0.012472  -0.011640  -0.086528
     4  Al   0.019490  -0.134697  -0.053039   0.183081   0.080070  -0.028751
     5  Al  -0.044220  -0.003991  -0.000204   0.108757   0.033378   0.262530
     6  Al   0.033095   0.249484   0.241984  -0.012189  -0.039638   0.000199
     7  Al  13.536801   0.000444  -0.000486   0.005734  -0.071963   0.259399
     8  Al   0.000444  14.293390  -0.175108  -0.030514   0.249514  -0.030655
     9  Al  -0.000486  -0.175108  14.110864  -0.032844   0.242315   0.042940
    10  Al   0.005734  -0.030514  -0.032844  13.480727   0.115048  -0.077376
    11  Al  -0.071963   0.249514   0.242315   0.115048  13.441320  -0.000744
    12  Al   0.259399  -0.030655   0.042940  -0.077376  -0.000744  13.854348
    13  Al  -0.019722  -0.215316  -0.001044  -0.012591   0.023810  -0.004079
    14  Al   0.023290  -0.001309  -0.150275   0.053852  -0.032226  -0.174969
    15  Al   0.023608  -0.238070  -0.001108   0.033304  -0.024200  -0.003853
    16  Al  -1.123283  -1.028074  -0.887969  -0.904106  -1.147802  -0.681627
    17  Al  -0.028064  -0.000985  -0.151059   0.033842   0.013704  -0.174741
    18  Al  -0.001120  -0.001927  -0.063762   0.031263   0.004043   0.018378
             13         14         15         16         17         18
     1  Al   0.151758  -0.008973   0.004056  -0.761449   0.037306  -0.000875
     2  Al  -0.232117  -0.009866  -0.258570  -0.977097  -0.009528   0.000021
     3  Al   0.033499   0.032273  -0.012085  -0.892102   0.067780   0.031846
     4  Al  -0.003019   0.038252   0.150758  -0.774886  -0.008799  -0.000964
     5  Al   0.024933  -0.027247  -0.018486  -1.116617   0.022847  -0.001085
     6  Al  -0.024427   0.013903   0.022935  -1.150695  -0.032742   0.004109
     7  Al  -0.019722   0.023290   0.023608  -1.123283  -0.028064  -0.001120
     8  Al  -0.215316  -0.001309  -0.238070  -1.028074  -0.000985  -0.001927
     9  Al  -0.001044  -0.150275  -0.001108  -0.887969  -0.151059  -0.063762
    10  Al  -0.012591   0.053852   0.033304  -0.904106   0.033842   0.031263
    11  Al   0.023810  -0.032226  -0.024200  -1.147802   0.013704   0.004043
    12  Al  -0.004079  -0.174969  -0.003853  -0.681627  -0.174741   0.018378
    13  Al  12.779966   0.000653   0.214588   0.057610  -0.000223   0.000007
    14  Al   0.000653  13.197327  -0.000207  -0.062196  -0.053035  -0.025751
    15  Al   0.214588  -0.000207  12.817496   0.067470   0.000628   0.000008
    16  Al   0.057610  -0.062196   0.067470  24.937625  -0.069440  -0.022159
    17  Al  -0.000223  -0.053035   0.000628  -0.069440  13.202064  -0.031353
    18  Al   0.000007  -0.025751   0.000008  -0.022159  -0.031353  12.832249
 Mulliken atomic charges:
              1
     1  Al  -0.003697
     2  Al  -0.024940
     3  Al   0.063245
     4  Al  -0.004774
     5  Al   0.065083
     6  Al   0.107537
     7  Al   0.063130
     8  Al  -0.026799
     9  Al   0.010241
    10  Al   0.065680
    11  Al   0.108952
    12  Al  -0.003269
    13  Al   0.225713
    14  Al   0.186506
    15  Al   0.221727
    16  Al  -0.463203
    17  Al   0.181797
    18  Al   0.227072
 Sum of Mulliken atomic charges =   1.00000
 Mulliken charges with hydrogens summed into heavy atoms:
              1
     1  Al  -0.003697
     2  Al  -0.024940
     3  Al   0.063245
     4  Al  -0.004774
     5  Al   0.065083
     6  Al   0.107537
     7  Al   0.063130
     8  Al  -0.026799
     9  Al   0.010241
    10  Al   0.065680
    11  Al   0.108952
    12  Al  -0.003269
    13  Al   0.225713
    14  Al   0.186506
    15  Al   0.221727
    16  Al  -0.463203
    17  Al   0.181797
    18  Al   0.227072
 Sum of Mulliken charges with hydrogens summed into heavy atoms =   1.00000
          Atomic-Atomic Spin Densities.
              1          2          3          4          5          6
     1  Al  -0.051338   0.225804   0.116182  -0.013925   0.009267  -0.017355
     2  Al   0.225804  -0.474614  -0.030162   0.221871   0.017839   0.005086
     3  Al   0.116182  -0.030162   0.203677  -0.020641  -0.004435  -0.011214
     4  Al  -0.013925   0.221871  -0.020641  -0.033716  -0.065677  -0.001327
     5  Al   0.009267   0.017839  -0.004435  -0.065677  -0.037170   0.000870
     6  Al  -0.017355   0.005086  -0.011214  -0.001327   0.000870  -0.025719
     7  Al  -0.058816   0.007573   0.005656   0.008253   0.022218   0.003584
     8  Al   0.163437  -0.322275  -0.023431   0.157934   0.011971   0.013025
     9  Al   0.001512  -0.002320  -0.022887   0.003023  -0.000771   0.001145
    10  Al  -0.022017  -0.038153   0.027694   0.128061   0.013072   0.001837
    11  Al   0.000390   0.007958  -0.000003  -0.020605   0.002995  -0.001978
    12  Al   0.001319  -0.016684  -0.002396   0.004144  -0.019066   0.003729
    13  Al  -0.195878   0.163682  -0.013398  -0.016069  -0.011047   0.007093
    14  Al   0.006009   0.005061   0.010280  -0.015076  -0.003437  -0.003198
    15  Al  -0.019108   0.166549   0.008569  -0.204801   0.016265  -0.006343
    16  Al  -0.281292   0.187566   0.092258  -0.278533  -0.036253  -0.001234
    17  Al  -0.013761   0.004377  -0.041772   0.005684  -0.000219   0.007511
    18  Al  -0.000212   0.000073  -0.003129  -0.000123  -0.000366  -0.001814
              7          8          9         10         11         12
     1  Al  -0.058816   0.163437   0.001512  -0.022017   0.000390   0.001319
     2  Al   0.007573  -0.322275  -0.002320  -0.038153   0.007958  -0.016684
     3  Al   0.005656  -0.023431  -0.022887   0.027694  -0.000003  -0.002396
     4  Al   0.008253   0.157934   0.003023   0.128061  -0.020605   0.004144
     5  Al   0.022218   0.011971  -0.000771   0.013072   0.002995  -0.019066
     6  Al   0.003584   0.013025   0.001145   0.001837  -0.001978   0.003729
     7  Al  -0.038177   0.008733  -0.001160  -0.002747   0.000907  -0.014668
     8  Al   0.008733  -0.469110  -0.009820  -0.030248   0.017993  -0.004579
     9  Al  -0.001160  -0.009820  -0.007008  -0.025554   0.001495  -0.067467
    10  Al  -0.002747  -0.030248  -0.025554   0.184570  -0.009932  -0.011463
    11  Al   0.000907   0.017993   0.001495  -0.009932  -0.030203   0.004626
    12  Al  -0.014668  -0.004579  -0.067467  -0.011463   0.004626  -0.319476
    13  Al   0.016502   0.164331   0.000732   0.009290  -0.007627   0.000334
    14  Al  -0.001105   0.002590   0.036705  -0.013577   0.006531   0.195042
    15  Al  -0.009684   0.163699   0.000467  -0.012272   0.007325   0.000086
    16  Al  -0.032117   0.171592   0.041973   0.105110  -0.004193   0.020701
    17  Al  -0.002000   0.002127   0.051279   0.005460  -0.003187   0.188444
    18  Al  -0.000342   0.000477  -0.057483  -0.003083  -0.001402   0.006483
             13         14         15         16         17         18
     1  Al  -0.195878   0.006009  -0.019108  -0.281292  -0.013761  -0.000212
     2  Al   0.163682   0.005061   0.166549   0.187566   0.004377   0.000073
     3  Al  -0.013398   0.010280   0.008569   0.092258  -0.041772  -0.003129
     4  Al  -0.016069  -0.015076  -0.204801  -0.278533   0.005684  -0.000123
     5  Al  -0.011047  -0.003437   0.016265  -0.036253  -0.000219  -0.000366
     6  Al   0.007093  -0.003198  -0.006343  -0.001234   0.007511  -0.001814
     7  Al   0.016502  -0.001105  -0.009684  -0.032117  -0.002000  -0.000342
     8  Al   0.164331   0.002590   0.163699   0.171592   0.002127   0.000477
     9  Al   0.000732   0.036705   0.000467   0.041973   0.051279  -0.057483
    10  Al   0.009290  -0.013577  -0.012272   0.105110   0.005460  -0.003083
    11  Al  -0.007627   0.006531   0.007325  -0.004193  -0.003187  -0.001402
    12  Al   0.000334   0.195042   0.000086   0.020701   0.188444   0.006483
    13  Al   0.365576  -0.000435  -0.129516  -0.029703  -0.000042   0.000002
    14  Al  -0.000435   0.107213  -0.000030   0.000898  -0.365113   0.049561
    15  Al  -0.129516  -0.000030   0.309720  -0.025264  -0.000392   0.000001
    16  Al  -0.029703   0.000898  -0.025264   0.098510   0.008211   0.001099
    17  Al  -0.000042  -0.365113  -0.000392   0.008211   0.129221   0.032591
    18  Al   0.000002   0.049561   0.000001   0.001099   0.032591   0.183213
 Mulliken atomic spin densities:
              1
     1  Al  -0.149781
     2  Al   0.129232
     3  Al   0.290848
     4  Al  -0.141522
     5  Al  -0.083943
     6  Al  -0.026301
     7  Al  -0.087389
     8  Al   0.018445
     9  Al  -0.056140
    10  Al   0.306048
    11  Al  -0.028910
    12  Al  -0.030890
    13  Al   0.323827
    14  Al   0.017917
    15  Al   0.265268
    16  Al   0.039328
    17  Al   0.008419
    18  Al   0.205545
 Sum of Mulliken atomic spin densities =   1.00000
 Electronic spatial extent (au):  <R**2>=           9088.1890
 Charge=              1.0000 electrons
 Dipole moment (field-independent basis, Debye):
    X=             -0.4395    Y=              0.0712    Z=              1.4156  Tot=              1.4840
 Quadrupole moment (field-independent basis, Debye-Ang):
   XX=           -186.4825   YY=           -203.7997   ZZ=           -206.6528
   XY=             -0.1873   XZ=             -4.6884   YZ=             -0.0876
 Traceless Quadrupole moment (field-independent basis, Debye-Ang):
   XX=             12.4958   YY=             -4.8214   ZZ=             -7.6744
   XY=             -0.1873   XZ=             -4.6884   YZ=             -0.0876
 Octapole moment (field-independent basis, Debye-Ang**2):
  XXX=            -12.9485  YYY=              0.6998  ZZZ=             17.5764  XYY=              1.1418
  XXY=              1.7101  XXZ=             17.2713  XZZ=              8.4422  YZZ=              0.4098
  YYZ=              6.2342  XYZ=              0.1653
 Hexadecapole moment (field-independent basis, Debye-Ang**3):
 XXXX=          -8624.2375 YYYY=          -3151.5076 ZZZZ=          -3028.2956 XXXY=             -2.6487
 XXXZ=            -92.3058 YYYX=             -2.8912 YYYZ=              1.0242 ZZZX=            -37.1900
 ZZZY=              0.3489 XXYY=          -1960.1599 XXZZ=          -1996.2301 YYZZ=          -1027.0097
 XXYZ=             -2.6939 YYXZ=            -21.8057 ZZXY=             -0.5840
 N-N= 3.499475326852D+03 E-N=-2.606360532698D+04  KE= 6.529339187268D+03
                          Isotropic Fermi Contact Couplings
        Atom                 a.u.       MegaHertz       Gauss      10(-4) cm-1
     1  Al(27)            -0.07307     -85.16788     -30.39002     -28.40895
     2  Al(27)            -0.12957    -151.03025     -53.89135     -50.37827
     3  Al(27)             0.21876     254.99253      90.98767      85.05635
     4  Al(27)            -0.05742     -66.93171     -23.88290     -22.32602
     5  Al(27)            -0.02133     -24.86216      -8.87144      -8.29312
     6  Al(27)             0.00903      10.52966       3.75724       3.51232
     7  Al(27)            -0.02444     -28.49027     -10.16604      -9.50333
     8  Al(27)            -0.08917    -103.94435     -37.08993     -34.67210
     9  Al(27)            -0.02387     -27.81838      -9.92629      -9.27921
    10  Al(27)             0.21608     251.87093      89.87381      84.01510
    11  Al(27)             0.00801       9.33621       3.33139       3.11422
    12  Al(27)            -0.11249    -131.12665     -46.78925     -43.73914
    13  Al(27)             0.48030     559.85527     199.77028     186.74762
    14  Al(27)            -0.08742    -101.90357     -36.36173     -33.99137
    15  Al(27)             0.43337     505.14960     180.24993     168.49977
    16  Al(27)             0.00781       9.10702       3.24961       3.03777
    17  Al(27)            -0.06725     -78.39386     -27.97288     -26.14938
    18  Al(27)            -0.02953     -34.41766     -12.28108     -11.48050
 --------------------------------------------------------
       Center         ----  Spin Dipole Couplings  ----
                      3XX-RR        3YY-RR        3ZZ-RR
 --------------------------------------------------------
     1   Atom        0.051298     -0.088551      0.037253
     2   Atom        0.011041      0.063552     -0.074593
     3   Atom        0.134120      0.002495     -0.136615
     4   Atom        0.048870     -0.086686      0.037816
     5   Atom       -0.054387      0.030128      0.024260
     6   Atom       -0.040546     -0.000728      0.041274
     7   Atom       -0.057483      0.028958      0.028525
     8   Atom        0.018047     -0.005385     -0.012662
     9   Atom        0.013308     -0.005172     -0.008136
    10   Atom        0.152547     -0.005099     -0.147447
    11   Atom       -0.044942      0.002672      0.042270
    12   Atom       -0.005288     -0.001431      0.006719
    13   Atom       -0.031994      0.077072     -0.045078
    14   Atom        0.255999     -0.322829      0.066830
    15   Atom       -0.057042      0.096608     -0.039567
    16   Atom        0.035963      0.009189     -0.045152
    17   Atom        0.237799     -0.312595      0.074796
    18   Atom       -0.102836      0.202534     -0.099698
 --------------------------------------------------------
                        XY            XZ            YZ
 --------------------------------------------------------
     1   Atom       -0.126450      0.043309      0.017553
     2   Atom        0.004736      0.004224     -0.006936
     3   Atom       -0.062878     -0.035433      0.002283
     4   Atom        0.120124      0.036694     -0.008447
     5   Atom        0.008085      0.044583      0.018764
     6   Atom        0.021631     -0.004855     -0.003640
     7   Atom       -0.006656      0.043370     -0.018663
     8   Atom        0.002670     -0.020874     -0.000632
     9   Atom       -0.001472     -0.004148      0.000529
    10   Atom        0.060205     -0.040685     -0.010593
    11   Atom       -0.024760     -0.006028      0.006106
    12   Atom        0.004639      0.024950      0.000967
    13   Atom        0.257562     -0.027711     -0.067626
    14   Atom        0.089133      0.167300      0.047444
    15   Atom       -0.254953     -0.007214      0.061074
    16   Atom        0.003844     -0.016830     -0.002761
    17   Atom       -0.100359      0.159051     -0.028338
    18   Atom       -0.004445      0.015474     -0.023810
 --------------------------------------------------------


 ---------------------------------------------------------------------------------
              Anisotropic Spin Dipole Couplings in Principal Axis System
 ---------------------------------------------------------------------------------

       Atom             a.u.   MegaHertz   Gauss  10(-4) cm-1        Axes

              Baa    -0.1699   -23.634    -8.433    -7.884  0.5145  0.8387 -0.1787
     1 Al(27) Bbb     0.0353     4.911     1.753     1.638 -0.1644  0.3009  0.9394
              Bcc     0.1346    18.723     6.681     6.245  0.8416 -0.4539  0.2927
 
              Baa    -0.0752   -10.459    -3.732    -3.489 -0.0517  0.0516  0.9973
     2 Al(27) Bbb     0.0109     1.515     0.541     0.505  0.9951 -0.0821  0.0558
              Bcc     0.0643     8.944     3.192     2.983  0.0848  0.9953 -0.0471
 
              Baa    -0.1414   -19.678    -7.022    -6.564  0.1374  0.0443  0.9895
     3 Al(27) Bbb    -0.0217    -3.020    -1.078    -1.007  0.3548  0.9305 -0.0909
              Bcc     0.1631    22.698     8.099     7.571  0.9248 -0.3636 -0.1121
 
              Baa    -0.1602   -22.295    -7.956    -7.437 -0.5110  0.8496  0.1309
     4 Al(27) Bbb     0.0326     4.539     1.620     1.514 -0.1942 -0.2625  0.9452
              Bcc     0.1276    17.756     6.336     5.923  0.8374  0.4576  0.2991
 
              Baa    -0.0745   -10.367    -3.699    -3.458  0.9112  0.0035 -0.4119
     5 Al(27) Bbb     0.0156     2.173     0.776     0.725 -0.2411  0.8153 -0.5265
              Bcc     0.0589     8.194     2.924     2.733  0.3340  0.5790  0.7437
 
              Baa    -0.0501    -6.975    -2.489    -2.327  0.9164 -0.3988  0.0328
     6 Al(27) Bbb     0.0079     1.103     0.394     0.368  0.3895  0.9078  0.1558
              Bcc     0.0422     5.872     2.095     1.959 -0.0919 -0.1300  0.9872
 
              Baa    -0.0756   -10.514    -3.752    -3.507  0.9224 -0.0102 -0.3861
     7 Al(27) Bbb     0.0161     2.243     0.800     0.748  0.2182  0.8387  0.4990
              Bcc     0.0594     8.271     2.951     2.759  0.3188 -0.5445  0.7758
 
              Baa    -0.0232    -3.234    -1.154    -1.079  0.4527 -0.0362  0.8909
     8 Al(27) Bbb    -0.0056    -0.775    -0.277    -0.259 -0.0531  0.9963  0.0674
              Bcc     0.0288     4.009     1.431     1.337  0.8901  0.0778 -0.4491
 
              Baa    -0.0089    -1.242    -0.443    -0.414  0.1786 -0.0682  0.9816
     9 Al(27) Bbb    -0.0053    -0.734    -0.262    -0.245  0.0905  0.9945  0.0526
              Bcc     0.0142     1.976     0.705     0.659  0.9798 -0.0794 -0.1838
 
              Baa    -0.1529   -21.276    -7.592    -7.097  0.1284  0.0188  0.9915
    10 Al(27) Bbb    -0.0254    -3.533    -1.261    -1.178 -0.3157  0.9486  0.0229
              Bcc     0.1783    24.809     8.853     8.275  0.9401  0.3160 -0.1277
 
              Baa    -0.0556    -7.734    -2.760    -2.580  0.9211  0.3881  0.0325
    11 Al(27) Bbb     0.0112     1.555     0.555     0.519 -0.3688  0.8960 -0.2474
              Bcc     0.0444     6.179     2.205     2.061 -0.1252  0.2159  0.9684
 
              Baa    -0.0253    -3.525    -1.258    -1.176  0.7846 -0.1277 -0.6068
    12 Al(27) Bbb    -0.0015    -0.210    -0.075    -0.070  0.0211  0.9835 -0.1797
              Bcc     0.0268     3.735     1.333     1.246  0.6197  0.1281  0.7743
 
              Baa    -0.2431   -33.821   -12.068   -11.282  0.7628 -0.6371 -0.1108
    13 Al(27) Bbb    -0.0570    -7.925    -2.828    -2.643  0.2118  0.0842  0.9737
              Bcc     0.3000    41.746    14.896    13.925  0.6110  0.7662 -0.1992
 
              Baa    -0.3376   -46.974   -16.761   -15.669 -0.1311  0.9894 -0.0618
    14 Al(27) Bbb    -0.0307    -4.275    -1.525    -1.426 -0.5011 -0.0123  0.8653
              Bcc     0.3683    51.248    18.287    17.095  0.8554  0.1445  0.4974
 
              Baa    -0.2510   -34.930   -12.464   -11.651  0.7852  0.6016 -0.1470
    15 Al(27) Bbb    -0.0436    -6.062    -2.163    -2.022  0.2125 -0.0389  0.9764
              Bcc     0.2946    40.991    14.627    13.673 -0.5817  0.7978  0.1584
 
              Baa    -0.0486    -6.758    -2.411    -2.254  0.1937  0.0340  0.9805
    16 Al(27) Bbb     0.0087     1.204     0.429     0.401 -0.1430  0.9897 -0.0060
              Bcc     0.0399     5.555     1.982     1.853  0.9706  0.1390 -0.1965
 
              Baa    -0.3303   -45.960   -16.400   -15.331  0.1738  0.9848  0.0007
    17 Al(27) Bbb    -0.0199    -2.776    -0.990    -0.926 -0.4983  0.0874  0.8626
              Bcc     0.3503    48.736    17.390    16.256  0.8494 -0.1502  0.5059
 
              Baa    -0.1173   -16.327    -5.826    -5.446  0.7229 -0.0413 -0.6897
    18 Al(27) Bbb    -0.0872   -12.127    -4.327    -4.045  0.6907  0.0698  0.7198
              Bcc     0.2045    28.454    10.153     9.491 -0.0184  0.9967 -0.0789
 

 ---------------------------------------------------------------------------------


 Test job not archived.
 1\1\GINC-NODE3\SP\UHF\6-31G(d)\Al18(1+,2)\ROOT\29-Jun-2017\0\\#n hf/6-
 31G* test scf=xqc\\ccsdt-Al18-c-d-01\\1,2\Al,0,1.6588,2.2883,-0.134593
 \Al,0,2.640076,0.036629,1.304078\Al,0,-1.058511,2.373399,0.290778\Al,0
 ,1.667158,-2.285794,-0.003272\Al,0,0.632314,-1.337375,2.423248\Al,0,-0
 .02668,1.426812,-2.183872\Al,0,0.634787,1.477844,2.339654\Al,0,2.14926
 ,-0.046712,-1.762669\Al,0,-2.144177,-0.050926,-1.534678\Al,0,-1.049361
 ,-2.355502,0.421321\Al,0,-0.019617,-1.548146,-2.101169\Al,0,-1.646756,
 0.065922,2.130927\Al,0,4.247612,1.283869,-0.557917\Al,0,-3.535541,-1.3
 10805,0.609066\Al,0,4.259165,-1.314145,-0.487199\Al,0,0.126003,0.00294
 9,0.095407\Al,0,-3.541848,1.338309,0.532567\Al,0,-4.992683,-0.044628,-
 1.381676\\Version=EM64L-G09RevA.01\State=2-A\HF=-4354.0655032\S2=1.375
 819\S2-1=0.\S2A=1.207545\RMSD=1.422e-08\Dipole=-0.1729263,0.0280146,0.
 5569345\Quadrupole=9.2903391,-3.5845784,-5.7057607,-0.1392446,-3.48573
 61,-0.0651475\PG=C01 [X(Al18)]\\@


 THERE ARE PEOPLE SO ADDICTED TO EXAGERATING THEY
 CAN'T TELL THE TRUTH WITHOUT LYING. -- FORTUNE COOKIE
 Job cpu time:  0 days  4 hours 21 minutes 49.3 seconds.
 File lengths (MBytes):  RWF=     83 Int=      0 D2E=      0 Chk=      8 Scr=      1
 Normal termination of Gaussian 09 at Thu Jun 29 17:01:24 2017.
 Initial command:
 /share/apps/Gaussian/g09/l1.exe /state/partition1/u2/422.hpcc.tdt.edu.vn/Gau-9913.inp -scrdir=/state/partition1/u2/422.hpcc.tdt.edu.vn/
 Entering Link 1 = /share/apps/Gaussian/g09/l1.exe PID=     10393.
  
 Copyright (c) 1988,1990,1992,1993,1995,1998,2003,2009, Gaussian, Inc.
                  All Rights Reserved.
  
 This is part of the Gaussian(R) 09 program.  It is based on
 the Gaussian(R) 03 system (copyright 2003, Gaussian, Inc.),
 the Gaussian(R) 98 system (copyright 1998, Gaussian, Inc.),
 the Gaussian(R) 94 system (copyright 1995, Gaussian, Inc.),
 the Gaussian 92(TM) system (copyright 1992, Gaussian, Inc.),
 the Gaussian 90(TM) system (copyright 1990, Gaussian, Inc.),
 the Gaussian 88(TM) system (copyright 1988, Gaussian, Inc.),
 the Gaussian 86(TM) system (copyright 1986, Carnegie Mellon
 University), and the Gaussian 82(TM) system (copyright 1983,
 Carnegie Mellon University). Gaussian is a federally registered
 trademark of Gaussian, Inc.
  
 This software contains proprietary and confidential information,
 including trade secrets, belonging to Gaussian, Inc.
  
 This software is provided under written license and may be
 used, copied, transmitted, or stored only in accord with that
 written license.
  
 The following legend is applicable only to US Government
 contracts under FAR:
  
                    RESTRICTED RIGHTS LEGEND
  
 Use, reproduction and disclosure by the US Government is
 subject to restrictions as set forth in subparagraphs (a)
 and (c) of the Commercial Computer Software - Restricted
 Rights clause in FAR 52.227-19.
  
 Gaussian, Inc.
 340 Quinnipiac St., Bldg. 40, Wallingford CT 06492
  
  
 ---------------------------------------------------------------
 Warning -- This program may not be used in any manner that
 competes with the business of Gaussian, Inc. or will provide
 assistance to any competitor of Gaussian, Inc.  The licensee
 of this program is prohibited from giving any competitor of
 Gaussian, Inc. access to this program.  By using this program,
 the user acknowledges that Gaussian, Inc. is engaged in the
 business of creating and licensing software in the field of
 computational chemistry and represents and warrants to the
 licensee that it is not a competitor of Gaussian, Inc. and that
 it will not use this program in any manner prohibited above.
 ---------------------------------------------------------------
  

 Cite this work as:
 Gaussian 09, Revision A.01,
 M. J. Frisch, G. W. Trucks, H. B. Schlegel, G. E. Scuseria, 
 M. A. Robb, J. R. Cheeseman, G. Scalmani, V. Barone, B. Mennucci, 
 G. A. Petersson, H. Nakatsuji, M. Caricato, X. Li, H. P. Hratchian, 
 A. F. Izmaylov, J. Bloino, G. Zheng, J. L. Sonnenberg, M. Hada, 
 M. Ehara, K. Toyota, R. Fukuda, J. Hasegawa, M. Ishida, T. Nakajima, 
 Y. Honda, O. Kitao, H. Nakai, T. Vreven, J. A. Montgomery, Jr., 
 J. E. Peralta, F. Ogliaro, M. Bearpark, J. J. Heyd, E. Brothers, 
 K. N. Kudin, V. N. Staroverov, R. Kobayashi, J. Normand, 
 K. Raghavachari, A. Rendell, J. C. Burant, S. S. Iyengar, J. Tomasi, 
 M. Cossi, N. Rega, J. M. Millam, M. Klene, J. E. Knox, J. B. Cross, 
 V. Bakken, C. Adamo, J. Jaramillo, R. Gomperts, R. E. Stratmann, 
 O. Yazyev, A. J. Austin, R. Cammi, C. Pomelli, J. W. Ochterski, 
 R. L. Martin, K. Morokuma, V. G. Zakrzewski, G. A. Voth, 
 P. Salvador, J. J. Dannenberg, S. Dapprich, A. D. Daniels, 
 O. Farkas, J. B. Foresman, J. V. Ortiz, J. Cioslowski, 
 and D. J. Fox, Gaussian, Inc., Wallingford CT, 2009.
 
 ******************************************
 Gaussian 09:  EM64L-G09RevA.01  8-May-2009
                29-Jun-2017 
 ******************************************
 %Nprocshared=36
 Will use up to   36 processors via shared memory.
 %nproc=36
 Will use up to   36 processors via shared memory.
 %mem=61200MB
 %chk=ccsdt-Al18-c-d.chk
 --------------------------------------------------------
 # ccsd(t,conver=5)/cc-pvtz test geom=allcheck guess=read
 --------------------------------------------------------
 1/29=7,38=1/1;
 2/12=2,40=1/2;
 3/5=16,6=1,11=9,14=-4,16=1,25=1,30=1,116=-2/1,2,3;
 4/5=1/1;
 5/5=2,38=6/2;
 8/6=4,9=120000,10=1/1,4;
 9/5=7,9=5,14=2/13;
 6/7=2,8=2,9=2,10=2/1;
 99/5=1,9=1/99;
 -----------------
 ccsdt-Al18-c-d-01
 -----------------
 Z-Matrix taken from the checkpoint file:
 ccsdt-Al18-c-d.chk
 Charge =  1 Multiplicity = 2
 Al,0,1.6588,2.2883,-0.134593
 Al,0,2.640076,0.036629,1.304078
 Al,0,-1.058511,2.373399,0.290778
 Al,0,1.667158,-2.285794,-0.003272
 Al,0,0.632314,-1.337375,2.423248
 Al,0,-0.02668,1.426812,-2.183872
 Al,0,0.634787,1.477844,2.339654
 Al,0,2.14926,-0.046712,-1.762669
 Al,0,-2.144177,-0.050926,-1.534678
 Al,0,-1.049361,-2.355502,0.421321
 Al,0,-0.019617,-1.548146,-2.101169
 Al,0,-1.646756,0.065922,2.130927
 Al,0,4.247612,1.283869,-0.557917
 Al,0,-3.535541,-1.310805,0.609066
 Al,0,4.259165,-1.314145,-0.487199
 Al,0,0.126003,0.002949,0.095407
 Al,0,-3.541848,1.338309,0.532567
 Al,0,-4.992683,-0.044628,-1.381676
 Recover connectivity data from disk.
                          Input orientation:                          
 ---------------------------------------------------------------------
 Center     Atomic      Atomic             Coordinates (Angstroms)
 Number     Number       Type             X           Y           Z
 ---------------------------------------------------------------------
      1         13           0        1.658800    2.288300   -0.134593
      2         13           0        2.640076    0.036629    1.304078
      3         13           0       -1.058511    2.373399    0.290778
      4         13           0        1.667158   -2.285794   -0.003272
      5         13           0        0.632314   -1.337375    2.423248
      6         13           0       -0.026680    1.426812   -2.183872
      7         13           0        0.634787    1.477844    2.339654
      8         13           0        2.149260   -0.046712   -1.762669
      9         13           0       -2.144177   -0.050926   -1.534678
     10         13           0       -1.049361   -2.355502    0.421321
     11         13           0       -0.019617   -1.548146   -2.101169
     12         13           0       -1.646756    0.065922    2.130927
     13         13           0        4.247612    1.283869   -0.557917
     14         13           0       -3.535541   -1.310805    0.609066
     15         13           0        4.259165   -1.314145   -0.487199
     16         13           0        0.126003    0.002949    0.095407
     17         13           0       -3.541848    1.338309    0.532567
     18         13           0       -4.992683   -0.044628   -1.381676
 ---------------------------------------------------------------------
                    Distance matrix (angstroms):
                    1          2          3          4          5
     1  Al   0.000000
     2  Al   2.846524   0.000000
     3  Al   2.751720   4.490748   0.000000
     4  Al   4.575986   2.837143   5.405906   0.000000
     5  Al   4.554310   2.677973   4.601756   2.803284   0.000000
     6  Al   2.789722   4.605431   2.843342   4.626829   5.412999
     7  Al   2.797738   2.677817   2.804848   4.551930   2.816461
     8  Al   2.888505   3.106893   4.512580   2.888146   4.635605
     9  Al   4.679193   5.563747   3.223090   4.676122   5.002902
    10  Al   5.404449   4.484807   4.730711   2.750384   2.805766
    11  Al   4.626318   4.602302   4.709483   2.791148   4.576001
    12  Al   4.582384   4.365944   3.009424   4.589924   2.692370
    13  Al   2.808920   2.758044   5.482910   4.439467   5.369231
    14  Al   6.363000   6.358999   4.450881   5.328568   4.545655
    15  Al   4.456887   2.766715   6.517738   2.810122   4.650300
    16  Al   2.761376   2.789728   2.657118   2.761022   2.733434
    17  Al   5.328633   6.364415   2.701266   6.368280   5.306372
    18  Al   7.158212   8.091903   4.911381   7.160748   6.912976
                    6          7          8          9         10
     6  Al   0.000000
     7  Al   4.571918   0.000000
     8  Al   2.661466   4.631086   0.000000
     9  Al   2.662509   5.007018   4.299488   0.000000
    10  Al   4.705189   4.605529   4.509046   3.214907   0.000000
    11  Al   2.976116   5.413480   2.659495   2.660138   2.841681
    12  Al   4.805638   2.691195   5.438981   3.701046   3.023727
    13  Al   4.575340   4.635305   2.761332   6.602326   6.500912
    14  Al   5.254251   5.306895   6.288086   2.849356   2.703282
    15  Al   5.362836   5.377957   2.772167   6.610274   5.485461
    16  Al   2.691804   2.733280   2.747450   2.795317   2.655182
    17  Al   4.443341   4.552946   6.290874   2.856039   4.457478
    18  Al   5.241168   6.916259   7.152098   2.852619   4.913321
                   11         12         13         14         15
    11  Al   0.000000
    12  Al   4.812840   0.000000
    13  Al   5.348942   6.592181   0.000000
    14  Al   4.445608   2.789076   8.286836   0.000000
    15  Al   4.579043   6.605988   2.599002   7.871420   0.000000
    16  Al   2.692962   2.699997   4.365232   3.923863   4.376893
    17  Al   5.260637   2.786592   7.865609   2.650226   8.302484
    18  Al   5.244962   4.852404   9.371581   2.772999   9.381282
                   16         17         18
    16  Al   0.000000
    17  Al   3.927776   0.000000
    18  Al   5.327756   2.771599   0.000000
 Stoichiometry    Al18(1+,2)
 Framework group  C1[X(Al18)]
 Deg. of freedom    48
 Full point group                 C1      NOp   1
 Largest Abelian subgroup         C1      NOp   1
 Largest concise Abelian subgroup C1      NOp   1
                         Standard orientation:                         
 ---------------------------------------------------------------------
 Center     Atomic      Atomic             Coordinates (Angstroms)
 Number     Number       Type             X           Y           Z
 ---------------------------------------------------------------------
      1         13           0        1.658800    2.288300   -0.134593
      2         13           0        2.640076    0.036629    1.304078
      3         13           0       -1.058511    2.373399    0.290778
      4         13           0        1.667158   -2.285794   -0.003272
      5         13           0        0.632314   -1.337375    2.423248
      6         13           0       -0.026680    1.426812   -2.183872
      7         13           0        0.634787    1.477844    2.339654
      8         13           0        2.149260   -0.046712   -1.762669
      9         13           0       -2.144177   -0.050926   -1.534678
     10         13           0       -1.049361   -2.355502    0.421321
     11         13           0       -0.019617   -1.548146   -2.101169
     12         13           0       -1.646756    0.065922    2.130927
     13         13           0        4.247612    1.283869   -0.557917
     14         13           0       -3.535541   -1.310805    0.609066
     15         13           0        4.259165   -1.314145   -0.487199
     16         13           0        0.126003    0.002949    0.095407
     17         13           0       -3.541848    1.338309    0.532567
     18         13           0       -4.992683   -0.044628   -1.381676
 ---------------------------------------------------------------------
 Rotational constants (GHZ):      0.2580664      0.1254886      0.1243975
 Standard basis: CC-pVTZ (5D, 7F)
 There are   612 symmetry adapted basis functions of A   symmetry.
 Integral buffers will be    131072 words long.
 Raffenetti 2 integral format.
 Two-electron integral symmetry is turned on.
   612 basis functions,  1710 primitive gaussians,   702 cartesian basis functions
   117 alpha electrons      116 beta electrons
       nuclear repulsion energy      3499.4753268520 Hartrees.
 NAtoms=   18 NActive=   18 NUniq=   18 SFac= 7.50D-01 NAtFMM=   80 NAOKFM=F Big=F
 One-electron integrals computed using PRISM.
 NBasis=   612 RedAO= T  NBF=   612
 NBsUse=   612 1.00D-06 NBFU=   612
 Initial guess read from the checkpoint file:  ccsdt-Al18-c-d.chk
 B after Tr=     0.000000    0.000000    0.000000
         Rot=    1.000000    0.000000    0.000000    0.000000 Ang=   0.00 deg.
 Initial guess orbital symmetries:
 Alpha Orbitals:
       Occupied  (A) (A) (A) (A) (A) (A) (A) (A) (A) (A) (A) (A)
                 (A) (A) (A) (A) (A) (A) (A) (A) (A) (A) (A) (A)
                 (A) (A) (A) (A) (A) (A) (A) (A) (A) (A) (A) (A)
                 (A) (A) (A) (A) (A) (A) (A) (A) (A) (A) (A) (A)
                 (A) (A) (A) (A) (A) (A) (A) (A) (A) (A) (A) (A)
                 (A) (A) (A) (A) (A) (A) (A) (A) (A) (A) (A) (A)
                 (A) (A) (A) (A) (A) (A) (A) (A) (A) (A) (A) (A)
                 (A) (A) (A) (A) (A) (A) (A) (A) (A) (A) (A) (A)
                 (A) (A) (A) (A) (A) (A) (A) (A) (A) (A) (A) (A)
                 (A) (A) (A) (A) (A) (A) (A) (A) (A)
       Virtual   (A) (A) (A) (A) (A) (A) (A) (A) (A) (A) (A) (A)
                 (A) (A) (A) (A) (A) (A) (A) (A) (A) (A) (A) (A)
                 (A) (A) (A) (A) (A) (A) (A) (A) (A) (A) (A) (A)
                 (A) (A) (A) (A) (A) (A) (A) (A) (A) (A) (A) (A)
                 (A) (A) (A) (A) (A) (A) (A) (A) (A) (A) (A) (A)
                 (A) (A) (A) (A) (A) (A) (A) (A) (A) (A) (A) (A)
                 (A) (A) (A) (A) (A) (A) (A) (A) (A) (A) (A) (A)
                 (A) (A) (A) (A) (A) (A) (A) (A) (A) (A) (A) (A)
                 (A) (A) (A) (A) (A) (A) (A) (A) (A) (A) (A) (A)
                 (A) (A) (A) (A) (A) (A) (A) (A) (A) (A) (A) (A)
                 (A) (A) (A) (A) (A) (A) (A) (A) (A) (A) (A) (A)
                 (A) (A) (A) (A) (A) (A) (A) (A) (A) (A) (A) (A)
                 (A) (A) (A) (A) (A) (A) (A) (A) (A) (A) (A) (A)
                 (A) (A) (A) (A) (A) (A) (A) (A) (A) (A) (A) (A)
                 (A) (A) (A) (A) (A) (A) (A) (A) (A) (A) (A) (A)
                 (A) (A) (A) (A) (A) (A) (A) (A) (A) (A) (A) (A)
                 (A) (A) (A) (A) (A) (A) (A) (A) (A) (A) (A) (A)
                 (A) (A) (A) (A) (A) (A) (A) (A) (A) (A) (A) (A)
                 (A) (A) (A) (A) (A) (A) (A) (A) (A) (A) (A) (A)
                 (A) (A) (A) (A) (A) (A) (A) (A) (A) (A) (A) (A)
                 (A) (A) (A) (A) (A) (A) (A) (A) (A) (A) (A) (A)
                 (A) (A) (A) (A) (A) (A) (A) (A) (A) (A) (A) (A)
                 (A) (A) (A) (A) (A) (A) (A) (A) (A) (A) (A) (A)
                 (A) (A) (A) (A) (A) (A) (A) (A) (A) (A) (A) (A)
                 (A) (A) (A) (A) (A) (A) (A) (A) (A) (A) (A) (A)
                 (A) (A) (A) (A) (A) (A) (A) (A) (A) (A) (A) (A)
                 (A) (A) (A) (A) (A) (A) (A) (A) (A) (A) (A) (A)
                 (A) (A) (A) (A) (A) (A) (A) (A) (A) (A) (A) (A)
                 (A) (A) (A) (A) (A) (A) (A) (A) (A) (A) (A) (A)
                 (A) (A) (A) (A) (A) (A) (A) (A) (A) (A) (A) (A)
                 (A) (A) (A) (A) (A) (A) (A) (A) (A) (A) (A) (A)
                 (A) (A) (A) (A) (A) (A) (A) (A) (A) (A) (A) (A)
                 (A) (A) (A) (A) (A) (A) (A) (A) (A) (A) (A) (A)
                 (A) (A) (A) (A) (A) (A) (A) (A) (A) (A) (A) (A)
                 (A) (A) (A) (A) (A) (A) (A) (A) (A) (A) (A) (A)
                 (A) (A) (A) (A) (A) (A) (A) (A) (A) (A) (A) (A)
                 (A) (A) (A) (A) (A) (A) (A) (A) (A) (A) (A) (A)
                 (A) (A) (A) (A) (A) (A) (A) (A) (A) (A) (A) (A)
                 (A) (A) (A) (A) (A) (A) (A) (A) (A) (A) (A) (A)
                 (A) (A) (A) (A) (A) (A) (A) (A) (A) (A) (A) (A)
                 (A) (A) (A) (A) (A) (A) (A) (A) (A) (A) (A) (A)
                 (A) (A) (A)
 Beta  Orbitals:
       Occupied  (A) (A) (A) (A) (A) (A) (A) (A) (A) (A) (A) (A)
                 (A) (A) (A) (A) (A) (A) (A) (A) (A) (A) (A) (A)
                 (A) (A) (A) (A) (A) (A) (A) (A) (A) (A) (A) (A)
                 (A) (A) (A) (A) (A) (A) (A) (A) (A) (A) (A) (A)
                 (A) (A) (A) (A) (A) (A) (A) (A) (A) (A) (A) (A)
                 (A) (A) (A) (A) (A) (A) (A) (A) (A) (A) (A) (A)
                 (A) (A) (A) (A) (A) (A) (A) (A) (A) (A) (A) (A)
                 (A) (A) (A) (A) (A) (A) (A) (A) (A) (A) (A) (A)
                 (A) (A) (A) (A) (A) (A) (A) (A) (A) (A) (A) (A)
                 (A) (A) (A) (A) (A) (A) (A) (A)
       Virtual   (A) (A) (A) (A) (A) (A) (A) (A) (A) (A) (A) (A)
                 (A) (A) (A) (A) (A) (A) (A) (A) (A) (A) (A) (A)
                 (A) (A) (A) (A) (A) (A) (A) (A) (A) (A) (A) (A)
                 (A) (A) (A) (A) (A) (A) (A) (A) (A) (A) (A) (A)
                 (A) (A) (A) (A) (A) (A) (A) (A) (A) (A) (A) (A)
                 (A) (A) (A) (A) (A) (A) (A) (A) (A) (A) (A) (A)
                 (A) (A) (A) (A) (A) (A) (A) (A) (A) (A) (A) (A)
                 (A) (A) (A) (A) (A) (A) (A) (A) (A) (A) (A) (A)
                 (A) (A) (A) (A) (A) (A) (A) (A) (A) (A) (A) (A)
                 (A) (A) (A) (A) (A) (A) (A) (A) (A) (A) (A) (A)
                 (A) (A) (A) (A) (A) (A) (A) (A) (A) (A) (A) (A)
                 (A) (A) (A) (A) (A) (A) (A) (A) (A) (A) (A) (A)
                 (A) (A) (A) (A) (A) (A) (A) (A) (A) (A) (A) (A)
                 (A) (A) (A) (A) (A) (A) (A) (A) (A) (A) (A) (A)
                 (A) (A) (A) (A) (A) (A) (A) (A) (A) (A) (A) (A)
                 (A) (A) (A) (A) (A) (A) (A) (A) (A) (A) (A) (A)
                 (A) (A) (A) (A) (A) (A) (A) (A) (A) (A) (A) (A)
                 (A) (A) (A) (A) (A) (A) (A) (A) (A) (A) (A) (A)
                 (A) (A) (A) (A) (A) (A) (A) (A) (A) (A) (A) (A)
                 (A) (A) (A) (A) (A) (A) (A) (A) (A) (A) (A) (A)
                 (A) (A) (A) (A) (A) (A) (A) (A) (A) (A) (A) (A)
                 (A) (A) (A) (A) (A) (A) (A) (A) (A) (A) (A) (A)
                 (A) (A) (A) (A) (A) (A) (A) (A) (A) (A) (A) (A)
                 (A) (A) (A) (A) (A) (A) (A) (A) (A) (A) (A) (A)
                 (A) (A) (A) (A) (A) (A) (A) (A) (A) (A) (A) (A)
                 (A) (A) (A) (A) (A) (A) (A) (A) (A) (A) (A) (A)
                 (A) (A) (A) (A) (A) (A) (A) (A) (A) (A) (A) (A)
                 (A) (A) (A) (A) (A) (A) (A) (A) (A) (A) (A) (A)
                 (A) (A) (A) (A) (A) (A) (A) (A) (A) (A) (A) (A)
                 (A) (A) (A) (A) (A) (A) (A) (A) (A) (A) (A) (A)
                 (A) (A) (A) (A) (A) (A) (A) (A) (A) (A) (A) (A)
                 (A) (A) (A) (A) (A) (A) (A) (A) (A) (A) (A) (A)
                 (A) (A) (A) (A) (A) (A) (A) (A) (A) (A) (A) (A)
                 (A) (A) (A) (A) (A) (A) (A) (A) (A) (A) (A) (A)
                 (A) (A) (A) (A) (A) (A) (A) (A) (A) (A) (A) (A)
                 (A) (A) (A) (A) (A) (A) (A) (A) (A) (A) (A) (A)
                 (A) (A) (A) (A) (A) (A) (A) (A) (A) (A) (A) (A)
                 (A) (A) (A) (A) (A) (A) (A) (A) (A) (A) (A) (A)
                 (A) (A) (A) (A) (A) (A) (A) (A) (A) (A) (A) (A)
                 (A) (A) (A) (A) (A) (A) (A) (A) (A) (A) (A) (A)
                 (A) (A) (A) (A) (A) (A) (A) (A) (A) (A) (A) (A)
                 (A) (A) (A) (A)
 Initial guess <Sx>= 0.0000 <Sy>= 0.0000 <Sz>= 0.5000 <S**2>= 1.3950 S= 0.7826
 Requested convergence on RMS density matrix=1.00D-08 within 128 cycles.
 Requested convergence on MAX density matrix=1.00D-06.
 Requested convergence on             energy=1.00D-06.
 No special actions if energy rises.
 Restarting incremental Fock formation.
 SCF Done:  E(UHF) =  -4354.45430503     A.U. after   32 cycles
             Convg  =    0.4907D-08             -V/T =  1.9999
 <Sx>= 0.0000 <Sy>= 0.0000 <Sz>= 0.5000 <S**2>= 1.4772 S= 0.8142
 <L.S>= 0.000000000000E+00
 Annihilation of the first spin contaminant:
 S**2 before annihilation     1.4772,   after     1.4043
 DiagDN has N=   612 LTot=  1868 but NE2=     3 cannot use DSYEVD.
 ExpMin= 5.56D-02 ExpMax= 2.06D+05 ExpMxC= 1.99D+03 IAcc=3 IRadAn=         5 AccDes= 0.00D+00
 HarFok:  IExCor=  205 AccDes= 0.00D+00 IRadAn=         5 IDoV=-2
 ScaDFX=  1.000000  1.000000  1.000000  1.000000
 Range of M.O.s used for correlation:    91   612
 NBasis=   612 NAE=   117 NBE=   116 NFC=    90 NFV=     0
 NROrb=    522 NOA=    27 NOB=    26 NVA=   495 NVB=   496

 **** Warning!!: The largest alpha MO coefficient is  0.48454570D+02


 **** Warning!!: The largest beta MO coefficient is  0.48454957D+02

 Semi-Direct transformation.
 ModeAB=           4 MOrb=            27 LenV=    8012119488
 LASXX=   1860362856 LTotXX=  1860362856 LenRXX=  3736323585
 LTotAB=  1875960729 MaxLAS=  3301392654 LenRXY=           0
 NonZer=  5596686441 LenScr= 11237268480 LnRSAI=  3301392654
 LnScr1=  6628678656 LExtra=           0 Total=  24903663375
 MaxDsk=          -1 SrtSym=           T ITran=            4
 JobTyp=1 Pass  1:  I=   1 to  27.
 (rs|ai) integrals will be sorted in core.
 ModeAB=           4 MOrb=            26 LenV=    8012119488
 LASXX=   1793560951 LTotXX=  1793560951 LenRXX=  3419762671
 LTotAB=  1626201720 MaxLAS=  3179118852 LenRXY=           0
 NonZer=  5213323622 LenScr= 10467536384 LnRSAI=  3179118852
 LnScr1=  6383172096 LExtra=           0 Total=  23449590003
 MaxDsk=          -1 SrtSym=           T ITran=            4
 JobTyp=2 Pass  1:  I=   1 to  26.
 (rs|ai) integrals will be sorted in core.
 SymMOI:  orbitals are not symmetric.
 Spin components of T(2) and E(2):
     alpha-alpha T2 =       0.2840190051D+00 E2=     -0.2642036071D+00
     alpha-beta  T2 =       0.1089542009D+01 E2=     -0.1174142120D+01
     beta-beta   T2 =       0.2820567503D+00 E2=     -0.2595949336D+00
 ANorm=    0.1629606629D+01
 E2 =    -0.1697940661D+01 EUMP2 =    -0.43561522456866D+04
 (S**2,0)=  0.14772D+01           (S**2,1)=  0.13044D+01
 E(PUHF)=      -0.43544807734D+04        E(PMP2)=      -0.43561765958D+04
 Would need an additional     53039398519 words for in-memory AO integral storage.
 Iterations=  50 Convergence= 0.100D-04
 Iteration Nr.   1
 **********************
 DD1Dir will call FoFDir   5 times, MxPair=       416
 NAB=   702 NAA=   351 NBB=   325 NumPrc= 36.
 Integrals replicated using symmetry in FoFDir.
 MinBra= 0 MaxBra= 3 Meth= 1.
 IRaf=       0 NMat= 416 IRICut=     520 DoRegI=T DoRafI=T ISym2E= 2 JSym2E=2.
 E(PMP3)=      -0.43558743148D+04
 MP4(R+Q)=  0.99175024D-01
 E3=        0.29789654D+00        EUMP3=      -0.43558543491D+04
 E4(DQ)=   -0.21938143D+00        UMP4(DQ)=   -0.43560737306D+04
 E4(SDQ)=  -0.25928662D+00        UMP4(SDQ)=  -0.43561136358D+04
 DE(Corr)=  -1.3019724     E(Corr)=     -4355.7562775    
 NORM(A)=   0.14379640D+01
 Iteration Nr.   2
 **********************
 DD1Dir will call FoFDir   5 times, MxPair=       416
 NAB=   702 NAA=   351 NBB=   325 NumPrc= 36.
 DE(Corr)=  -1.5718465     E(CORR)=     -4356.0261515     Delta=-2.70D-01
 NORM(A)=   0.15203951D+01
 Iteration Nr.   3
 **********************
 DD1Dir will call FoFDir   5 times, MxPair=       416
 NAB=   702 NAA=   351 NBB=   325 NumPrc= 36.
 DE(Corr)=  -1.5022307     E(CORR)=     -4355.9565357     Delta= 6.96D-02
 NORM(A)=   0.15437614D+01
 Iteration Nr.   4
 **********************
 DD1Dir will call FoFDir   5 times, MxPair=       416
 NAB=   702 NAA=   351 NBB=   325 NumPrc= 36.
 DE(Corr)=  -1.5190619     E(CORR)=     -4355.9733670     Delta=-1.68D-02
 NORM(A)=   0.15580815D+01
 Iteration Nr.   5
 **********************
 DD1Dir will call FoFDir   5 times, MxPair=       416
 NAB=   702 NAA=   351 NBB=   325 NumPrc= 36.
 DE(Corr)=  -1.5240587     E(CORR)=     -4355.9783638     Delta=-5.00D-03
 NORM(A)=   0.15783197D+01
 Iteration Nr.   6
 **********************
 DD1Dir will call FoFDir   5 times, MxPair=       416
 NAB=   702 NAA=   351 NBB=   325 NumPrc= 36.
 DE(Corr)=  -1.5245760     E(CORR)=     -4355.9788810     Delta=-5.17D-04
 NORM(A)=   0.15885311D+01
 Iteration Nr.   7
 **********************
 DD1Dir will call FoFDir   5 times, MxPair=       416
 NAB=   702 NAA=   351 NBB=   325 NumPrc= 36.
 DE(Corr)=  -1.5249955     E(CORR)=     -4355.9793005     Delta=-4.19D-04
 NORM(A)=   0.15893858D+01
 Iteration Nr.   8
 **********************
 DD1Dir will call FoFDir   5 times, MxPair=       416
 NAB=   702 NAA=   351 NBB=   325 NumPrc= 36.
 DE(Corr)=  -1.5268987     E(CORR)=     -4355.9812037     Delta=-1.90D-03
 NORM(A)=   0.15923841D+01
 Iteration Nr.   9
 **********************
 DD1Dir will call FoFDir   5 times, MxPair=       416
 NAB=   702 NAA=   351 NBB=   325 NumPrc= 36.
 DE(Corr)=  -1.5252806     E(CORR)=     -4355.9795857     Delta= 1.62D-03
 NORM(A)=   0.15926953D+01
 Iteration Nr.  10
 **********************
 DD1Dir will call FoFDir   5 times, MxPair=       416
 NAB=   702 NAA=   351 NBB=   325 NumPrc= 36.
[...]
  Beta virt. eigenvalues --    0.22654   0.23198   0.23443   0.23455   0.24318
  Beta virt. eigenvalues --    0.24354   0.24685   0.24840   0.25182   0.25936
  Beta virt. eigenvalues --    0.26352   0.26998   0.27062   0.27439   0.27554
  Beta virt. eigenvalues --    0.27773   0.28428   0.28528   0.29353   0.29450
  Beta virt. eigenvalues --    0.30517   0.30753   0.30963   0.31012   0.32321
  Beta virt. eigenvalues --    0.32668   0.32876   0.33559   0.34112   0.34373
  Beta virt. eigenvalues --    0.34433   0.34632   0.35452   0.36098   0.36664
  Beta virt. eigenvalues --    0.36986   0.37326   0.37393   0.37661   0.38568
  Beta virt. eigenvalues --    0.38790   0.38967   0.39028   0.39105   0.39218
  Beta virt. eigenvalues --    0.39356   0.39702   0.40082   0.40643   0.40685
  Beta virt. eigenvalues --    0.41167   0.41958   0.42336   0.42659   0.42903
  Beta virt. eigenvalues --    0.43313   0.43401   0.43722   0.44212   0.44371
  Beta virt. eigenvalues --    0.44610   0.44837   0.45662   0.46509   0.47173
  Beta virt. eigenvalues --    0.47237   0.47751   0.47932   0.48564   0.49513
  Beta virt. eigenvalues --    0.50187   0.50416   0.50594   0.50703   0.50892
  Beta virt. eigenvalues --    0.51200   0.51673   0.51859   0.52548   0.52836
  Beta virt. eigenvalues --    0.52876   0.53365   0.54071   0.54469   0.54579
  Beta virt. eigenvalues --    0.55048   0.55430   0.55616   0.56472   0.57005
  Beta virt. eigenvalues --    0.57422   0.57902   0.58051   0.58329   0.58745
  Beta virt. eigenvalues --    0.59540   0.59575   0.60314   0.60350   0.61147
  Beta virt. eigenvalues --    0.61434   0.61620   0.62614   0.62697   0.62811
  Beta virt. eigenvalues --    0.63222   0.63362   0.63410   0.64288   0.65433
  Beta virt. eigenvalues --    0.65723   0.65725   0.66155   0.66715   0.68079
  Beta virt. eigenvalues --    0.68489   0.68974   0.69017   0.69495   0.69789
  Beta virt. eigenvalues --    0.70813   0.70861   0.71263   0.72369   0.72953
  Beta virt. eigenvalues --    0.73386   0.74128   0.74258   0.74568   0.74632
  Beta virt. eigenvalues --    0.75547   0.75871   0.76430   0.77050   0.77224
  Beta virt. eigenvalues --    0.77771   0.77975   0.78360   0.78557   0.78960
  Beta virt. eigenvalues --    0.79667   0.80042   0.80244   0.80274   0.80609
  Beta virt. eigenvalues --    0.81525   0.81561   0.82189   0.82691   0.82954
  Beta virt. eigenvalues --    0.83042   0.83262   0.84132   0.84402   0.84449
  Beta virt. eigenvalues --    0.84744   0.85189   0.85265   0.85656   0.86066
  Beta virt. eigenvalues --    0.86274   0.86672   0.86954   0.87757   0.88083
  Beta virt. eigenvalues --    0.88343   0.88468   0.89014   0.89222   0.89257
  Beta virt. eigenvalues --    0.89590   0.90023   0.90384   0.90678   0.90827
  Beta virt. eigenvalues --    0.90846   0.91509   0.91575   0.92263   0.92866
  Beta virt. eigenvalues --    0.93498   0.93615   0.94027   0.94251   0.94600
  Beta virt. eigenvalues --    0.95140   0.95365   0.95532   0.96185   0.96637
  Beta virt. eigenvalues --    0.96695   0.96820   0.97474   0.97896   0.98100
  Beta virt. eigenvalues --    0.98543   0.99038   0.99272   0.99380   0.99576
  Beta virt. eigenvalues --    1.00296   1.00970   1.01120   1.02151   1.02208
  Beta virt. eigenvalues --    1.02969   1.03301   1.03769   1.03818   1.04331
  Beta virt. eigenvalues --    1.04391   1.04630   1.04888   1.05518   1.06214
  Beta virt. eigenvalues --    1.06454   1.06528   1.07434   1.07872   1.08625
  Beta virt. eigenvalues --    1.08896   1.09252   1.10156   1.10419   1.11550
  Beta virt. eigenvalues --    1.11832   1.12251   1.13393   1.13759   1.13967
  Beta virt. eigenvalues --    1.14510   1.15287   1.15871   1.16109   1.16940
  Beta virt. eigenvalues --    1.17028   1.17396   1.17897   1.18259   1.18308
  Beta virt. eigenvalues --    1.19505   1.19558   1.19826   1.20815   1.21433
  Beta virt. eigenvalues --    1.21528   1.21937   1.22643   1.23072   1.23153
  Beta virt. eigenvalues --    1.24509   1.24865   1.25126   1.25664   1.26702
  Beta virt. eigenvalues --    1.26717   1.27049   1.27095   1.27358   1.29170
  Beta virt. eigenvalues --    1.29526   1.29557   1.30699   1.31090   1.31279
  Beta virt. eigenvalues --    1.31399   1.32092   1.32299   1.32565   1.32986
  Beta virt. eigenvalues --    1.33684   1.34233   1.34321   1.34342   1.34446
  Beta virt. eigenvalues --    1.35285   1.35949   1.36412   1.36585   1.36687
  Beta virt. eigenvalues --    1.37256   1.37584   1.38211   1.38419   1.38732
  Beta virt. eigenvalues --    1.39062   1.39569   1.39655   1.39934   1.40093
  Beta virt. eigenvalues --    1.40117   1.40748   1.41790   1.42597   1.42660
  Beta virt. eigenvalues --    1.43631   1.43670   1.43787   1.44018   1.44249
  Beta virt. eigenvalues --    1.45168   1.45187   1.45355   1.47068   1.47906
  Beta virt. eigenvalues --    1.47976   1.48584   1.49138   1.49667   1.50250
  Beta virt. eigenvalues --    1.50436   1.51262   1.51559   1.52242   1.52698
  Beta virt. eigenvalues --    1.53024   1.53997   1.54652   1.54927   1.55004
  Beta virt. eigenvalues --    1.56617   1.56842   1.58291   1.58584   1.59263
  Beta virt. eigenvalues --    1.59499   1.61431   1.61594   1.63543   1.65784
  Beta virt. eigenvalues --    1.68674   1.72758   1.75235   1.75719   1.76113
  Beta virt. eigenvalues --    1.79395   1.83061   1.83695   1.85176   2.37377
  Beta virt. eigenvalues --    2.40262   2.41420   2.41888   2.43511   2.45028
  Beta virt. eigenvalues --    2.45843   2.46347   2.46451   2.48093   2.50811
  Beta virt. eigenvalues --    2.51994   2.53171   2.54932   2.55493   2.58124
  Beta virt. eigenvalues --    2.59011   2.60550   2.61488   2.62563   2.64724
  Beta virt. eigenvalues --    2.65851   2.66486   2.69514   2.69980   2.71551
  Beta virt. eigenvalues --    2.72680   2.73099   2.73638   2.76155   2.76768
  Beta virt. eigenvalues --    2.79138   2.80593   2.82202   2.83735   2.84136
  Beta virt. eigenvalues --    2.85015   2.87024   2.88911   2.92183   2.95105
  Beta virt. eigenvalues --    2.95533   2.98484   3.01694   3.02342   3.04642
  Beta virt. eigenvalues --    3.07378   3.08498   3.11579   3.15021   3.16892
  Beta virt. eigenvalues --    3.17549   3.29563   3.34564   3.36617   3.36920
  Beta virt. eigenvalues --    3.48509   3.57287   3.60632   3.71835   3.78816
  Beta virt. eigenvalues --    3.80080   3.84455   3.94032   3.99985   4.00675
  Beta virt. eigenvalues --    4.09212   4.18136   5.14641   5.61371   5.79943
  Beta virt. eigenvalues --    7.17736
          Condensed to atoms (all electrons):
              1          2          3          4          5          6
     1  Al  12.152633   0.090601   0.258029   0.005619  -0.009042   0.157313
     2  Al   0.090601  12.264151  -0.012815   0.095243   0.239144   0.002913
     3  Al   0.258029  -0.012815  12.116027  -0.000827  -0.008014   0.140822
     4  Al   0.005619   0.095243  -0.000827  12.150893   0.152197  -0.005438
     5  Al  -0.009042   0.239144  -0.008014   0.152197  12.182727   0.003074
     6  Al   0.157313   0.002913   0.140822  -0.005438   0.003074  12.185163
     7  Al   0.153762   0.240401   0.156528  -0.009154   0.113581  -0.015134
     8  Al   0.073940  -0.018334  -0.013518   0.076205   0.001263   0.278231
     9  Al  -0.019851  -0.003352   0.058846  -0.019903  -0.000357   0.285373
    10  Al  -0.000791  -0.012920   0.003641   0.258792   0.156785  -0.008770
    11  Al  -0.005281   0.002837  -0.008660   0.157116  -0.014989   0.051106
    12  Al  -0.012058  -0.032360   0.048720  -0.011949   0.251860   0.001705
    13  Al   0.192343   0.086192  -0.003678  -0.026275   0.001401  -0.018897
    14  Al  -0.000275   0.000807  -0.014206  -0.005013  -0.011837   0.000606
    15  Al  -0.025280   0.078193   0.000167   0.191321  -0.012936  -0.000339
    16  Al   0.024107   0.017518   0.060449   0.022255  -0.018381  -0.030979
    17  Al  -0.005005   0.000830   0.224033  -0.000273  -0.000015  -0.011363
    18  Al   0.000088  -0.000044  -0.005065   0.000082   0.000125  -0.002382
              7          8          9         10         11         12
     1  Al   0.153762   0.073940  -0.019851  -0.000791  -0.005281  -0.012058
     2  Al   0.240401  -0.018334  -0.003352  -0.012920   0.002837  -0.032360
     3  Al   0.156528  -0.013518   0.058846   0.003641  -0.008660   0.048720
     4  Al  -0.009154   0.076205  -0.019903   0.258792   0.157116  -0.011949
     5  Al   0.113581   0.001263  -0.000357   0.156785  -0.014989   0.251860
     6  Al  -0.015134   0.278231   0.285373  -0.008770   0.051106   0.001705
     7  Al  12.182133   0.001346  -0.000207  -0.008113   0.003032   0.251933
     8  Al   0.001346  12.241508  -0.059773  -0.013438   0.278789  -0.004837
     9  Al  -0.000207  -0.059773  12.362975   0.060141   0.285688   0.001080
    10  Al  -0.008113  -0.013438   0.060141  12.114949   0.140550   0.047298
    11  Al   0.003032   0.278789   0.285688   0.140550  12.184495   0.001826
    12  Al   0.251933  -0.004837   0.001080   0.047298   0.001826  12.355174
    13  Al  -0.013326   0.089501   0.002100   0.000182  -0.000437   0.000748
    14  Al   0.000022   0.001153   0.004167   0.220513  -0.011452   0.065514
    15  Al   0.001443   0.081811   0.002052  -0.003597  -0.018745   0.000718
    16  Al  -0.019312   0.027406   0.005244   0.061422  -0.031477   0.038313
    17  Al  -0.011889   0.001159   0.001992  -0.013975   0.000655   0.065539
    18  Al   0.000135  -0.000154   0.081049  -0.004828  -0.002383  -0.007228
             13         14         15         16         17         18
     1  Al   0.192343  -0.000275  -0.025280   0.024107  -0.005005   0.000088
     2  Al   0.086192   0.000807   0.078193   0.017518   0.000830  -0.000044
     3  Al  -0.003678  -0.014206   0.000167   0.060449   0.224033  -0.005065
     4  Al  -0.026275  -0.005013   0.191321   0.022255  -0.000273   0.000082
     5  Al   0.001401  -0.011837  -0.012936  -0.018381  -0.000015   0.000125
     6  Al  -0.018897   0.000606  -0.000339  -0.030979  -0.011363  -0.002382
     7  Al  -0.013326   0.000022   0.001443  -0.019312  -0.011889   0.000135
     8  Al   0.089501   0.001153   0.081811   0.027406   0.001159  -0.000154
     9  Al   0.002100   0.004167   0.002052   0.005244   0.001992   0.081049
    10  Al   0.000182   0.220513  -0.003597   0.061422  -0.013975  -0.004828
    11  Al  -0.000437  -0.011452  -0.018745  -0.031477   0.000655  -0.002383
    12  Al   0.000748   0.065514   0.000718   0.038313   0.065539  -0.007228
    13  Al  12.274412  -0.000011   0.274740  -0.003320  -0.000109  -0.000004
    14  Al  -0.000011  12.344873  -0.000106  -0.006657   0.174698   0.111313
    15  Al   0.274740  -0.000106  12.293180  -0.002234  -0.000010  -0.000004
    16  Al  -0.003320  -0.006657  -0.002234  12.214066  -0.007037  -0.003052
    17  Al  -0.000109   0.174698  -0.000010  -0.007037  12.343591   0.110968
    18  Al  -0.000004   0.111313  -0.000004  -0.003052   0.110968  12.579192
 Mulliken atomic charges:
              1
     1  Al  -0.030851
     2  Al  -0.039007
     3  Al  -0.000479
     4  Al  -0.030894
     5  Al  -0.026587
     6  Al  -0.013003
     7  Al  -0.027180
     8  Al  -0.042258
     9  Al  -0.047263
    10  Al   0.002157
    11  Al  -0.012671
    12  Al  -0.061994
    13  Al   0.144437
    14  Al   0.125891
    15  Al   0.139628
    16  Al   0.651670
    17  Al   0.126210
    18  Al   0.142194
 Sum of Mulliken atomic charges =   1.00000
 Mulliken charges with hydrogens summed into heavy atoms:
              1
     1  Al  -0.030851
     2  Al  -0.039007
     3  Al  -0.000479
     4  Al  -0.030894
     5  Al  -0.026587
     6  Al  -0.013003
     7  Al  -0.027180
     8  Al  -0.042258
     9  Al  -0.047263
    10  Al   0.002157
    11  Al  -0.012671
    12  Al  -0.061994
    13  Al   0.144437
    14  Al   0.125891
    15  Al   0.139628
    16  Al   0.651670
    17  Al   0.126210
    18  Al   0.142194
 Sum of Mulliken charges with hydrogens summed into heavy atoms =   1.00000
          Atomic-Atomic Spin Densities.
              1          2          3          4          5          6
     1  Al  -0.134085   0.047615   0.007624  -0.005739   0.000139   0.002609
     2  Al   0.047615   0.009157  -0.002351   0.044757   0.001217   0.000132
     3  Al   0.007624  -0.002351   0.366310  -0.001040   0.001968  -0.014999
     4  Al  -0.005739   0.044757  -0.001040  -0.121906  -0.005106   0.000404
     5  Al   0.000139   0.001217   0.001968  -0.005106  -0.071716   0.000002
     6  Al   0.002609   0.000132  -0.014999   0.000404   0.000002  -0.010048
     7  Al  -0.003209   0.000351  -0.011625   0.000119  -0.004058  -0.000032
     8  Al   0.029572  -0.013465  -0.001082   0.026593   0.000207  -0.001532
     9  Al  -0.000103  -0.000821  -0.007406   0.000146   0.000051   0.003294
    10  Al  -0.001062  -0.002371   0.000989   0.006654  -0.011263   0.002527
    11  Al   0.000477   0.000318   0.002399   0.001343   0.000000  -0.005404
    12  Al   0.000330   0.001188   0.002255   0.000518   0.004219   0.000068
    13  Al  -0.082520  -0.026713  -0.000784   0.008912  -0.001270   0.002947
    14  Al   0.000298   0.000027   0.007788  -0.001421   0.004611  -0.001490
    15  Al   0.008481  -0.020858   0.000119  -0.080343   0.004103  -0.001403
    16  Al   0.010919   0.012316  -0.018036   0.010920  -0.005344  -0.006803
    17  Al  -0.001288   0.000013  -0.024005   0.000276  -0.001247   0.004713
    18  Al   0.000088  -0.000001  -0.004515   0.000087  -0.000008  -0.000023
              7          8          9         10         11         12
     1  Al  -0.003209   0.029572  -0.000103  -0.001062   0.000477   0.000330
     2  Al   0.000351  -0.013465  -0.000821  -0.002371   0.000318   0.001188
     3  Al  -0.011625  -0.001082  -0.007406   0.000989   0.002399   0.002255
     4  Al   0.000119   0.026593   0.000146   0.006654   0.001343   0.000518
     5  Al  -0.004058   0.000207   0.000051  -0.011263   0.000000   0.004219
     6  Al  -0.000032  -0.001532   0.003294   0.002527  -0.005404   0.000068
     7  Al  -0.077594  -0.000030   0.000038   0.002077   0.000011   0.005281
     8  Al  -0.000030  -0.030940   0.002255  -0.001033  -0.001009  -0.000308
     9  Al   0.000038   0.002255  -0.019467  -0.007380   0.003002  -0.002911
    10  Al   0.002077  -0.001033  -0.007380   0.377294  -0.015544   0.001554
    11  Al   0.000011  -0.001009   0.003002  -0.015544  -0.009578   0.000109
    12  Al   0.005281  -0.000308  -0.002911   0.001554   0.000109  -0.068711
    13  Al   0.004339  -0.021736   0.000126   0.000081  -0.001417  -0.000148
    14  Al  -0.001282   0.000032  -0.004864  -0.018741   0.004848   0.018186
    15  Al  -0.001240  -0.016582   0.000119  -0.000722   0.002887  -0.000144
    16  Al  -0.005416   0.005782   0.016115  -0.019408  -0.006715  -0.003606
    17  Al   0.004482   0.000018  -0.001885   0.007291  -0.001555   0.016157
    18  Al  -0.000022  -0.000033   0.001758  -0.004671   0.000098  -0.002515
             13         14         15         16         17         18
     1  Al  -0.082520   0.000298   0.008481   0.010919  -0.001288   0.000088
     2  Al  -0.026713   0.000027  -0.020858   0.012316   0.000013  -0.000001
     3  Al  -0.000784   0.007788   0.000119  -0.018036  -0.024005  -0.004515
     4  Al   0.008912  -0.001421  -0.080343   0.010920   0.000276   0.000087
     5  Al  -0.001270   0.004611   0.004103  -0.005344  -0.001247  -0.000008
     6  Al   0.002947  -0.001490  -0.001403  -0.006803   0.004713  -0.000023
     7  Al   0.004339  -0.001282  -0.001240  -0.005416   0.004482  -0.000022
     8  Al  -0.021736   0.000032  -0.016582   0.005782   0.000018  -0.000033
     9  Al   0.000126  -0.004864   0.000119   0.016115  -0.001885   0.001758
    10  Al   0.000081  -0.018741  -0.000722  -0.019408   0.007291  -0.004671
    11  Al  -0.001417   0.004848   0.002887  -0.006715  -0.001555   0.000098
    12  Al  -0.000148   0.018186  -0.000144  -0.003606   0.016157  -0.002515
    13  Al   0.555762   0.000016  -0.120166   0.001200   0.000054  -0.000001
    14  Al   0.000016   0.042752   0.000055   0.004366  -0.094395   0.046734
    15  Al  -0.120166   0.000055   0.505360   0.000816   0.000014  -0.000001
    16  Al   0.001200   0.004366   0.000816   0.038270   0.004045  -0.001242
    17  Al   0.000054  -0.094395   0.000014   0.004045   0.048779   0.042547
    18  Al  -0.000001   0.046734  -0.000001  -0.001242   0.042547   0.128889
 Mulliken atomic spin densities:
              1
     1  Al  -0.119854
     2  Al   0.050511
     3  Al   0.303608
     4  Al  -0.114826
     5  Al  -0.083491
     6  Al  -0.025037
     7  Al  -0.087810
     8  Al  -0.023291
     9  Al  -0.017934
    10  Al   0.316273
    11  Al  -0.025731
    12  Al  -0.028477
    13  Al   0.318684
    14  Al   0.007521
    15  Al   0.280495
    16  Al   0.038180
    17  Al   0.004012
    18  Al   0.207170
 Sum of Mulliken atomic spin densities =   1.00000
 Electronic spatial extent (au):  <R**2>=           9087.2259
 Charge=              1.0000 electrons
 Dipole moment (field-independent basis, Debye):
    X=             -0.3992    Y=              0.0617    Z=              1.4557  Tot=              1.5107
 Quadrupole moment (field-independent basis, Debye-Ang):
   XX=           -187.3455   YY=           -202.6778   ZZ=           -205.6164
   XY=             -0.2244   XZ=             -4.8078   YZ=             -0.0610
 Traceless Quadrupole moment (field-independent basis, Debye-Ang):
   XX=             11.2011   YY=             -4.1312   ZZ=             -7.0699
   XY=             -0.2244   XZ=             -4.8078   YZ=             -0.0610
 Octapole moment (field-independent basis, Debye-Ang**2):
  XXX=            -13.6641  YYY=              0.7126  ZZZ=             18.1047  XYY=              0.4605
  XXY=              1.3551  XXZ=             20.9677  XZZ=              8.7411  YZZ=              0.3536
  YYZ=              6.6205  XYZ=              0.1890
 Hexadecapole moment (field-independent basis, Debye-Ang**3):
 XXXX=          -8688.0021 YYYY=          -3153.0091 ZZZZ=          -3043.0689 XXXY=             -4.1585
 XXXZ=           -100.6112 YYYX=             -2.6133 YYYZ=              0.9469 ZZZX=            -45.1074
 ZZZY=              0.2625 XXYY=          -1964.1336 XXZZ=          -1993.8822 YYZZ=          -1029.0914
 XXYZ=             -1.9130 YYXZ=            -20.6306 ZZXY=             -0.7515
 N-N= 3.499475326852D+03 E-N=-2.606697479108D+04  KE= 6.531851456472D+03

 Test job not archived.
 1\1\GINC-NODE3\SP\UCCSD(T)-FC\CC-pVTZ\Al18(1+,2)\ROOT\07-Jul-2017\0\\#
  ccsd(t,conver=5)/cc-pvtz test geom=allcheck guess=read\\ccsdt-Al18-c-
 d-01\\1,2\Al,0,1.6588,2.2883,-0.134593\Al,0,2.640076,0.036629,1.304078
 \Al,0,-1.058511,2.373399,0.290778\Al,0,1.667158,-2.285794,-0.003272\Al
 ,0,0.632314,-1.337375,2.423248\Al,0,-0.02668,1.426812,-2.183872\Al,0,0
 .634787,1.477844,2.339654\Al,0,2.14926,-0.046712,-1.762669\Al,0,-2.144
 177,-0.050926,-1.534678\Al,0,-1.049361,-2.355502,0.421321\Al,0,-0.0196
 17,-1.548146,-2.101169\Al,0,-1.646756,0.065922,2.130927\Al,0,4.247612,
 1.283869,-0.557917\Al,0,-3.535541,-1.310805,0.609066\Al,0,4.259165,-1.
 314145,-0.487199\Al,0,0.126003,0.002949,0.095407\Al,0,-3.541848,1.3383
 09,0.532567\Al,0,-4.992683,-0.044628,-1.381676\\Version=EM64L-G09RevA.
 01\State=2-A\HF=-4354.454305\MP2=-4356.1522457\MP3=-4355.8543491\MP4D=
 -4356.1729056\MP4DQ=-4356.0737306\PUHF=-4354.4807734\PMP2-0=-4356.1765
 958\PMP3-0=-4355.8743148\MP4SDQ=-4356.1136358\CCSD=-4355.9803583\CCSD(
 T)=-4356.1990841\S2=1.477227\S2-1=1.304379\S2A=1.404267\RMSD=4.907e-09
 \PG=C01 [X(Al18)]\\@


 KNOWING HOW CONTENTED, FREE, AND JOYFUL IS LIFE IN
 THE REALMS OF SCIENCE, ONE FERVENTLY WISHES THAT
 MANY WOULD ENTER HER PORTALS.
   --  DMITRI IVANOVICH MENDELEEV
 "FIRST PRINCIPLES OF CHEMISTRY", LONGMANS, GREEN,
 AND CO.  LONDON, 1891
 Job cpu time:272 days  5 hours 33 minutes 48.0 seconds.
 File lengths (MBytes):  RWF= 712744 Int=      0 D2E=      0 Chk=     29 Scr=      1
 Normal termination of Gaussian 09 at Fri Jul  7 08:22:28 2017.
