 Entering Gaussian System, Link 0=g09
 Initial command:
 /apps/leuven/thinking/software/G09//g09D1/l1.exe "/local_scratch/vsc31064/Gau-10419.inp" -scrdir="/local_scratch/vsc31064/"
 Entering Link 1 = /apps/leuven/thinking/software/G09//g09D1/l1.exe PID=     10420.
  
 Copyright (c) 1988,1990,1992,1993,1995,1998,2003,2009,2013,
            Gaussian, Inc.  All Rights Reserved.
  
 This is part of the Gaussian(R) 09 program.  It is based on
 the Gaussian(R) 03 system (copyright 2003, Gaussian, Inc.),
 the Gaussian(R) 98 system (copyright 1998, Gaussian, Inc.),
 the Gaussian(R) 94 system (copyright 1995, Gaussian, Inc.),
 the Gaussian 92(TM) system (copyright 1992, Gaussian, Inc.),
 the Gaussian 90(TM) system (copyright 1990, Gaussian, Inc.),
 the Gaussian 88(TM) system (copyright 1988, Gaussian, Inc.),
 the Gaussian 86(TM) system (copyright 1986, Carnegie Mellon
 University), and the Gaussian 82(TM) system (copyright 1983,
 Carnegie Mellon University). Gaussian is a federally registered
 trademark of Gaussian, Inc.
  
 This software contains proprietary and confidential information,
 including trade secrets, belonging to Gaussian, Inc.
  
 This software is provided under written license and may be
 used, copied, transmitted, or stored only in accord with that
 written license.
  
 The following legend is applicable only to US Government
 contracts under FAR:
  
                    RESTRICTED RIGHTS LEGEND
  
 Use, reproduction and disclosure by the US Government is
 subject to restrictions as set forth in subparagraphs (a)
 and (c) of the Commercial Computer Software - Restricted
 Rights clause in FAR 52.227-19.
  
 Gaussian, Inc.
 340 Quinnipiac St., Bldg. 40, Wallingford CT 06492
  
  
 ---------------------------------------------------------------
 Warning -- This program may not be used in any manner that
 competes with the business of Gaussian, Inc. or will provide
 assistance to any competitor of Gaussian, Inc.  The licensee
 of this program is prohibited from giving any competitor of
 Gaussian, Inc. access to this program.  By using this program,
 the user acknowledges that Gaussian, Inc. is engaged in the
 business of creating and licensing software in the field of
 computational chemistry and represents and warrants to the
 licensee that it is not a competitor of Gaussian, Inc. and that
 it will not use this program in any manner prohibited above.
 ---------------------------------------------------------------
  

 Cite this work as:
 Gaussian 09, Revision D.01,
 M. J. Frisch, G. W. Trucks, H. B. Schlegel, G. E. Scuseria, 
 M. A. Robb, J. R. Cheeseman, G. Scalmani, V. Barone, B. Mennucci, 
 G. A. Petersson, H. Nakatsuji, M. Caricato, X. Li, H. P. Hratchian, 
 A. F. Izmaylov, J. Bloino, G. Zheng, J. L. Sonnenberg, M. Hada, 
 M. Ehara, K. Toyota, R. Fukuda, J. Hasegawa, M. Ishida, T. Nakajima, 
 Y. Honda, O. Kitao, H. Nakai, T. Vreven, J. A. Montgomery, Jr., 
 J. E. Peralta, F. Ogliaro, M. Bearpark, J. J. Heyd, E. Brothers, 
 K. N. Kudin, V. N. Staroverov, T. Keith, R. Kobayashi, J. Normand, 
 K. Raghavachari, A. Rendell, J. C. Burant, S. S. Iyengar, J. Tomasi, 
 M. Cossi, N. Rega, J. M. Millam, M. Klene, J. E. Knox, J. B. Cross, 
 V. Bakken, C. Adamo, J. Jaramillo, R. Gomperts, R. E. Stratmann, 
 O. Yazyev, A. J. Austin, R. Cammi, C. Pomelli, J. W. Ochterski, 
 R. L. Martin, K. Morokuma, V. G. Zakrzewski, G. A. Voth, 
 P. Salvador, J. J. Dannenberg, S. Dapprich, A. D. Daniels, 
 O. Farkas, J. B. Foresman, J. V. Ortiz, J. Cioslowski, 
 and D. J. Fox, Gaussian, Inc., Wallingford CT, 2013.
 
 ******************************************
 Gaussian 09:  ES64L-G09RevD.01 24-Apr-2013
                12-Oct-2016 
 ******************************************
 %NprocShared=20
 Will use up to   20 processors via shared memory.
 %mem=55000mb
 %chk=cc-Al3-a-s
 ------------------------
 # hf/6-31G* test scf=xqc
 ------------------------
 1/38=1/1;
 2/12=2,17=6,18=5,40=1/2;
 3/5=1,6=6,7=1,11=9,16=1,25=1,30=1/1,2,3;
 4//1;
 5/5=2,8=3,13=1,38=5/2,8;
 6/7=2,8=2,9=2,10=2,28=1/1;
 99/5=1,9=1/99;
 -------
 Al3-a-s
 -------
 Symbolic Z-matrix:
 Charge = -1 Multiplicity = 1
 Al                    0.        1.46516   0. 
 Al                   -1.26887  -0.73258   0. 
 Al                    1.26887  -0.73258   0. 
 
                          Input orientation:                          
 ---------------------------------------------------------------------
 Center     Atomic      Atomic             Coordinates (Angstroms)
 Number     Number       Type             X           Y           Z
 ---------------------------------------------------------------------
      1         13           0        0.000000    1.465163    0.000000
      2         13           0       -1.268868   -0.732581    0.000000
      3         13           0        1.268868   -0.732581    0.000000
 ---------------------------------------------------------------------
                    Distance matrix (angstroms):
                    1          2          3
     1  Al   0.000000
     2  Al   2.537736   0.000000
     3  Al   2.537736   2.537736   0.000000
 Stoichiometry    Al3(1-)
 Framework group  D3H[3C2(Al)]
 Deg. of freedom     1
 Full point group                 D3H     NOp  12
 Largest Abelian subgroup         C2V     NOp   4
 Largest concise Abelian subgroup C2      NOp   2
                         Standard orientation:                         
 ---------------------------------------------------------------------
 Center     Atomic      Atomic             Coordinates (Angstroms)
 Number     Number       Type             X           Y           Z
 ---------------------------------------------------------------------
      1         13           0        0.000000    1.465163    0.000000
      2         13           0       -1.268868   -0.732581    0.000000
      3         13           0        1.268868   -0.732581    0.000000
 ---------------------------------------------------------------------
 Rotational constants (GHZ):      5.8168450      5.8168450      2.9084225
 Standard basis: 6-31G(d) (6D, 7F)
 There are    24 symmetry adapted cartesian basis functions of A1  symmetry.
 There are     6 symmetry adapted cartesian basis functions of A2  symmetry.
 There are    18 symmetry adapted cartesian basis functions of B1  symmetry.
 There are     9 symmetry adapted cartesian basis functions of B2  symmetry.
 There are    24 symmetry adapted basis functions of A1  symmetry.
 There are     6 symmetry adapted basis functions of A2  symmetry.
 There are    18 symmetry adapted basis functions of B1  symmetry.
 There are     9 symmetry adapted basis functions of B2  symmetry.
    57 basis functions,   156 primitive gaussians,    57 cartesian basis functions
    20 alpha electrons       20 beta electrons
       nuclear repulsion energy       105.7213302421 Hartrees.
 NAtoms=    3 NActive=    3 NUniq=    1 SFac= 4.00D+00 NAtFMM=   60 NAOKFM=F Big=F
 Integral buffers will be    131072 words long.
 Raffenetti 1 integral format.
 Two-electron integral symmetry is turned on.
 One-electron integrals computed using PRISM.
 NBasis=    57 RedAO= T EigKep=  7.01D-03  NBF=    24     6    18     9
 NBsUse=    57 1.00D-06 EigRej= -1.00D+00 NBFU=    24     6    18     9
 ExpMin= 5.57D-02 ExpMax= 1.40D+04 ExpMxC= 2.10D+03 IAcc=2 IRadAn=         4 AccDes= 0.00D+00
 Harris functional with IExCor=  205 and IRadAn=       4 diagonalized for initial guess.
 HarFok:  IExCor=  205 AccDes= 0.00D+00 IRadAn=         4 IDoV= 1 UseB2=F ITyADJ=14
 ICtDFT=  3500011 ScaDFX=  1.000000  1.000000  1.000000  1.000000
 FoFCou: FMM=F IPFlag=           0 FMFlag=      100000 FMFlg1=           0
         NFxFlg=           0 DoJE=T BraDBF=F KetDBF=T FulRan=T
         wScrn=  0.000000 ICntrl=     500 IOpCl=  0 I1Cent=   200000004 NGrid=           0
         NMat0=    1 NMatS0=      1 NMatT0=    0 NMatD0=    1 NMtDS0=    0 NMtDT0=    0
 Petite list used in FoFCou.
 Initial guess orbital symmetries:
       Occupied  (E') (E') (A1') (A1') (E') (E') (A1') (E') (E')
                 (E') (E') (A2') (A2") (E") (E") (A1') (E') (E')
                 (A2") (A1')
       Virtual   (E') (E') (E") (E") (E') (E') (A2') (A1') (A1')
                 (A2") (E') (E') (E") (E") (E') (E') (A2') (E')
                 (E') (A1') (A2") (E") (E") (E') (E') (A1') (A1")
                 (E') (E') (E") (E") (E') (E') (A2') (A1') (E')
                 (E')
 The electronic state of the initial guess is 1-A1'.
 Keep R1 ints in memory in symmetry-blocked form, NReq=2230429.
 Requested convergence on RMS density matrix=1.00D-08 within  64 cycles.
 Requested convergence on MAX density matrix=1.00D-06.
 Requested convergence on             energy=1.00D-06.
 No special actions if energy rises.
 SCF Done:  E(RHF) =  -725.645776793     A.U. after   11 cycles
            NFock= 11  Conv=0.26D-08     -V/T= 2.0001
 QCSCF skips out because SCF is already converged.

 **********************************************************************

            Population analysis using the SCF density.

 **********************************************************************

 Orbital symmetries:
       Occupied  (E') (E') (A1') (A1') (E') (E') (E') (E') (A2')
                 (A1') (A2") (E") (E") (E') (E') (A1') (E') (E')
                 (A2") (A1')
       Virtual   (E') (E') (E") (E") (E') (E') (A2') (A1') (A1')
                 (E') (E') (A2") (E") (E") (E') (E') (A2') (E')
                 (E') (A1') (A2") (E") (E") (E') (E') (A1') (A1")
                 (E') (E') (E") (E") (E') (E') (A2') (A1') (E')
                 (E')
 The electronic state is 1-A1'.
 Alpha  occ. eigenvalues --  -58.30563 -58.30563 -58.30561  -4.72709  -4.72691
 Alpha  occ. eigenvalues --   -4.72691  -3.03767  -3.03767  -3.03722  -3.03686
 Alpha  occ. eigenvalues --   -3.03632  -3.03617  -3.03617  -3.03576  -3.03576
 Alpha  occ. eigenvalues --   -0.40328  -0.18204  -0.18204  -0.06002  -0.05742
 Alpha virt. eigenvalues --    0.14709   0.14709   0.20448   0.20448   0.25582
 Alpha virt. eigenvalues --    0.25582   0.28372   0.35223   0.39950   0.42804
 Alpha virt. eigenvalues --    0.42804   0.43068   0.50822   0.50822   0.50960
 Alpha virt. eigenvalues --    0.50960   0.56935   0.58723   0.58723   0.68807
 Alpha virt. eigenvalues --    0.70800   0.76087   0.76087   0.82979   0.82979
 Alpha virt. eigenvalues --    0.89039   0.93469   0.94632   0.94632   1.01535
 Alpha virt. eigenvalues --    1.01535   1.22774   1.22774   1.24886   2.43729
 Alpha virt. eigenvalues --    2.54536   2.54536
          Condensed to atoms (all electrons):
               1          2          3
     1  Al  12.819821   0.256756   0.256756
     2  Al   0.256756  12.819821   0.256756
     3  Al   0.256756   0.256756  12.819821
 Mulliken charges:
               1
     1  Al  -0.333333
     2  Al  -0.333333
     3  Al  -0.333333
 Sum of Mulliken charges =  -1.00000
 Mulliken charges with hydrogens summed into heavy atoms:
               1
     1  Al  -0.333333
     2  Al  -0.333333
     3  Al  -0.333333
 Electronic spatial extent (au):  <R**2>=            430.5786
 Charge=             -1.0000 electrons
 Dipole moment (field-independent basis, Debye):
    X=              0.0000    Y=              0.0000    Z=              0.0000  Tot=              0.0000
 Quadrupole moment (field-independent basis, Debye-Ang):
   XX=            -60.7084   YY=            -60.7084   ZZ=            -55.5955
   XY=              0.0000   XZ=              0.0000   YZ=              0.0000
 Traceless Quadrupole moment (field-independent basis, Debye-Ang):
   XX=             -1.7043   YY=             -1.7043   ZZ=              3.4086
   XY=              0.0000   XZ=              0.0000   YZ=              0.0000
 Octapole moment (field-independent basis, Debye-Ang**2):
  XXX=              0.0000  YYY=            -19.8776  ZZZ=              0.0000  XYY=              0.0000
  XXY=             19.8776  XXZ=              0.0000  XZZ=              0.0000  YZZ=              0.0000
  YYZ=              0.0000  XYZ=              0.0000
 Hexadecapole moment (field-independent basis, Debye-Ang**3):
 XXXX=           -557.2818 YYYY=           -557.2818 ZZZZ=           -180.3710 XXXY=              0.0000
 XXXZ=              0.0000 YYYX=              0.0000 YYYZ=              0.0000 ZZZX=              0.0000
 ZZZY=              0.0000 XXYY=           -185.7606 XXZZ=           -117.8829 YYZZ=           -117.8829
 XXYZ=              0.0000 YYXZ=              0.0000 ZZXY=              0.0000
 N-N= 1.057213302421D+02 E-N=-1.953705228607D+03  KE= 7.255954045603D+02
 Symmetry A1   KE= 4.244085244598D+02
 Symmetry A2   KE= 1.972078806624D+01
 Symmetry B1   KE= 2.410882057776D+02
 Symmetry B2   KE= 4.037788625670D+01

 Test job not archived.
 1\1\GINC-R1I0N1\SP\RHF\6-31G(d)\Al3(1-)\VSC31064\12-Oct-2016\0\\# hf/6
 -31G* test scf=xqc\\Al3-a-s\\-1,1\Al,0,0.,1.465163,0.\Al,0,-1.268868,-
 0.732581,0.\Al,0,1.268868,-0.732581,0.\\Version=ES64L-G09RevD.01\State
 =1-A1'\HF=-725.6457768\RMSD=2.609e-09\Dipole=0.,0.,0.\Quadrupole=-1.26
 71075,-1.2671075,2.5342151,0.,0.,0.\PG=D03H [3C2(Al1)]\\@


 ONE OF THE BENEFITS OF A COLLEGE EDUCATION
 IS TO SHOW THE BOY ITS LITTLE AVAIL 
                                    EMERSON IN 'CULTURE'
 Job cpu time:       0 days  0 hours  0 minutes 48.3 seconds.
 File lengths (MBytes):  RWF=      5 Int=      0 D2E=      0 Chk=      1 Scr=      1
 Normal termination of Gaussian 09 at Wed Oct 12 05:17:58 2016.
 Initial command:
 /apps/leuven/thinking/software/G09//g09D1/l1.exe "/local_scratch/vsc31064/Gau-10419.inp" -scrdir="/local_scratch/vsc31064/"
 Entering Link 1 = /apps/leuven/thinking/software/G09//g09D1/l1.exe PID=     10630.
  
 Copyright (c) 1988,1990,1992,1993,1995,1998,2003,2009,2013,
            Gaussian, Inc.  All Rights Reserved.
  
 This is part of the Gaussian(R) 09 program.  It is based on
 the Gaussian(R) 03 system (copyright 2003, Gaussian, Inc.),
 the Gaussian(R) 98 system (copyright 1998, Gaussian, Inc.),
 the Gaussian(R) 94 system (copyright 1995, Gaussian, Inc.),
 the Gaussian 92(TM) system (copyright 1992, Gaussian, Inc.),
 the Gaussian 90(TM) system (copyright 1990, Gaussian, Inc.),
 the Gaussian 88(TM) system (copyright 1988, Gaussian, Inc.),
 the Gaussian 86(TM) system (copyright 1986, Carnegie Mellon
 University), and the Gaussian 82(TM) system (copyright 1983,
 Carnegie Mellon University). Gaussian is a federally registered
 trademark of Gaussian, Inc.
  
 This software contains proprietary and confidential information,
 including trade secrets, belonging to Gaussian, Inc.
  
 This software is provided under written license and may be
 used, copied, transmitted, or stored only in accord with that
 written license.
  
 The following legend is applicable only to US Government
 contracts under FAR:
  
                    RESTRICTED RIGHTS LEGEND
  
 Use, reproduction and disclosure by the US Government is
 subject to restrictions as set forth in subparagraphs (a)
 and (c) of the Commercial Computer Software - Restricted
 Rights clause in FAR 52.227-19.
  
 Gaussian, Inc.
 340 Quinnipiac St., Bldg. 40, Wallingford CT 06492
  
  
 ---------------------------------------------------------------
 Warning -- This program may not be used in any manner that
 competes with the business of Gaussian, Inc. or will provide
 assistance to any competitor of Gaussian, Inc.  The licensee
 of this program is prohibited from giving any competitor of
 Gaussian, Inc. access to this program.  By using this program,
 the user acknowledges that Gaussian, Inc. is engaged in the
 business of creating and licensing software in the field of
 computational chemistry and represents and warrants to the
 licensee that it is not a competitor of Gaussian, Inc. and that
 it will not use this program in any manner prohibited above.
 ---------------------------------------------------------------
  

 Cite this work as:
 Gaussian 09, Revision D.01,
 M. J. Frisch, G. W. Trucks, H. B. Schlegel, G. E. Scuseria, 
 M. A. Robb, J. R. Cheeseman, G. Scalmani, V. Barone, B. Mennucci, 
 G. A. Petersson, H. Nakatsuji, M. Caricato, X. Li, H. P. Hratchian, 
 A. F. Izmaylov, J. Bloino, G. Zheng, J. L. Sonnenberg, M. Hada, 
 M. Ehara, K. Toyota, R. Fukuda, J. Hasegawa, M. Ishida, T. Nakajima, 
 Y. Honda, O. Kitao, H. Nakai, T. Vreven, J. A. Montgomery, Jr., 
 J. E. Peralta, F. Ogliaro, M. Bearpark, J. J. Heyd, E. Brothers, 
 K. N. Kudin, V. N. Staroverov, T. Keith, R. Kobayashi, J. Normand, 
 K. Raghavachari, A. Rendell, J. C. Burant, S. S. Iyengar, J. Tomasi, 
 M. Cossi, N. Rega, J. M. Millam, M. Klene, J. E. Knox, J. B. Cross, 
 V. Bakken, C. Adamo, J. Jaramillo, R. Gomperts, R. E. Stratmann, 
 O. Yazyev, A. J. Austin, R. Cammi, C. Pomelli, J. W. Ochterski, 
 R. L. Martin, K. Morokuma, V. G. Zakrzewski, G. A. Voth, 
 P. Salvador, J. J. Dannenberg, S. Dapprich, A. D. Daniels, 
 O. Farkas, J. B. Foresman, J. V. Ortiz, J. Cioslowski, 
 and D. J. Fox, Gaussian, Inc., Wallingford CT, 2013.
 
 ******************************************
 Gaussian 09:  ES64L-G09RevD.01 24-Apr-2013
                12-Oct-2016 
 ******************************************
 %NprocShared=20
 Will use up to   20 processors via shared memory.
 %mem=55000mb
 %chk=cc-Al3-a-s
 ----------------------------------------------------------------
 # CCSD(T,conver=5)/cc-pVTZ test geom=allcheck guess=read scf=xqc
 ----------------------------------------------------------------
 1/29=7,38=1/1;
 2/12=2,40=1/2;
 3/5=16,6=1,11=9,14=-4,16=1,25=1,30=1,116=-2/1,2,3;
 4/5=1/1;
 5/5=2,8=3,13=1,38=6/2,8;
 8/6=4,9=120000,10=1/1,4;
 9/5=7,9=5,14=2/13;
 6/7=2,8=2,9=2,10=2/1;
 99/5=1,9=1/99;
 Structure from the checkpoint file:  "cc-Al3-a-s.chk"
 -------
 Al3-a-s
 -------
 Charge = -1 Multiplicity = 1
 Z-Matrix found in file.
 Al,0,0.,1.465163,0.
 Al,0,-1.268868,-0.732581,0.
 Al,0,1.268868,-0.732581,0.
 Recover connectivity data from disk.
                          Input orientation:                          
 ---------------------------------------------------------------------
 Center     Atomic      Atomic             Coordinates (Angstroms)
 Number     Number       Type             X           Y           Z
 ---------------------------------------------------------------------
      1         13           0        0.000000    1.465163    0.000000
      2         13           0       -1.268868   -0.732581    0.000000
      3         13           0        1.268868   -0.732581    0.000000
 ---------------------------------------------------------------------
                    Distance matrix (angstroms):
                    1          2          3
     1  Al   0.000000
     2  Al   2.537736   0.000000
     3  Al   2.537736   2.537736   0.000000
 Stoichiometry    Al3(1-)
 Framework group  D3H[3C2(Al)]
 Deg. of freedom     1
 Full point group                 D3H     NOp  12
 Largest Abelian subgroup         C2V     NOp   4
 Largest concise Abelian subgroup C2      NOp   2
                         Standard orientation:                         
 ---------------------------------------------------------------------
 Center     Atomic      Atomic             Coordinates (Angstroms)
 Number     Number       Type             X           Y           Z
 ---------------------------------------------------------------------
      1         13           0        0.000000    1.465163    0.000000
      2         13           0       -1.268868   -0.732581    0.000000
      3         13           0        1.268868   -0.732581    0.000000
 ---------------------------------------------------------------------
 Rotational constants (GHZ):      5.8168450      5.8168450      2.9084225
 Standard basis: CC-pVTZ (5D, 7F)
 There are    45 symmetry adapted cartesian basis functions of A1  symmetry.
 There are    15 symmetry adapted cartesian basis functions of A2  symmetry.
 There are    36 symmetry adapted cartesian basis functions of B1  symmetry.
 There are    21 symmetry adapted cartesian basis functions of B2  symmetry.
 There are    38 symmetry adapted basis functions of A1  symmetry.
 There are    14 symmetry adapted basis functions of A2  symmetry.
 There are    31 symmetry adapted basis functions of B1  symmetry.
 There are    19 symmetry adapted basis functions of B2  symmetry.
   102 basis functions,   285 primitive gaussians,   117 cartesian basis functions
    20 alpha electrons       20 beta electrons
       nuclear repulsion energy       105.7213302421 Hartrees.
 NAtoms=    3 NActive=    3 NUniq=    1 SFac= 4.00D+00 NAtFMM=   60 NAOKFM=F Big=F
 Integral buffers will be    131072 words long.
 Raffenetti 1 integral format.
 Two-electron integral symmetry is turned on.
 One-electron integrals computed using PRISM.
 NBasis=   102 RedAO= T EigKep=  1.72D-03  NBF=    38    14    31    19
 NBsUse=   102 1.00D-06 EigRej= -1.00D+00 NBFU=    38    14    31    19
 Initial guess from the checkpoint file:  "cc-Al3-a-s.chk"
 B after Tr=     0.000000    0.000000    0.000000
         Rot=    1.000000    0.000000    0.000000    0.000000 Ang=   0.00 deg.
 Initial guess orbital symmetries:
       Occupied  (?A) (?A) (?A) (?A) (?A) (?A) (?A) (?A) (?A) (?A)
                 (?B) (?B) (?B) (?A) (?A) (?A) (?A) (?A) (?B) (?A)
       Virtual   (?A) (?A) (?A) (?A) (?A) (?A) (?A) (?A) (?A) (?A)
                 (?A) (?A) (?A) (?A) (?A) (?A) (?A) (?A) (?A) (?A)
                 (?A) (?A) (?A) (?A) (?A) (?A) (?A) (?A) (?B) (?B)
                 (?B) (?B) (?B) (?B) (?B) (?B) (?B) (?B) (?B) (?B)
                 (?B) (?A) (?A) (?A) (?A) (?A) (?A) (?A) (?A) (?A)
                 (?A) (?A) (?A) (?A) (?A) (?A) (?A) (?A) (?A) (?A)
                 (?A) (?A) (?A) (?A) (?A) (?A) (?B) (?B) (?B) (?B)
                 (?B) (?B) (?B) (?B) (?B) (?B) (?B) (?B) (?B) (?B)
                 (?B) (?B)
 Keep R1 ints in memory in symmetry-blocked form, NReq=17378621.
 Requested convergence on RMS density matrix=1.00D-08 within  64 cycles.
 Requested convergence on MAX density matrix=1.00D-06.
 Requested convergence on             energy=1.00D-06.
 No special actions if energy rises.
 SCF Done:  E(RHF) =  -725.711877054     A.U. after   11 cycles
            NFock= 11  Conv=0.45D-08     -V/T= 1.9998
 QCSCF skips out because SCF is already converged.
 ExpMin= 5.56D-02 ExpMax= 2.06D+05 ExpMxC= 1.99D+03 IAcc=3 IRadAn=         5 AccDes= 0.00D+00
 HarFok:  IExCor=  205 AccDes= 0.00D+00 IRadAn=         5 IDoV=-2 UseB2=F ITyADJ=14
 ICtDFT= 12500011 ScaDFX=  1.000000  1.000000  1.000000  1.000000
 DSYEVD-2 returned Info=          69 IAlg= 4 N=    34 NDim=    34 NE2=   212027182 trying  DSYEV.
 DSYEVD-2 returned Info=          69 IAlg= 4 N=    34 NDim=    34 NE2=   212027182 trying  DSYEV.
 Range of M.O.s used for correlation:    16   102
 NBasis=   102 NAE=    20 NBE=    20 NFC=    15 NFV=     0
 NROrb=     87 NOA=     5 NOB=     5 NVA=    82 NVB=    82
 Semi-Direct transformation.
 ModeAB=           4 MOrb=             5 LenV=    7208509885
 LASXX=       397671 LTotXX=      397671 LenRXX=      811317
 LTotAB=      413646 MaxLAS=     1793070 LenRXY=           0
 NonZer=     1208988 LenScr=     2416640 LnRSAI=     1793070
 LnScr1=     3361280 LExtra=           0 Total=      8382307
 MaxDsk=          -1 SrtSym=           T ITran=            4
 JobTyp=0 Pass  1:  I=   1 to   5.
 (rs|ai) integrals will be sorted in core.
 Spin components of T(2) and E(2):
     alpha-alpha T2 =       0.2794047811D-01 E2=     -0.2616186021D-01
     alpha-beta  T2 =       0.1753997537D+00 E2=     -0.1794391153D+00
     beta-beta   T2 =       0.2794047811D-01 E2=     -0.2616186021D-01
 ANorm=    0.1109630889D+01
 E2 =    -0.2317628357D+00 EUMP2 =    -0.72594363988953D+03
 Keep R2 and R3 ints in memory in symmetry-blocked form, NReq=17329730.
 Iterations=  50 Convergence= 0.100D-04
 Iteration Nr.   1
 **********************
 DD1Dir will call FoFMem   1 times, MxPair=        30
 NAB=    15 NAA=     0 NBB=     0.
 MP4(R+Q)=  0.16299442D-01
 E3=       -0.20567884D-01        EUMP3=      -0.72596420777D+03
 E4(DQ)=    0.44375970D-02        UMP4(DQ)=   -0.72595977018D+03
 E4(SDQ)=   0.13327081D-03        UMP4(SDQ)=  -0.72596407450D+03
 DE(Corr)= -0.23590618     E(Corr)=     -725.94778323    
 NORM(A)=   0.11214420D+01
 Iteration Nr.   2
 **********************
 DD1Dir will call FoFMem   1 times, MxPair=        30
 NAB=    15 NAA=     0 NBB=     0.
 DE(Corr)= -0.24848252     E(CORR)=     -725.96035957     Delta=-1.26D-02
 NORM(A)=   0.11435611D+01
 Iteration Nr.   3
 **********************
 DD1Dir will call FoFMem   1 times, MxPair=        30
 NAB=    15 NAA=     0 NBB=     0.
 DE(Corr)= -0.24987060     E(CORR)=     -725.96174766     Delta=-1.39D-03
 NORM(A)=   0.11518000D+01
 Iteration Nr.   4
 **********************
 DD1Dir will call FoFMem   1 times, MxPair=        30
 NAB=    15 NAA=     0 NBB=     0.
 DE(Corr)= -0.25201832     E(CORR)=     -725.96389537     Delta=-2.15D-03
 NORM(A)=   0.11561964D+01
 Iteration Nr.   5
 **********************
 DD1Dir will call FoFMem   1 times, MxPair=        30
 NAB=    15 NAA=     0 NBB=     0.
 DE(Corr)= -0.25241027     E(CORR)=     -725.96428732     Delta=-3.92D-04
 NORM(A)=   0.11581904D+01
 Iteration Nr.   6
 **********************
 DD1Dir will call FoFMem   1 times, MxPair=        30
 NAB=    15 NAA=     0 NBB=     0.
 DE(Corr)= -0.25248761     E(CORR)=     -725.96436466     Delta=-7.73D-05
 NORM(A)=   0.11582912D+01
 Iteration Nr.   7
 **********************
 DD1Dir will call FoFMem   1 times, MxPair=        30
 NAB=    15 NAA=     0 NBB=     0.
 DE(Corr)= -0.25249240     E(CORR)=     -725.96436945     Delta=-4.79D-06
 NORM(A)=   0.11584558D+01
 Iteration Nr.   8
 **********************
 DD1Dir will call FoFMem   1 times, MxPair=        30
 NAB=    15 NAA=     0 NBB=     0.
 DE(Corr)= -0.25248414     E(CORR)=     -725.96436120     Delta= 8.25D-06
 NORM(A)=   0.11584444D+01
 Iteration Nr.   9
 **********************
 DD1Dir will call FoFMem   1 times, MxPair=        30
 NAB=    15 NAA=     0 NBB=     0.
 DE(Corr)= -0.25249048     E(CORR)=     -725.96436753     Delta=-6.33D-06
 NORM(A)=   0.11584576D+01
 Dominant configurations:
 ***********************
 Spin Case        I    J    A    B          Value
   ABAB          20   20   21   21      -0.105301D+00
   ABAB          20   20   22   22      -0.105301D+00
 Largest amplitude= 1.05D-01
 Time for triples=       20.61 seconds.
 T4(CCSD)= -0.27000899D-01
 T5(CCSD)=  0.12216478D-02
 CCSD(T)= -0.72599014678D+03
 Discarding MO integrals.

 **********************************************************************

            Population analysis using the SCF density.

 **********************************************************************

 Orbital symmetries:
       Occupied  (?A) (?B) (?B) (?A) (?B) (?B) (?B) (?B) (?A) (?A)
                 (?C) (?D) (?D) (?B) (?B) (?A) (?B) (?B) (?C) (?A)
       Virtual   (?B) (?B) (?D) (?D) (?B) (?B) (?A) (?A) (?C) (?A)
                 (?B) (?B) (?A) (?D) (?D) (?A) (?B) (?B) (?D) (?D)
                 (?B) (?B) (?C) (?B) (?B) (?C) (?D) (?D) (?B) (?B)
                 (?A) (?A) (?B) (?B) (?A) (?C) (?C) (?A) (?D) (?D)
                 (?B) (?B) (?B) (?B) (?B) (?B) (?C) (?D) (?D) (?D)
                 (?D) (?A) (?A) (?B) (?B) (?A) (?D) (?D) (?C) (?A)
                 (?B) (?B) (?B) (?B) (?D) (?D) (?C) (?B) (?B) (?A)
                 (?A) (?B) (?B) (?C) (?B) (?B) (?A) (?D) (?D) (?A)
                 (?B) (?B)
 Unable to determine electronic state:  an orbital has unidentified symmetry.
 Alpha  occ. eigenvalues --  -58.31388 -58.31388 -58.31388  -4.72692  -4.72674
 Alpha  occ. eigenvalues --   -4.72674  -3.03735  -3.03735  -3.03725  -3.03685
 Alpha  occ. eigenvalues --   -3.03638  -3.03623  -3.03623  -3.03612  -3.03612
 Alpha  occ. eigenvalues --   -0.39903  -0.18072  -0.18072  -0.06029  -0.05772
 Alpha virt. eigenvalues --    0.14793   0.14793   0.20537   0.20537   0.23496
 Alpha virt. eigenvalues --    0.23496   0.27072   0.33710   0.35778   0.35922
 Alpha virt. eigenvalues --    0.39420   0.39420   0.40088   0.42122   0.42122
 Alpha virt. eigenvalues --    0.44942   0.45534   0.45534   0.48448   0.48448
 Alpha virt. eigenvalues --    0.51092   0.51092   0.51760   0.55566   0.55566
 Alpha virt. eigenvalues --    0.56323   0.62813   0.62813   0.62820   0.62820
 Alpha virt. eigenvalues --    0.73350   0.80493   0.82099   0.82099   0.90227
 Alpha virt. eigenvalues --    0.92012   0.96688   0.98581   0.98750   0.98750
 Alpha virt. eigenvalues --    1.00152   1.00152   1.06260   1.06260   1.11848
 Alpha virt. eigenvalues --    1.11848   1.12144   1.14555   1.14555   1.17289
 Alpha virt. eigenvalues --    1.17289   1.17660   1.22862   1.23196   1.23196
 Alpha virt. eigenvalues --    1.27384   1.27588   1.27588   1.29381   1.35510
 Alpha virt. eigenvalues --    1.38266   1.38266   1.42088   1.42088   1.44268
 Alpha virt. eigenvalues --    1.44268   1.52757   1.54509   1.54509   1.59086
 Alpha virt. eigenvalues --    2.07487   2.36253   2.36253   2.46497   2.63033
 Alpha virt. eigenvalues --    2.63033   2.65253   2.66089   2.66089   3.08582
 Alpha virt. eigenvalues --    3.49298   3.49298
          Condensed to atoms (all electrons):
               1          2          3
     1  Al  12.500354   0.416490   0.416490
     2  Al   0.416490  12.500354   0.416490
     3  Al   0.416490   0.416490  12.500354
 Mulliken charges:
               1
     1  Al  -0.333333
     2  Al  -0.333333
     3  Al  -0.333333
 Sum of Mulliken charges =  -1.00000
 Mulliken charges with hydrogens summed into heavy atoms:
               1
     1  Al  -0.333333
     2  Al  -0.333333
     3  Al  -0.333333
 Electronic spatial extent (au):  <R**2>=            429.9569
 Charge=             -1.0000 electrons
 Dipole moment (field-independent basis, Debye):
    X=              0.0000    Y=              0.0000    Z=              0.0000  Tot=              0.0000
 Quadrupole moment (field-independent basis, Debye-Ang):
   XX=            -60.3585   YY=            -60.3585   ZZ=            -55.4590
   XY=              0.0000   XZ=              0.0000   YZ=              0.0000
 Traceless Quadrupole moment (field-independent basis, Debye-Ang):
   XX=             -1.6332   YY=             -1.6332   ZZ=              3.2663
   XY=              0.0000   XZ=              0.0000   YZ=              0.0000
 Octapole moment (field-independent basis, Debye-Ang**2):
  XXX=              0.0000  YYY=            -17.8335  ZZZ=              0.0000  XYY=              0.0000
  XXY=             17.8335  XXZ=              0.0000  XZZ=              0.0000  YZZ=              0.0000
  YYZ=              0.0000  XYZ=              0.0000
 Hexadecapole moment (field-independent basis, Debye-Ang**3):
 XXXX=           -562.4056 YYYY=           -562.4056 ZZZZ=           -180.3741 XXXY=              0.0000
 XXXZ=              0.0000 YYYX=              0.0000 YYYZ=              0.0000 ZZZX=              0.0000
 ZZZY=              0.0000 XXYY=           -187.4685 XXZZ=           -116.3620 YYZZ=           -116.3620
 XXYZ=              0.0000 YYXZ=              0.0000 ZZXY=              0.0000
 N-N= 1.057213302421D+02 E-N=-1.954055719797D+03  KE= 7.258501304620D+02
 Symmetry A1   KE= 4.246099469863D+02
 Symmetry A2   KE= 1.971788315093D+01
 Symmetry B1   KE= 2.411563974747D+02
 Symmetry B2   KE= 4.036590285005D+01

 Test job not archived.
 1\1\GINC-R1I0N1\SP\RCCSD(T)-FC\CC-pVTZ\Al3(1-)\VSC31064\12-Oct-2016\0\
 \# CCSD(T,conver=5)/cc-pVTZ test geom=allcheck guess=read scf=xqc\\Al3
 -a-s\\-1,1\Al,0,0.,1.465163,0.\Al,0,-1.268868,-0.732581,0.\Al,0,1.2688
 68,-0.732581,0.\\Version=ES64L-G09RevD.01\HF=-725.7118771\MP2=-725.943
 6399\MP3=-725.9642078\MP4D=-725.9760696\MP4DQ=-725.9597702\MP4SDQ=-725
 .9640745\CCSD=-725.9643675\CCSD(T)=-725.9901468\RMSD=4.507e-09\PG=D03H
  [3C2(Al1)]\\@


 THERE ARE TWO THINGS THAT EVERYBODY THINKS THEY CAN DO BETTER THAN
 ANYONE ELSE - PUNCH THE FIRE, AND EDIT A DAILY PAPER.
 -- UNCLE ESEK, "CENTURY MAGAZINE", 1885
 Job cpu time:       0 days  0 hours  2 minutes 45.8 seconds.
 File lengths (MBytes):  RWF=     74 Int=      0 D2E=      0 Chk=      2 Scr=      1
 Normal termination of Gaussian 09 at Wed Oct 12 05:18:07 2016.
