 Entering Gaussian System, Link 0=g09
 Initial command:
 /apps/leuven/thinking/software/G09//g09D1/l1.exe "/local_scratch/vsc31064/Gau-37114.inp" -scrdir="/local_scratch/vsc31064/"
 Entering Link 1 = /apps/leuven/thinking/software/G09//g09D1/l1.exe PID=     37118.
  
 Copyright (c) 1988,1990,1992,1993,1995,1998,2003,2009,2013,
            Gaussian, Inc.  All Rights Reserved.
  
 This is part of the Gaussian(R) 09 program.  It is based on
 the Gaussian(R) 03 system (copyright 2003, Gaussian, Inc.),
 the Gaussian(R) 98 system (copyright 1998, Gaussian, Inc.),
 the Gaussian(R) 94 system (copyright 1995, Gaussian, Inc.),
 the Gaussian 92(TM) system (copyright 1992, Gaussian, Inc.),
 the Gaussian 90(TM) system (copyright 1990, Gaussian, Inc.),
 the Gaussian 88(TM) system (copyright 1988, Gaussian, Inc.),
 the Gaussian 86(TM) system (copyright 1986, Carnegie Mellon
 University), and the Gaussian 82(TM) system (copyright 1983,
 Carnegie Mellon University). Gaussian is a federally registered
 trademark of Gaussian, Inc.
  
 This software contains proprietary and confidential information,
 including trade secrets, belonging to Gaussian, Inc.
  
 This software is provided under written license and may be
 used, copied, transmitted, or stored only in accord with that
 written license.
  
 The following legend is applicable only to US Government
 contracts under FAR:
  
                    RESTRICTED RIGHTS LEGEND
  
 Use, reproduction and disclosure by the US Government is
 subject to restrictions as set forth in subparagraphs (a)
 and (c) of the Commercial Computer Software - Restricted
 Rights clause in FAR 52.227-19.
  
 Gaussian, Inc.
 340 Quinnipiac St., Bldg. 40, Wallingford CT 06492
  
  
 ---------------------------------------------------------------
 Warning -- This program may not be used in any manner that
 competes with the business of Gaussian, Inc. or will provide
 assistance to any competitor of Gaussian, Inc.  The licensee
 of this program is prohibited from giving any competitor of
 Gaussian, Inc. access to this program.  By using this program,
 the user acknowledges that Gaussian, Inc. is engaged in the
 business of creating and licensing software in the field of
 computational chemistry and represents and warrants to the
 licensee that it is not a competitor of Gaussian, Inc. and that
 it will not use this program in any manner prohibited above.
 ---------------------------------------------------------------
  

 Cite this work as:
 Gaussian 09, Revision D.01,
 M. J. Frisch, G. W. Trucks, H. B. Schlegel, G. E. Scuseria, 
 M. A. Robb, J. R. Cheeseman, G. Scalmani, V. Barone, B. Mennucci, 
 G. A. Petersson, H. Nakatsuji, M. Caricato, X. Li, H. P. Hratchian, 
 A. F. Izmaylov, J. Bloino, G. Zheng, J. L. Sonnenberg, M. Hada, 
 M. Ehara, K. Toyota, R. Fukuda, J. Hasegawa, M. Ishida, T. Nakajima, 
 Y. Honda, O. Kitao, H. Nakai, T. Vreven, J. A. Montgomery, Jr., 
 J. E. Peralta, F. Ogliaro, M. Bearpark, J. J. Heyd, E. Brothers, 
 K. N. Kudin, V. N. Staroverov, T. Keith, R. Kobayashi, J. Normand, 
 K. Raghavachari, A. Rendell, J. C. Burant, S. S. Iyengar, J. Tomasi, 
 M. Cossi, N. Rega, J. M. Millam, M. Klene, J. E. Knox, J. B. Cross, 
 V. Bakken, C. Adamo, J. Jaramillo, R. Gomperts, R. E. Stratmann, 
 O. Yazyev, A. J. Austin, R. Cammi, C. Pomelli, J. W. Ochterski, 
 R. L. Martin, K. Morokuma, V. G. Zakrzewski, G. A. Voth, 
 P. Salvador, J. J. Dannenberg, S. Dapprich, A. D. Daniels, 
 O. Farkas, J. B. Foresman, J. V. Ortiz, J. Cioslowski, 
 and D. J. Fox, Gaussian, Inc., Wallingford CT, 2013.
 
 ******************************************
 Gaussian 09:  ES64L-G09RevD.01 24-Apr-2013
                12-Oct-2016 
 ******************************************
 %NprocShared=20
 Will use up to   20 processors via shared memory.
 %mem=55000mb
 %chk=cc-Al3-n-d
 ------------------------
 # hf/6-31G* test scf=xqc
 ------------------------
 1/38=1/1;
 2/12=2,17=6,18=5,40=1/2;
 3/5=1,6=6,7=1,11=9,16=1,25=1,30=1/1,2,3;
 4//1;
 5/5=2,8=3,13=1,38=5/2,8;
 6/7=2,8=2,9=2,10=2,28=1/1;
 99/5=1,9=1/99;
 -------
 Al5-n-d
 -------
 Symbolic Z-matrix:
 Charge =  0 Multiplicity = 2
 Al                    0.        1.52468   0. 
 Al                    1.32042  -0.76234   0. 
 Al                   -1.32042  -0.76234   0. 
 
                          Input orientation:                          
 ---------------------------------------------------------------------
 Center     Atomic      Atomic             Coordinates (Angstroms)
 Number     Number       Type             X           Y           Z
 ---------------------------------------------------------------------
      1         13           0        0.000000    1.524684    0.000000
      2         13           0        1.320415   -0.762342    0.000000
      3         13           0       -1.320415   -0.762342    0.000000
 ---------------------------------------------------------------------
                    Distance matrix (angstroms):
                    1          2          3
     1  Al   0.000000
     2  Al   2.640830   0.000000
     3  Al   2.640830   2.640830   0.000000
 Stoichiometry    Al3(2)
 Framework group  D3H[3C2(Al)]
 Deg. of freedom     1
 Full point group                 D3H     NOp  12
 Largest Abelian subgroup         C2V     NOp   4
 Largest concise Abelian subgroup C2      NOp   2
                         Standard orientation:                         
 ---------------------------------------------------------------------
 Center     Atomic      Atomic             Coordinates (Angstroms)
 Number     Number       Type             X           Y           Z
 ---------------------------------------------------------------------
      1         13           0        0.000000    1.524684    0.000000
      2         13           0       -1.320415   -0.762342    0.000000
      3         13           0        1.320415   -0.762342    0.000000
 ---------------------------------------------------------------------
 Rotational constants (GHZ):      5.3715484      5.3715484      2.6857742
 Standard basis: 6-31G(d) (6D, 7F)
 There are    24 symmetry adapted cartesian basis functions of A1  symmetry.
 There are     6 symmetry adapted cartesian basis functions of A2  symmetry.
 There are    18 symmetry adapted cartesian basis functions of B1  symmetry.
 There are     9 symmetry adapted cartesian basis functions of B2  symmetry.
 There are    24 symmetry adapted basis functions of A1  symmetry.
 There are     6 symmetry adapted basis functions of A2  symmetry.
 There are    18 symmetry adapted basis functions of B1  symmetry.
 There are     9 symmetry adapted basis functions of B2  symmetry.
    57 basis functions,   156 primitive gaussians,    57 cartesian basis functions
    20 alpha electrons       19 beta electrons
       nuclear repulsion energy       101.5941310731 Hartrees.
 NAtoms=    3 NActive=    3 NUniq=    1 SFac= 4.00D+00 NAtFMM=   60 NAOKFM=F Big=F
 Integral buffers will be    131072 words long.
 Raffenetti 2 integral format.
 Two-electron integral symmetry is turned on.
 One-electron integrals computed using PRISM.
 NBasis=    57 RedAO= T EigKep=  7.83D-03  NBF=    24     6    18     9
 NBsUse=    57 1.00D-06 EigRej= -1.00D+00 NBFU=    24     6    18     9
 ExpMin= 5.57D-02 ExpMax= 1.40D+04 ExpMxC= 2.10D+03 IAcc=2 IRadAn=         4 AccDes= 0.00D+00
 Harris functional with IExCor=  205 and IRadAn=       4 diagonalized for initial guess.
 HarFok:  IExCor=  205 AccDes= 0.00D+00 IRadAn=         4 IDoV= 1 UseB2=F ITyADJ=14
 ICtDFT=  3500011 ScaDFX=  1.000000  1.000000  1.000000  1.000000
 FoFCou: FMM=F IPFlag=           0 FMFlag=      100000 FMFlg1=           0
         NFxFlg=           0 DoJE=T BraDBF=F KetDBF=T FulRan=T
         wScrn=  0.000000 ICntrl=     500 IOpCl=  0 I1Cent=   200000004 NGrid=           0
         NMat0=    1 NMatS0=      1 NMatT0=    0 NMatD0=    1 NMtDS0=    0 NMtDT0=    0
 Petite list used in FoFCou.
 Initial guess orbital symmetries:
 Alpha Orbitals:
       Occupied  (E') (E') (A1') (E') (E') (A1') (A1') (E') (E')
                 (E') (E') (A2') (A2") (E") (E") (A1') (E') (E')
                 (A2") (A1')
       Virtual   (E') (E') (E") (E") (A2') (E') (E') (A1') (A1')
                 (E') (E') (A2") (E") (E") (E') (E') (A2') (E')
                 (E') (A1') (A2") (E") (E") (E') (E') (A1') (A1")
                 (E') (E') (E") (E") (E') (E') (A2') (A1') (E')
                 (E')
 Beta  Orbitals:
       Occupied  (E') (E') (A1') (E') (E') (A1') (A1') (E') (E')
                 (E') (E') (A2') (A2") (E") (E") (A1') (E') (E')
                 (A2")
       Virtual   (A1') (E') (E') (E") (E") (A2') (E') (E') (A1')
                 (A1') (E') (E') (A2") (E") (E") (E') (E') (A2')
                 (E') (E') (A1') (A2") (E") (E") (E') (E') (A1')
                 (A1") (E') (E') (E") (E") (E') (E') (A2') (A1')
                 (E') (E')
 The electronic state of the initial guess is 2-A1'.
 Initial guess <Sx>= 0.0000 <Sy>= 0.0000 <Sz>= 0.5000 <S**2>= 0.7500 S= 0.5000
 Keep R1 and R2 ints in memory in symmetry-blocked form, NReq=2230147.
 Requested convergence on RMS density matrix=1.00D-08 within  64 cycles.
 Requested convergence on MAX density matrix=1.00D-06.
 Requested convergence on             energy=1.00D-06.
 No special actions if energy rises.
 SCF Done:  E(UHF) =  -725.621217430     A.U. after   15 cycles
            NFock= 15  Conv=0.10D-08     -V/T= 2.0003
 <Sx>= 0.0000 <Sy>= 0.0000 <Sz>= 0.5000 <S**2>= 1.0915 S= 0.6582
 <L.S>= 0.000000000000E+00
 Annihilation of the first spin contaminant:
 S**2 before annihilation     1.0915,   after     0.8272
 QCSCF skips out because SCF is already converged.

 **********************************************************************

            Population analysis using the SCF density.

 **********************************************************************

 Orbital symmetries:
 Alpha Orbitals:
       Occupied  (E') (E') (A1') (A1') (E') (E') (A1') (E') (E')
                 (A2") (E") (E") (E') (E') (A2') (A1') (E') (E')
                 (A1') (A2")
       Virtual   (E') (E') (E") (E") (E') (E') (A2') (A1') (A1')
                 (E') (E') (A2") (E') (E') (E") (E") (A2') (E')
                 (E') (A2") (A1') (E") (E") (E') (E') (A1') (A1")
                 (E') (E') (E") (E") (E') (E') (A2') (A1') (E')
                 (E')
 Beta  Orbitals:
       Occupied  (E') (E') (A1') (A1') (E') (E') (E') (E') (A2')
                 (A2") (E") (E") (A1') (E') (E') (A1') (E') (E')
                 (A2")
       Virtual   (E') (E') (A1') (E") (E") (E') (E') (A2') (A1')
                 (A1') (E') (E') (A2") (E") (E") (E') (E') (A2')
                 (E') (E') (A1') (A2") (E") (E") (E') (E') (A1')
                 (A1") (E') (E') (E") (E") (E') (E') (A2') (A1')
                 (E') (E')
 The electronic state is 2-A1'.
 Alpha  occ. eigenvalues --  -58.49474 -58.49474 -58.49471  -4.91479  -4.91466
 Alpha  occ. eigenvalues --   -4.91466  -3.22751  -3.22681  -3.22681  -3.22266
 Alpha  occ. eigenvalues --   -3.22257  -3.22257  -3.22229  -3.22229  -3.22205
 Alpha  occ. eigenvalues --   -0.56650  -0.37879  -0.37879  -0.26245  -0.21535
 Alpha virt. eigenvalues --   -0.01147  -0.01147   0.04262   0.04262   0.10526
 Alpha virt. eigenvalues --    0.10526   0.11836   0.20333   0.22306   0.27083
 Alpha virt. eigenvalues --    0.27083   0.28796   0.33628   0.33628   0.34283
 Alpha virt. eigenvalues --    0.34283   0.39445   0.40123   0.40123   0.51441
 Alpha virt. eigenvalues --    0.52370   0.59188   0.59188   0.63028   0.63028
 Alpha virt. eigenvalues --    0.69773   0.74393   0.74761   0.74761   0.80451
 Alpha virt. eigenvalues --    0.80451   0.99509   0.99509   1.01841   2.23930
 Alpha virt. eigenvalues --    2.35712   2.35712
  Beta  occ. eigenvalues --  -58.49304 -58.49304 -58.49301  -4.91185  -4.91175
  Beta  occ. eigenvalues --   -4.91175  -3.22373  -3.22373  -3.22344  -3.22148
  Beta  occ. eigenvalues --   -3.22138  -3.22138  -3.21822  -3.21751  -3.21751
  Beta  occ. eigenvalues --   -0.55517  -0.33793  -0.33793  -0.21735
  Beta virt. eigenvalues --   -0.00195  -0.00195   0.00251   0.05551   0.05551
  Beta virt. eigenvalues --    0.11808   0.11808   0.13756   0.22091   0.26544
  Beta virt. eigenvalues --    0.27349   0.27349   0.28860   0.34701   0.34701
  Beta virt. eigenvalues --    0.35948   0.35948   0.39596   0.41605   0.41605
  Beta virt. eigenvalues --    0.52664   0.55593   0.59079   0.59079   0.64431
  Beta virt. eigenvalues --    0.64431   0.71566   0.74406   0.75432   0.75432
  Beta virt. eigenvalues --    0.81970   0.81970   1.00972   1.00972   1.02310
  Beta virt. eigenvalues --    2.24353   2.36251   2.36251
          Condensed to atoms (all electrons):
               1          2          3
     1  Al  12.735725   0.132137   0.132137
     2  Al   0.132137  12.735725   0.132137
     3  Al   0.132137   0.132137  12.735725
          Atomic-Atomic Spin Densities.
               1          2          3
     1  Al   0.089454   0.121940   0.121940
     2  Al   0.121940   0.089454   0.121940
     3  Al   0.121940   0.121940   0.089454
 Mulliken charges and spin densities:
               1          2
     1  Al   0.000000   0.333333
     2  Al   0.000000   0.333333
     3  Al   0.000000   0.333333
 Sum of Mulliken charges =   0.00000   1.00000
 Mulliken charges and spin densities with hydrogens summed into heavy atoms:
               1          2
     1  Al   0.000000   0.333333
     2  Al   0.000000   0.333333
     3  Al   0.000000   0.333333
 Electronic spatial extent (au):  <R**2>=            417.0838
 Charge=              0.0000 electrons
 Dipole moment (field-independent basis, Debye):
    X=              0.0000    Y=              0.0000    Z=              0.0000  Tot=              0.0000
 Quadrupole moment (field-independent basis, Debye-Ang):
   XX=            -38.4509   YY=            -38.4509   ZZ=            -48.6231
   XY=              0.0000   XZ=              0.0000   YZ=              0.0000
 Traceless Quadrupole moment (field-independent basis, Debye-Ang):
   XX=              3.3908   YY=              3.3908   ZZ=             -6.7815
   XY=              0.0000   XZ=              0.0000   YZ=              0.0000
 Octapole moment (field-independent basis, Debye-Ang**2):
  XXX=              0.0000  YYY=             -2.4872  ZZZ=              0.0000  XYY=              0.0000
  XXY=              2.4872  XXZ=              0.0000  XZZ=              0.0000  YZZ=              0.0000
  YYZ=              0.0000  XYZ=              0.0000
 Hexadecapole moment (field-independent basis, Debye-Ang**3):
 XXXX=           -379.4171 YYYY=           -379.4171 ZZZZ=           -148.7059 XXXY=              0.0000
 XXXZ=              0.0000 YYYX=              0.0000 YYYZ=              0.0000 ZZZX=              0.0000
 ZZZY=              0.0000 XXYY=           -126.4724 XXZZ=            -92.9866 YYZZ=            -92.9866
 XXYZ=              0.0000 YYXZ=              0.0000 ZZXY=              0.0000
 N-N= 1.015941310731D+02 E-N=-1.938135035770D+03  KE= 7.254012787696D+02
 Symmetry A1   KE= 4.239766555424D+02
 Symmetry A2   KE= 1.972500510570D+01
 Symmetry B1   KE= 2.412382949105D+02
 Symmetry B2   KE= 4.046132321100D+01
                          Isotropic Fermi Contact Couplings
        Atom                 a.u.       MegaHertz       Gauss      10(-4) cm-1
     1  Al(27)             0.17665     205.90889      73.47341      68.68381
     2  Al(27)             0.17665     205.90889      73.47341      68.68381
     3  Al(27)             0.17665     205.90889      73.47341      68.68381
 --------------------------------------------------------
       Center         ----  Spin Dipole Couplings  ----
                      3XX-RR        3YY-RR        3ZZ-RR
 --------------------------------------------------------
     1   Atom       -0.395505      0.563215     -0.167711
     2   Atom        0.323535     -0.155825     -0.167711
     3   Atom        0.323535     -0.155825     -0.167711
 --------------------------------------------------------
                        XY            XZ            YZ
 --------------------------------------------------------
     1   Atom        0.000000      0.000000      0.000000
     2   Atom        0.415138      0.000000      0.000000
     3   Atom       -0.415138      0.000000      0.000000
 --------------------------------------------------------


 ---------------------------------------------------------------------------------
              Anisotropic Spin Dipole Couplings in Principal Axis System
 ---------------------------------------------------------------------------------

       Atom             a.u.   MegaHertz   Gauss  10(-4) cm-1        Axes

              Baa    -0.3955   -55.029   -19.636   -18.356  1.0000  0.0000  0.0000
     1 Al(27) Bbb    -0.1677   -23.335    -8.326    -7.784  0.0000  0.0000  1.0000
              Bcc     0.5632    78.364    27.962    26.139  0.0000  1.0000  0.0000
 
              Baa    -0.3955   -55.029   -19.636   -18.356 -0.5000  0.8660  0.0000
     2 Al(27) Bbb    -0.1677   -23.335    -8.326    -7.784  0.0000  0.0000  1.0000
              Bcc     0.5632    78.364    27.962    26.139  0.8660  0.5000  0.0000
 
              Baa    -0.3955   -55.029   -19.636   -18.356  0.5000  0.8660  0.0000
     3 Al(27) Bbb    -0.1677   -23.335    -8.326    -7.784  0.0000  0.0000  1.0000
              Bcc     0.5632    78.364    27.962    26.139  0.8660 -0.5000  0.0000
 

 ---------------------------------------------------------------------------------


 Test job not archived.
 1\1\GINC-R1I0N3\SP\UHF\6-31G(d)\Al3(2)\VSC31064\12-Oct-2016\0\\# hf/6-
 31G* test scf=xqc\\Al5-n-d\\0,2\Al,0,0.,1.524684,0.\Al,0,1.320415,-0.7
 62342,0.\Al,0,-1.320415,-0.762342,0.\\Version=ES64L-G09RevD.01\State=2
 -A1'\HF=-725.6212174\S2=1.091471\S2-1=0.\S2A=0.8272\RMSD=1.032e-09\Dip
 ole=0.,0.,0.\Quadrupole=2.5209403,2.5209403,-5.0418807,0.,0.,0.\PG=D03
 H [3C2(Al1)]\\@


 We make a living by what we get,
 we make a life by what we give.
                   -- Sir Winston Churchill
 Job cpu time:       0 days  0 hours  0 minutes 51.4 seconds.
 File lengths (MBytes):  RWF=      5 Int=      0 D2E=      0 Chk=      1 Scr=      1
 Normal termination of Gaussian 09 at Wed Oct 12 05:02:37 2016.
 Initial command:
 /apps/leuven/thinking/software/G09//g09D1/l1.exe "/local_scratch/vsc31064/Gau-37114.inp" -scrdir="/local_scratch/vsc31064/"
 Entering Link 1 = /apps/leuven/thinking/software/G09//g09D1/l1.exe PID=     37349.
  
 Copyright (c) 1988,1990,1992,1993,1995,1998,2003,2009,2013,
            Gaussian, Inc.  All Rights Reserved.
  
 This is part of the Gaussian(R) 09 program.  It is based on
 the Gaussian(R) 03 system (copyright 2003, Gaussian, Inc.),
 the Gaussian(R) 98 system (copyright 1998, Gaussian, Inc.),
 the Gaussian(R) 94 system (copyright 1995, Gaussian, Inc.),
 the Gaussian 92(TM) system (copyright 1992, Gaussian, Inc.),
 the Gaussian 90(TM) system (copyright 1990, Gaussian, Inc.),
 the Gaussian 88(TM) system (copyright 1988, Gaussian, Inc.),
 the Gaussian 86(TM) system (copyright 1986, Carnegie Mellon
 University), and the Gaussian 82(TM) system (copyright 1983,
 Carnegie Mellon University). Gaussian is a federally registered
 trademark of Gaussian, Inc.
  
 This software contains proprietary and confidential information,
 including trade secrets, belonging to Gaussian, Inc.
  
 This software is provided under written license and may be
 used, copied, transmitted, or stored only in accord with that
 written license.
  
 The following legend is applicable only to US Government
 contracts under FAR:
  
                    RESTRICTED RIGHTS LEGEND
  
 Use, reproduction and disclosure by the US Government is
 subject to restrictions as set forth in subparagraphs (a)
 and (c) of the Commercial Computer Software - Restricted
 Rights clause in FAR 52.227-19.
  
 Gaussian, Inc.
 340 Quinnipiac St., Bldg. 40, Wallingford CT 06492
  
  
 ---------------------------------------------------------------
 Warning -- This program may not be used in any manner that
 competes with the business of Gaussian, Inc. or will provide
 assistance to any competitor of Gaussian, Inc.  The licensee
 of this program is prohibited from giving any competitor of
 Gaussian, Inc. access to this program.  By using this program,
 the user acknowledges that Gaussian, Inc. is engaged in the
 business of creating and licensing software in the field of
 computational chemistry and represents and warrants to the
 licensee that it is not a competitor of Gaussian, Inc. and that
 it will not use this program in any manner prohibited above.
 ---------------------------------------------------------------
  

 Cite this work as:
 Gaussian 09, Revision D.01,
 M. J. Frisch, G. W. Trucks, H. B. Schlegel, G. E. Scuseria, 
 M. A. Robb, J. R. Cheeseman, G. Scalmani, V. Barone, B. Mennucci, 
 G. A. Petersson, H. Nakatsuji, M. Caricato, X. Li, H. P. Hratchian, 
 A. F. Izmaylov, J. Bloino, G. Zheng, J. L. Sonnenberg, M. Hada, 
 M. Ehara, K. Toyota, R. Fukuda, J. Hasegawa, M. Ishida, T. Nakajima, 
 Y. Honda, O. Kitao, H. Nakai, T. Vreven, J. A. Montgomery, Jr., 
 J. E. Peralta, F. Ogliaro, M. Bearpark, J. J. Heyd, E. Brothers, 
 K. N. Kudin, V. N. Staroverov, T. Keith, R. Kobayashi, J. Normand, 
 K. Raghavachari, A. Rendell, J. C. Burant, S. S. Iyengar, J. Tomasi, 
 M. Cossi, N. Rega, J. M. Millam, M. Klene, J. E. Knox, J. B. Cross, 
 V. Bakken, C. Adamo, J. Jaramillo, R. Gomperts, R. E. Stratmann, 
 O. Yazyev, A. J. Austin, R. Cammi, C. Pomelli, J. W. Ochterski, 
 R. L. Martin, K. Morokuma, V. G. Zakrzewski, G. A. Voth, 
 P. Salvador, J. J. Dannenberg, S. Dapprich, A. D. Daniels, 
 O. Farkas, J. B. Foresman, J. V. Ortiz, J. Cioslowski, 
 and D. J. Fox, Gaussian, Inc., Wallingford CT, 2013.
 
 ******************************************
 Gaussian 09:  ES64L-G09RevD.01 24-Apr-2013
                12-Oct-2016 
 ******************************************
 %NprocShared=20
 Will use up to   20 processors via shared memory.
 %mem=55000mb
 %chk=cc-Al3-n-d
 ----------------------------------------------------------------
 # CCSD(T,conver=5)/cc-pVTZ test geom=allcheck guess=read scf=xqc
 ----------------------------------------------------------------
 1/29=7,38=1/1;
 2/12=2,40=1/2;
 3/5=16,6=1,11=9,14=-4,16=1,25=1,30=1,116=-2/1,2,3;
 4/5=1/1;
 5/5=2,8=3,13=1,38=6/2,8;
 8/6=4,9=120000,10=1/1,4;
 9/5=7,9=5,14=2/13;
 6/7=2,8=2,9=2,10=2/1;
 99/5=1,9=1/99;
 Structure from the checkpoint file:  "cc-Al3-n-d.chk"
 -------
 Al5-n-d
 -------
 Charge =  0 Multiplicity = 2
 Z-Matrix found in file.
 Al,0,0.,1.524684,0.
 Al,0,1.320415,-0.762342,0.
 Al,0,-1.320415,-0.762342,0.
 Recover connectivity data from disk.
                          Input orientation:                          
 ---------------------------------------------------------------------
 Center     Atomic      Atomic             Coordinates (Angstroms)
 Number     Number       Type             X           Y           Z
 ---------------------------------------------------------------------
      1         13           0        0.000000    1.524684    0.000000
      2         13           0        1.320415   -0.762342    0.000000
      3         13           0       -1.320415   -0.762342    0.000000
 ---------------------------------------------------------------------
                    Distance matrix (angstroms):
                    1          2          3
     1  Al   0.000000
     2  Al   2.640830   0.000000
     3  Al   2.640830   2.640830   0.000000
 Stoichiometry    Al3(2)
 Framework group  D3H[3C2(Al)]
 Deg. of freedom     1
 Full point group                 D3H     NOp  12
 Largest Abelian subgroup         C2V     NOp   4
 Largest concise Abelian subgroup C2      NOp   2
                         Standard orientation:                         
 ---------------------------------------------------------------------
 Center     Atomic      Atomic             Coordinates (Angstroms)
 Number     Number       Type             X           Y           Z
 ---------------------------------------------------------------------
      1         13           0        0.000000    1.524684    0.000000
      2         13           0       -1.320415   -0.762342    0.000000
      3         13           0        1.320415   -0.762342    0.000000
 ---------------------------------------------------------------------
 Rotational constants (GHZ):      5.3715484      5.3715484      2.6857742
 Standard basis: CC-pVTZ (5D, 7F)
 There are    45 symmetry adapted cartesian basis functions of A1  symmetry.
 There are    15 symmetry adapted cartesian basis functions of A2  symmetry.
 There are    36 symmetry adapted cartesian basis functions of B1  symmetry.
 There are    21 symmetry adapted cartesian basis functions of B2  symmetry.
 There are    38 symmetry adapted basis functions of A1  symmetry.
 There are    14 symmetry adapted basis functions of A2  symmetry.
 There are    31 symmetry adapted basis functions of B1  symmetry.
 There are    19 symmetry adapted basis functions of B2  symmetry.
   102 basis functions,   285 primitive gaussians,   117 cartesian basis functions
    20 alpha electrons       19 beta electrons
       nuclear repulsion energy       101.5941310731 Hartrees.
 NAtoms=    3 NActive=    3 NUniq=    1 SFac= 4.00D+00 NAtFMM=   60 NAOKFM=F Big=F
 Integral buffers will be    131072 words long.
 Raffenetti 2 integral format.
 Two-electron integral symmetry is turned on.
 One-electron integrals computed using PRISM.
 NBasis=   102 RedAO= T EigKep=  1.93D-03  NBF=    38    14    31    19
 NBsUse=   102 1.00D-06 EigRej= -1.00D+00 NBFU=    38    14    31    19
 Initial guess from the checkpoint file:  "cc-Al3-n-d.chk"
 B after Tr=     0.000000    0.000000    0.000000
         Rot=    1.000000    0.000000    0.000000    0.000000 Ang=   0.00 deg.
 Initial guess orbital symmetries:
 Alpha Orbitals:
       Occupied  (?A) (?A) (?A) (?A) (?A) (?A) (?A) (?A) (?A) (?B)
                 (?B) (?B) (?A) (?A) (?A) (?A) (?A) (?A) (?A) (?B)
       Virtual   (?A) (?A) (?A) (?A) (?A) (?A) (?A) (?A) (?A) (?A)
                 (?A) (?A) (?A) (?A) (?A) (?A) (?A) (?A) (?A) (?A)
                 (?A) (?A) (?A) (?A) (?A) (?A) (?A) (?A) (?B) (?B)
                 (?B) (?B) (?B) (?B) (?B) (?B) (?B) (?B) (?B) (?B)
                 (?B) (?A) (?A) (?A) (?A) (?A) (?A) (?A) (?A) (?A)
                 (?A) (?A) (?A) (?A) (?A) (?A) (?A) (?A) (?A) (?A)
                 (?A) (?A) (?A) (?A) (?A) (?A) (?B) (?B) (?B) (?B)
                 (?B) (?B) (?B) (?B) (?B) (?B) (?B) (?B) (?B) (?B)
                 (?B) (?B)
 Beta  Orbitals:
       Occupied  (?A) (?A) (?A) (?A) (?A) (?A) (?A) (?A) (?A) (?B)
                 (?B) (?B) (?A) (?A) (?A) (?A) (?A) (?A) (?B)
       Virtual   (?A) (?A) (?A) (?A) (?A) (?A) (?A) (?A) (?A) (?A)
                 (?A) (?A) (?A) (?A) (?A) (?A) (?A) (?A) (?A) (?A)
                 (?A) (?A) (?A) (?A) (?A) (?A) (?A) (?A) (?A) (?B)
                 (?B) (?B) (?B) (?B) (?B) (?B) (?B) (?B) (?B) (?B)
                 (?B) (?B) (?A) (?A) (?A) (?A) (?A) (?A) (?A) (?A)
                 (?A) (?A) (?A) (?A) (?A) (?A) (?A) (?A) (?A) (?A)
                 (?A) (?A) (?A) (?A) (?A) (?A) (?A) (?B) (?B) (?B)
                 (?B) (?B) (?B) (?B) (?B) (?B) (?B) (?B) (?B) (?B)
                 (?B) (?B) (?B)
 Initial guess <Sx>= 0.0000 <Sy>= 0.0000 <Sz>= 0.5000 <S**2>= 1.0993 S= 0.6616
 Keep R1 and R2 ints in memory in symmetry-blocked form, NReq=17378621.
 Requested convergence on RMS density matrix=1.00D-08 within  64 cycles.
 Requested convergence on MAX density matrix=1.00D-06.
 Requested convergence on             energy=1.00D-06.
 No special actions if energy rises.
 SCF Done:  E(UHF) =  -725.690543325     A.U. after   14 cycles
            NFock= 14  Conv=0.20D-08     -V/T= 2.0001
 <Sx>= 0.0000 <Sy>= 0.0000 <Sz>= 0.5000 <S**2>= 1.1685 S= 0.6910
 <L.S>= 0.000000000000E+00
 Annihilation of the first spin contaminant:
 S**2 before annihilation     1.1685,   after     0.8742
 QCSCF skips out because SCF is already converged.
 ExpMin= 5.56D-02 ExpMax= 2.06D+05 ExpMxC= 1.99D+03 IAcc=3 IRadAn=         5 AccDes= 0.00D+00
 HarFok:  IExCor=  205 AccDes= 0.00D+00 IRadAn=         5 IDoV=-2 UseB2=F ITyADJ=14
 ICtDFT= 12500011 ScaDFX=  1.000000  1.000000  1.000000  1.000000
 DSYEVD-2 returned Info=          69 IAlg= 4 N=    34 NDim=    34 NE2=   212027182 trying  DSYEV.
 DSYEVD-2 returned Info=          69 IAlg= 4 N=    34 NDim=    34 NE2=   212027182 trying  DSYEV.
 Range of M.O.s used for correlation:    16   102
 NBasis=   102 NAE=    20 NBE=    19 NFC=    15 NFV=     0
 NROrb=     87 NOA=     5 NOB=     4 NVA=    82 NVB=    83
 Semi-Direct transformation.
 ModeAB=           4 MOrb=             5 LenV=    7208475736
 LASXX=       397671 LTotXX=      397671 LenRXX=      813012
 LTotAB=      415341 MaxLAS=     1793070 LenRXY=           0
 NonZer=     1210683 LenScr=     2420736 LnRSAI=     1793070
 LnScr1=     3361280 LExtra=           0 Total=      8388098
 MaxDsk=          -1 SrtSym=           T ITran=            4
 JobTyp=1 Pass  1:  I=   1 to   5.
 (rs|ai) integrals will be sorted in core.
 ModeAB=           4 MOrb=             4 LenV=    7208475736
 LASXX=       319638 LTotXX=      319638 LenRXX=      615322
 LTotAB=      295684 MaxLAS=     1434456 LenRXY=           0
 NonZer=      934960 LenScr=     2102784 LnRSAI=     1434456
 LnScr1=     2867200 LExtra=           0 Total=      7019762
 MaxDsk=          -1 SrtSym=           T ITran=            4
 JobTyp=2 Pass  1:  I=   1 to   4.
 (rs|ai) integrals will be sorted in core.
 Spin components of T(2) and E(2):
     alpha-alpha T2 =       0.1994486477D-01 E2=     -0.2017607439D-01
     alpha-beta  T2 =       0.1294022274D+00 E2=     -0.1390476218D+00
     beta-beta   T2 =       0.2142686383D-01 E2=     -0.1991941908D-01
 ANorm=    0.1082023085D+01
 E2 =    -0.1791431153D+00 EUMP2 =    -0.72586968644031D+03
 (S**2,0)=  0.11685D+01           (S**2,1)=  0.10731D+01
 E(PUHF)=      -0.72570612952D+03        E(PMP2)=      -0.72588376376D+03
 Keep R2 and R3 ints in memory in symmetry-blocked form, NReq=17329730.
 Iterations=  50 Convergence= 0.100D-04
 Iteration Nr.   1
 **********************
 DD1Dir will call FoFMem   1 times, MxPair=        56
 NAB=    20 NAA=    10 NBB=     6.
 E(PMP3)=      -0.72590429611D+03
 MP4(R+Q)=  0.11320864D-01
 E3=       -0.23196663D-01        EUMP3=      -0.72589288310D+03
 E4(DQ)=    0.19732685D-02        UMP4(DQ)=   -0.72589090984D+03
 E4(SDQ)=  -0.24148814D-02        UMP4(SDQ)=  -0.72589529799D+03
 DE(Corr)= -0.19116500     E(Corr)=     -725.88170833    
 NORM(A)=   0.11007494D+01
 Iteration Nr.   2
 **********************
 DD1Dir will call FoFMem   1 times, MxPair=        56
 NAB=    20 NAA=    10 NBB=     6.
 DE(Corr)= -0.20173570     E(CORR)=     -725.89227902     Delta=-1.06D-02
 NORM(A)=   0.11276766D+01
 Iteration Nr.   3
 **********************
 DD1Dir will call FoFMem   1 times, MxPair=        56
 NAB=    20 NAA=    10 NBB=     6.
 DE(Corr)= -0.20612629     E(CORR)=     -725.89666961     Delta=-4.39D-03
 NORM(A)=   0.11475804D+01
 Iteration Nr.   4
 **********************
 DD1Dir will call FoFMem   1 times, MxPair=        56
 NAB=    20 NAA=    10 NBB=     6.
 DE(Corr)= -0.21012950     E(CORR)=     -725.90067282     Delta=-4.00D-03
 NORM(A)=   0.11619095D+01
 Iteration Nr.   5
 **********************
 DD1Dir will call FoFMem   1 times, MxPair=        56
 NAB=    20 NAA=    10 NBB=     6.
 DE(Corr)= -0.21163041     E(CORR)=     -725.90217374     Delta=-1.50D-03
 NORM(A)=   0.11652658D+01
 Iteration Nr.   6
 **********************
 DD1Dir will call FoFMem   1 times, MxPair=        56
 NAB=    20 NAA=    10 NBB=     6.
 DE(Corr)= -0.21187763     E(CORR)=     -725.90242095     Delta=-2.47D-04
 NORM(A)=   0.11654904D+01
 Iteration Nr.   7
 **********************
 DD1Dir will call FoFMem   1 times, MxPair=        56
 NAB=    20 NAA=    10 NBB=     6.
 DE(Corr)= -0.21190085     E(CORR)=     -725.90244418     Delta=-2.32D-05
 NORM(A)=   0.11657548D+01
 Iteration Nr.   8
 **********************
 DD1Dir will call FoFMem   1 times, MxPair=        56
 NAB=    20 NAA=    10 NBB=     6.
 DE(Corr)= -0.21190948     E(CORR)=     -725.90245280     Delta=-8.63D-06
 NORM(A)=   0.11656980D+01
 Iteration Nr.   9
 **********************
 DD1Dir will call FoFMem   1 times, MxPair=        56
 NAB=    20 NAA=    10 NBB=     6.
 DE(Corr)= -0.21191194     E(CORR)=     -725.90245527     Delta=-2.46D-06
 NORM(A)=   0.11657159D+01
 Dominant configurations:
 ***********************
 Spin Case        I    J    A    B          Value
    AA           17        22           -0.152433D+00
    AA           18        21           -0.152433D+00
    BB           17        20            0.108621D+00
    BB           18        21            0.108621D+00
 Largest amplitude= 1.52D-01
 Time for triples=       52.09 seconds.
 T4(CCSD)= -0.22061716D-01
 T5(CCSD)=  0.12078108D-02
 CCSD(T)= -0.72592330917D+03

 S**2, projected HF & approx projected MPn energies after annihilation of
 unwanted spin states (see manual for definitions):

 spins       (S**2,0) (S**2,1)    PUHF        PMP2        PMP3        PMP4
 annihilated
 s+1         0.67597  0.70900 -725.706130 -725.883764 -725.904296
 s+1,s+2     0.75142  0.74998 -725.704182 -725.881852 -725.902472
 s+1 to s+3  0.75000  0.75000 -725.704236 -725.881894 -725.902495
 s+1 to s+4  0.75000  0.75000 -725.704236 -725.881894 -725.902495

 Discarding MO integrals.

 **********************************************************************

            Population analysis using the SCF density.

 **********************************************************************

 Orbital symmetries:
 Alpha Orbitals:
       Occupied  (?A) (?B) (?B) (?A) (?B) (?B) (?A) (?B) (?B) (?C)
                 (?D) (?D) (?B) (?B) (?A) (?A) (?B) (?B) (?A) (?C)
       Virtual   (?B) (?B) (?D) (?D) (?B) (?B) (?A) (?A) (?C) (?A)
                 (?A) (?B) (?B) (?D) (?D) (?B) (?B) (?A) (?D) (?D)
                 (?C) (?B) (?B) (?B) (?B) (?C) (?D) (?D) (?B) (?B)
                 (?A) (?A) (?B) (?B) (?A) (?C) (?C) (?A) (?D) (?D)
                 (?B) (?B) (?B) (?B) (?B) (?B) (?C) (?D) (?D) (?A)
                 (?D) (?D) (?A) (?B) (?B) (?D) (?D) (?A) (?C) (?B)
                 (?B) (?A) (?B) (?B) (?D) (?D) (?C) (?B) (?B) (?A)
                 (?A) (?B) (?B) (?C) (?A) (?B) (?B) (?D) (?D) (?A)
                 (?B) (?B)
 Beta  Orbitals:
       Occupied  (?A) (?B) (?B) (?A) (?B) (?B) (?B) (?B) (?A) (?C)
                 (?D) (?D) (?A) (?B) (?B) (?A) (?B) (?B) (?C)
       Virtual   (?B) (?B) (?A) (?D) (?D) (?B) (?B) (?A) (?A) (?C)
                 (?A) (?B) (?B) (?D) (?D) (?A) (?A) (?B) (?B) (?D)
                 (?D) (?B) (?B) (?C) (?B) (?B) (?C) (?D) (?D) (?B)
                 (?B) (?A) (?A) (?B) (?B) (?A) (?C) (?C) (?D) (?D)
                 (?A) (?B) (?B) (?B) (?B) (?B) (?B) (?C) (?D) (?D)
                 (?D) (?D) (?A) (?A) (?B) (?B) (?A) (?D) (?D) (?C)
                 (?B) (?B) (?A) (?B) (?B) (?D) (?D) (?C) (?B) (?B)
                 (?A) (?A) (?B) (?B) (?C) (?A) (?B) (?B) (?D) (?D)
                 (?A) (?B) (?B)
 Unable to determine electronic state:  an orbital has unidentified symmetry.
 Alpha  occ. eigenvalues --  -58.50332 -58.50332 -58.50332  -4.91440  -4.91427
 Alpha  occ. eigenvalues --   -4.91427  -3.22778  -3.22708  -3.22708  -3.22276
 Alpha  occ. eigenvalues --   -3.22266  -3.22266  -3.22170  -3.22170  -3.22144
 Alpha  occ. eigenvalues --   -0.56124  -0.37746  -0.37746  -0.26436  -0.21570
 Alpha virt. eigenvalues --   -0.00575  -0.00575   0.04527   0.04527   0.09704
 Alpha virt. eigenvalues --    0.09704   0.11590   0.17775   0.20136   0.20643
 Alpha virt. eigenvalues --    0.23285   0.23509   0.23509   0.26530   0.26530
 Alpha virt. eigenvalues --    0.28726   0.28726   0.29598   0.32900   0.32900
 Alpha virt. eigenvalues --    0.34077   0.35057   0.35057   0.38942   0.38942
 Alpha virt. eigenvalues --    0.39668   0.45387   0.45387   0.45463   0.45463
 Alpha virt. eigenvalues --    0.55608   0.62180   0.62930   0.62930   0.72446
 Alpha virt. eigenvalues --    0.74581   0.80513   0.82336   0.82449   0.82449
 Alpha virt. eigenvalues --    0.82626   0.82626   0.88444   0.88444   0.94182
 Alpha virt. eigenvalues --    0.94182   0.94763   0.95886   0.95886   0.98744
 Alpha virt. eigenvalues --    0.98790   0.98790   1.02719   1.03059   1.03059
 Alpha virt. eigenvalues --    1.07761   1.07761   1.07977   1.08672   1.17951
 Alpha virt. eigenvalues --    1.17951   1.19680   1.24876   1.24876   1.25441
 Alpha virt. eigenvalues --    1.25441   1.32466   1.32684   1.32684   1.36861
 Alpha virt. eigenvalues --    1.88487   2.15956   2.15956   2.28440   2.37637
 Alpha virt. eigenvalues --    2.39356   2.39356   2.44185   2.44185   2.86747
 Alpha virt. eigenvalues --    3.19338   3.19338
  Beta  occ. eigenvalues --  -58.50134 -58.50134 -58.50134  -4.91109  -4.91099
  Beta  occ. eigenvalues --   -4.91099  -3.22338  -3.22338  -3.22306  -3.22135
  Beta  occ. eigenvalues --   -3.22124  -3.22124  -3.21749  -3.21679  -3.21679
  Beta  occ. eigenvalues --   -0.54870  -0.33631  -0.33631  -0.21835
  Beta virt. eigenvalues --   -0.00159  -0.00159   0.00747   0.05802   0.05802
  Beta virt. eigenvalues --    0.10494   0.10494   0.13279   0.19199   0.21737
  Beta virt. eigenvalues --    0.21960   0.24696   0.24696   0.26049   0.26049
  Beta virt. eigenvalues --    0.26346   0.30365   0.30393   0.30393   0.33705
  Beta virt. eigenvalues --    0.33705   0.35714   0.35714   0.36456   0.39434
  Beta virt. eigenvalues --    0.39434   0.40223   0.46488   0.46488   0.47174
  Beta virt. eigenvalues --    0.47174   0.57263   0.61980   0.64905   0.64905
  Beta virt. eigenvalues --    0.74078   0.76330   0.79995   0.81817   0.81817
  Beta virt. eigenvalues --    0.81981   0.82743   0.82743   0.88724   0.88724
  Beta virt. eigenvalues --    0.94363   0.94363   0.94776   0.96581   0.96581
  Beta virt. eigenvalues --    0.99754   0.99754   1.00436   1.03734   1.04765
  Beta virt. eigenvalues --    1.04765   1.08198   1.08569   1.08569   1.10349
  Beta virt. eigenvalues --    1.18735   1.18735   1.22163   1.26058   1.26058
  Beta virt. eigenvalues --    1.26374   1.26374   1.33060   1.33510   1.33510
  Beta virt. eigenvalues --    1.36511   1.88932   2.17208   2.17208   2.28718
  Beta virt. eigenvalues --    2.39093   2.39476   2.39476   2.44522   2.44522
  Beta virt. eigenvalues --    2.86773   3.19793   3.19793
          Condensed to atoms (all electrons):
               1          2          3
     1  Al  12.460134   0.269933   0.269933
     2  Al   0.269933  12.460134   0.269933
     3  Al   0.269933   0.269933  12.460134
          Atomic-Atomic Spin Densities.
               1          2          3
     1  Al   0.426166  -0.046416  -0.046416
     2  Al  -0.046416   0.426166  -0.046416
     3  Al  -0.046416  -0.046416   0.426166
 Mulliken charges and spin densities:
               1          2
     1  Al   0.000000   0.333333
     2  Al   0.000000   0.333333
     3  Al   0.000000   0.333333
 Sum of Mulliken charges =   0.00000   1.00000
 Mulliken charges and spin densities with hydrogens summed into heavy atoms:
               1          2
     1  Al   0.000000   0.333333
     2  Al   0.000000   0.333333
     3  Al   0.000000   0.333333
 Electronic spatial extent (au):  <R**2>=            415.4754
 Charge=              0.0000 electrons
 Dipole moment (field-independent basis, Debye):
    X=              0.0000    Y=              0.0000    Z=              0.0000  Tot=              0.0000
 Quadrupole moment (field-independent basis, Debye-Ang):
   XX=            -37.7204   YY=            -37.7204   ZZ=            -47.9207
   XY=              0.0000   XZ=              0.0000   YZ=              0.0000
 Traceless Quadrupole moment (field-independent basis, Debye-Ang):
   XX=              3.4001   YY=              3.4001   ZZ=             -6.8002
   XY=              0.0000   XZ=              0.0000   YZ=              0.0000
 Octapole moment (field-independent basis, Debye-Ang**2):
  XXX=              0.0000  YYY=             -1.4707  ZZZ=              0.0000  XYY=              0.0000
  XXY=              1.4707  XXZ=              0.0000  XZZ=              0.0000  YZZ=              0.0000
  YYZ=              0.0000  XYZ=              0.0000
 Hexadecapole moment (field-independent basis, Debye-Ang**3):
 XXXX=           -376.6732 YYYY=           -376.6732 ZZZZ=           -145.6929 XXXY=              0.0000
 XXXZ=              0.0000 YYYX=              0.0000 YYYZ=              0.0000 ZZZX=              0.0000
 ZZZY=              0.0000 XXYY=           -125.5577 XXZZ=            -88.3033 YYZZ=            -88.3033
 XXYZ=              0.0000 YYXZ=              0.0000 ZZXY=              0.0000
 N-N= 1.015941310731D+02 E-N=-1.938465291569D+03  KE= 7.256213552275D+02
 Symmetry A1   KE= 4.241357976845D+02
 Symmetry A2   KE= 1.973010137348D+01
 Symmetry B1   KE= 2.413088498798D+02
 Symmetry B2   KE= 4.044660628970D+01

 Test job not archived.
 1\1\GINC-R1I0N3\SP\UCCSD(T)-FC\CC-pVTZ\Al3(2)\VSC31064\12-Oct-2016\0\\
 # CCSD(T,conver=5)/cc-pVTZ test geom=allcheck guess=read scf=xqc\\Al5-
 n-d\\0,2\Al,0,0.,1.524684,0.\Al,0,1.320415,-0.762342,0.\Al,0,-1.320415
 ,-0.762342,0.\\Version=ES64L-G09RevD.01\HF=-725.6905433\MP2=-725.86968
 64\MP3=-725.8928831\MP4D=-725.9022307\MP4DQ=-725.8909098\PUHF=-725.706
 1295\PMP2-0=-725.8837638\PMP3-0=-725.9042961\MP4SDQ=-725.895298\CCSD=-
 725.9024553\CCSD(T)=-725.9233092\S2=1.168488\S2-1=1.073129\S2A=0.87415
 1\RMSD=2.008e-09\PG=D03H [3C2(Al1)]\\@


 THE ONLY TROUBLE WITH A SURE THING IS THE UNCERTAINTY.
     -- FROM A TEABAG (BELONGING TO W.H.?)
 Job cpu time:       0 days  0 hours  4 minutes  4.5 seconds.
 File lengths (MBytes):  RWF=     77 Int=      0 D2E=      0 Chk=      2 Scr=      1
 Normal termination of Gaussian 09 at Wed Oct 12 05:02:49 2016.
