 Entering Gaussian System, Link 0=g09
 Initial command:
 /apps/leuven/thinking/software/G09//g09D1/l1.exe "/local_scratch/vsc31064/Gau-800.inp" -scrdir="/local_scratch/vsc31064/"
 Entering Link 1 = /apps/leuven/thinking/software/G09//g09D1/l1.exe PID=       801.
  
 Copyright (c) 1988,1990,1992,1993,1995,1998,2003,2009,2013,
            Gaussian, Inc.  All Rights Reserved.
  
 This is part of the Gaussian(R) 09 program.  It is based on
 the Gaussian(R) 03 system (copyright 2003, Gaussian, Inc.),
 the Gaussian(R) 98 system (copyright 1998, Gaussian, Inc.),
 the Gaussian(R) 94 system (copyright 1995, Gaussian, Inc.),
 the Gaussian 92(TM) system (copyright 1992, Gaussian, Inc.),
 the Gaussian 90(TM) system (copyright 1990, Gaussian, Inc.),
 the Gaussian 88(TM) system (copyright 1988, Gaussian, Inc.),
 the Gaussian 86(TM) system (copyright 1986, Carnegie Mellon
 University), and the Gaussian 82(TM) system (copyright 1983,
 Carnegie Mellon University). Gaussian is a federally registered
 trademark of Gaussian, Inc.
  
 This software contains proprietary and confidential information,
 including trade secrets, belonging to Gaussian, Inc.
  
 This software is provided under written license and may be
 used, copied, transmitted, or stored only in accord with that
 written license.
  
 The following legend is applicable only to US Government
 contracts under FAR:
  
                    RESTRICTED RIGHTS LEGEND
  
 Use, reproduction and disclosure by the US Government is
 subject to restrictions as set forth in subparagraphs (a)
 and (c) of the Commercial Computer Software - Restricted
 Rights clause in FAR 52.227-19.
  
 Gaussian, Inc.
 340 Quinnipiac St., Bldg. 40, Wallingford CT 06492
  
  
 ---------------------------------------------------------------
 Warning -- This program may not be used in any manner that
 competes with the business of Gaussian, Inc. or will provide
 assistance to any competitor of Gaussian, Inc.  The licensee
 of this program is prohibited from giving any competitor of
 Gaussian, Inc. access to this program.  By using this program,
 the user acknowledges that Gaussian, Inc. is engaged in the
 business of creating and licensing software in the field of
 computational chemistry and represents and warrants to the
 licensee that it is not a competitor of Gaussian, Inc. and that
 it will not use this program in any manner prohibited above.
 ---------------------------------------------------------------
  

 Cite this work as:
 Gaussian 09, Revision D.01,
 M. J. Frisch, G. W. Trucks, H. B. Schlegel, G. E. Scuseria, 
 M. A. Robb, J. R. Cheeseman, G. Scalmani, V. Barone, B. Mennucci, 
 G. A. Petersson, H. Nakatsuji, M. Caricato, X. Li, H. P. Hratchian, 
 A. F. Izmaylov, J. Bloino, G. Zheng, J. L. Sonnenberg, M. Hada, 
 M. Ehara, K. Toyota, R. Fukuda, J. Hasegawa, M. Ishida, T. Nakajima, 
 Y. Honda, O. Kitao, H. Nakai, T. Vreven, J. A. Montgomery, Jr., 
 J. E. Peralta, F. Ogliaro, M. Bearpark, J. J. Heyd, E. Brothers, 
 K. N. Kudin, V. N. Staroverov, T. Keith, R. Kobayashi, J. Normand, 
 K. Raghavachari, A. Rendell, J. C. Burant, S. S. Iyengar, J. Tomasi, 
 M. Cossi, N. Rega, J. M. Millam, M. Klene, J. E. Knox, J. B. Cross, 
 V. Bakken, C. Adamo, J. Jaramillo, R. Gomperts, R. E. Stratmann, 
 O. Yazyev, A. J. Austin, R. Cammi, C. Pomelli, J. W. Ochterski, 
 R. L. Martin, K. Morokuma, V. G. Zakrzewski, G. A. Voth, 
 P. Salvador, J. J. Dannenberg, S. Dapprich, A. D. Daniels, 
 O. Farkas, J. B. Foresman, J. V. Ortiz, J. Cioslowski, 
 and D. J. Fox, Gaussian, Inc., Wallingford CT, 2013.
 
 ******************************************
 Gaussian 09:  ES64L-G09RevD.01 24-Apr-2013
                12-Oct-2016 
 ******************************************
 %NprocShared=20
 Will use up to   20 processors via shared memory.
 %mem=55000mb
 %chk=cc-Al3-n-q
 ------------------------
 # hf/6-31G* test scf=xqc
 ------------------------
 1/38=1/1;
 2/12=2,17=6,18=5,40=1/2;
 3/5=1,6=6,7=1,11=9,16=1,25=1,30=1/1,2,3;
 4//1;
 5/5=2,8=3,13=1,38=5/2,8;
 6/7=2,8=2,9=2,10=2,28=1/1;
 99/5=1,9=1/99;
 -------
 Al3-n-q
 -------
 Symbolic Z-matrix:
 Charge =  0 Multiplicity = 4
 Al                    0.        0.        1.41294 
 Al                    0.        1.51674  -0.70647 
 Al                    0.       -1.51674  -0.70647 
 
                          Input orientation:                          
 ---------------------------------------------------------------------
 Center     Atomic      Atomic             Coordinates (Angstroms)
 Number     Number       Type             X           Y           Z
 ---------------------------------------------------------------------
      1         13           0        0.000000    0.000000    1.412939
      2         13           0        0.000000    1.516743   -0.706470
      3         13           0        0.000000   -1.516743   -0.706470
 ---------------------------------------------------------------------
                    Distance matrix (angstroms):
                    1          2          3
     1  Al   0.000000
     2  Al   2.606224   0.000000
     3  Al   2.606224   3.033486   0.000000
 Stoichiometry    Al3(4)
 Framework group  C2V[C2(Al),SGV(Al2)]
 Deg. of freedom     2
 Full point group                 C2V     NOp   4
 Largest Abelian subgroup         C2V     NOp   4
 Largest concise Abelian subgroup C2      NOp   2
                         Standard orientation:                         
 ---------------------------------------------------------------------
 Center     Atomic      Atomic             Coordinates (Angstroms)
 Number     Number       Type             X           Y           Z
 ---------------------------------------------------------------------
      1         13           0        0.000000    0.000000    1.412939
      2         13           0        0.000000    1.516743   -0.706470
      3         13           0        0.000000   -1.516743   -0.706470
 ---------------------------------------------------------------------
 Rotational constants (GHZ):      6.2547816      4.0709564      2.4659683
 Standard basis: 6-31G(d) (6D, 7F)
 There are    24 symmetry adapted cartesian basis functions of A1  symmetry.
 There are     6 symmetry adapted cartesian basis functions of A2  symmetry.
 There are     9 symmetry adapted cartesian basis functions of B1  symmetry.
 There are    18 symmetry adapted cartesian basis functions of B2  symmetry.
 There are    24 symmetry adapted basis functions of A1  symmetry.
 There are     6 symmetry adapted basis functions of A2  symmetry.
 There are     9 symmetry adapted basis functions of B1  symmetry.
 There are    18 symmetry adapted basis functions of B2  symmetry.
    57 basis functions,   156 primitive gaussians,    57 cartesian basis functions
    21 alpha electrons       18 beta electrons
       nuclear repulsion energy        98.1099953466 Hartrees.
 NAtoms=    3 NActive=    3 NUniq=    2 SFac= 2.25D+00 NAtFMM=   60 NAOKFM=F Big=F
 Integral buffers will be    131072 words long.
 Raffenetti 2 integral format.
 Two-electron integral symmetry is turned on.
 One-electron integrals computed using PRISM.
 NBasis=    57 RedAO= T EigKep=  9.22D-03  NBF=    24     6     9    18
 NBsUse=    57 1.00D-06 EigRej= -1.00D+00 NBFU=    24     6     9    18
 ExpMin= 5.57D-02 ExpMax= 1.40D+04 ExpMxC= 2.10D+03 IAcc=2 IRadAn=         4 AccDes= 0.00D+00
 Harris functional with IExCor=  205 and IRadAn=       4 diagonalized for initial guess.
 HarFok:  IExCor=  205 AccDes= 0.00D+00 IRadAn=         4 IDoV= 1 UseB2=F ITyADJ=14
 ICtDFT=  3500011 ScaDFX=  1.000000  1.000000  1.000000  1.000000
 FoFCou: FMM=F IPFlag=           0 FMFlag=      100000 FMFlg1=           0
         NFxFlg=           0 DoJE=T BraDBF=F KetDBF=T FulRan=T
         wScrn=  0.000000 ICntrl=     500 IOpCl=  0 I1Cent=   200000004 NGrid=           0
         NMat0=    1 NMatS0=      1 NMatT0=    0 NMatD0=    1 NMtDS0=    0 NMtDT0=    0
 Petite list used in FoFCou.
 Initial guess orbital symmetries:
 Alpha Orbitals:
       Occupied  (A1) (B2) (A1) (A1) (B2) (A1) (A1) (B2) (B1) (B2)
                 (A1) (B2) (A1) (A2) (B1) (A1) (B2) (A1) (B1) (A1)
                 (B2)
       Virtual   (A1) (A2) (B1) (B2) (B2) (A1) (A1) (A1) (B2) (B1)
                 (A1) (B2) (A2) (A1) (B1) (B2) (B2) (A1) (A1) (B1)
                 (A2) (A1) (B1) (B2) (B2) (A1) (A2) (A2) (A1) (B1)
                 (B2) (A1) (B2) (A1) (B2) (A1)
 Beta  Orbitals:
       Occupied  (A1) (B2) (A1) (A1) (B2) (A1) (A1) (B2) (B1) (B2)
                 (A1) (B2) (A1) (A2) (B1) (A1) (B2) (A1)
       Virtual   (B1) (A1) (B2) (A1) (A2) (B1) (B2) (B2) (A1) (A1)
                 (A1) (B2) (B1) (A1) (B2) (A2) (A1) (B1) (B2) (B2)
                 (A1) (A1) (B1) (A2) (A1) (B1) (B2) (B2) (A1) (A2)
                 (A2) (A1) (B1) (B2) (A1) (B2) (A1) (B2) (A1)
 The electronic state of the initial guess is 4-A2.
 Initial guess <Sx>= 0.0000 <Sy>= 0.0000 <Sz>= 1.5000 <S**2>= 3.7500 S= 1.5000
 Keep R1 and R2 ints in memory in symmetry-blocked form, NReq=2229818.
 Requested convergence on RMS density matrix=1.00D-08 within  64 cycles.
 Requested convergence on MAX density matrix=1.00D-06.
 Requested convergence on             energy=1.00D-06.
 No special actions if energy rises.
 SCF Done:  E(UHF) =  -725.636919960     A.U. after   23 cycles
            NFock= 23  Conv=0.61D-08     -V/T= 2.0001
 <Sx>= 0.0000 <Sy>= 0.0000 <Sz>= 1.5000 <S**2>= 3.8155 S= 1.5163
 <L.S>= 0.000000000000E+00
 Annihilation of the first spin contaminant:
 S**2 before annihilation     3.8155,   after     3.7510
 QCSCF skips out because SCF is already converged.

 **********************************************************************

            Population analysis using the SCF density.

 **********************************************************************

 Orbital symmetries:
 Alpha Orbitals:
       Occupied  (B2) (A1) (A1) (A1) (B2) (A1) (A1) (B2) (B1) (A2)
                 (A1) (B2) (A1) (B2) (B1) (A1) (B2) (A1) (A1) (B2)
                 (B1)
       Virtual   (A1) (A2) (B1) (B2) (A1) (B2) (A1) (A1) (B2) (B1)
                 (A1) (B2) (A2) (A1) (B1) (B2) (B2) (A1) (A1) (B1)
                 (A2) (A1) (B1) (B2) (B2) (A1) (A2) (A2) (A1) (B1)
                 (B2) (A1) (B2) (A1) (B2) (A1)
 Beta  Orbitals:
       Occupied  (B2) (A1) (A1) (A1) (B2) (A1) (A1) (B2) (B1) (A2)
                 (A1) (B2) (B1) (A1) (B2) (A1) (B2) (A1)
       Virtual   (B1) (A1) (B2) (A1) (A2) (B1) (B2) (A1) (B2) (A1)
                 (A1) (B2) (A1) (B1) (A2) (B2) (A1) (B2) (B1) (B2)
                 (A1) (A1) (B1) (A2) (A1) (B1) (B2) (B2) (A2) (A1)
                 (A2) (A1) (B1) (B2) (A1) (B2) (A1) (B2) (A1)
 The electronic state is 4-A2.
 Alpha  occ. eigenvalues --  -58.49325 -58.49324 -58.45892  -4.91358  -4.91355
 Alpha  occ. eigenvalues --   -4.88260  -3.22633  -3.22623  -3.22324  -3.22323
 Alpha  occ. eigenvalues --   -3.22162  -3.22158  -3.19456  -3.19455  -3.19345
 Alpha  occ. eigenvalues --   -0.59116  -0.42437  -0.37608  -0.25750  -0.24206
 Alpha  occ. eigenvalues --   -0.23444
 Alpha virt. eigenvalues --   -0.01283   0.01519   0.03918   0.07861   0.10802
 Alpha virt. eigenvalues --    0.10883   0.20047   0.22584   0.24016   0.28100
 Alpha virt. eigenvalues --    0.28995   0.30994   0.32228   0.32842   0.34317
 Alpha virt. eigenvalues --    0.35349   0.39523   0.41360   0.51579   0.52277
 Alpha virt. eigenvalues --    0.55450   0.61114   0.61575   0.62878   0.68714
 Alpha virt. eigenvalues --    0.69060   0.70051   0.77528   0.78730   0.81031
 Alpha virt. eigenvalues --    0.86350   1.00704   1.04023   2.26174   2.32512
 Alpha virt. eigenvalues --    2.38217
  Beta  occ. eigenvalues --  -58.49045 -58.49044 -58.45507  -4.90990  -4.90989
  Beta  occ. eigenvalues --   -4.87755  -3.21947  -3.21941  -3.21805  -3.21805
  Beta  occ. eigenvalues --   -3.21333  -3.21326  -3.18582  -3.18528  -3.18325
  Beta  occ. eigenvalues --   -0.49665  -0.33325  -0.28956
  Beta virt. eigenvalues --   -0.00440   0.00219   0.02082   0.02364   0.06870
  Beta virt. eigenvalues --    0.09308   0.11171   0.13660   0.15250   0.24931
  Beta virt. eigenvalues --    0.26839   0.28487   0.30552   0.31196   0.34232
  Beta virt. eigenvalues --    0.34925   0.36341   0.36643   0.37124   0.43671
  Beta virt. eigenvalues --    0.44698   0.56875   0.58270   0.60833   0.63462
  Beta virt. eigenvalues --    0.63532   0.66936   0.71103   0.71941   0.72695
  Beta virt. eigenvalues --    0.81211   0.82131   0.84253   0.88836   1.03335
  Beta virt. eigenvalues --    1.06938   2.27150   2.33396   2.39321
          Condensed to atoms (all electrons):
               1          2          3
     1  Al  13.063456   0.042674   0.042674
     2  Al   0.042674  12.834201   0.048723
     3  Al   0.042674   0.048723  12.834201
          Atomic-Atomic Spin Densities.
               1          2          3
     1  Al   0.728722   0.289557   0.289557
     2  Al   0.289557   0.538745   0.017780
     3  Al   0.289557   0.017780   0.538745
 Mulliken charges and spin densities:
               1          2
     1  Al  -0.148803   1.307836
     2  Al   0.074402   0.846082
     3  Al   0.074402   0.846082
 Sum of Mulliken charges =   0.00000   3.00000
 Mulliken charges and spin densities with hydrogens summed into heavy atoms:
               1          2
     1  Al  -0.148803   1.307836
     2  Al   0.074402   0.846082
     3  Al   0.074402   0.846082
 Electronic spatial extent (au):  <R**2>=            448.3347
 Charge=              0.0000 electrons
 Dipole moment (field-independent basis, Debye):
    X=              0.0000    Y=              0.0000    Z=             -0.3639  Tot=              0.3639
 Quadrupole moment (field-independent basis, Debye-Ang):
   XX=            -41.8582   YY=            -41.9874   ZZ=            -44.8972
   XY=              0.0000   XZ=              0.0000   YZ=              0.0000
 Traceless Quadrupole moment (field-independent basis, Debye-Ang):
   XX=              1.0561   YY=              0.9269   ZZ=             -1.9829
   XY=              0.0000   XZ=              0.0000   YZ=              0.0000
 Octapole moment (field-independent basis, Debye-Ang**2):
  XXX=              0.0000  YYY=              0.0000  ZZZ=              0.6984  XYY=              0.0000
  XXY=              0.0000  XXZ=             -1.6128  XZZ=              0.0000  YZZ=              0.0000
  YYZ=              8.3568  XYZ=              0.0000
 Hexadecapole moment (field-independent basis, Debye-Ang**3):
 XXXX=           -111.7340 YYYY=           -499.7133 ZZZZ=           -381.2906 XXXY=              0.0000
 XXXZ=              0.0000 YYYX=              0.0000 YYYZ=              0.0000 ZZZX=              0.0000
 ZZZY=              0.0000 XXYY=            -98.6318 XXZZ=            -81.8016 YYZZ=           -167.3059
 XXYZ=              0.0000 YYXZ=              0.0000 ZZXY=              0.0000
 N-N= 9.810999534657D+01 E-N=-1.931734631522D+03  KE= 7.255550137134D+02
 Symmetry A1   KE= 4.238405980369D+02
 Symmetry A2   KE= 1.971410644297D+01
 Symmetry B1   KE= 3.991904751665D+01
 Symmetry B2   KE= 2.420812617168D+02
                          Isotropic Fermi Contact Couplings
        Atom                 a.u.       MegaHertz       Gauss      10(-4) cm-1
     1  Al(27)            -0.08392     -32.60705     -11.63501     -10.87654
     2  Al(27)            -0.04743     -18.42696      -6.57520      -6.14657
     3  Al(27)            -0.04743     -18.42696      -6.57520      -6.14657
 --------------------------------------------------------
       Center         ----  Spin Dipole Couplings  ----
                      3XX-RR        3YY-RR        3ZZ-RR
 --------------------------------------------------------
     1   Atom       -0.165169      0.172216     -0.007047
     2   Atom       -0.153309      0.134987      0.018322
     3   Atom       -0.153309      0.134987      0.018322
 --------------------------------------------------------
                        XY            XZ            YZ
 --------------------------------------------------------
     1   Atom        0.000000      0.000000      0.000000
     2   Atom        0.000000      0.000000     -0.490920
     3   Atom        0.000000      0.000000      0.490920
 --------------------------------------------------------


 ---------------------------------------------------------------------------------
              Anisotropic Spin Dipole Couplings in Principal Axis System
 ---------------------------------------------------------------------------------

       Atom             a.u.   MegaHertz   Gauss  10(-4) cm-1        Axes

              Baa    -0.1652   -22.981    -8.200    -7.666  1.0000  0.0000  0.0000
     1 Al(27) Bbb    -0.0070    -0.980    -0.350    -0.327  0.0000  0.0000  1.0000
              Bcc     0.1722    23.961     8.550     7.993  0.0000  1.0000  0.0000
 
              Baa    -0.4177   -58.120   -20.739   -19.387  0.0000  0.6641  0.7477
     2 Al(27) Bbb    -0.1533   -21.331    -7.611    -7.115  1.0000  0.0000  0.0000
              Bcc     0.5710    79.451    28.350    26.502  0.0000  0.7477 -0.6641
 
              Baa    -0.4177   -58.120   -20.739   -19.387  0.0000 -0.6641  0.7477
     3 Al(27) Bbb    -0.1533   -21.331    -7.611    -7.115  1.0000  0.0000  0.0000
              Bcc     0.5710    79.451    28.350    26.502  0.0000  0.7477  0.6641
 

 ---------------------------------------------------------------------------------


 Test job not archived.
 1\1\GINC-R1I0N1\SP\UHF\6-31G(d)\Al3(4)\VSC31064\12-Oct-2016\0\\# hf/6-
 31G* test scf=xqc\\Al3-n-q\\0,4\Al,0,0.,0.,1.412939\Al,0,0.,1.516743,-
 0.70647\Al,0,0.,-1.516743,-0.70647\\Version=ES64L-G09RevD.01\State=4-A
 2\HF=-725.63692\S2=3.815479\S2-1=0.\S2A=3.751033\RMSD=6.148e-09\Dipole
 =0.,0.,-0.1431567\Quadrupole=0.785161,0.6891039,-1.4742649,0.,0.,0.\PG
 =C02V [C2(Al1),SGV(Al2)]\\@


 Other things may change us, but we start and end with family.
 -- Anthony Brandt
 Job cpu time:       0 days  0 hours  0 minutes 34.3 seconds.
 File lengths (MBytes):  RWF=      5 Int=      0 D2E=      0 Chk=      1 Scr=      1
 Normal termination of Gaussian 09 at Wed Oct 12 05:04:18 2016.
 Initial command:
 /apps/leuven/thinking/software/G09//g09D1/l1.exe "/local_scratch/vsc31064/Gau-800.inp" -scrdir="/local_scratch/vsc31064/"
 Entering Link 1 = /apps/leuven/thinking/software/G09//g09D1/l1.exe PID=      1012.
  
 Copyright (c) 1988,1990,1992,1993,1995,1998,2003,2009,2013,
            Gaussian, Inc.  All Rights Reserved.
  
 This is part of the Gaussian(R) 09 program.  It is based on
 the Gaussian(R) 03 system (copyright 2003, Gaussian, Inc.),
 the Gaussian(R) 98 system (copyright 1998, Gaussian, Inc.),
 the Gaussian(R) 94 system (copyright 1995, Gaussian, Inc.),
 the Gaussian 92(TM) system (copyright 1992, Gaussian, Inc.),
 the Gaussian 90(TM) system (copyright 1990, Gaussian, Inc.),
 the Gaussian 88(TM) system (copyright 1988, Gaussian, Inc.),
 the Gaussian 86(TM) system (copyright 1986, Carnegie Mellon
 University), and the Gaussian 82(TM) system (copyright 1983,
 Carnegie Mellon University). Gaussian is a federally registered
 trademark of Gaussian, Inc.
  
 This software contains proprietary and confidential information,
 including trade secrets, belonging to Gaussian, Inc.
  
 This software is provided under written license and may be
 used, copied, transmitted, or stored only in accord with that
 written license.
  
 The following legend is applicable only to US Government
 contracts under FAR:
  
                    RESTRICTED RIGHTS LEGEND
  
 Use, reproduction and disclosure by the US Government is
 subject to restrictions as set forth in subparagraphs (a)
 and (c) of the Commercial Computer Software - Restricted
 Rights clause in FAR 52.227-19.
  
 Gaussian, Inc.
 340 Quinnipiac St., Bldg. 40, Wallingford CT 06492
  
  
 ---------------------------------------------------------------
 Warning -- This program may not be used in any manner that
 competes with the business of Gaussian, Inc. or will provide
 assistance to any competitor of Gaussian, Inc.  The licensee
 of this program is prohibited from giving any competitor of
 Gaussian, Inc. access to this program.  By using this program,
 the user acknowledges that Gaussian, Inc. is engaged in the
 business of creating and licensing software in the field of
 computational chemistry and represents and warrants to the
 licensee that it is not a competitor of Gaussian, Inc. and that
 it will not use this program in any manner prohibited above.
 ---------------------------------------------------------------
  

 Cite this work as:
 Gaussian 09, Revision D.01,
 M. J. Frisch, G. W. Trucks, H. B. Schlegel, G. E. Scuseria, 
 M. A. Robb, J. R. Cheeseman, G. Scalmani, V. Barone, B. Mennucci, 
 G. A. Petersson, H. Nakatsuji, M. Caricato, X. Li, H. P. Hratchian, 
 A. F. Izmaylov, J. Bloino, G. Zheng, J. L. Sonnenberg, M. Hada, 
 M. Ehara, K. Toyota, R. Fukuda, J. Hasegawa, M. Ishida, T. Nakajima, 
 Y. Honda, O. Kitao, H. Nakai, T. Vreven, J. A. Montgomery, Jr., 
 J. E. Peralta, F. Ogliaro, M. Bearpark, J. J. Heyd, E. Brothers, 
 K. N. Kudin, V. N. Staroverov, T. Keith, R. Kobayashi, J. Normand, 
 K. Raghavachari, A. Rendell, J. C. Burant, S. S. Iyengar, J. Tomasi, 
 M. Cossi, N. Rega, J. M. Millam, M. Klene, J. E. Knox, J. B. Cross, 
 V. Bakken, C. Adamo, J. Jaramillo, R. Gomperts, R. E. Stratmann, 
 O. Yazyev, A. J. Austin, R. Cammi, C. Pomelli, J. W. Ochterski, 
 R. L. Martin, K. Morokuma, V. G. Zakrzewski, G. A. Voth, 
 P. Salvador, J. J. Dannenberg, S. Dapprich, A. D. Daniels, 
 O. Farkas, J. B. Foresman, J. V. Ortiz, J. Cioslowski, 
 and D. J. Fox, Gaussian, Inc., Wallingford CT, 2013.
 
 ******************************************
 Gaussian 09:  ES64L-G09RevD.01 24-Apr-2013
                12-Oct-2016 
 ******************************************
 %NprocShared=20
 Will use up to   20 processors via shared memory.
 %mem=55000mb
 %chk=cc-Al3-n-q
 ----------------------------------------------------------------
 # CCSD(T,conver=5)/cc-pVTZ test geom=allcheck guess=read scf=xqc
 ----------------------------------------------------------------
 1/29=7,38=1/1;
 2/12=2,40=1/2;
 3/5=16,6=1,11=9,14=-4,16=1,25=1,30=1,116=-2/1,2,3;
 4/5=1/1;
 5/5=2,8=3,13=1,38=6/2,8;
 8/6=4,9=120000,10=1/1,4;
 9/5=7,9=5,14=2/13;
 6/7=2,8=2,9=2,10=2/1;
 99/5=1,9=1/99;
 Structure from the checkpoint file:  "cc-Al3-n-q.chk"
 -------
 Al3-n-q
 -------
 Charge =  0 Multiplicity = 4
 Z-Matrix found in file.
 Al,0,0.,0.,1.412939
 Al,0,0.,1.516743,-0.70647
 Al,0,0.,-1.516743,-0.70647
 Recover connectivity data from disk.
                          Input orientation:                          
 ---------------------------------------------------------------------
 Center     Atomic      Atomic             Coordinates (Angstroms)
 Number     Number       Type             X           Y           Z
 ---------------------------------------------------------------------
      1         13           0        0.000000    0.000000    1.412939
      2         13           0        0.000000    1.516743   -0.706470
      3         13           0        0.000000   -1.516743   -0.706470
 ---------------------------------------------------------------------
                    Distance matrix (angstroms):
                    1          2          3
     1  Al   0.000000
     2  Al   2.606224   0.000000
     3  Al   2.606224   3.033486   0.000000
 Stoichiometry    Al3(4)
 Framework group  C2V[C2(Al),SGV(Al2)]
 Deg. of freedom     2
 Full point group                 C2V     NOp   4
 Largest Abelian subgroup         C2V     NOp   4
 Largest concise Abelian subgroup C2      NOp   2
                         Standard orientation:                         
 ---------------------------------------------------------------------
 Center     Atomic      Atomic             Coordinates (Angstroms)
 Number     Number       Type             X           Y           Z
 ---------------------------------------------------------------------
      1         13           0        0.000000    0.000000    1.412939
      2         13           0        0.000000    1.516743   -0.706470
      3         13           0        0.000000   -1.516743   -0.706470
 ---------------------------------------------------------------------
 Rotational constants (GHZ):      6.2547816      4.0709564      2.4659683
 Standard basis: CC-pVTZ (5D, 7F)
 There are    45 symmetry adapted cartesian basis functions of A1  symmetry.
 There are    15 symmetry adapted cartesian basis functions of A2  symmetry.
 There are    21 symmetry adapted cartesian basis functions of B1  symmetry.
 There are    36 symmetry adapted cartesian basis functions of B2  symmetry.
 There are    38 symmetry adapted basis functions of A1  symmetry.
 There are    14 symmetry adapted basis functions of A2  symmetry.
 There are    19 symmetry adapted basis functions of B1  symmetry.
 There are    31 symmetry adapted basis functions of B2  symmetry.
   102 basis functions,   285 primitive gaussians,   117 cartesian basis functions
    21 alpha electrons       18 beta electrons
       nuclear repulsion energy        98.1099953466 Hartrees.
 NAtoms=    3 NActive=    3 NUniq=    2 SFac= 2.25D+00 NAtFMM=   60 NAOKFM=F Big=F
 Integral buffers will be    131072 words long.
 Raffenetti 2 integral format.
 Two-electron integral symmetry is turned on.
 One-electron integrals computed using PRISM.
 NBasis=   102 RedAO= T EigKep=  2.52D-03  NBF=    38    14    19    31
 NBsUse=   102 1.00D-06 EigRej= -1.00D+00 NBFU=    38    14    19    31
 Initial guess from the checkpoint file:  "cc-Al3-n-q.chk"
 B after Tr=     0.000000    0.000000    0.000000
         Rot=    1.000000    0.000000    0.000000    0.000000 Ang=   0.00 deg.
 Initial guess orbital symmetries:
 Alpha Orbitals:
       Occupied  (B2) (A1) (A1) (A1) (B2) (A1) (A1) (B2) (B1) (A2)
                 (A1) (B2) (A1) (B2) (B1) (A1) (B2) (A1) (A1) (B2)
                 (B1)
       Virtual   (A1) (A1) (A1) (A1) (A1) (A1) (A1) (A1) (A1) (A1)
                 (A1) (A1) (A1) (A1) (A1) (A1) (A1) (A1) (A1) (A1)
                 (A1) (A1) (A1) (A1) (A1) (A1) (A1) (A1) (A2) (A2)
                 (A2) (A2) (A2) (A2) (A2) (A2) (A2) (A2) (A2) (A2)
                 (A2) (B1) (B1) (B1) (B1) (B1) (B1) (B1) (B1) (B1)
                 (B1) (B1) (B1) (B1) (B1) (B1) (B1) (B2) (B2) (B2)
                 (B2) (B2) (B2) (B2) (B2) (B2) (B2) (B2) (B2) (B2)
                 (B2) (B2) (B2) (B2) (B2) (B2) (B2) (B2) (B2) (B2)
                 (B2)
 Beta  Orbitals:
       Occupied  (B2) (A1) (A1) (A1) (B2) (A1) (A1) (B2) (B1) (A2)
                 (A1) (B2) (B1) (A1) (B2) (A1) (B2) (A1)
       Virtual   (A1) (A1) (A1) (A1) (A1) (A1) (A1) (A1) (A1) (A1)
                 (A1) (A1) (A1) (A1) (A1) (A1) (A1) (A1) (A1) (A1)
                 (A1) (A1) (A1) (A1) (A1) (A1) (A1) (A1) (A1) (A2)
                 (A2) (A2) (A2) (A2) (A2) (A2) (A2) (A2) (A2) (A2)
                 (A2) (A2) (B1) (B1) (B1) (B1) (B1) (B1) (B1) (B1)
                 (B1) (B1) (B1) (B1) (B1) (B1) (B1) (B1) (B1) (B2)
                 (B2) (B2) (B2) (B2) (B2) (B2) (B2) (B2) (B2) (B2)
                 (B2) (B2) (B2) (B2) (B2) (B2) (B2) (B2) (B2) (B2)
                 (B2) (B2) (B2) (B2)
 Initial guess <Sx>= 0.0000 <Sy>= 0.0000 <Sz>= 1.5000 <S**2>= 3.8189 S= 1.5171
 Keep R1 and R2 ints in memory in symmetry-blocked form, NReq=17378333.
 Requested convergence on RMS density matrix=1.00D-08 within  64 cycles.
 Requested convergence on MAX density matrix=1.00D-06.
 Requested convergence on             energy=1.00D-06.
 No special actions if energy rises.
 SCF Done:  E(UHF) =  -725.706367729     A.U. after   22 cycles
            NFock= 22  Conv=0.39D-08     -V/T= 1.9999
 <Sx>= 0.0000 <Sy>= 0.0000 <Sz>= 1.5000 <S**2>= 3.7955 S= 1.5113
 <L.S>= 0.000000000000E+00
 Annihilation of the first spin contaminant:
 S**2 before annihilation     3.7955,   after     3.7507
 QCSCF skips out because SCF is already converged.
 ExpMin= 5.56D-02 ExpMax= 2.06D+05 ExpMxC= 1.99D+03 IAcc=3 IRadAn=         5 AccDes= 0.00D+00
 HarFok:  IExCor=  205 AccDes= 0.00D+00 IRadAn=         5 IDoV=-2 UseB2=F ITyADJ=14
 ICtDFT= 12500011 ScaDFX=  1.000000  1.000000  1.000000  1.000000
 Range of M.O.s used for correlation:    16   102
 NBasis=   102 NAE=    21 NBE=    18 NFC=    15 NFV=     0
 NROrb=     87 NOA=     6 NOB=     3 NVA=    81 NVB=    84
 Semi-Direct transformation.
 ModeAB=           4 MOrb=             6 LenV=    7208476527
 LASXX=       474408 LTotXX=      474408 LenRXX=      970545
 LTotAB=      496137 MaxLAS=     2151684 LenRXY=           0
 NonZer=     1444953 LenScr=     2889728 LnRSAI=     2151684
 LnScr1=     3929600 LExtra=           0 Total=      9941557
 MaxDsk=          -1 SrtSym=           T ITran=            4
 JobTyp=1 Pass  1:  I=   1 to   6.
 (rs|ai) integrals will be sorted in core.
 ModeAB=           4 MOrb=             3 LenV=    7208476527
 LASXX=       244271 LTotXX=      244271 LenRXX=      464606
 LTotAB=      220335 MaxLAS=     1075842 LenRXY=           0
 NonZer=      708877 LenScr=     1594368 LnRSAI=     1075842
 LnScr1=     2357760 LExtra=           0 Total=      5492576
 MaxDsk=          -1 SrtSym=           T ITran=            4
 JobTyp=2 Pass  1:  I=   1 to   3.
 (rs|ai) integrals will be sorted in core.
 Spin components of T(2) and E(2):
     alpha-alpha T2 =       0.3029115304D-01 E2=     -0.3115379315D-01
     alpha-beta  T2 =       0.1123306169D+00 E2=     -0.1280138405D+00
     beta-beta   T2 =       0.6340957731D-02 E2=     -0.6431315943D-02
 ANorm=    0.1071896790D+01
 E2 =    -0.1655989496D+00 EUMP2 =    -0.72587196667814D+03
 (S**2,0)=  0.37955D+01           (S**2,1)=  0.37687D+01
 E(PUHF)=      -0.72570899758D+03        E(PMP2)=      -0.72587382839D+03
 Keep R2 and R3 ints in memory in symmetry-blocked form, NReq=17329442.
 Iterations=  50 Convergence= 0.100D-04
 Iteration Nr.   1
 **********************
 DD1Dir will call FoFMem   1 times, MxPair=        54
 NAB=    18 NAA=    15 NBB=     3.
 E(PMP3)=      -0.72590052414D+03
 MP4(R+Q)=  0.96153398D-02
 E3=       -0.27469165D-01        EUMP3=      -0.72589943584D+03
 E4(DQ)=    0.27973919D-03        UMP4(DQ)=   -0.72589915610D+03
 E4(SDQ)=  -0.18245450D-02        UMP4(SDQ)=  -0.72590126039D+03
 DE(Corr)= -0.18346323     E(Corr)=     -725.88983096    
 NORM(A)=   0.10952367D+01
 Iteration Nr.   2
 **********************
 DD1Dir will call FoFMem   1 times, MxPair=        54
 NAB=    18 NAA=    15 NBB=     3.
 DE(Corr)= -0.19123852     E(CORR)=     -725.89760625     Delta=-7.78D-03
 NORM(A)=   0.11087065D+01
 Iteration Nr.   3
 **********************
 DD1Dir will call FoFMem   1 times, MxPair=        54
 NAB=    18 NAA=    15 NBB=     3.
 DE(Corr)= -0.19359280     E(CORR)=     -725.89996053     Delta=-2.35D-03
 NORM(A)=   0.11131048D+01
 Iteration Nr.   4
 **********************
 DD1Dir will call FoFMem   1 times, MxPair=        54
 NAB=    18 NAA=    15 NBB=     3.
 DE(Corr)= -0.19474922     E(CORR)=     -725.90111695     Delta=-1.16D-03
 NORM(A)=   0.11153512D+01
 Iteration Nr.   5
 **********************
 DD1Dir will call FoFMem   1 times, MxPair=        54
 NAB=    18 NAA=    15 NBB=     3.
 DE(Corr)= -0.19498140     E(CORR)=     -725.90134913     Delta=-2.32D-04
 NORM(A)=   0.11159064D+01
 Iteration Nr.   6
 **********************
 DD1Dir will call FoFMem   1 times, MxPair=        54
 NAB=    18 NAA=    15 NBB=     3.
 DE(Corr)= -0.19501862     E(CORR)=     -725.90138635     Delta=-3.72D-05
 NORM(A)=   0.11160623D+01
 Iteration Nr.   7
 **********************
 DD1Dir will call FoFMem   1 times, MxPair=        54
 NAB=    18 NAA=    15 NBB=     3.
 DE(Corr)= -0.19502671     E(CORR)=     -725.90139444     Delta=-8.09D-06
 NORM(A)=   0.11161825D+01
 Iteration Nr.   8
 **********************
 DD1Dir will call FoFMem   1 times, MxPair=        54
 NAB=    18 NAA=    15 NBB=     3.
 DE(Corr)= -0.19502659     E(CORR)=     -725.90139432     Delta= 1.20D-07
 NORM(A)=   0.11161844D+01
 Iteration Nr.   9
 **********************
 DD1Dir will call FoFMem   1 times, MxPair=        54
 NAB=    18 NAA=    15 NBB=     3.
 DE(Corr)= -0.19503098     E(CORR)=     -725.90139871     Delta=-4.39D-06
 NORM(A)=   0.11162202D+01
 Largest amplitude= 7.91D-02
 Time for triples=       41.58 seconds.
 T4(CCSD)= -0.16021238D-01
 T5(CCSD)=  0.40454110D-03
 CCSD(T)= -0.72591701541D+03

 S**2, projected HF & approx projected MPn energies after annihilation of
 unwanted spin states (see manual for definitions):

 spins       (S**2,0) (S**2,1)    PUHF        PMP2        PMP3        PMP4
 annihilated
 s+1         3.74954  3.75008 -725.708998 -725.873828 -725.900524
 s+1,s+2     3.75000  3.75000 -725.708975 -725.873808 -725.900506
 s+1 to s+3  3.75000  3.75000 -725.708975 -725.873808 -725.900506

 Discarding MO integrals.

 **********************************************************************

            Population analysis using the SCF density.

 **********************************************************************

 Orbital symmetries:
 Alpha Orbitals:
       Occupied  (A1) (B2) (A1) (A1) (B2) (A1) (A1) (B2) (B1) (A2)
                 (A1) (B2) (B2) (A1) (B1) (A1) (B2) (A1) (A1) (B1)
                 (B2)
       Virtual   (A1) (A2) (B1) (B2) (A1) (B2) (A1) (B1) (A1) (B2)
                 (A1) (A2) (A1) (B2) (B1) (A1) (B2) (A2) (B1) (B2)
                 (B1) (A1) (B2) (A2) (A1) (A2) (A1) (B1) (B2) (A1)
                 (B2) (B2) (A1) (A1) (B1) (B1) (A2) (B2) (A1) (A1)
                 (B1) (B2) (A1) (B2) (A2) (B1) (A2) (A1) (A2) (B2)
                 (B1) (A1) (B2) (A2) (B2) (A1) (B1) (B1) (B2) (A1)
                 (A2) (A1) (A1) (B2) (B1) (B2) (A2) (A1) (B2) (A1)
                 (B2) (A1) (B1) (A1) (B2) (A2) (A1) (B1) (B2) (B2)
                 (A1)
 Beta  Orbitals:
       Occupied  (A1) (B2) (A1) (A1) (B2) (A1) (A1) (B2) (B1) (A2)
                 (A1) (B2) (A1) (B1) (B2) (A1) (B2) (A1)
       Virtual   (B1) (A1) (A1) (B2) (A2) (B1) (B2) (A1) (B2) (A1)
                 (A1) (B1) (A1) (B2) (A1) (B1) (A2) (B2) (A1) (B2)
                 (A2) (B2) (B1) (B1) (A1) (B2) (A2) (A1) (A2) (A1)
                 (B1) (B2) (A1) (B2) (B2) (A1) (A1) (B1) (B1) (A2)
                 (A1) (B2) (B1) (A1) (A1) (B2) (B2) (A2) (B1) (A2)
                 (A1) (A2) (B2) (B1) (A1) (B2) (B2) (A2) (A1) (B1)
                 (B1) (B2) (A1) (A2) (A1) (A1) (B2) (B1) (B2) (A2)
                 (A1) (B2) (A1) (B2) (A1) (B1) (A1) (A2) (B2) (A1)
                 (B1) (B2) (B2) (A1)
 The electronic state is 4-A2.
 Alpha  occ. eigenvalues --  -58.50169 -58.50169 -58.47398  -4.91240  -4.91237
 Alpha  occ. eigenvalues --   -4.88705  -3.22610  -3.22599  -3.22224  -3.22222
 Alpha  occ. eigenvalues --   -3.22104  -3.22098  -3.20007  -3.19882  -3.19824
 Alpha  occ. eigenvalues --   -0.59275  -0.42168  -0.37063  -0.25514  -0.24279
 Alpha  occ. eigenvalues --   -0.24182
 Alpha virt. eigenvalues --   -0.00828   0.02072   0.04464   0.07627   0.09945
 Alpha virt. eigenvalues --    0.10794   0.16094   0.18624   0.19371   0.21511
 Alpha virt. eigenvalues --    0.22067   0.23376   0.24654   0.25190   0.25200
 Alpha virt. eigenvalues --    0.28784   0.30293   0.31576   0.32233   0.32668
 Alpha virt. eigenvalues --    0.33410   0.35196   0.36266   0.38193   0.39367
 Alpha virt. eigenvalues --    0.42581   0.44239   0.44966   0.45662   0.53846
 Alpha virt. eigenvalues --    0.56864   0.63633   0.64222   0.72126   0.74023
 Alpha virt. eigenvalues --    0.79545   0.79606   0.80603   0.80905   0.83386
 Alpha virt. eigenvalues --    0.83656   0.86763   0.87756   0.91548   0.92634
 Alpha virt. eigenvalues --    0.92810   0.95372   0.95792   0.96644   0.97374
 Alpha virt. eigenvalues --    0.97971   1.00562   1.01654   1.04453   1.04641
 Alpha virt. eigenvalues --    1.05160   1.05352   1.10749   1.11944   1.18399
 Alpha virt. eigenvalues --    1.20583   1.21369   1.22507   1.23243   1.24836
 Alpha virt. eigenvalues --    1.29704   1.31358   1.35235   1.37025   1.86468
 Alpha virt. eigenvalues --    2.11237   2.18851   2.28696   2.32321   2.37721
 Alpha virt. eigenvalues --    2.37831   2.41617   2.46550   2.73512   3.05209
 Alpha virt. eigenvalues --    3.23874
  Beta  occ. eigenvalues --  -58.49869 -58.49869 -58.47046  -4.90884  -4.90883
  Beta  occ. eigenvalues --   -4.88305  -3.21780  -3.21774  -3.21679  -3.21678
  Beta  occ. eigenvalues --   -3.21238  -3.21230  -3.19101  -3.19068  -3.18810
  Beta  occ. eigenvalues --   -0.48406  -0.32910  -0.29360
  Beta virt. eigenvalues --    0.00097   0.00708   0.01786   0.02494   0.07083
  Beta virt. eigenvalues --    0.08979   0.10487   0.11920   0.14049   0.21411
  Beta virt. eigenvalues --    0.24206   0.24303   0.26275   0.26538   0.26955
  Beta virt. eigenvalues --    0.27425   0.28175   0.29515   0.31717   0.32350
  Beta virt. eigenvalues --    0.33581   0.34604   0.34640   0.36474   0.37126
  Beta virt. eigenvalues --    0.38480   0.40158   0.41569   0.45432   0.46988
  Beta virt. eigenvalues --    0.47437   0.48720   0.56976   0.59104   0.66641
  Beta virt. eigenvalues --    0.66890   0.75961   0.77971   0.82239   0.82849
  Beta virt. eigenvalues --    0.83425   0.83605   0.85094   0.85299   0.89163
  Beta virt. eigenvalues --    0.89629   0.92517   0.93690   0.94298   0.96905
  Beta virt. eigenvalues --    0.97659   0.98878   0.99521   1.00041   1.02798
  Beta virt. eigenvalues --    1.03984   1.06303   1.06689   1.07211   1.07778
  Beta virt. eigenvalues --    1.12652   1.14110   1.20416   1.22621   1.23470
  Beta virt. eigenvalues --    1.24643   1.25602   1.26761   1.31531   1.33153
  Beta virt. eigenvalues --    1.37182   1.38778   1.87531   2.12523   2.19928
  Beta virt. eigenvalues --    2.29651   2.33453   2.38724   2.39182   2.42859
  Beta virt. eigenvalues --    2.47620   2.74460   3.06434   3.24955
          Condensed to atoms (all electrons):
               1          2          3
     1  Al  12.592476   0.261077   0.261077
     2  Al   0.261077  12.580993   0.100614
     3  Al   0.261077   0.100614  12.580993
          Atomic-Atomic Spin Densities.
               1          2          3
     1  Al   0.842210   0.146825   0.146825
     2  Al   0.146825   0.741226   0.044020
     3  Al   0.146825   0.044020   0.741226
 Mulliken charges and spin densities:
               1          2
     1  Al  -0.114631   1.135860
     2  Al   0.057315   0.932070
     3  Al   0.057315   0.932070
 Sum of Mulliken charges =   0.00000   3.00000
 Mulliken charges and spin densities with hydrogens summed into heavy atoms:
               1          2
     1  Al  -0.114631   1.135860
     2  Al   0.057315   0.932070
     3  Al   0.057315   0.932070
 Electronic spatial extent (au):  <R**2>=            446.7440
 Charge=              0.0000 electrons
 Dipole moment (field-independent basis, Debye):
    X=              0.0000    Y=              0.0000    Z=             -0.2455  Tot=              0.2455
 Quadrupole moment (field-independent basis, Debye-Ang):
   XX=            -41.3276   YY=            -42.6188   ZZ=            -42.6567
   XY=              0.0000   XZ=              0.0000   YZ=              0.0000
 Traceless Quadrupole moment (field-independent basis, Debye-Ang):
   XX=              0.8735   YY=             -0.4178   ZZ=             -0.4557
   XY=              0.0000   XZ=              0.0000   YZ=              0.0000
 Octapole moment (field-independent basis, Debye-Ang**2):
  XXX=              0.0000  YYY=              0.0000  ZZZ=              2.8308  XYY=              0.0000
  XXY=              0.0000  XXZ=             -1.0999  XZZ=              0.0000  YZZ=              0.0000
  YYZ=              6.5859  XYZ=              0.0000
 Hexadecapole moment (field-independent basis, Debye-Ang**3):
 XXXX=           -107.7774 YYYY=           -509.1213 ZZZZ=           -360.9076 XXXY=              0.0000
 XXXZ=              0.0000 YYYX=              0.0000 YYYZ=              0.0000 ZZZX=              0.0000
 ZZZY=              0.0000 XXYY=            -96.1137 XXZZ=            -76.7822 YYZZ=           -166.6090
 XXYZ=              0.0000 YYXZ=              0.0000 ZZXY=              0.0000
 N-N= 9.810999534657D+01 E-N=-1.931994500483D+03  KE= 7.257503641372D+02
 Symmetry A1   KE= 4.239888606549D+02
 Symmetry A2   KE= 1.970115607752D+01
 Symmetry B1   KE= 3.987676641014D+01
 Symmetry B2   KE= 2.421835809946D+02

 Test job not archived.
 1\1\GINC-R1I0N1\SP\UCCSD(T)-FC\CC-pVTZ\Al3(4)\VSC31064\12-Oct-2016\0\\
 # CCSD(T,conver=5)/cc-pVTZ test geom=allcheck guess=read scf=xqc\\Al3-
 n-q\\0,4\Al,0,0.,0.,1.412939\Al,0,0.,1.516743,-0.70647\Al,0,0.,-1.5167
 43,-0.70647\\Version=ES64L-G09RevD.01\State=4-A2\HF=-725.7063677\MP2=-
 725.8719667\MP3=-725.8994358\MP4D=-725.9087714\MP4DQ=-725.8991561\PUHF
 =-725.7089976\PMP2-0=-725.8738284\PMP3-0=-725.9005241\MP4SDQ=-725.9012
 604\CCSD=-725.9013987\CCSD(T)=-725.9170154\S2=3.795518\S2-1=3.768656\S
 2A=3.750653\RMSD=3.948e-09\PG=C02V [C2(Al1),SGV(Al2)]\\@


 NATURE GIVES TO EVERY TIME AND SEASON SOME BEAUTY OF ITS OWN.

                                                    --DICKENS
 Job cpu time:       0 days  0 hours  3 minutes 56.1 seconds.
 File lengths (MBytes):  RWF=     88 Int=      0 D2E=      0 Chk=      2 Scr=      1
 Normal termination of Gaussian 09 at Wed Oct 12 05:04:30 2016.
