 Entering Gaussian System, Link 0=g09
 Initial command:
 /apps/leuven/thinking/software/G09//g09D1/l1.exe "/local_scratch/vsc31064/Gau-53985.inp" -scrdir="/local_scratch/vsc31064/"
 Entering Link 1 = /apps/leuven/thinking/software/G09//g09D1/l1.exe PID=     53986.
  
 Copyright (c) 1988,1990,1992,1993,1995,1998,2003,2009,2013,
            Gaussian, Inc.  All Rights Reserved.
  
 This is part of the Gaussian(R) 09 program.  It is based on
 the Gaussian(R) 03 system (copyright 2003, Gaussian, Inc.),
 the Gaussian(R) 98 system (copyright 1998, Gaussian, Inc.),
 the Gaussian(R) 94 system (copyright 1995, Gaussian, Inc.),
 the Gaussian 92(TM) system (copyright 1992, Gaussian, Inc.),
 the Gaussian 90(TM) system (copyright 1990, Gaussian, Inc.),
 the Gaussian 88(TM) system (copyright 1988, Gaussian, Inc.),
 the Gaussian 86(TM) system (copyright 1986, Carnegie Mellon
 University), and the Gaussian 82(TM) system (copyright 1983,
 Carnegie Mellon University). Gaussian is a federally registered
 trademark of Gaussian, Inc.
  
 This software contains proprietary and confidential information,
 including trade secrets, belonging to Gaussian, Inc.
  
 This software is provided under written license and may be
 used, copied, transmitted, or stored only in accord with that
 written license.
  
 The following legend is applicable only to US Government
 contracts under FAR:
  
                    RESTRICTED RIGHTS LEGEND
  
 Use, reproduction and disclosure by the US Government is
 subject to restrictions as set forth in subparagraphs (a)
 and (c) of the Commercial Computer Software - Restricted
 Rights clause in FAR 52.227-19.
  
 Gaussian, Inc.
 340 Quinnipiac St., Bldg. 40, Wallingford CT 06492
  
  
 ---------------------------------------------------------------
 Warning -- This program may not be used in any manner that
 competes with the business of Gaussian, Inc. or will provide
 assistance to any competitor of Gaussian, Inc.  The licensee
 of this program is prohibited from giving any competitor of
 Gaussian, Inc. access to this program.  By using this program,
 the user acknowledges that Gaussian, Inc. is engaged in the
 business of creating and licensing software in the field of
 computational chemistry and represents and warrants to the
 licensee that it is not a competitor of Gaussian, Inc. and that
 it will not use this program in any manner prohibited above.
 ---------------------------------------------------------------
  

 Cite this work as:
 Gaussian 09, Revision D.01,
 M. J. Frisch, G. W. Trucks, H. B. Schlegel, G. E. Scuseria, 
 M. A. Robb, J. R. Cheeseman, G. Scalmani, V. Barone, B. Mennucci, 
 G. A. Petersson, H. Nakatsuji, M. Caricato, X. Li, H. P. Hratchian, 
 A. F. Izmaylov, J. Bloino, G. Zheng, J. L. Sonnenberg, M. Hada, 
 M. Ehara, K. Toyota, R. Fukuda, J. Hasegawa, M. Ishida, T. Nakajima, 
 Y. Honda, O. Kitao, H. Nakai, T. Vreven, J. A. Montgomery, Jr., 
 J. E. Peralta, F. Ogliaro, M. Bearpark, J. J. Heyd, E. Brothers, 
 K. N. Kudin, V. N. Staroverov, T. Keith, R. Kobayashi, J. Normand, 
 K. Raghavachari, A. Rendell, J. C. Burant, S. S. Iyengar, J. Tomasi, 
 M. Cossi, N. Rega, J. M. Millam, M. Klene, J. E. Knox, J. B. Cross, 
 V. Bakken, C. Adamo, J. Jaramillo, R. Gomperts, R. E. Stratmann, 
 O. Yazyev, A. J. Austin, R. Cammi, C. Pomelli, J. W. Ochterski, 
 R. L. Martin, K. Morokuma, V. G. Zakrzewski, G. A. Voth, 
 P. Salvador, J. J. Dannenberg, S. Dapprich, A. D. Daniels, 
 O. Farkas, J. B. Foresman, J. V. Ortiz, J. Cioslowski, 
 and D. J. Fox, Gaussian, Inc., Wallingford CT, 2013.
 
 ******************************************
 Gaussian 09:  ES64L-G09RevD.01 24-Apr-2013
                 4-Oct-2016 
 ******************************************
 %NprocShared=20
 Will use up to   20 processors via shared memory.
 %mem=55000mb
 %chk=cc-Al4-c-d
 ------------------------
 # hf/6-31G* test scf=xqc
 ------------------------
 1/38=1/1;
 2/12=2,17=6,18=5,40=1/2;
 3/5=1,6=6,7=1,11=9,16=1,25=1,30=1/1,2,3;
 4//1;
 5/5=2,8=3,13=1,38=5/2,8;
 6/7=2,8=2,9=2,10=2,28=1/1;
 99/5=1,9=1/99;
 -------
 Al4-c-d
 -------
 Symbolic Z-matrix:
 Charge =  1 Multiplicity = 2
 Al                    0.        0.        2.29031 
 Al                    0.        1.32461   0. 
 Al                    0.        0.       -2.29031 
 Al                    0.       -1.32461   0. 
 
                          Input orientation:                          
 ---------------------------------------------------------------------
 Center     Atomic      Atomic             Coordinates (Angstroms)
 Number     Number       Type             X           Y           Z
 ---------------------------------------------------------------------
      1         13           0        0.000000    0.000000    2.290311
      2         13           0        0.000000    1.324613    0.000000
      3         13           0        0.000000    0.000000   -2.290311
      4         13           0        0.000000   -1.324613    0.000000
 ---------------------------------------------------------------------
                    Distance matrix (angstroms):
                    1          2          3          4
     1  Al   0.000000
     2  Al   2.645775   0.000000
     3  Al   4.580622   2.645775   0.000000
     4  Al   2.645775   2.649226   2.645775   0.000000
 Stoichiometry    Al4(1+,2)
 Framework group  D2H[C2'(Al.Al),C2"(Al.Al)]
 Deg. of freedom     2
 Full point group                 D2H     NOp   8
 Largest Abelian subgroup         D2H     NOp   8
 Largest concise Abelian subgroup D2      NOp   4
                         Standard orientation:                         
 ---------------------------------------------------------------------
 Center     Atomic      Atomic             Coordinates (Angstroms)
 Number     Number       Type             X           Y           Z
 ---------------------------------------------------------------------
      1         13           0        0.000000    0.000000    2.290311
      2         13           0        0.000000    1.324613    0.000000
      3         13           0        0.000000    0.000000   -2.290311
      4         13           0        0.000000   -1.324613    0.000000
 ---------------------------------------------------------------------
 Rotational constants (GHZ):      5.3375557      1.7853835      1.3378724
 Standard basis: 6-31G(d) (6D, 7F)
 There are    20 symmetry adapted cartesian basis functions of AG  symmetry.
 There are     5 symmetry adapted cartesian basis functions of B1G symmetry.
 There are     5 symmetry adapted cartesian basis functions of B2G symmetry.
 There are     8 symmetry adapted cartesian basis functions of B3G symmetry.
 There are     2 symmetry adapted cartesian basis functions of AU  symmetry.
 There are    14 symmetry adapted cartesian basis functions of B1U symmetry.
 There are    14 symmetry adapted cartesian basis functions of B2U symmetry.
 There are     8 symmetry adapted cartesian basis functions of B3U symmetry.
 There are    20 symmetry adapted basis functions of AG  symmetry.
 There are     5 symmetry adapted basis functions of B1G symmetry.
 There are     5 symmetry adapted basis functions of B2G symmetry.
 There are     8 symmetry adapted basis functions of B3G symmetry.
 There are     2 symmetry adapted basis functions of AU  symmetry.
 There are    14 symmetry adapted basis functions of B1U symmetry.
 There are    14 symmetry adapted basis functions of B2U symmetry.
 There are     8 symmetry adapted basis functions of B3U symmetry.
    76 basis functions,   208 primitive gaussians,    76 cartesian basis functions
    26 alpha electrons       25 beta electrons
       nuclear repulsion energy       188.4868304198 Hartrees.
 NAtoms=    4 NActive=    4 NUniq=    2 SFac= 4.00D+00 NAtFMM=   60 NAOKFM=F Big=F
 Integral buffers will be    131072 words long.
 Raffenetti 2 integral format.
 Two-electron integral symmetry is turned on.
 One-electron integrals computed using PRISM.
 NBasis=    76 RedAO= T EigKep=  9.60D-03  NBF=    20     5     5     8     2    14    14     8
 NBsUse=    76 1.00D-06 EigRej= -1.00D+00 NBFU=    20     5     5     8     2    14    14     8
 ExpMin= 5.57D-02 ExpMax= 1.40D+04 ExpMxC= 2.10D+03 IAcc=2 IRadAn=         4 AccDes= 0.00D+00
 Harris functional with IExCor=  205 and IRadAn=       4 diagonalized for initial guess.
 HarFok:  IExCor=  205 AccDes= 0.00D+00 IRadAn=         4 IDoV= 1 UseB2=F ITyADJ=14
 ICtDFT=  3500011 ScaDFX=  1.000000  1.000000  1.000000  1.000000
 FoFCou: FMM=F IPFlag=           0 FMFlag=      100000 FMFlg1=           0
         NFxFlg=           0 DoJE=T BraDBF=F KetDBF=T FulRan=T
         wScrn=  0.000000 ICntrl=     500 IOpCl=  0 I1Cent=   200000004 NGrid=           0
         NMat0=    1 NMatS0=      1 NMatT0=    0 NMatD0=    1 NMtDS0=    0 NMtDT0=    0
 Petite list used in FoFCou.
 Initial guess orbital symmetries:
 Alpha Orbitals:
       Occupied  (B2U) (AG) (B1U) (AG) (B2U) (AG) (B1U) (AG) (AG)
                 (B1U) (B3G) (B2U) (B3U) (B1G) (AG) (B1U) (B2U)
                 (B3G) (B3U) (B2G) (AG) (B1U) (B2U) (AG) (B3U)
                 (B3G)
       Virtual   (AG) (B1U) (B2G) (B1G) (B2U) (B3U) (AG) (B2U)
                 (B1U) (B3G) (AG) (B1U) (AG) (B3G) (B3U) (AG) (B1U)
                 (B2G) (B2U) (B1G) (B2U) (B3U) (B2U) (AG) (B3G)
                 (B1U) (B2G) (B3U) (AU) (AG) (B2U) (B1U) (B1G)
                 (B3G) (B1U) (AG) (B3U) (AG) (AU) (B1G) (B2G) (AG)
                 (B2U) (B3G) (B2U) (B1U) (AG) (B1U) (B2U) (AG)
 Beta  Orbitals:
       Occupied  (B2U) (AG) (B1U) (AG) (B2U) (AG) (B1U) (AG) (AG)
                 (B1U) (B3G) (B2U) (B3U) (B1G) (AG) (B1U) (B2U)
                 (B3G) (B3U) (B2G) (AG) (B1U) (B2U) (AG) (B3U)
       Virtual   (B3G) (AG) (B1U) (B2G) (B1G) (B2U) (B3U) (AG)
                 (B2U) (B1U) (B3G) (AG) (B1U) (AG) (B3G) (B3U)
                 (AG) (B1U) (B2G) (B2U) (B1G) (B2U) (B3U) (B2U)
                 (AG) (B3G) (B1U) (B2G) (B3U) (AU) (AG) (B2U) (B1U)
                 (B1G) (B3G) (B1U) (AG) (B3U) (AG) (AU) (B1G) (B2G)
                 (AG) (B2U) (B3G) (B2U) (B1U) (AG) (B1U) (B2U)
                 (AG)
 The electronic state of the initial guess is 2-B3G.
 Initial guess <Sx>= 0.0000 <Sy>= 0.0000 <Sz>= 0.5000 <S**2>= 0.7500 S= 0.5000
 Keep R1 and R2 ints in memory in symmetry-blocked form, NReq=5170005.
 Requested convergence on RMS density matrix=1.00D-08 within  64 cycles.
 Requested convergence on MAX density matrix=1.00D-06.
 Requested convergence on             energy=1.00D-06.
 No special actions if energy rises.
 SCF Done:  E(UHF) =  -967.287731776     A.U. after   17 cycles
            NFock= 17  Conv=0.24D-08     -V/T= 2.0001
 <Sx>= 0.0000 <Sy>= 0.0000 <Sz>= 0.5000 <S**2>= 0.8427 S= 0.5453
 <L.S>= 0.000000000000E+00
 Annihilation of the first spin contaminant:
 S**2 before annihilation     0.8427,   after     0.7567
 QCSCF skips out because SCF is already converged.

 **********************************************************************

            Population analysis using the SCF density.

 **********************************************************************

 Orbital symmetries:
 Alpha Orbitals:
       Occupied  (B1U) (AG) (B2U) (AG) (AG) (B1U) (AG) (B2U) (B3G)
                 (B2U) (B1U) (AG) (B3U) (B2G) (B3G) (B1U) (AG)
                 (B2U) (B3U) (B1G) (AG) (B1U) (B2U) (AG) (B3G)
                 (B3U)
       Virtual   (B1U) (AG) (B2G) (B2U) (B1G) (B3U) (B2U) (AG)
                 (B1U) (B3G) (AG) (B1U) (AG) (B3G) (B3U) (AG) (B2U)
                 (B1U) (B2G) (B1G) (B2U) (B3U) (B2U) (AG) (B3G)
                 (B1U) (B2G) (B3U) (AU) (AG) (B1U) (B2U) (B1G)
                 (B3G) (B1U) (AG) (B3U) (AG) (AU) (B1G) (B2G) (AG)
                 (B2U) (B2U) (B3G) (B1U) (AG) (B1U) (B2U) (AG)
 Beta  Orbitals:
       Occupied  (B1U) (AG) (B2U) (AG) (AG) (B1U) (AG) (B2U) (AG)
                 (B1U) (B3U) (B2G) (AG) (B2U) (B3U) (B1G) (B3G)
                 (B2U) (B1U) (B3G) (AG) (B1U) (B2U) (AG) (B3U)
       Virtual   (AG) (B1U) (B3G) (B2G) (B1G) (B2U) (B3U) (B2U)
                 (AG) (B1U) (B3G) (AG) (B1U) (AG) (B3G) (B3U) (AG)
                 (B1U) (B2G) (B2U) (B1G) (B2U) (B3U) (AG) (B2U)
                 (B3G) (B1U) (B3U) (B2G) (AU) (AG) (B1U) (B2U)
                 (B1G) (B3G) (B1U) (AG) (B3U) (AG) (AU) (B1G) (B2G)
                 (AG) (B2U) (B2U) (B3G) (B1U) (AG) (B1U) (B2U)
                 (AG)
 The electronic state is 2-B3G.
 Alpha  occ. eigenvalues --  -58.67247 -58.67247 -58.66559 -58.66558  -5.09018
 Alpha  occ. eigenvalues --   -5.09018  -5.08559  -5.08554  -3.40101  -3.40099
 Alpha  occ. eigenvalues --   -3.39898  -3.39882  -3.39793  -3.39792  -3.39790
 Alpha  occ. eigenvalues --   -3.39778  -3.39583  -3.39525  -3.39388  -3.39382
 Alpha  occ. eigenvalues --   -0.78076  -0.64683  -0.55591  -0.44864  -0.42636
 Alpha  occ. eigenvalues --   -0.38971
 Alpha virt. eigenvalues --   -0.19837  -0.18221  -0.14521  -0.10989  -0.10669
 Alpha virt. eigenvalues --   -0.05290  -0.03840  -0.03021  -0.02340   0.00541
 Alpha virt. eigenvalues --    0.05611   0.08988   0.10321   0.10755   0.13496
 Alpha virt. eigenvalues --    0.16227   0.16598   0.16811   0.17800   0.19106
 Alpha virt. eigenvalues --    0.20702   0.21691   0.23639   0.23737   0.26131
 Alpha virt. eigenvalues --    0.27567   0.35817   0.37001   0.37624   0.41603
 Alpha virt. eigenvalues --    0.43733   0.44538   0.48375   0.51442   0.54119
 Alpha virt. eigenvalues --    0.55532   0.58324   0.58620   0.61114   0.64185
 Alpha virt. eigenvalues --    0.66583   0.78134   0.81956   0.83713   0.83860
 Alpha virt. eigenvalues --    0.87348   2.05085   2.15674   2.18836   2.20661
  Beta  occ. eigenvalues --  -58.67166 -58.67165 -58.66512 -58.66511  -5.08958
  Beta  occ. eigenvalues --   -5.08958  -5.08574  -5.08568  -3.39812  -3.39811
  Beta  occ. eigenvalues --   -3.39752  -3.39751  -3.39551  -3.39498  -3.39409
  Beta  occ. eigenvalues --   -3.39403  -3.39375  -3.39372  -3.39111  -3.39105
  Beta  occ. eigenvalues --   -0.73931  -0.59124  -0.51161  -0.45417  -0.38553
  Beta virt. eigenvalues --   -0.19040  -0.18400  -0.17628  -0.13903  -0.10873
  Beta virt. eigenvalues --   -0.07508  -0.05645  -0.03042  -0.01999  -0.00628
  Beta virt. eigenvalues --    0.02527   0.06063   0.09980   0.10010   0.13414
  Beta virt. eigenvalues --    0.13739   0.16684   0.16911   0.18023   0.18540
  Beta virt. eigenvalues --    0.18955   0.20513   0.21631   0.24356   0.24718
  Beta virt. eigenvalues --    0.28230   0.29248   0.36484   0.36575   0.40412
  Beta virt. eigenvalues --    0.43004   0.45195   0.46095   0.49958   0.53028
  Beta virt. eigenvalues --    0.55383   0.55413   0.58342   0.60313   0.62263
  Beta virt. eigenvalues --    0.64149   0.67094   0.78997   0.82421   0.85164
  Beta virt. eigenvalues --    0.85478   0.88100   2.05341   2.15945   2.18988
  Beta virt. eigenvalues --    2.20829
          Condensed to atoms (all electrons):
               1          2          3          4
     1  Al  12.581672  -0.028151   0.058510  -0.028151
     2  Al  -0.028151  12.901264  -0.028151   0.071157
     3  Al   0.058510  -0.028151  12.581672  -0.028151
     4  Al  -0.028151   0.071157  -0.028151  12.901264
          Atomic-Atomic Spin Densities.
               1          2          3          4
     1  Al   0.169754   0.035945   0.041329   0.035945
     2  Al   0.035945   0.180321   0.035945  -0.035183
     3  Al   0.041329   0.035945   0.169754   0.035945
     4  Al   0.035945  -0.035183   0.035945   0.180321
 Mulliken charges and spin densities:
               1          2
     1  Al   0.416119   0.282973
     2  Al   0.083881   0.217027
     3  Al   0.416119   0.282973
     4  Al   0.083881   0.217027
 Sum of Mulliken charges =   1.00000   1.00000
 Mulliken charges and spin densities with hydrogens summed into heavy atoms:
               1          2
     1  Al   0.416119   0.282973
     2  Al   0.083881   0.217027
     3  Al   0.416119   0.282973
     4  Al   0.083881   0.217027
 Electronic spatial extent (au):  <R**2>=            730.6235
 Charge=              1.0000 electrons
 Dipole moment (field-independent basis, Debye):
    X=              0.0000    Y=              0.0000    Z=              0.0000  Tot=              0.0000
 Quadrupole moment (field-independent basis, Debye-Ang):
   XX=            -52.8420   YY=            -34.8070   ZZ=            -20.8658
   XY=              0.0000   XZ=              0.0000   YZ=              0.0000
 Traceless Quadrupole moment (field-independent basis, Debye-Ang):
   XX=            -16.6704   YY=              1.3646   ZZ=             15.3058
   XY=              0.0000   XZ=              0.0000   YZ=              0.0000
 Octapole moment (field-independent basis, Debye-Ang**2):
  XXX=              0.0000  YYY=              0.0000  ZZZ=              0.0000  XYY=              0.0000
  XXY=              0.0000  XXZ=              0.0000  XZZ=              0.0000  YZZ=              0.0000
  YYZ=              0.0000  XYZ=              0.0000
 Hexadecapole moment (field-independent basis, Debye-Ang**3):
 XXXX=           -137.7794 YYYY=           -263.3356 ZZZZ=           -572.4767 XXXY=              0.0000
 XXXZ=              0.0000 YYYX=              0.0000 YYYZ=              0.0000 ZZZX=              0.0000
 ZZZY=              0.0000 XXYY=            -82.2574 XXZZ=           -152.3150 YYZZ=           -194.4434
 XXYZ=              0.0000 YYXZ=              0.0000 ZZXY=              0.0000
 N-N= 1.884868304198D+02 E-N=-2.681216966547D+03  KE= 9.671592228852D+02
 Symmetry AG   KE= 4.037597808801D+02
 Symmetry B1G  KE= 1.972728270317D+01
 Symmetry B2G  KE= 1.972007252886D+01
 Symmetry B3G  KE= 4.023050155815D+01
 Symmetry AU   KE= 3.176779751933D-34
 Symmetry B1U  KE= 2.215561448679D+02
 Symmetry B2U  KE= 2.216128101800D+02
 Symmetry B3U  KE= 4.055263016700D+01
                          Isotropic Fermi Contact Couplings
        Atom                 a.u.       MegaHertz       Gauss      10(-4) cm-1
     1  Al(27)            -0.16295    -189.93473     -67.77343     -63.35541
     2  Al(27)            -0.22561    -262.97190     -93.83491     -87.71799
     3  Al(27)            -0.16295    -189.93473     -67.77343     -63.35541
     4  Al(27)            -0.22561    -262.97190     -93.83491     -87.71799
 --------------------------------------------------------
       Center         ----  Spin Dipole Couplings  ----
                      3XX-RR        3YY-RR        3ZZ-RR
 --------------------------------------------------------
     1   Atom       -0.214884      0.398898     -0.184014
     2   Atom       -0.231249     -0.180460      0.411709
     3   Atom       -0.214884      0.398898     -0.184014
     4   Atom       -0.231249     -0.180460      0.411709
 --------------------------------------------------------
                        XY            XZ            YZ
 --------------------------------------------------------
     1   Atom        0.000000      0.000000      0.000000
     2   Atom        0.000000      0.000000      0.000000
     3   Atom        0.000000      0.000000      0.000000
     4   Atom        0.000000      0.000000      0.000000
 --------------------------------------------------------


 ---------------------------------------------------------------------------------
              Anisotropic Spin Dipole Couplings in Principal Axis System
 ---------------------------------------------------------------------------------

       Atom             a.u.   MegaHertz   Gauss  10(-4) cm-1        Axes

              Baa    -0.2149   -29.898   -10.668    -9.973  1.0000  0.0000  0.0000
     1 Al(27) Bbb    -0.1840   -25.603    -9.136    -8.540  0.0000  0.0000  1.0000
              Bcc     0.3989    55.501    19.804    18.513  0.0000  1.0000  0.0000
 
              Baa    -0.2312   -32.175   -11.481   -10.732  1.0000  0.0000  0.0000
     2 Al(27) Bbb    -0.1805   -25.109    -8.959    -8.375  0.0000  1.0000  0.0000
              Bcc     0.4117    57.284    20.440    19.108  0.0000  0.0000  1.0000
 
              Baa    -0.2149   -29.898   -10.668    -9.973  1.0000  0.0000  0.0000
     3 Al(27) Bbb    -0.1840   -25.603    -9.136    -8.540  0.0000  0.0000  1.0000
              Bcc     0.3989    55.501    19.804    18.513  0.0000  1.0000  0.0000
 
              Baa    -0.2312   -32.175   -11.481   -10.732  1.0000  0.0000  0.0000
     4 Al(27) Bbb    -0.1805   -25.109    -8.959    -8.375  0.0000  1.0000  0.0000
              Bcc     0.4117    57.284    20.440    19.108  0.0000  0.0000  1.0000
 

 ---------------------------------------------------------------------------------


 Test job not archived.
 1\1\GINC-R1I0N7\SP\UHF\6-31G(d)\Al4(1+,2)\VSC31064\04-Oct-2016\0\\# hf
 /6-31G* test scf=xqc\\Al4-c-d\\1,2\Al,0,0.,0.,2.290311\Al,0,0.,1.32461
 3,0.\Al,0,0.,0.,-2.290311\Al,0,0.,-1.324613,0.\\Version=ES64L-G09RevD.
 01\State=2-B3G\HF=-967.2877318\S2=0.842749\S2-1=0.\S2A=0.756659\RMSD=2
 .381e-09\Dipole=0.,0.,0.\Quadrupole=-12.3940432,1.0145353,11.379508,0.
 ,0.,0.\PG=D02H [C2'(Al1.Al1),C2"(Al1.Al1)]\\@


 PICNIC:  A SNACK IN THE GRASS.
 Job cpu time:       0 days  0 hours  1 minutes 37.0 seconds.
 File lengths (MBytes):  RWF=      6 Int=      0 D2E=      0 Chk=      1 Scr=      1
 Normal termination of Gaussian 09 at Tue Oct  4 06:54:57 2016.
 Initial command:
 /apps/leuven/thinking/software/G09//g09D1/l1.exe "/local_scratch/vsc31064/Gau-53985.inp" -scrdir="/local_scratch/vsc31064/"
 Entering Link 1 = /apps/leuven/thinking/software/G09//g09D1/l1.exe PID=     54215.
  
 Copyright (c) 1988,1990,1992,1993,1995,1998,2003,2009,2013,
            Gaussian, Inc.  All Rights Reserved.
  
 This is part of the Gaussian(R) 09 program.  It is based on
 the Gaussian(R) 03 system (copyright 2003, Gaussian, Inc.),
 the Gaussian(R) 98 system (copyright 1998, Gaussian, Inc.),
 the Gaussian(R) 94 system (copyright 1995, Gaussian, Inc.),
 the Gaussian 92(TM) system (copyright 1992, Gaussian, Inc.),
 the Gaussian 90(TM) system (copyright 1990, Gaussian, Inc.),
 the Gaussian 88(TM) system (copyright 1988, Gaussian, Inc.),
 the Gaussian 86(TM) system (copyright 1986, Carnegie Mellon
 University), and the Gaussian 82(TM) system (copyright 1983,
 Carnegie Mellon University). Gaussian is a federally registered
 trademark of Gaussian, Inc.
  
 This software contains proprietary and confidential information,
 including trade secrets, belonging to Gaussian, Inc.
  
 This software is provided under written license and may be
 used, copied, transmitted, or stored only in accord with that
 written license.
  
 The following legend is applicable only to US Government
 contracts under FAR:
  
                    RESTRICTED RIGHTS LEGEND
  
 Use, reproduction and disclosure by the US Government is
 subject to restrictions as set forth in subparagraphs (a)
 and (c) of the Commercial Computer Software - Restricted
 Rights clause in FAR 52.227-19.
  
 Gaussian, Inc.
 340 Quinnipiac St., Bldg. 40, Wallingford CT 06492
  
  
 ---------------------------------------------------------------
 Warning -- This program may not be used in any manner that
 competes with the business of Gaussian, Inc. or will provide
 assistance to any competitor of Gaussian, Inc.  The licensee
 of this program is prohibited from giving any competitor of
 Gaussian, Inc. access to this program.  By using this program,
 the user acknowledges that Gaussian, Inc. is engaged in the
 business of creating and licensing software in the field of
 computational chemistry and represents and warrants to the
 licensee that it is not a competitor of Gaussian, Inc. and that
 it will not use this program in any manner prohibited above.
 ---------------------------------------------------------------
  

 Cite this work as:
 Gaussian 09, Revision D.01,
 M. J. Frisch, G. W. Trucks, H. B. Schlegel, G. E. Scuseria, 
 M. A. Robb, J. R. Cheeseman, G. Scalmani, V. Barone, B. Mennucci, 
 G. A. Petersson, H. Nakatsuji, M. Caricato, X. Li, H. P. Hratchian, 
 A. F. Izmaylov, J. Bloino, G. Zheng, J. L. Sonnenberg, M. Hada, 
 M. Ehara, K. Toyota, R. Fukuda, J. Hasegawa, M. Ishida, T. Nakajima, 
 Y. Honda, O. Kitao, H. Nakai, T. Vreven, J. A. Montgomery, Jr., 
 J. E. Peralta, F. Ogliaro, M. Bearpark, J. J. Heyd, E. Brothers, 
 K. N. Kudin, V. N. Staroverov, T. Keith, R. Kobayashi, J. Normand, 
 K. Raghavachari, A. Rendell, J. C. Burant, S. S. Iyengar, J. Tomasi, 
 M. Cossi, N. Rega, J. M. Millam, M. Klene, J. E. Knox, J. B. Cross, 
 V. Bakken, C. Adamo, J. Jaramillo, R. Gomperts, R. E. Stratmann, 
 O. Yazyev, A. J. Austin, R. Cammi, C. Pomelli, J. W. Ochterski, 
 R. L. Martin, K. Morokuma, V. G. Zakrzewski, G. A. Voth, 
 P. Salvador, J. J. Dannenberg, S. Dapprich, A. D. Daniels, 
 O. Farkas, J. B. Foresman, J. V. Ortiz, J. Cioslowski, 
 and D. J. Fox, Gaussian, Inc., Wallingford CT, 2013.
 
 ******************************************
 Gaussian 09:  ES64L-G09RevD.01 24-Apr-2013
                 4-Oct-2016 
 ******************************************
 %NprocShared=20
 Will use up to   20 processors via shared memory.
 %mem=55000mb
 %chk=cc-Al4-c-d
 --------------------------------------------------------
 # CCSD(T,conver=5)/cc-pVTZ test geom=allcheck guess=read
 --------------------------------------------------------
 1/29=7,38=1/1;
 2/12=2,40=1/2;
 3/5=16,6=1,11=9,14=-4,16=1,25=1,30=1,116=-2/1,2,3;
 4/5=1/1;
 5/5=2,38=6/2;
 8/6=4,9=120000,10=1/1,4;
 9/5=7,9=5,14=2/13;
 6/7=2,8=2,9=2,10=2/1;
 99/5=1,9=1/99;
 Structure from the checkpoint file:  "cc-Al4-c-d.chk"
 -------
 Al4-c-d
 -------
 Charge =  1 Multiplicity = 2
 Z-Matrix found in file.
 Al,0,0.,0.,2.290311
 Al,0,0.,1.324613,0.
 Al,0,0.,0.,-2.290311
 Al,0,0.,-1.324613,0.
 Recover connectivity data from disk.
                          Input orientation:                          
 ---------------------------------------------------------------------
 Center     Atomic      Atomic             Coordinates (Angstroms)
 Number     Number       Type             X           Y           Z
 ---------------------------------------------------------------------
      1         13           0        0.000000    0.000000    2.290311
      2         13           0        0.000000    1.324613    0.000000
      3         13           0        0.000000    0.000000   -2.290311
      4         13           0        0.000000   -1.324613    0.000000
 ---------------------------------------------------------------------
                    Distance matrix (angstroms):
                    1          2          3          4
     1  Al   0.000000
     2  Al   2.645775   0.000000
     3  Al   4.580622   2.645775   0.000000
     4  Al   2.645775   2.649226   2.645775   0.000000
 Stoichiometry    Al4(1+,2)
 Framework group  D2H[C2'(Al.Al),C2"(Al.Al)]
 Deg. of freedom     2
 Full point group                 D2H     NOp   8
 Largest Abelian subgroup         D2H     NOp   8
 Largest concise Abelian subgroup D2      NOp   4
                         Standard orientation:                         
 ---------------------------------------------------------------------
 Center     Atomic      Atomic             Coordinates (Angstroms)
 Number     Number       Type             X           Y           Z
 ---------------------------------------------------------------------
      1         13           0        0.000000    0.000000    2.290311
      2         13           0        0.000000    1.324613    0.000000
      3         13           0        0.000000    0.000000   -2.290311
      4         13           0        0.000000   -1.324613    0.000000
 ---------------------------------------------------------------------
 Rotational constants (GHZ):      5.3375557      1.7853835      1.3378724
 Standard basis: CC-pVTZ (5D, 7F)
 There are    36 symmetry adapted cartesian basis functions of AG  symmetry.
 There are    12 symmetry adapted cartesian basis functions of B1G symmetry.
 There are    12 symmetry adapted cartesian basis functions of B2G symmetry.
 There are    18 symmetry adapted cartesian basis functions of B3G symmetry.
 There are     6 symmetry adapted cartesian basis functions of AU  symmetry.
 There are    27 symmetry adapted cartesian basis functions of B1U symmetry.
 There are    27 symmetry adapted cartesian basis functions of B2U symmetry.
 There are    18 symmetry adapted cartesian basis functions of B3U symmetry.
 There are    30 symmetry adapted basis functions of AG  symmetry.
 There are    11 symmetry adapted basis functions of B1G symmetry.
 There are    11 symmetry adapted basis functions of B2G symmetry.
 There are    16 symmetry adapted basis functions of B3G symmetry.
 There are     6 symmetry adapted basis functions of AU  symmetry.
 There are    23 symmetry adapted basis functions of B1U symmetry.
 There are    23 symmetry adapted basis functions of B2U symmetry.
 There are    16 symmetry adapted basis functions of B3U symmetry.
   136 basis functions,   380 primitive gaussians,   156 cartesian basis functions
    26 alpha electrons       25 beta electrons
       nuclear repulsion energy       188.4868304198 Hartrees.
 NAtoms=    4 NActive=    4 NUniq=    2 SFac= 4.00D+00 NAtFMM=   60 NAOKFM=F Big=F
 Integral buffers will be    131072 words long.
 Raffenetti 2 integral format.
 Two-electron integral symmetry is turned on.
 One-electron integrals computed using PRISM.
 NBasis=   136 RedAO= T EigKep=  1.79D-03  NBF=    30    11    11    16     6    23    23    16
 NBsUse=   136 1.00D-06 EigRej= -1.00D+00 NBFU=    30    11    11    16     6    23    23    16
 Initial guess from the checkpoint file:  "cc-Al4-c-d.chk"
 B after Tr=     0.000000    0.000000    0.000000
         Rot=    1.000000    0.000000    0.000000    0.000000 Ang=   0.00 deg.
 Initial guess orbital symmetries:
 Alpha Orbitals:
       Occupied  (B1U) (AG) (B2U) (AG) (AG) (B1U) (AG) (B2U) (B3G)
                 (B2U) (B1U) (AG) (B3U) (B2G) (B3G) (B1U) (AG)
                 (B2U) (B3U) (B1G) (AG) (B1U) (B2U) (AG) (B3G)
                 (B3U)
       Virtual   (AG) (AG) (AG) (AG) (AG) (AG) (AG) (AG) (AG) (AG)
                 (AG) (AG) (AG) (AG) (AG) (AG) (AG) (AG) (AG) (AG)
                 (AG) (AG) (B1G) (B1G) (B1G) (B1G) (B1G) (B1G)
                 (B1G) (B1G) (B1G) (B1G) (B2G) (B2G) (B2G) (B2G)
                 (B2G) (B2G) (B2G) (B2G) (B2G) (B2G) (B3G) (B3G)
                 (B3G) (B3G) (B3G) (B3G) (B3G) (B3G) (B3G) (B3G)
                 (B3G) (B3G) (B3G) (AU) (AU) (AU) (AU) (AU) (AU)
                 (B1U) (B1U) (B1U) (B1U) (B1U) (B1U) (B1U) (B1U)
                 (B1U) (B1U) (B1U) (B1U) (B1U) (B1U) (B1U) (B1U)
                 (B1U) (B1U) (B2U) (B2U) (B2U) (B2U) (B2U) (B2U)
                 (B2U) (B2U) (B2U) (B2U) (B2U) (B2U) (B2U) (B2U)
                 (B2U) (B2U) (B2U) (B2U) (B3U) (B3U) (B3U) (B3U)
                 (B3U) (B3U) (B3U) (B3U) (B3U) (B3U) (B3U) (B3U)
                 (B3U)
 Beta  Orbitals:
       Occupied  (B1U) (AG) (B2U) (AG) (AG) (B1U) (AG) (B2U) (AG)
                 (B1U) (B3U) (B2G) (AG) (B2U) (B3U) (B1G) (B3G)
                 (B2U) (B1U) (B3G) (AG) (B1U) (B2U) (AG) (B3U)
       Virtual   (AG) (AG) (AG) (AG) (AG) (AG) (AG) (AG) (AG) (AG)
                 (AG) (AG) (AG) (AG) (AG) (AG) (AG) (AG) (AG) (AG)
                 (AG) (AG) (B1G) (B1G) (B1G) (B1G) (B1G) (B1G)
                 (B1G) (B1G) (B1G) (B1G) (B2G) (B2G) (B2G) (B2G)
                 (B2G) (B2G) (B2G) (B2G) (B2G) (B2G) (B3G) (B3G)
                 (B3G) (B3G) (B3G) (B3G) (B3G) (B3G) (B3G) (B3G)
                 (B3G) (B3G) (B3G) (B3G) (AU) (AU) (AU) (AU) (AU)
                 (AU) (B1U) (B1U) (B1U) (B1U) (B1U) (B1U) (B1U)
                 (B1U) (B1U) (B1U) (B1U) (B1U) (B1U) (B1U) (B1U)
                 (B1U) (B1U) (B1U) (B2U) (B2U) (B2U) (B2U) (B2U)
                 (B2U) (B2U) (B2U) (B2U) (B2U) (B2U) (B2U) (B2U)
                 (B2U) (B2U) (B2U) (B2U) (B2U) (B3U) (B3U) (B3U)
                 (B3U) (B3U) (B3U) (B3U) (B3U) (B3U) (B3U) (B3U)
                 (B3U) (B3U)
 Initial guess <Sx>= 0.0000 <Sy>= 0.0000 <Sz>= 0.5000 <S**2>= 0.8495 S= 0.5485
 Keep R1 and R2 ints in memory in symmetry-blocked form, NReq=49060478.
 Requested convergence on RMS density matrix=1.00D-08 within 128 cycles.
 Requested convergence on MAX density matrix=1.00D-06.
 Requested convergence on             energy=1.00D-06.
 No special actions if energy rises.
 SCF Done:  E(UHF) =  -967.380367994     A.U. after   16 cycles
            NFock= 16  Conv=0.31D-08     -V/T= 1.9999
 <Sx>= 0.0000 <Sy>= 0.0000 <Sz>= 0.5000 <S**2>= 0.8790 S= 0.5626
 <L.S>= 0.000000000000E+00
 Annihilation of the first spin contaminant:
 S**2 before annihilation     0.8790,   after     0.7635
 ExpMin= 5.56D-02 ExpMax= 2.06D+05 ExpMxC= 1.99D+03 IAcc=3 IRadAn=         5 AccDes= 0.00D+00
 HarFok:  IExCor=  205 AccDes= 0.00D+00 IRadAn=         5 IDoV=-2 UseB2=F ITyADJ=14
 ICtDFT= 12500011 ScaDFX=  1.000000  1.000000  1.000000  1.000000
 Range of M.O.s used for correlation:    21   136
 NBasis=   136 NAE=    26 NBE=    25 NFC=    20 NFV=     0
 NROrb=    116 NOA=     6 NOB=     5 NVA=   110 NVB=   111
 Semi-Direct transformation.
 ModeAB=           4 MOrb=             6 LenV=    7208258148
 LASXX=       572176 LTotXX=      572176 LenRXX=     1164210
 LTotAB=      592034 MaxLAS=     3449376 LenRXY=           0
 NonZer=     1736386 LenScr=     3253760 LnRSAI=     3449376
 LnScr1=     5910528 LExtra=           0 Total=     13777874
 MaxDsk=          -1 SrtSym=           T ITran=            4
 JobTyp=1 Pass  1:  I=   1 to   6.
 (rs|ai) integrals will be sorted in core.
 ModeAB=           4 MOrb=             5 LenV=    7208258148
 LASXX=       479053 LTotXX=      479053 LenRXX=      924011
 LTotAB=      444958 MaxLAS=     2874480 LenRXY=           0
 NonZer=     1403064 LenScr=     2805760 LnRSAI=     2874480
 LnScr1=     5028352 LExtra=           0 Total=     11632603
 MaxDsk=          -1 SrtSym=           T ITran=            4
 JobTyp=2 Pass  1:  I=   1 to   5.
 (rs|ai) integrals will be sorted in core.
 Spin components of T(2) and E(2):
     alpha-alpha T2 =       0.3786019353D-01 E2=     -0.3558873421D-01
     alpha-beta  T2 =       0.1888554518D+00 E2=     -0.1963791092D+00
     beta-beta   T2 =       0.2536994343D-01 E2=     -0.2344785706D-01
 ANorm=    0.1118966304D+01
 E2 =    -0.2554157005D+00 EUMP2 =    -0.96763578369491D+03
 (S**2,0)=  0.87901D+00           (S**2,1)=  0.82963D+00
 E(PUHF)=      -0.96738767136D+03        E(PMP2)=      -0.96764176933D+03
 Keep R2 and R3 ints in memory in symmetry-blocked form, NReq=48965734.
 Iterations=  50 Convergence= 0.100D-04
 Iteration Nr.   1
 **********************
 DD1Dir will call FoFMem   1 times, MxPair=        86
 NAB=    30 NAA=    15 NBB=    10.
 E(PMP3)=      -0.96766350767D+03
 MP4(R+Q)=  0.19297047D-01
 E3=       -0.23707651D-01        EUMP3=      -0.96765949135D+03
 E4(DQ)=    0.64615876D-02        UMP4(DQ)=   -0.96765302976D+03
 E4(SDQ)=   0.10189911D-02        UMP4(SDQ)=  -0.96765847235D+03
 DE(Corr)= -0.25990963     E(Corr)=     -967.64027763    
 NORM(A)=   0.11284089D+01
 Iteration Nr.   2
 **********************
 DD1Dir will call FoFMem   1 times, MxPair=        86
 NAB=    30 NAA=    15 NBB=    10.
 DE(Corr)= -0.27451439     E(CORR)=     -967.65488239     Delta=-1.46D-02
 NORM(A)=   0.11525332D+01
 Iteration Nr.   3
 **********************
 DD1Dir will call FoFMem   1 times, MxPair=        86
 NAB=    30 NAA=    15 NBB=    10.
 DE(Corr)= -0.27573340     E(CORR)=     -967.65610140     Delta=-1.22D-03
 NORM(A)=   0.11609726D+01
 Iteration Nr.   4
 **********************
 DD1Dir will call FoFMem   1 times, MxPair=        86
 NAB=    30 NAA=    15 NBB=    10.
 DE(Corr)= -0.27840739     E(CORR)=     -967.65877539     Delta=-2.67D-03
 NORM(A)=   0.11660708D+01
 Iteration Nr.   5
 **********************
 DD1Dir will call FoFMem   1 times, MxPair=        86
 NAB=    30 NAA=    15 NBB=    10.
 DE(Corr)= -0.27896903     E(CORR)=     -967.65933703     Delta=-5.62D-04
 NORM(A)=   0.11686434D+01
 Iteration Nr.   6
 **********************
 DD1Dir will call FoFMem   1 times, MxPair=        86
 NAB=    30 NAA=    15 NBB=    10.
 DE(Corr)= -0.27911322     E(CORR)=     -967.65948121     Delta=-1.44D-04
 NORM(A)=   0.11689951D+01
 Iteration Nr.   7
 **********************
 DD1Dir will call FoFMem   1 times, MxPair=        86
 NAB=    30 NAA=    15 NBB=    10.
 DE(Corr)= -0.27914130     E(CORR)=     -967.65950929     Delta=-2.81D-05
 NORM(A)=   0.11693235D+01
 Iteration Nr.   8
 **********************
 DD1Dir will call FoFMem   1 times, MxPair=        86
 NAB=    30 NAA=    15 NBB=    10.
 DE(Corr)= -0.27912077     E(CORR)=     -967.65948877     Delta= 2.05D-05
 NORM(A)=   0.11693894D+01
 Iteration Nr.   9
 **********************
 DD1Dir will call FoFMem   1 times, MxPair=        86
 NAB=    30 NAA=    15 NBB=    10.
 DE(Corr)= -0.27914419     E(CORR)=     -967.65951219     Delta=-2.34D-05
 NORM(A)=   0.11694610D+01
 Iteration Nr.  10
 **********************
 DD1Dir will call FoFMem   1 times, MxPair=        86
 NAB=    30 NAA=    15 NBB=    10.
 DE(Corr)= -0.27913621     E(CORR)=     -967.65950420     Delta= 7.99D-06
 NORM(A)=   0.11694772D+01
 Iteration Nr.  11
 **********************
 DD1Dir will call FoFMem   1 times, MxPair=        86
 NAB=    30 NAA=    15 NBB=    10.
 DE(Corr)= -0.27914536     E(CORR)=     -967.65951335     Delta=-9.15D-06
 NORM(A)=   0.11694971D+01
 Dominant configurations:
 ***********************
 Spin Case        I    J    A    B          Value
    BB           22        27           -0.103105D+00
   ABAB          24   24   27   27      -0.162758D+00
   ABAB          23   23   28   26      -0.102319D+00
 Largest amplitude= 1.63D-01
 Time for triples=      218.75 seconds.
 T4(CCSD)= -0.31188292D-01
 T5(CCSD)=  0.12918542D-02
 CCSD(T)= -0.96768940979D+03

 S**2, projected HF & approx projected MPn energies after annihilation of
 unwanted spin states (see manual for definitions):

 spins       (S**2,0) (S**2,1)    PUHF        PMP2        PMP3        PMP4
 annihilated
 s+1         0.74215  0.74774 -967.387671 -967.641769 -967.663508
 s+1,s+2     0.75015  0.75000 -967.387358 -967.641462 -967.663215
 s+1 to s+3  0.75000  0.75000 -967.387363 -967.641464 -967.663214
 s+1 to s+4  0.75000  0.75000 -967.387363 -967.641464 -967.663214
 s+1 to s+5  0.75000  0.75000 -967.387363

 Discarding MO integrals.

 **********************************************************************

            Population analysis using the SCF density.

 **********************************************************************

 Orbital symmetries:
 Alpha Orbitals:
       Occupied  (AG) (B1U) (AG) (B2U) (AG) (B1U) (AG) (B2U) (B3G)
                 (B2U) (B1U) (AG) (B3G) (B1U) (B3U) (B2G) (AG)
                 (B2U) (B3U) (B1G) (AG) (B1U) (B2U) (AG) (B3G)
                 (B3U)
       Virtual   (B1U) (AG) (B2G) (B2U) (B1G) (B3U) (B2U) (AG)
                 (B1U) (B3G) (AG) (B3U) (B1U) (AU) (AG) (B2G) (B3G)
                 (B1U) (B2U) (AG) (B2U) (B1G) (AG) (B1G) (B2U)
                 (B3U) (B2G) (B3G) (B1U) (B3U) (AG) (B1U) (B2U)
                 (B3U) (B1G) (AU) (B3G) (B2G) (AG) (B1U) (B2U)
                 (AG) (B3G) (AG) (B2U) (B1U) (B1U) (B2G) (B3U)
                 (AG) (B3G) (AU) (B2U) (B1G) (AG) (B3U) (B1U) (B2G)
                 (AG) (B3G) (B2U) (B3U) (B1G) (AU) (B2G) (B1G)
                 (AG) (B2U) (B1U) (B1U) (B2U) (B3G) (B2G) (AU)
                 (B3U) (AG) (B3U) (B2U) (AG) (B1U) (B3G) (B3U)
                 (B1G) (AG) (B1U) (B3G) (B2U) (AU) (B2G) (B1G)
                 (B3G) (AG) (B1U) (B2U) (AG) (B1U) (B2U) (B3U)
                 (AG) (B3G) (AG) (B2G) (B1U) (B3U) (B1G) (B2U)
                 (B3G) (B1U) (AG) (B2U)
 Beta  Orbitals:
       Occupied  (AG) (B1U) (AG) (B2U) (AG) (B1U) (AG) (B2U) (AG)
                 (B1U) (B3U) (B2G) (AG) (B2U) (B3U) (B1G) (B3G)
                 (B2U) (B1U) (B3G) (AG) (B1U) (B2U) (AG) (B3U)
       Virtual   (AG) (B1U) (B3G) (B2G) (B1G) (B2U) (B3U) (B2U)
                 (AG) (B1U) (B3G) (AG) (B3U) (B1U) (AG) (AU) (B2G)
                 (AG) (B1U) (B3G) (B2U) (B2U) (B1G) (AG) (B2G)
                 (B1G) (B3U) (B2U) (B3G) (B1U) (B3U) (AG) (B1U)
                 (B2U) (B3U) (B1G) (AU) (B3G) (B2G) (AG) (B1U)
                 (AG) (B2U) (AG) (B3G) (B2U) (B1U) (B1U) (B2G)
                 (B3U) (AG) (B3G) (AU) (B2U) (B1G) (AG) (B3U) (B1U)
                 (B2G) (B2U) (AG) (B3G) (B3U) (B1G) (AU) (B2G)
                 (B1G) (AG) (B2U) (B1U) (B1U) (B2U) (B3G) (B2G)
                 (AU) (B3U) (AG) (B3U) (B2U) (AG) (B1U) (B3G) (B3U)
                 (B1G) (AG) (B1U) (AU) (B2U) (B3G) (B2G) (B1G)
                 (B3G) (AG) (B1U) (B2U) (AG) (B1U) (B2U) (B3U)
                 (AG) (AG) (B3G) (B2G) (B1U) (B3U) (B1G) (B2U)
                 (B3G) (B1U) (AG) (B2U)
 The electronic state is 2-B3G.
 Alpha  occ. eigenvalues --  -58.68026 -58.68026 -58.67388 -58.67388  -5.08937
 Alpha  occ. eigenvalues --   -5.08937  -5.08476  -5.08470  -3.40080  -3.40078
 Alpha  occ. eigenvalues --   -3.39841  -3.39816  -3.39761  -3.39741  -3.39731
 Alpha  occ. eigenvalues --   -3.39730  -3.39501  -3.39443  -3.39361  -3.39354
 Alpha  occ. eigenvalues --   -0.77623  -0.64346  -0.55377  -0.44589  -0.42772
 Alpha  occ. eigenvalues --   -0.39225
 Alpha virt. eigenvalues --   -0.19443  -0.17930  -0.14278  -0.10849  -0.10233
 Alpha virt. eigenvalues --   -0.05087  -0.04285  -0.03278  -0.02974   0.00620
 Alpha virt. eigenvalues --    0.02192   0.06093   0.06551   0.07356   0.07707
 Alpha virt. eigenvalues --    0.09200   0.09504   0.10447   0.10748   0.10932
 Alpha virt. eigenvalues --    0.13104   0.16509   0.17031   0.18500   0.18585
 Alpha virt. eigenvalues --    0.18772   0.18814   0.19207   0.19530   0.21233
 Alpha virt. eigenvalues --    0.22400   0.23613   0.28204   0.29541   0.30272
 Alpha virt. eigenvalues --    0.30303   0.30573   0.31733   0.33943   0.37480
 Alpha virt. eigenvalues --    0.43014   0.44173   0.45897   0.46093   0.49282
 Alpha virt. eigenvalues --    0.52603   0.57304   0.58322   0.59628   0.62403
 Alpha virt. eigenvalues --    0.64932   0.65297   0.66652   0.67707   0.68217
 Alpha virt. eigenvalues --    0.68875   0.69760   0.76618   0.77277   0.77363
 Alpha virt. eigenvalues --    0.77432   0.78754   0.80035   0.80924   0.81958
 Alpha virt. eigenvalues --    0.83097   0.84272   0.84851   0.85269   0.87088
 Alpha virt. eigenvalues --    0.87239   0.88055   0.89987   0.90917   0.92573
 Alpha virt. eigenvalues --    0.96524   0.97456   0.99708   1.00968   1.01331
 Alpha virt. eigenvalues --    1.04643   1.06805   1.07925   1.09562   1.11680
 Alpha virt. eigenvalues --    1.13496   1.13531   1.13616   1.14597   1.16818
 Alpha virt. eigenvalues --    1.19626   1.20817   1.29574   1.31958   1.80210
 Alpha virt. eigenvalues --    1.94849   2.09851   2.11155   2.13742   2.21620
 Alpha virt. eigenvalues --    2.22454   2.25015   2.26013   2.29386   2.30193
 Alpha virt. eigenvalues --    2.52802   2.85448   2.99714   3.08734   3.09274
  Beta  occ. eigenvalues --  -58.67949 -58.67949 -58.67354 -58.67354  -5.08902
  Beta  occ. eigenvalues --   -5.08901  -5.08528  -5.08522  -3.39743  -3.39743
  Beta  occ. eigenvalues --   -3.39697  -3.39697  -3.39469  -3.39416  -3.39394
  Beta  occ. eigenvalues --   -3.39388  -3.39313  -3.39310  -3.39062  -3.39056
  Beta  occ. eigenvalues --   -0.73209  -0.58602  -0.50920  -0.45333  -0.38811
  Beta virt. eigenvalues --   -0.18930  -0.18073  -0.16969  -0.13726  -0.10515
  Beta virt. eigenvalues --   -0.07332  -0.05611  -0.03516  -0.02066  -0.01392
  Beta virt. eigenvalues --    0.02550   0.02662   0.06151   0.07879   0.08478
  Beta virt. eigenvalues --    0.09875   0.09954   0.10817   0.11215   0.12073
  Beta virt. eigenvalues --    0.12214   0.13204   0.17367   0.17882   0.18506
  Beta virt. eigenvalues --    0.18572   0.18589   0.19225   0.20574   0.20625
  Beta virt. eigenvalues --    0.20900   0.22692   0.24425   0.29122   0.29558
  Beta virt. eigenvalues --    0.30146   0.30852   0.31304   0.32163   0.34638
  Beta virt. eigenvalues --    0.37872   0.44194   0.44218   0.46680   0.47793
  Beta virt. eigenvalues --    0.49732   0.53341   0.58438   0.59054   0.59757
  Beta virt. eigenvalues --    0.62486   0.66366   0.66906   0.68156   0.69176
  Beta virt. eigenvalues --    0.69359   0.70245   0.71413   0.77354   0.78118
  Beta virt. eigenvalues --    0.78302   0.78677   0.78954   0.80218   0.81611
  Beta virt. eigenvalues --    0.82454   0.83312   0.84422   0.85493   0.86197
  Beta virt. eigenvalues --    0.87150   0.87258   0.88502   0.90126   0.91238
  Beta virt. eigenvalues --    0.92291   0.97239   0.97604   1.00133   1.01142
  Beta virt. eigenvalues --    1.01861   1.05309   1.07238   1.07958   1.09941
  Beta virt. eigenvalues --    1.11937   1.14141   1.14378   1.14709   1.14743
  Beta virt. eigenvalues --    1.17277   1.20790   1.21498   1.30425   1.33017
  Beta virt. eigenvalues --    1.80248   1.94895   2.09704   2.11068   2.13531
  Beta virt. eigenvalues --    2.22526   2.22696   2.25007   2.26661   2.29339
  Beta virt. eigenvalues --    2.30065   2.53478   2.86197   3.00186   3.09077
  Beta virt. eigenvalues --    3.09564
          Condensed to atoms (all electrons):
               1          2          3          4
     1  Al  12.377829   0.149295   0.002996   0.149295
     2  Al   0.149295  12.357448   0.149295   0.164549
     3  Al   0.002996   0.149295  12.377829   0.149295
     4  Al   0.149295   0.164549   0.149295  12.357448
          Atomic-Atomic Spin Densities.
               1          2          3          4
     1  Al   0.158250   0.078100  -0.007711   0.078100
     2  Al   0.078100   0.022197   0.078100   0.014866
     3  Al  -0.007711   0.078100   0.158250   0.078100
     4  Al   0.078100   0.014866   0.078100   0.022197
 Mulliken charges and spin densities:
               1          2
     1  Al   0.320586   0.306738
     2  Al   0.179414   0.193262
     3  Al   0.320586   0.306738
     4  Al   0.179414   0.193262
 Sum of Mulliken charges =   1.00000   1.00000
 Mulliken charges and spin densities with hydrogens summed into heavy atoms:
               1          2
     1  Al   0.320586   0.306738
     2  Al   0.179414   0.193262
     3  Al   0.320586   0.306738
     4  Al   0.179414   0.193262
 Electronic spatial extent (au):  <R**2>=            728.8687
 Charge=              1.0000 electrons
 Dipole moment (field-independent basis, Debye):
    X=              0.0000    Y=              0.0000    Z=              0.0000  Tot=              0.0000
 Quadrupole moment (field-independent basis, Debye-Ang):
   XX=            -52.0080   YY=            -33.5767   ZZ=            -20.5700
   XY=              0.0000   XZ=              0.0000   YZ=              0.0000
 Traceless Quadrupole moment (field-independent basis, Debye-Ang):
   XX=            -16.6231   YY=              1.8082   ZZ=             14.8149
   XY=              0.0000   XZ=              0.0000   YZ=              0.0000
 Octapole moment (field-independent basis, Debye-Ang**2):
  XXX=              0.0000  YYY=              0.0000  ZZZ=              0.0000  XYY=              0.0000
  XXY=              0.0000  XXZ=              0.0000  XZZ=              0.0000  YZZ=              0.0000
  YYZ=              0.0000  XYZ=              0.0000
 Hexadecapole moment (field-independent basis, Debye-Ang**3):
 XXXX=           -133.6799 YYYY=           -253.7095 ZZZZ=           -571.2181 XXXY=              0.0000
 XXXZ=              0.0000 YYYX=              0.0000 YYYZ=              0.0000 ZZZX=              0.0000
 ZZZY=              0.0000 XXYY=            -75.5924 XXZZ=           -148.3770 YYZZ=           -195.7494
 XXYZ=              0.0000 YYXZ=              0.0000 ZZXY=              0.0000
 N-N= 1.884868304198D+02 E-N=-2.681703424660D+03  KE= 9.674853885021D+02
 Symmetry AG   KE= 4.039354139921D+02
 Symmetry B1G  KE= 1.973645317152D+01
 Symmetry B2G  KE= 1.971291191634D+01
 Symmetry B3G  KE= 4.022352322927D+01
 Symmetry AU   KE= 4.181322464935D-27
 Symmetry B1U  KE= 2.216633816994D+02
 Symmetry B2U  KE= 2.217030209250D+02
 Symmetry B3U  KE= 4.051068356854D+01

 Test job not archived.
 1\1\GINC-R1I0N7\SP\UCCSD(T)-FC\CC-pVTZ\Al4(1+,2)\VSC31064\04-Oct-2016\
 0\\# CCSD(T,conver=5)/cc-pVTZ test geom=allcheck guess=read\\Al4-c-d\\
 1,2\Al,0,0.,0.,2.290311\Al,0,0.,1.324613,0.\Al,0,0.,0.,-2.290311\Al,0,
 0.,-1.324613,0.\\Version=ES64L-G09RevD.01\State=2-B3G\HF=-967.380368\M
 P2=-967.6357837\MP3=-967.6594913\MP4D=-967.6723268\MP4DQ=-967.6530298\
 PUHF=-967.3876714\PMP2-0=-967.6417693\PMP3-0=-967.6635077\MP4SDQ=-967.
 6584724\CCSD=-967.6595134\CCSD(T)=-967.6894098\S2=0.879015\S2-1=0.8296
 25\S2A=0.763452\RMSD=3.104e-09\PG=D02H [C2'(Al1.Al1),C2"(Al1.Al1)]\\@


 NEVER LISTEN TO CRITICISM
 OR YOU'LL BE DOIN' EVERYBODY ELSE'S THING BUT BUT YOUR OWN.

                                               -- ANDY CAPP
 Job cpu time:       0 days  0 hours 37 minutes 46.3 seconds.
 File lengths (MBytes):  RWF=    114 Int=      0 D2E=      0 Chk=      2 Scr=      1
 Normal termination of Gaussian 09 at Tue Oct  4 06:56:55 2016.
