 Entering Gaussian System, Link 0=g09
 Initial command:
 /opt/g09/g09/l1.exe "/tmp/scratch/Gau-1112.inp" -scrdir="/tmp/scratch/"
 Entering Link 1 = /opt/g09/g09/l1.exe PID=      1116.
  
 Copyright (c) 1988,1990,1992,1993,1995,1998,2003,2009,2013,
            Gaussian, Inc.  All Rights Reserved.
  
 This is part of the Gaussian(R) 09 program.  It is based on
 the Gaussian(R) 03 system (copyright 2003, Gaussian, Inc.),
 the Gaussian(R) 98 system (copyright 1998, Gaussian, Inc.),
 the Gaussian(R) 94 system (copyright 1995, Gaussian, Inc.),
 the Gaussian 92(TM) system (copyright 1992, Gaussian, Inc.),
 the Gaussian 90(TM) system (copyright 1990, Gaussian, Inc.),
 the Gaussian 88(TM) system (copyright 1988, Gaussian, Inc.),
 the Gaussian 86(TM) system (copyright 1986, Carnegie Mellon
 University), and the Gaussian 82(TM) system (copyright 1983,
 Carnegie Mellon University). Gaussian is a federally registered
 trademark of Gaussian, Inc.
  
 This software contains proprietary and confidential information,
 including trade secrets, belonging to Gaussian, Inc.
  
 This software is provided under written license and may be
 used, copied, transmitted, or stored only in accord with that
 written license.
  
 The following legend is applicable only to US Government
 contracts under FAR:
  
                    RESTRICTED RIGHTS LEGEND
  
 Use, reproduction and disclosure by the US Government is
 subject to restrictions as set forth in subparagraphs (a)
 and (c) of the Commercial Computer Software - Restricted
 Rights clause in FAR 52.227-19.
  
 Gaussian, Inc.
 340 Quinnipiac St., Bldg. 40, Wallingford CT 06492
  
  
 ---------------------------------------------------------------
 Warning -- This program may not be used in any manner that
 competes with the business of Gaussian, Inc. or will provide
 assistance to any competitor of Gaussian, Inc.  The licensee
 of this program is prohibited from giving any competitor of
 Gaussian, Inc. access to this program.  By using this program,
 the user acknowledges that Gaussian, Inc. is engaged in the
 business of creating and licensing software in the field of
 computational chemistry and represents and warrants to the
 licensee that it is not a competitor of Gaussian, Inc. and that
 it will not use this program in any manner prohibited above.
 ---------------------------------------------------------------
  

 Cite this work as:
 Gaussian 09, Revision D.01,
 M. J. Frisch, G. W. Trucks, H. B. Schlegel, G. E. Scuseria, 
 M. A. Robb, J. R. Cheeseman, G. Scalmani, V. Barone, B. Mennucci, 
 G. A. Petersson, H. Nakatsuji, M. Caricato, X. Li, H. P. Hratchian, 
 A. F. Izmaylov, J. Bloino, G. Zheng, J. L. Sonnenberg, M. Hada, 
 M. Ehara, K. Toyota, R. Fukuda, J. Hasegawa, M. Ishida, T. Nakajima, 
 Y. Honda, O. Kitao, H. Nakai, T. Vreven, J. A. Montgomery, Jr., 
 J. E. Peralta, F. Ogliaro, M. Bearpark, J. J. Heyd, E. Brothers, 
 K. N. Kudin, V. N. Staroverov, T. Keith, R. Kobayashi, J. Normand, 
 K. Raghavachari, A. Rendell, J. C. Burant, S. S. Iyengar, J. Tomasi, 
 M. Cossi, N. Rega, J. M. Millam, M. Klene, J. E. Knox, J. B. Cross, 
 V. Bakken, C. Adamo, J. Jaramillo, R. Gomperts, R. E. Stratmann, 
 O. Yazyev, A. J. Austin, R. Cammi, C. Pomelli, J. W. Ochterski, 
 R. L. Martin, K. Morokuma, V. G. Zakrzewski, G. A. Voth, 
 P. Salvador, J. J. Dannenberg, S. Dapprich, A. D. Daniels, 
 O. Farkas, J. B. Foresman, J. V. Ortiz, J. Cioslowski, 
 and D. J. Fox, Gaussian, Inc., Wallingford CT, 2013.
 
 ******************************************
 Gaussian 09:  EM64L-G09RevD.01 24-Apr-2013
                21-Feb-2021 
 ******************************************
 %mem=20gb
 %nprocshared=32
 Will use up to   32 processors via shared memory.
 %chk=cc-Al4
 ------------------------
 # hf/6-31G* test scf=xqc
 ------------------------
 1/38=1/1;
 2/12=2,17=6,18=5,40=1/2;
 3/5=1,6=6,7=1,11=9,16=1,25=1,30=1/1,2,3;
 4//1;
 5/5=2,8=3,13=1,38=5/2,8;
 6/7=2,8=2,9=2,10=2,28=1/1;
 99/5=1,9=1/99;
 -------
 Al4-n-t
 -------
 Symbolic Z-matrix:
 Charge =  0 Multiplicity = 3
 Al                    0.        0.        2.12165 
 Al                    0.        1.464     0. 
 Al                    0.        0.       -2.12165 
 Al                    0.       -1.464     0. 
 
                          Input orientation:                          
 ---------------------------------------------------------------------
 Center     Atomic      Atomic             Coordinates (Angstroms)
 Number     Number       Type             X           Y           Z
 ---------------------------------------------------------------------
      1         13           0        0.000000    0.000000    2.121651
      2         13           0        0.000000    1.464001    0.000000
      3         13           0        0.000000    0.000000   -2.121651
      4         13           0        0.000000   -1.464001    0.000000
 ---------------------------------------------------------------------
                    Distance matrix (angstroms):
                    1          2          3          4
     1  Al   0.000000
     2  Al   2.577732   0.000000
     3  Al   4.243302   2.577732   0.000000
     4  Al   2.577732   2.928002   2.577732   0.000000
 Stoichiometry    Al4(3)
 Framework group  D2H[C2'(Al.Al),C2"(Al.Al)]
 Deg. of freedom     2
 Full point group                 D2H     NOp   8
 Largest Abelian subgroup         D2H     NOp   8
 Largest concise Abelian subgroup D2      NOp   4
                         Standard orientation:                         
 ---------------------------------------------------------------------
 Center     Atomic      Atomic             Coordinates (Angstroms)
 Number     Number       Type             X           Y           Z
 ---------------------------------------------------------------------
      1         13           0        0.000000    0.000000    2.121651
      2         13           0        0.000000    1.464001    0.000000
      3         13           0        0.000000    0.000000   -2.121651
      4         13           0        0.000000   -1.464001    0.000000
 ---------------------------------------------------------------------
 Rotational constants (GHZ):      4.3695599      2.0805232      1.4094346
 Standard basis: 6-31G(d) (6D, 7F)
 There are    20 symmetry adapted cartesian basis functions of AG  symmetry.
 There are     5 symmetry adapted cartesian basis functions of B1G symmetry.
 There are     5 symmetry adapted cartesian basis functions of B2G symmetry.
 There are     8 symmetry adapted cartesian basis functions of B3G symmetry.
 There are     2 symmetry adapted cartesian basis functions of AU  symmetry.
 There are    14 symmetry adapted cartesian basis functions of B1U symmetry.
 There are    14 symmetry adapted cartesian basis functions of B2U symmetry.
 There are     8 symmetry adapted cartesian basis functions of B3U symmetry.
 There are    20 symmetry adapted basis functions of AG  symmetry.
 There are     5 symmetry adapted basis functions of B1G symmetry.
 There are     5 symmetry adapted basis functions of B2G symmetry.
 There are     8 symmetry adapted basis functions of B3G symmetry.
 There are     2 symmetry adapted basis functions of AU  symmetry.
 There are    14 symmetry adapted basis functions of B1U symmetry.
 There are    14 symmetry adapted basis functions of B2U symmetry.
 There are     8 symmetry adapted basis functions of B3U symmetry.
    76 basis functions,   208 primitive gaussians,    76 cartesian basis functions
    27 alpha electrons       25 beta electrons
       nuclear repulsion energy       190.3937566772 Hartrees.
 NAtoms=    4 NActive=    4 NUniq=    2 SFac= 4.00D+00 NAtFMM=   60 NAOKFM=F Big=F
 Integral buffers will be    131072 words long.
 Raffenetti 2 integral format.
 Two-electron integral symmetry is turned on.
 One-electron integrals computed using PRISM.
 NBasis=    76 RedAO= T EigKep=  6.74D-03  NBF=    20     5     5     8     2    14    14     8
 NBsUse=    76 1.00D-06 EigRej= -1.00D+00 NBFU=    20     5     5     8     2    14    14     8
 ExpMin= 5.57D-02 ExpMax= 1.40D+04 ExpMxC= 2.10D+03 IAcc=2 IRadAn=         4 AccDes= 0.00D+00
 Harris functional with IExCor=  205 and IRadAn=       4 diagonalized for initial guess.
 HarFok:  IExCor=  205 AccDes= 0.00D+00 IRadAn=         4 IDoV= 1 UseB2=F ITyADJ=14
 ICtDFT=  3500011 ScaDFX=  1.000000  1.000000  1.000000  1.000000
 FoFCou: FMM=F IPFlag=           0 FMFlag=      100000 FMFlg1=           0
         NFxFlg=           0 DoJE=T BraDBF=F KetDBF=T FulRan=T
         wScrn=  0.000000 ICntrl=     500 IOpCl=  0 I1Cent=   200000004 NGrid=           0
         NMat0=    1 NMatS0=      1 NMatT0=    0 NMatD0=    1 NMtDS0=    0 NMtDT0=    0
 Petite list used in FoFCou.
 Initial guess orbital symmetries:
 Alpha Orbitals:
       Occupied  (B2U) (AG) (B1U) (AG) (B2U) (AG) (B1U) (AG) (B1U)
                 (B3G) (AG) (B2U) (AG) (B1G) (B3U) (B1U) (B2U)
                 (B3G) (B3U) (B2G) (AG) (B1U) (B2U) (AG) (B3U)
                 (B3G) (AG)
       Virtual   (B1U) (B2G) (B1G) (B2U) (B3U) (B2U) (B1U) (AG)
                 (B3G) (AG) (B3G) (B1U) (AG) (B3U) (B2U) (B1U)
                 (B2G) (AG) (B1G) (B2U) (B3U) (B2U) (B1U) (AG)
                 (B3G) (AU) (B3U) (B2G) (AG) (B2U) (B1G) (B1U)
                 (B3G) (AG) (B1U) (B1G) (B3U) (AU) (AG) (B2G) (B2U)
                 (AG) (B2U) (B3G) (B1U) (AG) (B2U) (B1U) (AG)
 Beta  Orbitals:
       Occupied  (B2U) (AG) (B1U) (AG) (B2U) (AG) (B1U) (AG) (B1U)
                 (B3G) (AG) (B2U) (AG) (B1G) (B3U) (B1U) (B2U)
                 (B3G) (B3U) (B2G) (AG) (B1U) (B2U) (AG) (B3U)
       Virtual   (B3G) (AG) (B1U) (B2G) (B1G) (B2U) (B3U) (B2U)
                 (B1U) (AG) (B3G) (AG) (B3G) (B1U) (AG) (B3U) (B2U)
                 (B1U) (B2G) (AG) (B1G) (B2U) (B3U) (B2U) (B1U)
                 (AG) (B3G) (AU) (B3U) (B2G) (AG) (B2U) (B1G) (B1U)
                 (B3G) (AG) (B1U) (B1G) (B3U) (AU) (AG) (B2G) (B2U)
                 (AG) (B2U) (B3G) (B1U) (AG) (B2U) (B1U) (AG)
 The electronic state of the initial guess is 3-B3G.
 Initial guess <Sx>= 0.0000 <Sy>= 0.0000 <Sz>= 1.0000 <S**2>= 2.0000 S= 1.0000
 Keep R1 and R2 ints in memory in symmetry-blocked form, NReq=5171058.
 Requested convergence on RMS density matrix=1.00D-08 within  64 cycles.
 Requested convergence on MAX density matrix=1.00D-06.
 Requested convergence on             energy=1.00D-06.
 No special actions if energy rises.
 SCF Done:  E(UHF) =  -967.504676791     A.U. after   15 cycles
            NFock= 15  Conv=0.43D-08     -V/T= 2.0001
 <Sx>= 0.0000 <Sy>= 0.0000 <Sz>= 1.0000 <S**2>= 2.0644 S= 1.0213
 <L.S>= 0.000000000000E+00
 Annihilation of the first spin contaminant:
 S**2 before annihilation     2.0644,   after     2.0020
 QCSCF skips out because SCF is already converged.

 **********************************************************************

            Population analysis using the SCF density.

 **********************************************************************

 Orbital symmetries:
 Alpha Orbitals:
       Occupied  (B1U) (AG) (B2U) (AG) (AG) (B1U) (AG) (B2U) (B3G)
                 (B2U) (AG) (B1U) (B3U) (B2G) (AG) (B2U) (B1U)
                 (B3G) (B3U) (B1G) (AG) (B1U) (B2U) (AG) (B3G)
                 (AG) (B3U)
       Virtual   (B1U) (B2G) (B2U) (B1G) (B2U) (B1U) (B3U) (AG)
                 (B3G) (AG) (AG) (B3G) (B1U) (B3U) (B2U) (B1U)
                 (B2G) (AG) (B1G) (B2U) (B3U) (B2U) (B1U) (AG)
                 (B3G) (AU) (B3U) (AG) (B2G) (B1G) (B2U) (B1U)
                 (B3G) (AG) (B1U) (B1G) (AU) (B3U) (AG) (B2G) (B2U)
                 (AG) (B2U) (B3G) (B1U) (AG) (B1U) (B2U) (AG)
 Beta  Orbitals:
       Occupied  (B1U) (AG) (B2U) (AG) (AG) (B1U) (AG) (B2U) (AG)
                 (B1U) (B3U) (B2G) (B3G) (B2U) (B3U) (B1G) (B1U)
                 (B3G) (AG) (B2U) (AG) (B1U) (B2U) (AG) (B3U)
       Virtual   (B3G) (B1U) (AG) (B2G) (B1G) (B2U) (B3U) (B2U)
                 (AG) (B1U) (B3G) (AG) (B1U) (AG) (B3G) (B3U) (B1U)
                 (B2G) (B2U) (B1G) (AG) (B2U) (B3U) (B2U) (AG)
                 (B3G) (B1U) (B2G) (AU) (B3U) (AG) (B2U) (B1G)
                 (B1U) (B3G) (AG) (B1U) (B1G) (B3U) (AU) (AG) (B2G)
                 (B2U) (AG) (B2U) (B3G) (B1U) (AG) (B1U) (B2U)
                 (AG)
 The electronic state is 3-B3G.
 Alpha  occ. eigenvalues --  -58.50037 -58.50037 -58.47553 -58.47552  -4.91985
 Alpha  occ. eigenvalues --   -4.91984  -4.89876  -4.89871  -3.23058  -3.23057
 Alpha  occ. eigenvalues --   -3.22885  -3.22884  -3.22779  -3.22779  -3.21094
 Alpha  occ. eigenvalues --   -3.21072  -3.21068  -3.21068  -3.20680  -3.20678
 Alpha  occ. eigenvalues --   -0.62044  -0.47675  -0.43879  -0.27851  -0.26789
 Alpha  occ. eigenvalues --   -0.25458  -0.22774
 Alpha virt. eigenvalues --   -0.03424   0.00325   0.01418   0.02845   0.08723
 Alpha virt. eigenvalues --    0.09549   0.10022   0.12818   0.15809   0.20785
 Alpha virt. eigenvalues --    0.23055   0.23527   0.23783   0.28180   0.29770
 Alpha virt. eigenvalues --    0.31555   0.31975   0.33705   0.33732   0.33796
 Alpha virt. eigenvalues --    0.37464   0.37498   0.41691   0.42260   0.42899
 Alpha virt. eigenvalues --    0.52441   0.52822   0.53939   0.54022   0.63231
 Alpha virt. eigenvalues --    0.63349   0.63944   0.65013   0.70616   0.71046
 Alpha virt. eigenvalues --    0.78164   0.79689   0.79802   0.82133   0.83348
 Alpha virt. eigenvalues --    0.90063   0.94483   1.01362   1.07108   1.08311
 Alpha virt. eigenvalues --    2.23297   2.33801   2.35240   2.38498
  Beta  occ. eigenvalues --  -58.49955 -58.49954 -58.47255 -58.47254  -4.91895
  Beta  occ. eigenvalues --   -4.91894  -4.89443  -4.89440  -3.22765  -3.22764
  Beta  occ. eigenvalues --   -3.22758  -3.22758  -3.22468  -3.22468  -3.20483
  Beta  occ. eigenvalues --   -3.20483  -3.20210  -3.20210  -3.20150  -3.20131
  Beta  occ. eigenvalues --   -0.56086  -0.42506  -0.33513  -0.28094  -0.21807
  Beta virt. eigenvalues --   -0.02664  -0.01784   0.00060   0.00528   0.04848
  Beta virt. eigenvalues --    0.08740   0.10324   0.11016   0.13568   0.13938
  Beta virt. eigenvalues --    0.18120   0.21832   0.25076   0.26558   0.26763
  Beta virt. eigenvalues --    0.28601   0.31646   0.32280   0.32852   0.34272
  Beta virt. eigenvalues --    0.34607   0.36664   0.37778   0.39574   0.43402
  Beta virt. eigenvalues --    0.45260   0.45686   0.54915   0.55200   0.55558
  Beta virt. eigenvalues --    0.57903   0.65042   0.65252   0.65470   0.68622
  Beta virt. eigenvalues --    0.71780   0.72678   0.79777   0.80406   0.81138
  Beta virt. eigenvalues --    0.84055   0.84597   0.92492   0.95960   1.03227
  Beta virt. eigenvalues --    1.08667   1.09961   2.23922   2.34072   2.36148
  Beta virt. eigenvalues --    2.39132
          Condensed to atoms (all electrons):
               1          2          3          4
     1  Al  12.723551   0.020593   0.057115   0.020593
     2  Al   0.020593  12.981898   0.020593   0.155064
     3  Al   0.057115   0.020593  12.723551   0.020593
     4  Al   0.020593   0.155064   0.020593  12.981898
          Atomic-Atomic Spin Densities.
               1          2          3          4
     1  Al   0.143952   0.002927   0.060488   0.002927
     2  Al   0.002927   0.590215   0.002927   0.193637
     3  Al   0.060488   0.002927   0.143952   0.002927
     4  Al   0.002927   0.193637   0.002927   0.590215
 Mulliken charges and spin densities:
               1          2
     1  Al   0.178148   0.210294
     2  Al  -0.178148   0.789706
     3  Al   0.178148   0.210294
     4  Al  -0.178148   0.789706
 Sum of Mulliken charges =   0.00000   2.00000
 Mulliken charges and spin densities with hydrogens summed into heavy atoms:
               1          2
     1  Al   0.178148   0.210294
     2  Al  -0.178148   0.789706
     3  Al   0.178148   0.210294
     4  Al  -0.178148   0.789706
 Electronic spatial extent (au):  <R**2>=            738.6082
 Charge=              0.0000 electrons
 Dipole moment (field-independent basis, Debye):
    X=              0.0000    Y=              0.0000    Z=              0.0000  Tot=              0.0000
 Quadrupole moment (field-independent basis, Debye-Ang):
   XX=            -59.3027   YY=            -56.1075   ZZ=            -48.2307
   XY=              0.0000   XZ=              0.0000   YZ=              0.0000
 Traceless Quadrupole moment (field-independent basis, Debye-Ang):
   XX=             -4.7558   YY=             -1.5605   ZZ=              6.3163
   XY=              0.0000   XZ=              0.0000   YZ=              0.0000
 Octapole moment (field-independent basis, Debye-Ang**2):
  XXX=              0.0000  YYY=              0.0000  ZZZ=              0.0000  XYY=              0.0000
  XXY=              0.0000  XXZ=              0.0000  XZZ=              0.0000  YZZ=              0.0000
  YYZ=              0.0000  XYZ=              0.0000
 Hexadecapole moment (field-independent basis, Debye-Ang**3):
 XXXX=           -167.9955 YYYY=           -512.4989 ZZZZ=           -799.7886 XXXY=              0.0000
 XXXZ=              0.0000 YYYX=              0.0000 YYYZ=              0.0000 ZZZX=              0.0000
 ZZZY=              0.0000 XXYY=           -115.8859 XXZZ=           -169.5560 YYZZ=           -231.0687
 XXYZ=              0.0000 YYXZ=              0.0000 ZZXY=              0.0000
 N-N= 1.903937566772D+02 E-N=-2.694440038078D+03  KE= 9.673952905308D+02
 Symmetry AG   KE= 4.042715150216D+02
 Symmetry B1G  KE= 1.971876223946D+01
 Symmetry B2G  KE= 1.971875003661D+01
 Symmetry B3G  KE= 4.019058852209D+01
 Symmetry AU   KE= 3.167118274260D-34
 Symmetry B1U  KE= 2.215370011330D+02
 Symmetry B2U  KE= 2.215378208857D+02
 Symmetry B3U  KE= 4.042085269229D+01
                          Isotropic Fermi Contact Couplings
        Atom                 a.u.       MegaHertz       Gauss      10(-4) cm-1
     1  Al(27)            -0.08494     -49.50511     -17.66465     -16.51313
     2  Al(27)             0.05919      34.49432      12.30843      11.50607
     3  Al(27)            -0.08494     -49.50511     -17.66465     -16.51313
     4  Al(27)             0.05919      34.49432      12.30843      11.50607
 --------------------------------------------------------
       Center         ----  Spin Dipole Couplings  ----
                      3XX-RR        3YY-RR        3ZZ-RR
 --------------------------------------------------------
     1   Atom       -0.205146      0.311856     -0.106710
     2   Atom       -0.425892      0.255561      0.170331
     3   Atom       -0.205146      0.311856     -0.106710
     4   Atom       -0.425892      0.255561      0.170331
 --------------------------------------------------------
                        XY            XZ            YZ
 --------------------------------------------------------
     1   Atom        0.000000      0.000000      0.000000
     2   Atom        0.000000      0.000000      0.000000
     3   Atom        0.000000      0.000000      0.000000
     4   Atom        0.000000      0.000000      0.000000
 --------------------------------------------------------


 ---------------------------------------------------------------------------------
              Anisotropic Spin Dipole Couplings in Principal Axis System
 ---------------------------------------------------------------------------------

       Atom             a.u.   MegaHertz   Gauss  10(-4) cm-1        Axes

              Baa    -0.2051   -28.543   -10.185    -9.521  1.0000  0.0000  0.0000
     1 Al(27) Bbb    -0.1067   -14.847    -5.298    -4.952  0.0000  0.0000  1.0000
              Bcc     0.3119    43.391    15.483    14.474  0.0000  1.0000  0.0000
 
              Baa    -0.4259   -59.257   -21.144   -19.766  1.0000  0.0000  0.0000
     2 Al(27) Bbb     0.1703    23.699     8.456     7.905  0.0000  0.0000  1.0000
              Bcc     0.2556    35.558    12.688    11.861  0.0000  1.0000  0.0000
 
              Baa    -0.2051   -28.543   -10.185    -9.521  1.0000  0.0000  0.0000
     3 Al(27) Bbb    -0.1067   -14.847    -5.298    -4.952  0.0000  0.0000  1.0000
              Bcc     0.3119    43.391    15.483    14.474  0.0000  1.0000  0.0000
 
              Baa    -0.4259   -59.257   -21.144   -19.766  1.0000  0.0000  0.0000
     4 Al(27) Bbb     0.1703    23.699     8.456     7.905  0.0000  0.0000  1.0000
              Bcc     0.2556    35.558    12.688    11.861  0.0000  1.0000  0.0000
 

 ---------------------------------------------------------------------------------


 Test job not archived.
 1\1\GINC-COMCHEM2\SP\UHF\6-31G(d)\Al4(3)\TAM\21-Feb-2021\0\\# hf/6-31G
 * test scf=xqc\\Al4-n-t\\0,3\Al,0,0.,0.,2.121651\Al,0,0.,1.464001,0.\A
 l,0,0.,0.,-2.121651\Al,0,0.,-1.464001,0.\\Version=EM64L-G09RevD.01\Sta
 te=3-B3G\HF=-967.5046768\S2=2.064442\S2-1=0.\S2A=2.002001\RMSD=4.302e-
 09\Dipole=0.,0.,0.\Quadrupole=-3.5357927,-1.1602144,4.6960071,0.,0.,0.
 \PG=D02H [C2'(Al1.Al1),C2"(Al1.Al1)]\\@


 A politician is a person who can make waves and then
 make you think he's the only one who can save the ship.
 -- Ivern Ball
 Job cpu time:       0 days  0 hours  0 minutes 58.1 seconds.
 File lengths (MBytes):  RWF=      6 Int=      0 D2E=      0 Chk=      1 Scr=      1
 Normal termination of Gaussian 09 at Sun Feb 21 01:23:59 2021.
 Initial command:
 /opt/g09/g09/l1.exe "/tmp/scratch/Gau-1112.inp" -scrdir="/tmp/scratch/"
 Entering Link 1 = /opt/g09/g09/l1.exe PID=      1482.
  
 Copyright (c) 1988,1990,1992,1993,1995,1998,2003,2009,2013,
            Gaussian, Inc.  All Rights Reserved.
  
 This is part of the Gaussian(R) 09 program.  It is based on
 the Gaussian(R) 03 system (copyright 2003, Gaussian, Inc.),
 the Gaussian(R) 98 system (copyright 1998, Gaussian, Inc.),
 the Gaussian(R) 94 system (copyright 1995, Gaussian, Inc.),
 the Gaussian 92(TM) system (copyright 1992, Gaussian, Inc.),
 the Gaussian 90(TM) system (copyright 1990, Gaussian, Inc.),
 the Gaussian 88(TM) system (copyright 1988, Gaussian, Inc.),
 the Gaussian 86(TM) system (copyright 1986, Carnegie Mellon
 University), and the Gaussian 82(TM) system (copyright 1983,
 Carnegie Mellon University). Gaussian is a federally registered
 trademark of Gaussian, Inc.
  
 This software contains proprietary and confidential information,
 including trade secrets, belonging to Gaussian, Inc.
  
 This software is provided under written license and may be
 used, copied, transmitted, or stored only in accord with that
 written license.
  
 The following legend is applicable only to US Government
 contracts under FAR:
  
                    RESTRICTED RIGHTS LEGEND
  
 Use, reproduction and disclosure by the US Government is
 subject to restrictions as set forth in subparagraphs (a)
 and (c) of the Commercial Computer Software - Restricted
 Rights clause in FAR 52.227-19.
  
 Gaussian, Inc.
 340 Quinnipiac St., Bldg. 40, Wallingford CT 06492
  
  
 ---------------------------------------------------------------
 Warning -- This program may not be used in any manner that
 competes with the business of Gaussian, Inc. or will provide
 assistance to any competitor of Gaussian, Inc.  The licensee
 of this program is prohibited from giving any competitor of
 Gaussian, Inc. access to this program.  By using this program,
 the user acknowledges that Gaussian, Inc. is engaged in the
 business of creating and licensing software in the field of
 computational chemistry and represents and warrants to the
 licensee that it is not a competitor of Gaussian, Inc. and that
 it will not use this program in any manner prohibited above.
 ---------------------------------------------------------------
  

 Cite this work as:
 Gaussian 09, Revision D.01,
 M. J. Frisch, G. W. Trucks, H. B. Schlegel, G. E. Scuseria, 
 M. A. Robb, J. R. Cheeseman, G. Scalmani, V. Barone, B. Mennucci, 
 G. A. Petersson, H. Nakatsuji, M. Caricato, X. Li, H. P. Hratchian, 
 A. F. Izmaylov, J. Bloino, G. Zheng, J. L. Sonnenberg, M. Hada, 
 M. Ehara, K. Toyota, R. Fukuda, J. Hasegawa, M. Ishida, T. Nakajima, 
 Y. Honda, O. Kitao, H. Nakai, T. Vreven, J. A. Montgomery, Jr., 
 J. E. Peralta, F. Ogliaro, M. Bearpark, J. J. Heyd, E. Brothers, 
 K. N. Kudin, V. N. Staroverov, T. Keith, R. Kobayashi, J. Normand, 
 K. Raghavachari, A. Rendell, J. C. Burant, S. S. Iyengar, J. Tomasi, 
 M. Cossi, N. Rega, J. M. Millam, M. Klene, J. E. Knox, J. B. Cross, 
 V. Bakken, C. Adamo, J. Jaramillo, R. Gomperts, R. E. Stratmann, 
 O. Yazyev, A. J. Austin, R. Cammi, C. Pomelli, J. W. Ochterski, 
 R. L. Martin, K. Morokuma, V. G. Zakrzewski, G. A. Voth, 
 P. Salvador, J. J. Dannenberg, S. Dapprich, A. D. Daniels, 
 O. Farkas, J. B. Foresman, J. V. Ortiz, J. Cioslowski, 
 and D. J. Fox, Gaussian, Inc., Wallingford CT, 2013.
 
 ******************************************
 Gaussian 09:  EM64L-G09RevD.01 24-Apr-2013
                21-Feb-2021 
 ******************************************
 %mem=20gb
 %nprocshared=32
 Will use up to   32 processors via shared memory.
 %chk=cc-Al4
 --------------------------------------------------------
 # CCSD(T,conver=5)/cc-pVTZ test geom=allcheck guess=read
 --------------------------------------------------------
 1/29=7,38=1/1;
 2/12=2,40=1/2;
 3/5=16,6=1,11=9,14=-4,16=1,25=1,30=1,116=-2/1,2,3;
 4/5=1/1;
 5/5=2,38=6/2;
 8/6=4,9=120000,10=1/1,4;
 9/5=7,9=5,14=2/13;
 6/7=2,8=2,9=2,10=2/1;
 99/5=1,9=1/99;
 Structure from the checkpoint file:  "cc-Al4.chk"
 -------
 Al4-n-t
 -------
 Charge =  0 Multiplicity = 3
 Z-Matrix found in file.
 Al,0,0.,0.,2.121651
 Al,0,0.,1.464001,0.
 Al,0,0.,0.,-2.121651
 Al,0,0.,-1.464001,0.
 Recover connectivity data from disk.
                          Input orientation:                          
 ---------------------------------------------------------------------
 Center     Atomic      Atomic             Coordinates (Angstroms)
 Number     Number       Type             X           Y           Z
 ---------------------------------------------------------------------
      1         13           0        0.000000    0.000000    2.121651
      2         13           0        0.000000    1.464001    0.000000
      3         13           0        0.000000    0.000000   -2.121651
      4         13           0        0.000000   -1.464001    0.000000
 ---------------------------------------------------------------------
                    Distance matrix (angstroms):
                    1          2          3          4
     1  Al   0.000000
     2  Al   2.577732   0.000000
     3  Al   4.243302   2.577732   0.000000
     4  Al   2.577732   2.928002   2.577732   0.000000
 Stoichiometry    Al4(3)
 Framework group  D2H[C2'(Al.Al),C2"(Al.Al)]
 Deg. of freedom     2
 Full point group                 D2H     NOp   8
 Largest Abelian subgroup         D2H     NOp   8
 Largest concise Abelian subgroup D2      NOp   4
                         Standard orientation:                         
 ---------------------------------------------------------------------
 Center     Atomic      Atomic             Coordinates (Angstroms)
 Number     Number       Type             X           Y           Z
 ---------------------------------------------------------------------
      1         13           0        0.000000    0.000000    2.121651
      2         13           0        0.000000    1.464001    0.000000
      3         13           0        0.000000    0.000000   -2.121651
      4         13           0        0.000000   -1.464001    0.000000
 ---------------------------------------------------------------------
 Rotational constants (GHZ):      4.3695599      2.0805232      1.4094346
 Standard basis: CC-pVTZ (5D, 7F)
 There are    36 symmetry adapted cartesian basis functions of AG  symmetry.
 There are    12 symmetry adapted cartesian basis functions of B1G symmetry.
 There are    12 symmetry adapted cartesian basis functions of B2G symmetry.
 There are    18 symmetry adapted cartesian basis functions of B3G symmetry.
 There are     6 symmetry adapted cartesian basis functions of AU  symmetry.
 There are    27 symmetry adapted cartesian basis functions of B1U symmetry.
 There are    27 symmetry adapted cartesian basis functions of B2U symmetry.
 There are    18 symmetry adapted cartesian basis functions of B3U symmetry.
 There are    30 symmetry adapted basis functions of AG  symmetry.
 There are    11 symmetry adapted basis functions of B1G symmetry.
 There are    11 symmetry adapted basis functions of B2G symmetry.
 There are    16 symmetry adapted basis functions of B3G symmetry.
 There are     6 symmetry adapted basis functions of AU  symmetry.
 There are    23 symmetry adapted basis functions of B1U symmetry.
 There are    23 symmetry adapted basis functions of B2U symmetry.
 There are    16 symmetry adapted basis functions of B3U symmetry.
   136 basis functions,   380 primitive gaussians,   156 cartesian basis functions
    27 alpha electrons       25 beta electrons
       nuclear repulsion energy       190.3937566772 Hartrees.
 NAtoms=    4 NActive=    4 NUniq=    2 SFac= 4.00D+00 NAtFMM=   60 NAOKFM=F Big=F
 Integral buffers will be    131072 words long.
 Raffenetti 2 integral format.
 Two-electron integral symmetry is turned on.
 One-electron integrals computed using PRISM.
 NBasis=   136 RedAO= T EigKep=  1.40D-03  NBF=    30    11    11    16     6    23    23    16
 NBsUse=   136 1.00D-06 EigRej= -1.00D+00 NBFU=    30    11    11    16     6    23    23    16
 Initial guess from the checkpoint file:  "cc-Al4.chk"
 B after Tr=     0.000000    0.000000    0.000000
         Rot=    1.000000    0.000000    0.000000    0.000000 Ang=   0.00 deg.
 Initial guess orbital symmetries:
 Alpha Orbitals:
       Occupied  (B1U) (AG) (B2U) (AG) (AG) (B1U) (AG) (B2U) (B3G)
                 (B2U) (AG) (B1U) (B3U) (B2G) (AG) (B2U) (B1U)
                 (B3G) (B3U) (B1G) (AG) (B1U) (B2U) (AG) (B3G)
                 (AG) (B3U)
       Virtual   (AG) (AG) (AG) (AG) (AG) (AG) (AG) (AG) (AG) (AG)
                 (AG) (AG) (AG) (AG) (AG) (AG) (AG) (AG) (AG) (AG)
                 (AG) (B1G) (B1G) (B1G) (B1G) (B1G) (B1G) (B1G)
                 (B1G) (B1G) (B1G) (B2G) (B2G) (B2G) (B2G) (B2G)
                 (B2G) (B2G) (B2G) (B2G) (B2G) (B3G) (B3G) (B3G)
                 (B3G) (B3G) (B3G) (B3G) (B3G) (B3G) (B3G) (B3G)
                 (B3G) (B3G) (AU) (AU) (AU) (AU) (AU) (AU) (B1U)
                 (B1U) (B1U) (B1U) (B1U) (B1U) (B1U) (B1U) (B1U)
                 (B1U) (B1U) (B1U) (B1U) (B1U) (B1U) (B1U) (B1U)
                 (B1U) (B2U) (B2U) (B2U) (B2U) (B2U) (B2U) (B2U)
                 (B2U) (B2U) (B2U) (B2U) (B2U) (B2U) (B2U) (B2U)
                 (B2U) (B2U) (B2U) (B3U) (B3U) (B3U) (B3U) (B3U)
                 (B3U) (B3U) (B3U) (B3U) (B3U) (B3U) (B3U) (B3U)
 Beta  Orbitals:
       Occupied  (B1U) (AG) (B2U) (AG) (AG) (B1U) (AG) (B2U) (AG)
                 (B1U) (B3U) (B2G) (B3G) (B2U) (B3U) (B1G) (B1U)
                 (B3G) (AG) (B2U) (AG) (B1U) (B2U) (AG) (B3U)
       Virtual   (AG) (AG) (AG) (AG) (AG) (AG) (AG) (AG) (AG) (AG)
                 (AG) (AG) (AG) (AG) (AG) (AG) (AG) (AG) (AG) (AG)
                 (AG) (AG) (B1G) (B1G) (B1G) (B1G) (B1G) (B1G)
                 (B1G) (B1G) (B1G) (B1G) (B2G) (B2G) (B2G) (B2G)
                 (B2G) (B2G) (B2G) (B2G) (B2G) (B2G) (B3G) (B3G)
                 (B3G) (B3G) (B3G) (B3G) (B3G) (B3G) (B3G) (B3G)
                 (B3G) (B3G) (B3G) (B3G) (AU) (AU) (AU) (AU) (AU)
                 (AU) (B1U) (B1U) (B1U) (B1U) (B1U) (B1U) (B1U)
                 (B1U) (B1U) (B1U) (B1U) (B1U) (B1U) (B1U) (B1U)
                 (B1U) (B1U) (B1U) (B2U) (B2U) (B2U) (B2U) (B2U)
                 (B2U) (B2U) (B2U) (B2U) (B2U) (B2U) (B2U) (B2U)
                 (B2U) (B2U) (B2U) (B2U) (B2U) (B3U) (B3U) (B3U)
                 (B3U) (B3U) (B3U) (B3U) (B3U) (B3U) (B3U) (B3U)
                 (B3U) (B3U)
 Initial guess <Sx>= 0.0000 <Sy>= 0.0000 <Sz>= 1.0000 <S**2>= 2.0677 S= 1.0224
 Keep R1 and R2 ints in memory in symmetry-blocked form, NReq=49062350.
 Requested convergence on RMS density matrix=1.00D-08 within 128 cycles.
 Requested convergence on MAX density matrix=1.00D-06.
 Requested convergence on             energy=1.00D-06.
 No special actions if energy rises.
 SCF Done:  E(UHF) =  -967.595848247     A.U. after   14 cycles
            NFock= 14  Conv=0.95D-08     -V/T= 1.9999
 <Sx>= 0.0000 <Sy>= 0.0000 <Sz>= 1.0000 <S**2>= 2.0790 S= 1.0261
 <L.S>= 0.000000000000E+00
 Annihilation of the first spin contaminant:
 S**2 before annihilation     2.0790,   after     2.0032
 ExpMin= 5.56D-02 ExpMax= 2.06D+05 ExpMxC= 1.99D+03 IAcc=3 IRadAn=         5 AccDes= 0.00D+00
 HarFok:  IExCor=  205 AccDes= 0.00D+00 IRadAn=         5 IDoV=-2 UseB2=F ITyADJ=14
 ICtDFT= 12500011 ScaDFX=  1.000000  1.000000  1.000000  1.000000
 Range of M.O.s used for correlation:    21   136
 NBasis=   136 NAE=    27 NBE=    25 NFC=    20 NFV=     0
 NROrb=    116 NOA=     7 NOB=     5 NVA=   109 NVB=   111
 Semi-Direct transformation.
 ModeAB=           4 MOrb=             7 LenV=    2683652187
 LASXX=       664855 LTotXX=      664855 LenRXX=     1353916
 LTotAB=      689061 MaxLAS=     4026708 LenRXY=           0
 NonZer=     2018771 LenScr=     3783680 LnRSAI=     4026708
 LnScr1=     6792192 LExtra=           0 Total=     15956496
 MaxDsk=          -1 SrtSym=           T ITran=            4
 JobTyp=1 Pass  1:  I=   1 to   7.
 (rs|ai) integrals will be sorted in core.
 ModeAB=           4 MOrb=             5 LenV=    2683652187
 LASXX=       479053 LTotXX=      479053 LenRXX=      915540
 LTotAB=      436487 MaxLAS=     2876220 LenRXY=           0
 NonZer=     1394593 LenScr=     2787328 LnRSAI=     2876220
 LnScr1=     5031936 LExtra=           0 Total=     11611024
 MaxDsk=          -1 SrtSym=           T ITran=            4
 JobTyp=2 Pass  1:  I=   1 to   5.
 (rs|ai) integrals will be sorted in core.
 Spin components of T(2) and E(2):
     alpha-alpha T2 =       0.5531180668D-01 E2=     -0.4914009122D-01
     alpha-beta  T2 =       0.2166582523D+00 E2=     -0.2156706872D+00
     beta-beta   T2 =       0.2817596534D-01 E2=     -0.2473769660D-01
 ANorm=    0.1140239459D+01
 E2 =    -0.2895484751D+00 EUMP2 =    -0.96788539672256D+03
 (S**2,0)=  0.20790D+01           (S**2,1)=  0.20373D+01
 E(PUHF)=      -0.96760045590D+03        E(PMP2)=      -0.96788882060D+03
 Keep R2 and R3 ints in memory in symmetry-blocked form, NReq=48965734.
 Iterations=  50 Convergence= 0.100D-04
 Iteration Nr.   1
 **********************
 DD1Dir will call FoFMem   1 times, MxPair=       102
 NAB=    35 NAA=    21 NBB=    10.
 E(PMP3)=      -0.96790164414D+03
 MP4(R+Q)=  0.23426662D-01
 E3=       -0.14186486D-01        EUMP3=      -0.96789958321D+03
 E4(DQ)=    0.82644893D-02        UMP4(DQ)=   -0.96789131872D+03
 E4(SDQ)=   0.26754303D-02        UMP4(SDQ)=  -0.96789690778D+03
 DE(Corr)= -0.28028829     E(Corr)=     -967.87613654    
 NORM(A)=   0.11335122D+01
 Iteration Nr.   2
 **********************
 DD1Dir will call FoFMem   1 times, MxPair=       102
 NAB=    35 NAA=    21 NBB=    10.
 DE(Corr)= -0.29897080     E(CORR)=     -967.89481905     Delta=-1.87D-02
 NORM(A)=   0.11573827D+01
 Iteration Nr.   3
 **********************
 DD1Dir will call FoFMem   1 times, MxPair=       102
 NAB=    35 NAA=    21 NBB=    10.
 DE(Corr)= -0.29821042     E(CORR)=     -967.89405867     Delta= 7.60D-04
 NORM(A)=   0.11629491D+01
 Iteration Nr.   4
 **********************
 DD1Dir will call FoFMem   1 times, MxPair=       102
 NAB=    35 NAA=    21 NBB=    10.
 DE(Corr)= -0.30058527     E(CORR)=     -967.89643352     Delta=-2.37D-03
 NORM(A)=   0.11659517D+01
 Iteration Nr.   5
 **********************
 DD1Dir will call FoFMem   1 times, MxPair=       102
 NAB=    35 NAA=    21 NBB=    10.
 DE(Corr)= -0.30098625     E(CORR)=     -967.89683450     Delta=-4.01D-04
 NORM(A)=   0.11675959D+01
 Iteration Nr.   6
 **********************
 DD1Dir will call FoFMem   1 times, MxPair=       102
 NAB=    35 NAA=    21 NBB=    10.
 DE(Corr)= -0.30105040     E(CORR)=     -967.89689865     Delta=-6.41D-05
 NORM(A)=   0.11676470D+01
 Iteration Nr.   7
 **********************
 DD1Dir will call FoFMem   1 times, MxPair=       102
 NAB=    35 NAA=    21 NBB=    10.
 DE(Corr)= -0.30106655     E(CORR)=     -967.89691480     Delta=-1.62D-05
 NORM(A)=   0.11677009D+01
 Iteration Nr.   8
 **********************
 DD1Dir will call FoFMem   1 times, MxPair=       102
 NAB=    35 NAA=    21 NBB=    10.
 DE(Corr)= -0.30105469     E(CORR)=     -967.89690294     Delta= 1.19D-05
 NORM(A)=   0.11677079D+01
 Iteration Nr.   9
 **********************
 DD1Dir will call FoFMem   1 times, MxPair=       102
 NAB=    35 NAA=    21 NBB=    10.
 DE(Corr)= -0.30106169     E(CORR)=     -967.89690994     Delta=-7.00D-06
 NORM(A)=   0.11677251D+01
 Dominant configurations:
 ***********************
 Spin Case        I    J    A    B          Value
    BB           22        27           -0.107092D+00
   ABAB          24   24   28   27      -0.140006D+00
 Largest amplitude= 1.40D-01
 Time for triples=      433.60 seconds.
 T4(CCSD)= -0.35835966D-01
 T5(CCSD)=  0.12296560D-02
 CCSD(T)= -0.96793151625D+03

 S**2, projected HF & approx projected MPn energies after annihilation of
 unwanted spin states (see manual for definitions):

 spins       (S**2,0) (S**2,1)    PUHF        PMP2        PMP3        PMP4
 annihilated
 s+1         1.99793  2.00012 -967.600456 -967.888821 -967.901644
 s+1,s+2     2.00002  1.99999 -967.600356 -967.888729 -967.901561
 s+1 to s+3  2.00000  2.00000 -967.600357 -967.888729 -967.901561
 s+1 to s+4  2.00000  2.00000 -967.600357 -967.888729 -967.901561
 s+1 to s+5  2.00000  2.00000 -967.600357

 Discarding MO integrals.

 **********************************************************************

            Population analysis using the SCF density.

 **********************************************************************

 Orbital symmetries:
 Alpha Orbitals:
       Occupied  (AG) (B1U) (AG) (B2U) (AG) (B1U) (AG) (B2U) (B3G)
                 (B2U) (AG) (B1U) (B3U) (B2G) (AG) (B2U) (B1U)
                 (B3G) (B3U) (B1G) (AG) (B1U) (B2U) (AG) (B3G)
                 (AG) (B3U)
       Virtual   (B1U) (B2G) (B2U) (B1G) (B2U) (B1U) (B3U) (AG)
                 (B3G) (AG) (B3U) (AG) (B1U) (B3G) (AU) (B2U) (B2G)
                 (B1U) (B2U) (AG) (B1G) (B2U) (AG) (B3G) (B3U)
                 (B1U) (B2G) (B1G) (B3U) (B1U) (AG) (B1G) (B2G)
                 (B2U) (B3G) (AU) (B3U) (AG) (B1U) (B2U) (AG) (B2U)
                 (AG) (B3G) (B1U) (B3U) (AG) (B2G) (B1U) (AU) (B3G)
                 (B3U) (AG) (B2U) (B1G) (B1U) (B3G) (B2U) (B2G)
                 (AG) (B1G) (B2G) (AU) (B3U) (B1G) (B2U) (B1U)
                 (AG) (B2U) (B3G) (B3U) (AU) (B2G) (B1U) (B2U)
                 (AG) (B1U) (B3U) (B3G) (AG) (B3U) (B1G) (AG) (B1U)
                 (B2U) (B1G) (B3G) (B2G) (AU) (AG) (B3G) (B2U)
                 (B1U) (AG) (B1U) (B2U) (B3U) (AG) (B3G) (AG) (B2G)
                 (B1G) (B1U) (B3U) (B2U) (B3G) (B2U) (B1U) (AG)
 Beta  Orbitals:
       Occupied  (AG) (B1U) (AG) (B2U) (AG) (B1U) (AG) (B2U) (B1U)
                 (AG) (B2G) (B3U) (B3G) (B2U) (B3U) (B1G) (B1U)
                 (B3G) (AG) (B2U) (AG) (B1U) (B2U) (AG) (B3U)
       Virtual   (B3G) (B1U) (AG) (B2G) (B1G) (B2U) (B2U) (B3U)
                 (B1U) (AG) (B3G) (AG) (B3U) (B1U) (AG) (AU) (B3G)
                 (B2G) (B1U) (B2U) (AG) (B2U) (B1G) (B2U) (B3U)
                 (B2G) (AG) (B3G) (B1U) (B1G) (B3U) (B1U) (AG)
                 (B1G) (B2G) (B2U) (AU) (B3G) (B3U) (AG) (B1U)
                 (B2U) (AG) (AG) (B2U) (B3G) (B1U) (B3U) (B2G)
                 (AG) (B1U) (AU) (B3G) (AG) (B3U) (B2U) (B1G) (B1U)
                 (B3G) (B2U) (B2G) (AG) (B1G) (B2G) (AU) (B3U)
                 (B1G) (B1U) (B2U) (AG) (B2U) (B3G) (B3U) (AU)
                 (B2G) (B1U) (B2U) (AG) (B1U) (B3U) (B3G) (B3U)
                 (AG) (B1G) (B1U) (AG) (B2U) (B1G) (B3G) (B2G)
                 (AU) (AG) (B3G) (B2U) (B1U) (AG) (B1U) (B2U) (B3U)
                 (AG) (AG) (B3G) (B2G) (B1G) (B1U) (B3U) (B2U)
                 (B3G) (B2U) (B1U) (AG)
 The electronic state is 3-B3G.
 Alpha  occ. eigenvalues --  -58.50788 -58.50788 -58.48455 -58.48455  -4.91877
 Alpha  occ. eigenvalues --   -4.91877  -4.89805  -4.89801  -3.22999  -3.22998
 Alpha  occ. eigenvalues --   -3.22789  -3.22788  -3.22690  -3.22689  -3.21078
 Alpha  occ. eigenvalues --   -3.21056  -3.21051  -3.21050  -3.20641  -3.20639
 Alpha  occ. eigenvalues --   -0.61585  -0.47300  -0.43572  -0.27529  -0.26756
 Alpha  occ. eigenvalues --   -0.25459  -0.22782
 Alpha virt. eigenvalues --   -0.02989   0.00665   0.01577   0.03358   0.08147
 Alpha virt. eigenvalues --    0.08896   0.10258   0.11711   0.15557   0.16795
 Alpha virt. eigenvalues --    0.19370   0.19741   0.20771   0.22305   0.22324
 Alpha virt. eigenvalues --    0.24035   0.24733   0.25386   0.25574   0.26407
 Alpha virt. eigenvalues --    0.30329   0.31838   0.32669   0.33059   0.33284
 Alpha virt. eigenvalues --    0.33458   0.34508   0.34648   0.35591   0.38629
 Alpha virt. eigenvalues --    0.39469   0.43618   0.44603   0.45091   0.45204
 Alpha virt. eigenvalues --    0.46189   0.47694   0.48896   0.54629   0.55927
 Alpha virt. eigenvalues --    0.59310   0.62772   0.63371   0.65249   0.67294
 Alpha virt. eigenvalues --    0.75052   0.76780   0.77064   0.77927   0.78812
 Alpha virt. eigenvalues --    0.79784   0.82572   0.82802   0.83527   0.83943
 Alpha virt. eigenvalues --    0.84764   0.90259   0.94349   0.95372   0.96286
 Alpha virt. eigenvalues --    0.96343   0.97377   0.97539   0.98688   1.00896
 Alpha virt. eigenvalues --    1.01349   1.01575   1.02258   1.03796   1.05472
 Alpha virt. eigenvalues --    1.05709   1.07169   1.08138   1.08251   1.12208
 Alpha virt. eigenvalues --    1.14450   1.16306   1.19999   1.20743   1.21284
 Alpha virt. eigenvalues --    1.21899   1.23153   1.28058   1.28577   1.28990
 Alpha virt. eigenvalues --    1.29482   1.30151   1.31889   1.35033   1.37418
 Alpha virt. eigenvalues --    1.41653   1.47670   1.53362   1.92171   2.14292
 Alpha virt. eigenvalues --    2.25161   2.28234   2.36025   2.40497   2.40626
 Alpha virt. eigenvalues --    2.43342   2.44802   2.45705   2.49982   2.70815
 Alpha virt. eigenvalues --    3.04388   3.17885   3.24617   3.36834
  Beta  occ. eigenvalues --  -58.50701 -58.50701 -58.48151 -58.48151  -4.91795
  Beta  occ. eigenvalues --   -4.91794  -4.89400  -4.89397  -3.22669  -3.22669
  Beta  occ. eigenvalues --   -3.22660  -3.22660  -3.22366  -3.22366  -3.20454
  Beta  occ. eigenvalues --   -3.20452  -3.20154  -3.20154  -3.20081  -3.20062
  Beta  occ. eigenvalues --   -0.55283  -0.41995  -0.33161  -0.27972  -0.22092
  Beta virt. eigenvalues --   -0.02067  -0.01466   0.00188   0.00904   0.05109
  Beta virt. eigenvalues --    0.08701   0.09836   0.10192   0.12319   0.12403
  Beta virt. eigenvalues --    0.17497   0.17793   0.21218   0.23415   0.23657
  Beta virt. eigenvalues --    0.24881   0.25377   0.25638   0.26191   0.26895
  Beta virt. eigenvalues --    0.27397   0.28679   0.31129   0.32714   0.34003
  Beta virt. eigenvalues --    0.34065   0.34740   0.35282   0.35705   0.35814
  Beta virt. eigenvalues --    0.36365   0.39938   0.40624   0.44841   0.46062
  Beta virt. eigenvalues --    0.46628   0.47169   0.47322   0.47726   0.50866
  Beta virt. eigenvalues --    0.55699   0.58288   0.60635   0.64514   0.64810
  Beta virt. eigenvalues --    0.66927   0.69128   0.76436   0.77928   0.78417
  Beta virt. eigenvalues --    0.79146   0.80298   0.81838   0.84166   0.84382
  Beta virt. eigenvalues --    0.84809   0.85419   0.86768   0.92457   0.95999
  Beta virt. eigenvalues --    0.96048   0.97243   0.97296   0.98267   0.98292
  Beta virt. eigenvalues --    0.99153   1.01705   1.02393   1.02400   1.02902
  Beta virt. eigenvalues --    1.05716   1.06234   1.06932   1.08446   1.08819
  Beta virt. eigenvalues --    1.09220   1.13129   1.15162   1.17254   1.20318
  Beta virt. eigenvalues --    1.21785   1.22614   1.22850   1.24268   1.29610
  Beta virt. eigenvalues --    1.29975   1.30134   1.30488   1.32073   1.32597
  Beta virt. eigenvalues --    1.35674   1.38410   1.42854   1.49368   1.54792
  Beta virt. eigenvalues --    1.92676   2.14277   2.26428   2.28359   2.37632
  Beta virt. eigenvalues --    2.40620   2.41614   2.43367   2.45117   2.46591
  Beta virt. eigenvalues --    2.50188   2.71877   3.05312   3.18313   3.25330
  Beta virt. eigenvalues --    3.37314
          Condensed to atoms (all electrons):
               1          2          3          4
     1  Al  12.435646   0.250822  -0.005278   0.250822
     2  Al   0.250822  12.447919   0.250822   0.118426
     3  Al  -0.005278   0.250822  12.435646   0.250822
     4  Al   0.250822   0.118426   0.250822  12.447919
          Atomic-Atomic Spin Densities.
               1          2          3          4
     1  Al   0.155241   0.054046  -0.000726   0.054046
     2  Al   0.054046   0.628364   0.054046   0.000938
     3  Al  -0.000726   0.054046   0.155241   0.054046
     4  Al   0.054046   0.000938   0.054046   0.628364
 Mulliken charges and spin densities:
               1          2
     1  Al   0.067988   0.262606
     2  Al  -0.067988   0.737394
     3  Al   0.067988   0.262606
     4  Al  -0.067988   0.737394
 Sum of Mulliken charges =   0.00000   2.00000
 Mulliken charges and spin densities with hydrogens summed into heavy atoms:
               1          2
     1  Al   0.067988   0.262606
     2  Al  -0.067988   0.737394
     3  Al   0.067988   0.262606
     4  Al  -0.067988   0.737394
 Electronic spatial extent (au):  <R**2>=            736.6115
 Charge=              0.0000 electrons
 Dipole moment (field-independent basis, Debye):
    X=              0.0000    Y=              0.0000    Z=              0.0000  Tot=              0.0000
 Quadrupole moment (field-independent basis, Debye-Ang):
   XX=            -58.5633   YY=            -54.5698   ZZ=            -47.8221
   XY=              0.0000   XZ=              0.0000   YZ=              0.0000
 Traceless Quadrupole moment (field-independent basis, Debye-Ang):
   XX=             -4.9116   YY=             -0.9180   ZZ=              5.8296
   XY=              0.0000   XZ=              0.0000   YZ=              0.0000
 Octapole moment (field-independent basis, Debye-Ang**2):
  XXX=              0.0000  YYY=              0.0000  ZZZ=              0.0000  XYY=              0.0000
  XXY=              0.0000  XXZ=              0.0000  XZZ=              0.0000  YZZ=              0.0000
  YYZ=              0.0000  XYZ=              0.0000
 Hexadecapole moment (field-independent basis, Debye-Ang**3):
 XXXX=           -164.2372 YYYY=           -495.9076 ZZZZ=           -800.9252 XXXY=              0.0000
 XXXZ=              0.0000 YYYX=              0.0000 YYYZ=              0.0000 ZZZX=              0.0000
 ZZZY=              0.0000 XXYY=           -108.8421 XXZZ=           -165.2025 YYZZ=           -233.3375
 XXYZ=              0.0000 YYXZ=              0.0000 ZZXY=              0.0000
 N-N= 1.903937566772D+02 E-N=-2.694912154966D+03  KE= 9.676992932748D+02
 Symmetry AG   KE= 4.044387038163D+02
 Symmetry B1G  KE= 1.971339671649D+01
 Symmetry B2G  KE= 1.971048540553D+01
 Symmetry B3G  KE= 4.017722217862D+01
 Symmetry AU   KE=-1.597865249169D-24
 Symmetry B1U  KE= 2.216364453536D+02
 Symmetry B2U  KE= 2.216383016288D+02
 Symmetry B3U  KE= 4.038473817535D+01

 Test job not archived.
 1\1\GINC-COMCHEM2\SP\UCCSD(T)-FC\CC-pVTZ\Al4(3)\TAM\21-Feb-2021\0\\# C
 CSD(T,conver=5)/cc-pVTZ test geom=allcheck guess=read\\Al4-n-t\\0,3\Al
 ,0,0.,0.,2.121651\Al,0,0.,1.464001,0.\Al,0,0.,0.,-2.121651\Al,0,0.,-1.
 464001,0.\\Version=EM64L-G09RevD.01\State=3-B3G\HF=-967.5958482\MP2=-9
 67.8853967\MP3=-967.8995832\MP4D=-967.9147454\MP4DQ=-967.8913187\PUHF=
 -967.6004559\PMP2-0=-967.8888206\PMP3-0=-967.9016441\MP4SDQ=-967.89690
 78\CCSD=-967.8969099\CCSD(T)=-967.9315162\S2=2.078996\S2-1=2.037339\S2
 A=2.003157\RMSD=9.535e-09\PG=D02H [C2'(Al1.Al1),C2"(Al1.Al1)]\\@


 A DANDELION FROM A LOVER MEANS MORE THAN AN ORCHID FROM A FRIEND.
 Job cpu time:       0 days  0 hours 17 minutes  5.3 seconds.
 File lengths (MBytes):  RWF=    139 Int=      0 D2E=      0 Chk=      2 Scr=      1
 Normal termination of Gaussian 09 at Sun Feb 21 01:24:31 2021.
