 Entering Gaussian System, Link 0=g09
 Initial command:
 /apps/leuven/thinking/software/G09//g09D1/l1.exe "/local_scratch/vsc31064/Gau-31950.inp" -scrdir="/local_scratch/vsc31064/"
 Entering Link 1 = /apps/leuven/thinking/software/G09//g09D1/l1.exe PID=     31951.
  
 Copyright (c) 1988,1990,1992,1993,1995,1998,2003,2009,2013,
            Gaussian, Inc.  All Rights Reserved.
  
 This is part of the Gaussian(R) 09 program.  It is based on
 the Gaussian(R) 03 system (copyright 2003, Gaussian, Inc.),
 the Gaussian(R) 98 system (copyright 1998, Gaussian, Inc.),
 the Gaussian(R) 94 system (copyright 1995, Gaussian, Inc.),
 the Gaussian 92(TM) system (copyright 1992, Gaussian, Inc.),
 the Gaussian 90(TM) system (copyright 1990, Gaussian, Inc.),
 the Gaussian 88(TM) system (copyright 1988, Gaussian, Inc.),
 the Gaussian 86(TM) system (copyright 1986, Carnegie Mellon
 University), and the Gaussian 82(TM) system (copyright 1983,
 Carnegie Mellon University). Gaussian is a federally registered
 trademark of Gaussian, Inc.
  
 This software contains proprietary and confidential information,
 including trade secrets, belonging to Gaussian, Inc.
  
 This software is provided under written license and may be
 used, copied, transmitted, or stored only in accord with that
 written license.
  
 The following legend is applicable only to US Government
 contracts under FAR:
  
                    RESTRICTED RIGHTS LEGEND
  
 Use, reproduction and disclosure by the US Government is
 subject to restrictions as set forth in subparagraphs (a)
 and (c) of the Commercial Computer Software - Restricted
 Rights clause in FAR 52.227-19.
  
 Gaussian, Inc.
 340 Quinnipiac St., Bldg. 40, Wallingford CT 06492
  
  
 ---------------------------------------------------------------
 Warning -- This program may not be used in any manner that
 competes with the business of Gaussian, Inc. or will provide
 assistance to any competitor of Gaussian, Inc.  The licensee
 of this program is prohibited from giving any competitor of
 Gaussian, Inc. access to this program.  By using this program,
 the user acknowledges that Gaussian, Inc. is engaged in the
 business of creating and licensing software in the field of
 computational chemistry and represents and warrants to the
 licensee that it is not a competitor of Gaussian, Inc. and that
 it will not use this program in any manner prohibited above.
 ---------------------------------------------------------------
  

 Cite this work as:
 Gaussian 09, Revision D.01,
 M. J. Frisch, G. W. Trucks, H. B. Schlegel, G. E. Scuseria, 
 M. A. Robb, J. R. Cheeseman, G. Scalmani, V. Barone, B. Mennucci, 
 G. A. Petersson, H. Nakatsuji, M. Caricato, X. Li, H. P. Hratchian, 
 A. F. Izmaylov, J. Bloino, G. Zheng, J. L. Sonnenberg, M. Hada, 
 M. Ehara, K. Toyota, R. Fukuda, J. Hasegawa, M. Ishida, T. Nakajima, 
 Y. Honda, O. Kitao, H. Nakai, T. Vreven, J. A. Montgomery, Jr., 
 J. E. Peralta, F. Ogliaro, M. Bearpark, J. J. Heyd, E. Brothers, 
 K. N. Kudin, V. N. Staroverov, T. Keith, R. Kobayashi, J. Normand, 
 K. Raghavachari, A. Rendell, J. C. Burant, S. S. Iyengar, J. Tomasi, 
 M. Cossi, N. Rega, J. M. Millam, M. Klene, J. E. Knox, J. B. Cross, 
 V. Bakken, C. Adamo, J. Jaramillo, R. Gomperts, R. E. Stratmann, 
 O. Yazyev, A. J. Austin, R. Cammi, C. Pomelli, J. W. Ochterski, 
 R. L. Martin, K. Morokuma, V. G. Zakrzewski, G. A. Voth, 
 P. Salvador, J. J. Dannenberg, S. Dapprich, A. D. Daniels, 
 O. Farkas, J. B. Foresman, J. V. Ortiz, J. Cioslowski, 
 and D. J. Fox, Gaussian, Inc., Wallingford CT, 2013.
 
 ******************************************
 Gaussian 09:  ES64L-G09RevD.01 24-Apr-2013
                 4-Oct-2016 
 ******************************************
 %NprocShared=20
 Will use up to   20 processors via shared memory.
 %mem=55000mb
 %chk=cc-Al5-a-s
 ------------------------
 # hf/6-31G* test scf=xqc
 ------------------------
 1/38=1/1;
 2/12=2,17=6,18=5,40=1/2;
 3/5=1,6=6,7=1,11=9,16=1,25=1,30=1/1,2,3;
 4//1;
 5/5=2,8=3,13=1,38=5/2,8;
 6/7=2,8=2,9=2,10=2,28=1/1;
 99/5=1,9=1/99;
 -------
 Al5-a-s
 -------
 Symbolic Z-matrix:
 Charge = -1 Multiplicity = 1
 Al                    0.        2.57429   0.87627 
 Al                    0.        0.        1.01019 
 Al                    0.       -2.57429   0.87627 
 Al                    0.       -1.2717   -1.38137 
 Al                    0.        1.2717   -1.38137 
 
                          Input orientation:                          
 ---------------------------------------------------------------------
 Center     Atomic      Atomic             Coordinates (Angstroms)
 Number     Number       Type             X           Y           Z
 ---------------------------------------------------------------------
      1         13           0        0.000000    2.574289    0.876272
      2         13           0        0.000000    0.000000    1.010193
      3         13           0        0.000000   -2.574289    0.876272
      4         13           0        0.000000   -1.271700   -1.381368
      5         13           0        0.000000    1.271700   -1.381368
 ---------------------------------------------------------------------
                    Distance matrix (angstroms):
                    1          2          3          4          5
     1  Al   0.000000
     2  Al   2.577770   0.000000
     3  Al   5.148578   2.577770   0.000000
     4  Al   4.459660   2.708650   2.606468   0.000000
     5  Al   2.606468   2.708650   4.459660   2.543400   0.000000
 Stoichiometry    Al5(1-)
 Framework group  C2V[C2(Al),SGV(Al4)]
 Deg. of freedom     4
 Full point group                 C2V     NOp   4
 Largest Abelian subgroup         C2V     NOp   4
 Largest concise Abelian subgroup C2      NOp   2
                         Standard orientation:                         
 ---------------------------------------------------------------------
 Center     Atomic      Atomic             Coordinates (Angstroms)
 Number     Number       Type             X           Y           Z
 ---------------------------------------------------------------------
      1         13           0        0.000000    2.574289    0.876272
      2         13           0        0.000000    0.000000    1.010193
      3         13           0        0.000000   -2.574289    0.876272
      4         13           0        0.000000   -1.271700   -1.381368
      5         13           0        0.000000    1.271700   -1.381368
 ---------------------------------------------------------------------
 Rotational constants (GHZ):      2.9392544      1.1359853      0.8193260
 Standard basis: 6-31G(d) (6D, 7F)
 There are    38 symmetry adapted cartesian basis functions of A1  symmetry.
 There are    11 symmetry adapted cartesian basis functions of A2  symmetry.
 There are    14 symmetry adapted cartesian basis functions of B1  symmetry.
 There are    32 symmetry adapted cartesian basis functions of B2  symmetry.
 There are    38 symmetry adapted basis functions of A1  symmetry.
 There are    11 symmetry adapted basis functions of A2  symmetry.
 There are    14 symmetry adapted basis functions of B1  symmetry.
 There are    32 symmetry adapted basis functions of B2  symmetry.
    95 basis functions,   260 primitive gaussians,    95 cartesian basis functions
    33 alpha electrons       33 beta electrons
       nuclear repulsion energy       296.6808178409 Hartrees.
 NAtoms=    5 NActive=    5 NUniq=    3 SFac= 2.78D+00 NAtFMM=   60 NAOKFM=F Big=F
 Integral buffers will be    131072 words long.
 Raffenetti 1 integral format.
 Two-electron integral symmetry is turned on.
 One-electron integrals computed using PRISM.
 NBasis=    95 RedAO= T EigKep=  3.05D-03  NBF=    38    11    14    32
 NBsUse=    95 1.00D-06 EigRej= -1.00D+00 NBFU=    38    11    14    32
 ExpMin= 5.57D-02 ExpMax= 1.40D+04 ExpMxC= 2.10D+03 IAcc=2 IRadAn=         4 AccDes= 0.00D+00
 Harris functional with IExCor=  205 and IRadAn=       4 diagonalized for initial guess.
 HarFok:  IExCor=  205 AccDes= 0.00D+00 IRadAn=         4 IDoV= 1 UseB2=F ITyADJ=14
 ICtDFT=  3500011 ScaDFX=  1.000000  1.000000  1.000000  1.000000
 FoFCou: FMM=F IPFlag=           0 FMFlag=      100000 FMFlg1=           0
         NFxFlg=           0 DoJE=T BraDBF=F KetDBF=T FulRan=T
         wScrn=  0.000000 ICntrl=     500 IOpCl=  0 I1Cent=   200000004 NGrid=           0
         NMat0=    1 NMatS0=      1 NMatT0=    0 NMatD0=    1 NMtDS0=    0 NMtDT0=    0
 Petite list used in FoFCou.
 Initial guess orbital symmetries:
       Occupied  (A1) (B2) (A1) (B2) (A1) (A1) (A1) (B2) (B2) (A1)
                 (B2) (A1) (B1) (A1) (B2) (A1) (B2) (B1) (A2) (B2)
                 (A1) (B2) (A1) (A2) (B1) (A1) (B2) (A1) (A1) (B2)
                 (B1) (A1) (B2)
       Virtual   (A1) (A2) (B2) (B1) (B1) (A1) (A2) (A1) (A1) (B2)
                 (B2) (A1) (B2) (A1) (A1) (B2) (B1) (A1) (B2) (A2)
                 (B1) (A1) (B2) (A1) (B1) (A2) (B2) (A1) (B2) (A1)
                 (B2) (A2) (B1) (B2) (B1) (A1) (A2) (B2) (A1) (A1)
                 (B1) (B2) (A1) (B1) (A1) (A2) (B2) (B1) (A2) (A2)
                 (B2) (A1) (B2) (A1) (B2) (B2) (A1) (A1) (B2) (A1)
                 (B2) (A1)
 The electronic state of the initial guess is 1-A1.
 Keep R1 ints in memory in symmetry-blocked form, NReq=13189439.
 Requested convergence on RMS density matrix=1.00D-08 within  64 cycles.
 Requested convergence on MAX density matrix=1.00D-06.
 Requested convergence on             energy=1.00D-06.
 No special actions if energy rises.
 SCF Done:  E(RHF) =  -1209.45864609     A.U. after   18 cycles
            NFock= 18  Conv=0.21D-08     -V/T= 2.0001
 QCSCF skips out because SCF is already converged.

 **********************************************************************

            Population analysis using the SCF density.

 **********************************************************************

 Orbital symmetries:
       Occupied  (B2) (A1) (B2) (A1) (A1) (A1) (B2) (B2) (A1) (A1)
                 (A1) (B2) (B1) (A2) (A1) (B2) (A2) (B1) (B2) (A1)
                 (B2) (A1) (A1) (B1) (B2) (A1) (B2) (A1) (A1) (B2)
                 (A1) (B1) (B2)
       Virtual   (A1) (A2) (B2) (B1) (A1) (B1) (A1) (A2) (B2) (A1)
                 (B2) (B2) (A1) (A1) (A1) (B2) (B1) (B2) (A1) (A2)
                 (A1) (B1) (B2) (A2) (B1) (A1) (B2) (A1) (A1) (B2)
                 (B2) (B2) (A2) (B1) (B1) (A1) (B2) (A2) (A1) (A1)
                 (B1) (B2) (A1) (B1) (A1) (A2) (B2) (B1) (A2) (A2)
                 (B2) (A1) (B2) (A1) (B2) (B2) (A1) (A1) (B2) (A1)
                 (B2) (A1)
 The electronic state is 1-A1.
 Alpha  occ. eigenvalues --  -58.33225 -58.33224 -58.32153 -58.32153 -58.30322
 Alpha  occ. eigenvalues --   -4.75404  -4.75394  -4.74118  -4.74117  -4.72839
 Alpha  occ. eigenvalues --   -3.06517  -3.06466  -3.06439  -3.06429  -3.06346
 Alpha  occ. eigenvalues --   -3.06303  -3.05201  -3.05200  -3.05106  -3.05105
 Alpha  occ. eigenvalues --   -3.05053  -3.05050  -3.04038  -3.04021  -3.03899
 Alpha  occ. eigenvalues --   -0.45727  -0.35156  -0.28106  -0.18239  -0.14663
 Alpha  occ. eigenvalues --   -0.08847  -0.08717  -0.07851
 Alpha virt. eigenvalues --    0.10559   0.12665   0.14540   0.15664   0.22112
 Alpha virt. eigenvalues --    0.22191   0.22767   0.23025   0.24879   0.26111
 Alpha virt. eigenvalues --    0.28931   0.31032   0.32933   0.37224   0.38419
 Alpha virt. eigenvalues --    0.39909   0.41626   0.43868   0.44895   0.45597
 Alpha virt. eigenvalues --    0.46565   0.46850   0.48660   0.50906   0.51628
 Alpha virt. eigenvalues --    0.51941   0.53728   0.53826   0.55348   0.57737
 Alpha virt. eigenvalues --    0.59488   0.64754   0.66949   0.67555   0.68737
 Alpha virt. eigenvalues --    0.75548   0.76307   0.76370   0.78597   0.81989
 Alpha virt. eigenvalues --    0.85390   0.86397   0.86717   0.90271   0.90607
 Alpha virt. eigenvalues --    0.92941   0.95312   0.96784   0.98167   1.04147
 Alpha virt. eigenvalues --    1.04466   1.11362   1.14904   1.17273   1.18892
 Alpha virt. eigenvalues --    1.26606   1.31344   2.38196   2.46736   2.51903
 Alpha virt. eigenvalues --    2.53409   2.56559
          Condensed to atoms (all electrons):
               1          2          3          4          5
     1  Al  12.529267   0.300166  -0.004312  -0.031198   0.267204
     2  Al   0.300166  12.781920   0.300166   0.012588   0.012588
     3  Al  -0.004312   0.300166  12.529267   0.267204  -0.031198
     4  Al  -0.031198   0.012588   0.267204  12.794299   0.192265
     5  Al   0.267204   0.012588  -0.031198   0.192265  12.794299
 Mulliken charges:
               1
     1  Al  -0.061127
     2  Al  -0.407428
     3  Al  -0.061127
     4  Al  -0.235159
     5  Al  -0.235159
 Sum of Mulliken charges =  -1.00000
 Mulliken charges with hydrogens summed into heavy atoms:
               1
     1  Al  -0.061127
     2  Al  -0.407428
     3  Al  -0.061127
     4  Al  -0.235159
     5  Al  -0.235159
 Electronic spatial extent (au):  <R**2>=           1268.4093
 Charge=             -1.0000 electrons
 Dipole moment (field-independent basis, Debye):
    X=              0.0000    Y=              0.0000    Z=             -1.8542  Tot=              1.8542
 Quadrupole moment (field-independent basis, Debye-Ang):
   XX=            -76.3521   YY=           -115.3470   ZZ=            -86.8811
   XY=              0.0000   XZ=              0.0000   YZ=              0.0000
 Traceless Quadrupole moment (field-independent basis, Debye-Ang):
   XX=             16.5080   YY=            -22.4870   ZZ=              5.9790
   XY=              0.0000   XZ=              0.0000   YZ=              0.0000
 Octapole moment (field-independent basis, Debye-Ang**2):
  XXX=              0.0000  YYY=              0.0000  ZZZ=             -9.2270  XYY=              0.0000
  XXY=              0.0000  XXZ=              1.9786  XZZ=              0.0000  YZZ=              0.0000
  YYZ=            -42.2601  XYZ=              0.0000
 Hexadecapole moment (field-independent basis, Debye-Ang**3):
 XXXX=           -216.9151 YYYY=          -2413.2949 ZZZZ=           -865.9415 XXXY=              0.0000
 XXXZ=              0.0000 YYYX=              0.0000 YYYZ=              0.0000 ZZZX=              0.0000
 ZZZY=              0.0000 XXYY=           -328.0046 XXZZ=           -174.0308 YYZZ=           -500.3782
 XXYZ=              0.0000 YYXZ=              0.0000 ZZXY=              0.0000
 N-N= 2.966808178409D+02 E-N=-3.495960591139D+03  KE= 1.209310154024D+03
 Symmetry A1   KE= 6.457468364148D+02
 Symmetry A2   KE= 3.942669894924D+01
 Symmetry B1   KE= 6.004237576140D+01
 Symmetry B2   KE= 4.640942428988D+02

 Test job not archived.
 1\1\GINC-R1I0N10\SP\RHF\6-31G(d)\Al5(1-)\VSC31064\04-Oct-2016\0\\# hf/
 6-31G* test scf=xqc\\Al5-a-s\\-1,1\Al,0,0.,2.574289,0.876272\Al,0,0.,0
 .,1.010193\Al,0,0.,-2.574289,0.876272\Al,0,0.,-1.2717,-1.381368\Al,0,0
 .,1.2717,-1.381368\\Version=ES64L-G09RevD.01\State=1-A1\HF=-1209.45864
 61\RMSD=2.069e-09\Dipole=0.,0.,-0.7295049\Quadrupole=12.2733015,-16.71
 85117,4.4452102,0.,0.,0.\PG=C02V [C2(Al1),SGV(Al4)]\\@


 THERE ARE TWO THINGS THAT EVERYBODY THINKS THEY CAN DO BETTER THAN
 ANYONE ELSE - PUNCH THE FIRE, AND EDIT A DAILY PAPER.
 -- UNCLE ESEK, "CENTURY MAGAZINE", 1885
 Job cpu time:       0 days  0 hours  3 minutes 12.2 seconds.
 File lengths (MBytes):  RWF=      6 Int=      0 D2E=      0 Chk=      1 Scr=      1
 Normal termination of Gaussian 09 at Tue Oct  4 06:09:31 2016.
 Initial command:
 /apps/leuven/thinking/software/G09//g09D1/l1.exe "/local_scratch/vsc31064/Gau-31950.inp" -scrdir="/local_scratch/vsc31064/"
 Entering Link 1 = /apps/leuven/thinking/software/G09//g09D1/l1.exe PID=     32205.
  
 Copyright (c) 1988,1990,1992,1993,1995,1998,2003,2009,2013,
            Gaussian, Inc.  All Rights Reserved.
  
 This is part of the Gaussian(R) 09 program.  It is based on
 the Gaussian(R) 03 system (copyright 2003, Gaussian, Inc.),
 the Gaussian(R) 98 system (copyright 1998, Gaussian, Inc.),
 the Gaussian(R) 94 system (copyright 1995, Gaussian, Inc.),
 the Gaussian 92(TM) system (copyright 1992, Gaussian, Inc.),
 the Gaussian 90(TM) system (copyright 1990, Gaussian, Inc.),
 the Gaussian 88(TM) system (copyright 1988, Gaussian, Inc.),
 the Gaussian 86(TM) system (copyright 1986, Carnegie Mellon
 University), and the Gaussian 82(TM) system (copyright 1983,
 Carnegie Mellon University). Gaussian is a federally registered
 trademark of Gaussian, Inc.
  
 This software contains proprietary and confidential information,
 including trade secrets, belonging to Gaussian, Inc.
  
 This software is provided under written license and may be
 used, copied, transmitted, or stored only in accord with that
 written license.
  
 The following legend is applicable only to US Government
 contracts under FAR:
  
                    RESTRICTED RIGHTS LEGEND
  
 Use, reproduction and disclosure by the US Government is
 subject to restrictions as set forth in subparagraphs (a)
 and (c) of the Commercial Computer Software - Restricted
 Rights clause in FAR 52.227-19.
  
 Gaussian, Inc.
 340 Quinnipiac St., Bldg. 40, Wallingford CT 06492
  
  
 ---------------------------------------------------------------
 Warning -- This program may not be used in any manner that
 competes with the business of Gaussian, Inc. or will provide
 assistance to any competitor of Gaussian, Inc.  The licensee
 of this program is prohibited from giving any competitor of
 Gaussian, Inc. access to this program.  By using this program,
 the user acknowledges that Gaussian, Inc. is engaged in the
 business of creating and licensing software in the field of
 computational chemistry and represents and warrants to the
 licensee that it is not a competitor of Gaussian, Inc. and that
 it will not use this program in any manner prohibited above.
 ---------------------------------------------------------------
  

 Cite this work as:
 Gaussian 09, Revision D.01,
 M. J. Frisch, G. W. Trucks, H. B. Schlegel, G. E. Scuseria, 
 M. A. Robb, J. R. Cheeseman, G. Scalmani, V. Barone, B. Mennucci, 
 G. A. Petersson, H. Nakatsuji, M. Caricato, X. Li, H. P. Hratchian, 
 A. F. Izmaylov, J. Bloino, G. Zheng, J. L. Sonnenberg, M. Hada, 
 M. Ehara, K. Toyota, R. Fukuda, J. Hasegawa, M. Ishida, T. Nakajima, 
 Y. Honda, O. Kitao, H. Nakai, T. Vreven, J. A. Montgomery, Jr., 
 J. E. Peralta, F. Ogliaro, M. Bearpark, J. J. Heyd, E. Brothers, 
 K. N. Kudin, V. N. Staroverov, T. Keith, R. Kobayashi, J. Normand, 
 K. Raghavachari, A. Rendell, J. C. Burant, S. S. Iyengar, J. Tomasi, 
 M. Cossi, N. Rega, J. M. Millam, M. Klene, J. E. Knox, J. B. Cross, 
 V. Bakken, C. Adamo, J. Jaramillo, R. Gomperts, R. E. Stratmann, 
 O. Yazyev, A. J. Austin, R. Cammi, C. Pomelli, J. W. Ochterski, 
 R. L. Martin, K. Morokuma, V. G. Zakrzewski, G. A. Voth, 
 P. Salvador, J. J. Dannenberg, S. Dapprich, A. D. Daniels, 
 O. Farkas, J. B. Foresman, J. V. Ortiz, J. Cioslowski, 
 and D. J. Fox, Gaussian, Inc., Wallingford CT, 2013.
 
 ******************************************
 Gaussian 09:  ES64L-G09RevD.01 24-Apr-2013
                 4-Oct-2016 
 ******************************************
 %NprocShared=20
 Will use up to   20 processors via shared memory.
 %mem=55000mb
 %chk=cc-Al5-a-s
 ----------------------------------------------------------------
 # CCSD(T,conver=5)/cc-pVTZ test geom=allcheck guess=read scf=xqc
 ----------------------------------------------------------------
 1/29=7,38=1/1;
 2/12=2,40=1/2;
 3/5=16,6=1,11=9,14=-4,16=1,25=1,30=1,116=-2/1,2,3;
 4/5=1/1;
 5/5=2,8=3,13=1,38=6/2,8;
 8/6=4,9=120000,10=1/1,4;
 9/5=7,9=5,14=2/13;
 6/7=2,8=2,9=2,10=2/1;
 99/5=1,9=1/99;
 Structure from the checkpoint file:  "cc-Al5-a-s.chk"
 -------
 Al5-a-s
 -------
 Charge = -1 Multiplicity = 1
 Z-Matrix found in file.
 Al,0,0.,2.574289,0.876272
 Al,0,0.,0.,1.010193
 Al,0,0.,-2.574289,0.876272
 Al,0,0.,-1.2717,-1.381368
 Al,0,0.,1.2717,-1.381368
 Recover connectivity data from disk.
                          Input orientation:                          
 ---------------------------------------------------------------------
 Center     Atomic      Atomic             Coordinates (Angstroms)
 Number     Number       Type             X           Y           Z
 ---------------------------------------------------------------------
      1         13           0        0.000000    2.574289    0.876272
      2         13           0        0.000000    0.000000    1.010193
      3         13           0        0.000000   -2.574289    0.876272
      4         13           0        0.000000   -1.271700   -1.381368
      5         13           0        0.000000    1.271700   -1.381368
 ---------------------------------------------------------------------
                    Distance matrix (angstroms):
                    1          2          3          4          5
     1  Al   0.000000
     2  Al   2.577770   0.000000
     3  Al   5.148578   2.577770   0.000000
     4  Al   4.459660   2.708650   2.606468   0.000000
     5  Al   2.606468   2.708650   4.459660   2.543400   0.000000
 Stoichiometry    Al5(1-)
 Framework group  C2V[C2(Al),SGV(Al4)]
 Deg. of freedom     4
 Full point group                 C2V     NOp   4
 Largest Abelian subgroup         C2V     NOp   4
 Largest concise Abelian subgroup C2      NOp   2
                         Standard orientation:                         
 ---------------------------------------------------------------------
 Center     Atomic      Atomic             Coordinates (Angstroms)
 Number     Number       Type             X           Y           Z
 ---------------------------------------------------------------------
      1         13           0        0.000000    2.574289    0.876272
      2         13           0        0.000000    0.000000    1.010193
      3         13           0        0.000000   -2.574289    0.876272
      4         13           0        0.000000   -1.271700   -1.381368
      5         13           0        0.000000    1.271700   -1.381368
 ---------------------------------------------------------------------
 Rotational constants (GHZ):      2.9392544      1.1359853      0.8193260
 Standard basis: CC-pVTZ (5D, 7F)
 There are    72 symmetry adapted cartesian basis functions of A1  symmetry.
 There are    27 symmetry adapted cartesian basis functions of A2  symmetry.
 There are    33 symmetry adapted cartesian basis functions of B1  symmetry.
 There are    63 symmetry adapted cartesian basis functions of B2  symmetry.
 There are    61 symmetry adapted basis functions of A1  symmetry.
 There are    25 symmetry adapted basis functions of A2  symmetry.
 There are    30 symmetry adapted basis functions of B1  symmetry.
 There are    54 symmetry adapted basis functions of B2  symmetry.
   170 basis functions,   475 primitive gaussians,   195 cartesian basis functions
    33 alpha electrons       33 beta electrons
       nuclear repulsion energy       296.6808178409 Hartrees.
 NAtoms=    5 NActive=    5 NUniq=    3 SFac= 2.78D+00 NAtFMM=   60 NAOKFM=F Big=F
 Integral buffers will be    131072 words long.
 Raffenetti 1 integral format.
 Two-electron integral symmetry is turned on.
 One-electron integrals computed using PRISM.
 NBasis=   170 RedAO= T EigKep=  8.36D-04  NBF=    61    25    30    54
 NBsUse=   170 1.00D-06 EigRej= -1.00D+00 NBFU=    61    25    30    54
 Initial guess from the checkpoint file:  "cc-Al5-a-s.chk"
 B after Tr=     0.000000    0.000000    0.000000
         Rot=    1.000000    0.000000    0.000000    0.000000 Ang=   0.00 deg.
 Initial guess orbital symmetries:
       Occupied  (B2) (A1) (B2) (A1) (A1) (A1) (B2) (B2) (A1) (A1)
                 (A1) (B2) (B1) (A2) (A1) (B2) (A2) (B1) (B2) (A1)
                 (B2) (A1) (A1) (B1) (B2) (A1) (B2) (A1) (A1) (B2)
                 (A1) (B1) (B2)
       Virtual   (A1) (A1) (A1) (A1) (A1) (A1) (A1) (A1) (A1) (A1)
                 (A1) (A1) (A1) (A1) (A1) (A1) (A1) (A1) (A1) (A1)
                 (A1) (A1) (A1) (A1) (A1) (A1) (A1) (A1) (A1) (A1)
                 (A1) (A1) (A1) (A1) (A1) (A1) (A1) (A1) (A1) (A1)
                 (A1) (A1) (A1) (A1) (A1) (A1) (A2) (A2) (A2) (A2)
                 (A2) (A2) (A2) (A2) (A2) (A2) (A2) (A2) (A2) (A2)
                 (A2) (A2) (A2) (A2) (A2) (A2) (A2) (A2) (A2) (B1)
                 (B1) (B1) (B1) (B1) (B1) (B1) (B1) (B1) (B1) (B1)
                 (B1) (B1) (B1) (B1) (B1) (B1) (B1) (B1) (B1) (B1)
                 (B1) (B1) (B1) (B1) (B1) (B2) (B2) (B2) (B2) (B2)
                 (B2) (B2) (B2) (B2) (B2) (B2) (B2) (B2) (B2) (B2)
                 (B2) (B2) (B2) (B2) (B2) (B2) (B2) (B2) (B2) (B2)
                 (B2) (B2) (B2) (B2) (B2) (B2) (B2) (B2) (B2) (B2)
                 (B2) (B2) (B2) (B2) (B2) (B2) (B2)
 Keep R1 ints in memory in symmetry-blocked form, NReq=132662809.
 Requested convergence on RMS density matrix=1.00D-08 within  64 cycles.
 Requested convergence on MAX density matrix=1.00D-06.
 Requested convergence on             energy=1.00D-06.
 No special actions if energy rises.
 SCF Done:  E(RHF) =  -1209.56632522     A.U. after   16 cycles
            NFock= 16  Conv=0.54D-08     -V/T= 1.9999
 QCSCF skips out because SCF is already converged.
 ExpMin= 5.56D-02 ExpMax= 2.06D+05 ExpMxC= 1.99D+03 IAcc=3 IRadAn=         5 AccDes= 0.00D+00
 HarFok:  IExCor=  205 AccDes= 0.00D+00 IRadAn=         5 IDoV=-2 UseB2=F ITyADJ=14
 ICtDFT= 12500011 ScaDFX=  1.000000  1.000000  1.000000  1.000000
 Range of M.O.s used for correlation:    26   170
 NBasis=   170 NAE=    33 NBE=    33 NFC=    25 NFV=     0
 NROrb=    145 NOA=     8 NOB=     8 NVA=   137 NVB=   137
 Semi-Direct transformation.
 ModeAB=           4 MOrb=             8 LenV=    7208090447
 LASXX=      2983301 LTotXX=     2983301 LenRXX=     6037762
 LTotAB=     3054461 MaxLAS=    11973520 LenRXY=           0
 NonZer=     9021063 LenScr=    14280704 LnRSAI=    11973520
 LnScr1=    18739200 LExtra=           0 Total=     51031186
 MaxDsk=          -1 SrtSym=           T ITran=            4
 JobTyp=0 Pass  1:  I=   1 to   8.
 (rs|ai) integrals will be sorted in core.
 Spin components of T(2) and E(2):
     alpha-alpha T2 =       0.5732803985D-01 E2=     -0.5122833838D-01
     alpha-beta  T2 =       0.2991598129D+00 E2=     -0.3044359024D+00
     beta-beta   T2 =       0.5732803985D-01 E2=     -0.5122833838D-01
 ANorm=    0.1189039904D+01
 E2 =    -0.4068925792D+00 EUMP2 =    -0.12099732177972D+04
 Keep R2 and R3 ints in memory in symmetry-blocked form, NReq=132538878.
 Iterations=  50 Convergence= 0.100D-04
 Iteration Nr.   1
 **********************
 DD1Dir will call FoFMem   1 times, MxPair=        72
 NAB=    36 NAA=     0 NBB=     0.
 MP4(R+Q)=  0.33147230D-01
 E3=       -0.13258542D-01        EUMP3=      -0.12099864763D+04
 E4(DQ)=    0.10887190D-01        UMP4(DQ)=   -0.12099755891D+04
 E4(SDQ)=   0.32887747D-02        UMP4(SDQ)=  -0.12099831876D+04
 DE(Corr)= -0.38692531     E(Corr)=     -1209.9532505    
 NORM(A)=   0.11761694D+01
 Iteration Nr.   2
 **********************
 DD1Dir will call FoFMem   1 times, MxPair=        72
 NAB=    36 NAA=     0 NBB=     0.
 DE(Corr)= -0.41569303     E(CORR)=     -1209.9820182     Delta=-2.88D-02
 NORM(A)=   0.12065846D+01
 Iteration Nr.   3
 **********************
 DD1Dir will call FoFMem   1 times, MxPair=        72
 NAB=    36 NAA=     0 NBB=     0.
 DE(Corr)= -0.41276724     E(CORR)=     -1209.9790925     Delta= 2.93D-03
 NORM(A)=   0.12160664D+01
 Iteration Nr.   4
 **********************
 DD1Dir will call FoFMem   1 times, MxPair=        72
 NAB=    36 NAA=     0 NBB=     0.
 DE(Corr)= -0.41609512     E(CORR)=     -1209.9824203     Delta=-3.33D-03
 NORM(A)=   0.12215184D+01
 Iteration Nr.   5
 **********************
 DD1Dir will call FoFMem   1 times, MxPair=        72
 NAB=    36 NAA=     0 NBB=     0.
 DE(Corr)= -0.41679634     E(CORR)=     -1209.9831216     Delta=-7.01D-04
 NORM(A)=   0.12281073D+01
 Iteration Nr.   6
 **********************
 DD1Dir will call FoFMem   1 times, MxPair=        72
 NAB=    36 NAA=     0 NBB=     0.
 DE(Corr)= -0.41699216     E(CORR)=     -1209.9833174     Delta=-1.96D-04
 NORM(A)=   0.12318666D+01
 Iteration Nr.   7
 **********************
 DD1Dir will call FoFMem   1 times, MxPair=        72
 NAB=    36 NAA=     0 NBB=     0.
 DE(Corr)= -0.41709742     E(CORR)=     -1209.9834226     Delta=-1.05D-04
 NORM(A)=   0.12335990D+01
 Iteration Nr.   8
 **********************
 DD1Dir will call FoFMem   1 times, MxPair=        72
 NAB=    36 NAA=     0 NBB=     0.
 DE(Corr)= -0.41708690     E(CORR)=     -1209.9834121     Delta= 1.05D-05
 NORM(A)=   0.12347496D+01
 Iteration Nr.   9
 **********************
 DD1Dir will call FoFMem   1 times, MxPair=        72
 NAB=    36 NAA=     0 NBB=     0.
 DE(Corr)= -0.41710746     E(CORR)=     -1209.9834327     Delta=-2.06D-05
 NORM(A)=   0.12348486D+01
 Iteration Nr.  10
 **********************
 DD1Dir will call FoFMem   1 times, MxPair=        72
 NAB=    36 NAA=     0 NBB=     0.
 DE(Corr)= -0.41709983     E(CORR)=     -1209.9834251     Delta= 7.62D-06
 NORM(A)=   0.12350028D+01
 Iteration Nr.  11
 **********************
 DD1Dir will call FoFMem   1 times, MxPair=        72
 NAB=    36 NAA=     0 NBB=     0.
 DE(Corr)= -0.41712111     E(CORR)=     -1209.9834463     Delta=-2.13D-05
 NORM(A)=   0.12350209D+01
 Iteration Nr.  12
 **********************
 DD1Dir will call FoFMem   1 times, MxPair=        72
 NAB=    36 NAA=     0 NBB=     0.
 DE(Corr)= -0.41711660     E(CORR)=     -1209.9834418     Delta= 4.51D-06
 NORM(A)=   0.12350615D+01
 Iteration Nr.  13
 **********************
 DD1Dir will call FoFMem   1 times, MxPair=        72
 NAB=    36 NAA=     0 NBB=     0.
 DE(Corr)= -0.41712496     E(CORR)=     -1209.9834502     Delta=-8.36D-06
 NORM(A)=   0.12350916D+01
 Iteration Nr.  14
 **********************
 DD1Dir will call FoFMem   1 times, MxPair=        72
 NAB=    36 NAA=     0 NBB=     0.
 DE(Corr)= -0.41712527     E(CORR)=     -1209.9834505     Delta=-3.15D-07
 NORM(A)=   0.12351199D+01
 Dominant configurations:
 ***********************
 Spin Case        I    J    A    B          Value
    AA           32        34           -0.133473D+00
 Largest amplitude= 1.33D-01
 Time for triples=      133.71 seconds.
 T4(CCSD)= -0.51081027D-01
 T5(CCSD)=  0.21347264D-02
 CCSD(T)= -0.12100323968D+04
 Discarding MO integrals.

 **********************************************************************

            Population analysis using the SCF density.

 **********************************************************************

 Orbital symmetries:
       Occupied  (A1) (B2) (B2) (A1) (A1) (A1) (B2) (B2) (A1) (A1)
                 (A1) (B2) (B1) (A2) (A1) (B2) (A2) (B1) (B2) (A1)
                 (B2) (A1) (A1) (B1) (B2) (A1) (B2) (A1) (A1) (B2)
                 (B1) (A1) (B2)
       Virtual   (A1) (A2) (B2) (B1) (A1) (A1) (B1) (A2) (B2) (A1)
                 (B2) (B2) (A1) (B1) (A1) (B2) (A1) (A2) (B2) (B1)
                 (A1) (A1) (B2) (A2) (A1) (B1) (A1) (B2) (B1) (A2)
                 (B2) (A2) (A1) (B1) (B2) (A1) (B2) (B1) (B1) (B1)
                 (A1) (A2) (B2) (A1) (A2) (A1) (B2) (B2) (A2) (B2)
                 (A1) (A1) (B2) (A1) (B2) (B2) (B1) (A1) (B1) (A2)
                 (A1) (B2) (A1) (A1) (B2) (A1) (B1) (A2) (B1) (A1)
                 (A2) (B2) (B1) (B2) (A1) (A2) (B1) (B2) (A1) (A2)
                 (B1) (A2) (A1) (B2) (B1) (A1) (B2) (A2) (B2) (B1)
                 (B2) (A1) (B1) (A1) (A2) (A1) (B2) (A2) (A1) (B1)
                 (B1) (B2) (A1) (A2) (B2) (B2) (A2) (A1) (B2) (A2)
                 (A1) (B1) (B2) (A1) (A1) (B2) (B2) (A1) (B2) (A1)
                 (B1) (A1) (B2) (A1) (A2) (B1) (A1) (A2) (B1) (B2)
                 (B2) (A1) (B2) (A1) (A1) (B2) (B2)
 The electronic state is 1-A1.
 Alpha  occ. eigenvalues --  -58.34219 -58.34219 -58.33090 -58.33090 -58.31399
 Alpha  occ. eigenvalues --   -4.75538  -4.75527  -4.74253  -4.74253  -4.72990
 Alpha  occ. eigenvalues --   -3.06648  -3.06595  -3.06576  -3.06566  -3.06545
 Alpha  occ. eigenvalues --   -3.06501  -3.05311  -3.05311  -3.05285  -3.05284
 Alpha  occ. eigenvalues --   -3.05244  -3.05242  -3.04192  -3.04177  -3.04135
 Alpha  occ. eigenvalues --   -0.45462  -0.34972  -0.28007  -0.18178  -0.14657
 Alpha  occ. eigenvalues --   -0.08900  -0.08817  -0.07849
 Alpha virt. eigenvalues --    0.10575   0.12724   0.14344   0.15800   0.20923
 Alpha virt. eigenvalues --    0.21418   0.21982   0.22910   0.23163   0.25398
 Alpha virt. eigenvalues --    0.26203   0.29130   0.29382   0.33813   0.34321
 Alpha virt. eigenvalues --    0.34953   0.35117   0.35946   0.36870   0.38563
 Alpha virt. eigenvalues --    0.39389   0.39891   0.40585   0.41827   0.42491
 Alpha virt. eigenvalues --    0.44037   0.45484   0.45568   0.45923   0.46678
 Alpha virt. eigenvalues --    0.47785   0.48807   0.49069   0.50042   0.50237
 Alpha virt. eigenvalues --    0.50995   0.53267   0.53499   0.57763   0.58792
 Alpha virt. eigenvalues --    0.59114   0.59409   0.59721   0.60741   0.63318
 Alpha virt. eigenvalues --    0.64485   0.66317   0.67894   0.69091   0.74223
 Alpha virt. eigenvalues --    0.74832   0.75743   0.78709   0.79927   0.83081
 Alpha virt. eigenvalues --    0.86649   0.90358   0.90492   0.91668   0.92364
 Alpha virt. eigenvalues --    0.93445   0.94300   0.94757   0.98067   1.00758
 Alpha virt. eigenvalues --    1.01080   1.01467   1.01663   1.02603   1.04444
 Alpha virt. eigenvalues --    1.05469   1.07534   1.09743   1.10293   1.10628
 Alpha virt. eigenvalues --    1.10731   1.11357   1.12774   1.14212   1.14297
 Alpha virt. eigenvalues --    1.15640   1.16016   1.17439   1.17996   1.19631
 Alpha virt. eigenvalues --    1.19773   1.21769   1.22078   1.22697   1.22966
 Alpha virt. eigenvalues --    1.26668   1.27615   1.29218   1.29384   1.30334
 Alpha virt. eigenvalues --    1.33235   1.34624   1.35308   1.35832   1.38874
 Alpha virt. eigenvalues --    1.40447   1.40748   1.41552   1.42578   1.42714
 Alpha virt. eigenvalues --    1.45230   1.47467   1.50382   1.51230   1.53487
 Alpha virt. eigenvalues --    1.54641   1.59107   1.59279   1.61050   1.66885
 Alpha virt. eigenvalues --    1.70109   1.77125   2.18574   2.29858   2.42826
 Alpha virt. eigenvalues --    2.43437   2.49427   2.55236   2.55311   2.59041
 Alpha virt. eigenvalues --    2.60770   2.64302   2.64862   2.69674   2.71213
 Alpha virt. eigenvalues --    2.81791   3.04985   3.32205   3.39018   3.40744
 Alpha virt. eigenvalues --    3.51656   3.69438
          Condensed to atoms (all electrons):
               1          2          3          4          5
     1  Al  12.394983   0.506660  -0.097148  -0.100858   0.479476
     2  Al   0.506660  11.878034   0.506660   0.158164   0.158164
     3  Al  -0.097148   0.506660  12.394983   0.479476  -0.100858
     4  Al  -0.100858   0.158164   0.479476  12.252832   0.423433
     5  Al   0.479476   0.158164  -0.100858   0.423433  12.252832
 Mulliken charges:
               1
     1  Al  -0.183112
     2  Al  -0.207682
     3  Al  -0.183112
     4  Al  -0.213047
     5  Al  -0.213047
 Sum of Mulliken charges =  -1.00000
 Mulliken charges with hydrogens summed into heavy atoms:
               1
     1  Al  -0.183112
     2  Al  -0.207682
     3  Al  -0.183112
     4  Al  -0.213047
     5  Al  -0.213047
 Electronic spatial extent (au):  <R**2>=           1268.8036
 Charge=             -1.0000 electrons
 Dipole moment (field-independent basis, Debye):
    X=              0.0000    Y=              0.0000    Z=             -1.9219  Tot=              1.9219
 Quadrupole moment (field-independent basis, Debye-Ang):
   XX=            -76.2208   YY=           -116.5315   ZZ=            -86.3583
   XY=              0.0000   XZ=              0.0000   YZ=              0.0000
 Traceless Quadrupole moment (field-independent basis, Debye-Ang):
   XX=             16.8161   YY=            -23.4946   ZZ=              6.6786
   XY=              0.0000   XZ=              0.0000   YZ=              0.0000
 Octapole moment (field-independent basis, Debye-Ang**2):
  XXX=              0.0000  YYY=              0.0000  ZZZ=            -11.3011  XYY=              0.0000
  XXY=              0.0000  XXZ=              1.5280  XZZ=              0.0000  YZZ=              0.0000
  YYZ=            -44.0857  XYZ=              0.0000
 Hexadecapole moment (field-independent basis, Debye-Ang**3):
 XXXX=           -216.3329 YYYY=          -2480.0776 ZZZZ=           -873.1482 XXXY=              0.0000
 XXXZ=              0.0000 YYYX=              0.0000 YYYZ=              0.0000 ZZZX=              0.0000
 ZZZY=              0.0000 XXYY=           -333.0991 XXZZ=           -171.3451 YYZZ=           -508.3585
 XXYZ=              0.0000 YYXZ=              0.0000 ZZXY=              0.0000
 N-N= 2.966808178409D+02 E-N=-3.496435053666D+03  KE= 1.209721367177D+03
 Symmetry A1   KE= 6.460137733696D+02
 Symmetry A2   KE= 3.938803860140D+01
 Symmetry B1   KE= 5.997148587255D+01
 Symmetry B2   KE= 4.643480693335D+02

 Test job not archived.
 1\1\GINC-R1I0N10\SP\RCCSD(T)-FC\CC-pVTZ\Al5(1-)\VSC31064\04-Oct-2016\0
 \\# CCSD(T,conver=5)/cc-pVTZ test geom=allcheck guess=read scf=xqc\\Al
 5-a-s\\-1,1\Al,0,0.,2.574289,0.876272\Al,0,0.,0.,1.010193\Al,0,0.,-2.5
 74289,0.876272\Al,0,0.,-1.2717,-1.381368\Al,0,0.,1.2717,-1.381368\\Ver
 sion=ES64L-G09RevD.01\State=1-A1\HF=-1209.5663252\MP2=-1209.9732178\MP
 3=-1209.9864763\MP4D=-1210.0087364\MP4DQ=-1209.9755891\MP4SDQ=-1209.98
 31876\CCSD=-1209.9834505\CCSD(T)=-1210.0323968\RMSD=5.422e-09\PG=C02V 
 [C2(Al1),SGV(Al4)]\\@


 In the beginning the Universe was created.
 This has made a lot of people very angry
 and been widely regarded as a bad move.
                               -D.Adams
 Job cpu time:       0 days  0 hours  9 minutes 56.8 seconds.
 File lengths (MBytes):  RWF=    406 Int=      0 D2E=      0 Chk=      2 Scr=      1
 Normal termination of Gaussian 09 at Tue Oct  4 06:10:01 2016.
