 Entering Gaussian System, Link 0=g09
 Initial command:
 /apps/leuven/thinking/software/G09//g09D1/l1.exe "/local_scratch/vsc31064/Gau-4129.inp" -scrdir="/local_scratch/vsc31064/"
 Entering Link 1 = /apps/leuven/thinking/software/G09//g09D1/l1.exe PID=      4133.
  
 Copyright (c) 1988,1990,1992,1993,1995,1998,2003,2009,2013,
            Gaussian, Inc.  All Rights Reserved.
  
 This is part of the Gaussian(R) 09 program.  It is based on
 the Gaussian(R) 03 system (copyright 2003, Gaussian, Inc.),
 the Gaussian(R) 98 system (copyright 1998, Gaussian, Inc.),
 the Gaussian(R) 94 system (copyright 1995, Gaussian, Inc.),
 the Gaussian 92(TM) system (copyright 1992, Gaussian, Inc.),
 the Gaussian 90(TM) system (copyright 1990, Gaussian, Inc.),
 the Gaussian 88(TM) system (copyright 1988, Gaussian, Inc.),
 the Gaussian 86(TM) system (copyright 1986, Carnegie Mellon
 University), and the Gaussian 82(TM) system (copyright 1983,
 Carnegie Mellon University). Gaussian is a federally registered
 trademark of Gaussian, Inc.
  
 This software contains proprietary and confidential information,
 including trade secrets, belonging to Gaussian, Inc.
  
 This software is provided under written license and may be
 used, copied, transmitted, or stored only in accord with that
 written license.
  
 The following legend is applicable only to US Government
 contracts under FAR:
  
                    RESTRICTED RIGHTS LEGEND
  
 Use, reproduction and disclosure by the US Government is
 subject to restrictions as set forth in subparagraphs (a)
 and (c) of the Commercial Computer Software - Restricted
 Rights clause in FAR 52.227-19.
  
 Gaussian, Inc.
 340 Quinnipiac St., Bldg. 40, Wallingford CT 06492
  
  
 ---------------------------------------------------------------
 Warning -- This program may not be used in any manner that
 competes with the business of Gaussian, Inc. or will provide
 assistance to any competitor of Gaussian, Inc.  The licensee
 of this program is prohibited from giving any competitor of
 Gaussian, Inc. access to this program.  By using this program,
 the user acknowledges that Gaussian, Inc. is engaged in the
 business of creating and licensing software in the field of
 computational chemistry and represents and warrants to the
 licensee that it is not a competitor of Gaussian, Inc. and that
 it will not use this program in any manner prohibited above.
 ---------------------------------------------------------------
  

 Cite this work as:
 Gaussian 09, Revision D.01,
 M. J. Frisch, G. W. Trucks, H. B. Schlegel, G. E. Scuseria, 
 M. A. Robb, J. R. Cheeseman, G. Scalmani, V. Barone, B. Mennucci, 
 G. A. Petersson, H. Nakatsuji, M. Caricato, X. Li, H. P. Hratchian, 
 A. F. Izmaylov, J. Bloino, G. Zheng, J. L. Sonnenberg, M. Hada, 
 M. Ehara, K. Toyota, R. Fukuda, J. Hasegawa, M. Ishida, T. Nakajima, 
 Y. Honda, O. Kitao, H. Nakai, T. Vreven, J. A. Montgomery, Jr., 
 J. E. Peralta, F. Ogliaro, M. Bearpark, J. J. Heyd, E. Brothers, 
 K. N. Kudin, V. N. Staroverov, T. Keith, R. Kobayashi, J. Normand, 
 K. Raghavachari, A. Rendell, J. C. Burant, S. S. Iyengar, J. Tomasi, 
 M. Cossi, N. Rega, J. M. Millam, M. Klene, J. E. Knox, J. B. Cross, 
 V. Bakken, C. Adamo, J. Jaramillo, R. Gomperts, R. E. Stratmann, 
 O. Yazyev, A. J. Austin, R. Cammi, C. Pomelli, J. W. Ochterski, 
 R. L. Martin, K. Morokuma, V. G. Zakrzewski, G. A. Voth, 
 P. Salvador, J. J. Dannenberg, S. Dapprich, A. D. Daniels, 
 O. Farkas, J. B. Foresman, J. V. Ortiz, J. Cioslowski, 
 and D. J. Fox, Gaussian, Inc., Wallingford CT, 2013.
 
 ******************************************
 Gaussian 09:  ES64L-G09RevD.01 24-Apr-2013
                 4-Oct-2016 
 ******************************************
 %NprocShared=20
 Will use up to   20 processors via shared memory.
 %mem=55000mb
 %chk=cc-Al6-n-s
 ------------------------
 # hf/6-31G* test scf=xqc
 ------------------------
 1/38=1/1;
 2/12=2,17=6,18=5,40=1/2;
 3/5=1,6=6,7=1,11=9,16=1,25=1,30=1/1,2,3;
 4//1;
 5/5=2,8=3,13=1,38=5/2,8;
 6/7=2,8=2,9=2,10=2,28=1/1;
 99/5=1,9=1/99;
 -------
 Al6-n-s
 -------
 Symbolic Z-matrix:
 Charge =  0 Multiplicity = 1
 Al                    0.        1.72859  -0.96385 
 Al                    0.       -1.72859   0.96385 
 Al                   -1.49701  -0.8643   -0.96385 
 Al                   -1.49701   0.8643    0.96385 
 Al                    1.49701  -0.8643   -0.96385 
 Al                    1.49701   0.8643    0.96385 
 
                          Input orientation:                          
 ---------------------------------------------------------------------
 Center     Atomic      Atomic             Coordinates (Angstroms)
 Number     Number       Type             X           Y           Z
 ---------------------------------------------------------------------
      1         13           0        0.000000    1.728593   -0.963850
      2         13           0        0.000000   -1.728593    0.963850
      3         13           0       -1.497006   -0.864297   -0.963850
      4         13           0       -1.497006    0.864297    0.963850
      5         13           0        1.497006   -0.864297   -0.963850
      6         13           0        1.497006    0.864297    0.963850
 ---------------------------------------------------------------------
                    Distance matrix (angstroms):
                    1          2          3          4          5
     1  Al   0.000000
     2  Al   3.958304   0.000000
     3  Al   2.994012   2.589220   0.000000
     4  Al   2.589220   2.994012   2.589220   0.000000
     5  Al   2.994012   2.589220   2.994012   3.958304   0.000000
     6  Al   2.589220   2.994012   3.958304   2.994012   2.589220
                    6
     6  Al   0.000000
 Stoichiometry    Al6
 Framework group  D3D[3SGD(Al2)]
 Deg. of freedom     2
 Full point group                 D3D     NOp  12
 Largest Abelian subgroup         C2H     NOp   4
 Largest concise Abelian subgroup C2H     NOp   4
                         Standard orientation:                         
 ---------------------------------------------------------------------
 Center     Atomic      Atomic             Coordinates (Angstroms)
 Number     Number       Type             X           Y           Z
 ---------------------------------------------------------------------
      1         13           0        0.000000    1.728593    0.963850
      2         13           0        0.000000   -1.728593   -0.963850
      3         13           0        1.497006   -0.864297    0.963850
      4         13           0        1.497006    0.864297   -0.963850
      5         13           0       -1.497006   -0.864297    0.963850
      6         13           0       -1.497006    0.864297   -0.963850
 ---------------------------------------------------------------------
 Rotational constants (GHZ):      1.2883724      1.2883724      1.0447527
 Standard basis: 6-31G(d) (6D, 7F)
 There are    33 symmetry adapted cartesian basis functions of AG  symmetry.
 There are    24 symmetry adapted cartesian basis functions of BG  symmetry.
 There are    24 symmetry adapted cartesian basis functions of AU  symmetry.
 There are    33 symmetry adapted cartesian basis functions of BU  symmetry.
 There are    33 symmetry adapted basis functions of AG  symmetry.
 There are    24 symmetry adapted basis functions of BG  symmetry.
 There are    24 symmetry adapted basis functions of AU  symmetry.
 There are    33 symmetry adapted basis functions of BU  symmetry.
   114 basis functions,   312 primitive gaussians,   114 cartesian basis functions
    39 alpha electrons       39 beta electrons
       nuclear repulsion energy       454.2377136224 Hartrees.
 NAtoms=    6 NActive=    6 NUniq=    1 SFac= 4.00D+00 NAtFMM=   60 NAOKFM=F Big=F
 Integral buffers will be    131072 words long.
 Raffenetti 1 integral format.
 Two-electron integral symmetry is turned on.
 One-electron integrals computed using PRISM.
 NBasis=   114 RedAO= T EigKep=  1.73D-03  NBF=    33    24    24    33
 NBsUse=   114 1.00D-06 EigRej= -1.00D+00 NBFU=    33    24    24    33
 ExpMin= 5.57D-02 ExpMax= 1.40D+04 ExpMxC= 2.10D+03 IAcc=2 IRadAn=         4 AccDes= 0.00D+00
 Harris functional with IExCor=  205 and IRadAn=       4 diagonalized for initial guess.
 HarFok:  IExCor=  205 AccDes= 0.00D+00 IRadAn=         4 IDoV= 1 UseB2=F ITyADJ=14
 ICtDFT=  3500011 ScaDFX=  1.000000  1.000000  1.000000  1.000000
 FoFCou: FMM=F IPFlag=           0 FMFlag=      100000 FMFlg1=           0
         NFxFlg=           0 DoJE=T BraDBF=F KetDBF=T FulRan=T
         wScrn=  0.000000 ICntrl=     500 IOpCl=  0 I1Cent=   200000004 NGrid=           0
         NMat0=    1 NMatS0=      1 NMatT0=    0 NMatD0=    1 NMtDS0=    0 NMtDT0=    0
 Petite list used in FoFCou.
 Initial guess orbital symmetries:
       Occupied  (A2U) (EG) (EG) (EU) (EU) (A1G) (EU) (EU) (A1G)
                 (EG) (EG) (A2U) (A1G) (EU) (EU) (EG) (EG) (A2U)
                 (A1U) (EG) (EG) (EU) (EU) (A2G) (A2U) (A1G) (EG)
                 (EG) (EU) (EU) (A1G) (EU) (EU) (A2U) (EG) (EG)
                 (A1G) (EG) (EG)
       Virtual   (A1G) (EU) (EU) (A2U) (A1U) (EU) (EU) (EU) (EU)
                 (A2U) (EG) (EG) (A2G) (EG) (EG) (EG) (EG) (A1G)
                 (A1G) (EU) (EU) (A2U) (A1U) (EU) (EU) (EG) (EG)
                 (A2U) (A1G) (EU) (EU) (EG) (EG) (A2U) (A2G) (EG)
                 (EG) (EU) (EU) (EG) (EG) (A1G) (A2U) (EU) (EU)
                 (A1U) (EG) (EG) (A1G) (EU) (EU) (A2U) (EU) (EU)
                 (EG) (EG) (A1G) (A2G) (A1U) (EU) (EU) (EG) (EG)
                 (A2U) (EU) (EU) (EG) (EG) (A2G) (A1G) (EU) (EU)
                 (A2U) (EG) (EG)
 The electronic state of the initial guess is 1-A1G.
 Keep R1 ints in memory in symmetry-blocked form, NReq=26931894.
 Requested convergence on RMS density matrix=1.00D-08 within  64 cycles.
 Requested convergence on MAX density matrix=1.00D-06.
 Requested convergence on             energy=1.00D-06.
 No special actions if energy rises.
 SCF Done:  E(RHF) =  -1451.29657716     A.U. after   12 cycles
            NFock= 12  Conv=0.20D-08     -V/T= 2.0001
 QCSCF skips out because SCF is already converged.

 **********************************************************************

            Population analysis using the SCF density.

 **********************************************************************

 Orbital symmetries:
       Occupied  (A2U) (EU) (EU) (EG) (EG) (A1G) (A1G) (EU) (EU)
                 (EG) (EG) (A2U) (A1G) (EU) (EU) (EG) (EG) (A2U)
                 (A1G) (EG) (EG) (A2U) (EU) (EU) (A1U) (EG) (EG)
                 (EU) (EU) (A2G) (A1G) (EU) (EU) (A2U) (EG) (EG)
                 (A1G) (EG) (EG)
       Virtual   (A1G) (EU) (EU) (A2U) (A1U) (EU) (EU) (EU) (EU)
                 (A2U) (EG) (EG) (EG) (EG) (A2G) (A1G) (EG) (EG)
                 (EU) (EU) (A1G) (A2U) (A1U) (EU) (EU) (EG) (EG)
                 (EU) (EU) (A1G) (A2U) (EG) (EG) (A2U) (A2G) (EG)
                 (EG) (EU) (EU) (EG) (EG) (A1G) (A2U) (EU) (EU)
                 (A1U) (EG) (EG) (A1G) (EU) (EU) (A2U) (EG) (EG)
                 (EU) (EU) (A1G) (EU) (EU) (A2G) (A1U) (EG) (EG)
                 (A2U) (EU) (EU) (EG) (EG) (A2G) (A1G) (EU) (EU)
                 (A2U) (EG) (EG)
 The electronic state is 1-A1G.
 Alpha  occ. eigenvalues --  -58.48003 -58.48003 -58.48003 -58.48003 -58.48003
 Alpha  occ. eigenvalues --  -58.48002  -4.90128  -4.90119  -4.90119  -4.90111
 Alpha  occ. eigenvalues --   -4.90111  -4.90109  -3.21158  -3.21132  -3.21132
 Alpha  occ. eigenvalues --   -3.21084  -3.21084  -3.21068  -3.21040  -3.21032
 Alpha  occ. eigenvalues --   -3.21032  -3.21030  -3.21030  -3.21030  -3.20988
 Alpha  occ. eigenvalues --   -3.20974  -3.20974  -3.20958  -3.20958  -3.20946
 Alpha  occ. eigenvalues --   -0.64910  -0.48711  -0.48711  -0.40310  -0.29053
 Alpha  occ. eigenvalues --   -0.29053  -0.24073  -0.23774  -0.23774
 Alpha virt. eigenvalues --   -0.03521  -0.01777  -0.01777  -0.00336   0.02617
 Alpha virt. eigenvalues --    0.06953   0.06953   0.08679   0.08679   0.09185
 Alpha virt. eigenvalues --    0.13034   0.13034   0.17415   0.17415   0.17458
 Alpha virt. eigenvalues --    0.21762   0.22022   0.22022   0.24388   0.24388
 Alpha virt. eigenvalues --    0.25635   0.28122   0.29988   0.34511   0.34511
 Alpha virt. eigenvalues --    0.36619   0.36619   0.38065   0.38065   0.38159
 Alpha virt. eigenvalues --    0.38583   0.39686   0.39686   0.41667   0.43482
 Alpha virt. eigenvalues --    0.44978   0.44978   0.50401   0.50401   0.55271
 Alpha virt. eigenvalues --    0.55271   0.55554   0.56479   0.61419   0.61419
 Alpha virt. eigenvalues --    0.62236   0.68613   0.68613   0.70205   0.73697
 Alpha virt. eigenvalues --    0.73697   0.75331   0.78704   0.78704   0.78793
 Alpha virt. eigenvalues --    0.78793   0.83795   0.86658   0.86658   0.87038
 Alpha virt. eigenvalues --    0.87666   0.90150   0.90150   1.01468   1.04421
 Alpha virt. eigenvalues --    1.04421   1.05462   1.05462   1.09272   2.23743
 Alpha virt. eigenvalues --    2.31203   2.31203   2.38296   2.38900   2.38900
          Condensed to atoms (all electrons):
               1          2          3          4          5          6
     1  Al  13.194326   0.094165  -0.050118  -0.094128  -0.050118  -0.094128
     2  Al   0.094165  13.194326  -0.094128  -0.050118  -0.094128  -0.050118
     3  Al  -0.050118  -0.094128  13.194326  -0.094128  -0.050118   0.094165
     4  Al  -0.094128  -0.050118  -0.094128  13.194326   0.094165  -0.050118
     5  Al  -0.050118  -0.094128  -0.050118   0.094165  13.194326  -0.094128
     6  Al  -0.094128  -0.050118   0.094165  -0.050118  -0.094128  13.194326
 Mulliken charges:
               1
     1  Al   0.000000
     2  Al   0.000000
     3  Al   0.000000
     4  Al   0.000000
     5  Al   0.000000
     6  Al   0.000000
 Sum of Mulliken charges =   0.00000
 Mulliken charges with hydrogens summed into heavy atoms:
               1
     1  Al   0.000000
     2  Al   0.000000
     3  Al   0.000000
     4  Al   0.000000
     5  Al   0.000000
     6  Al   0.000000
 Electronic spatial extent (au):  <R**2>=           1272.8962
 Charge=              0.0000 electrons
 Dipole moment (field-independent basis, Debye):
    X=              0.0000    Y=              0.0000    Z=              0.0000  Tot=              0.0000
 Quadrupole moment (field-independent basis, Debye-Ang):
   XX=            -83.5389   YY=            -83.5389   ZZ=            -77.4917
   XY=              0.0000   XZ=              0.0000   YZ=              0.0000
 Traceless Quadrupole moment (field-independent basis, Debye-Ang):
   XX=             -2.0157   YY=             -2.0157   ZZ=              4.0315
   XY=              0.0000   XZ=              0.0000   YZ=              0.0000
 Octapole moment (field-independent basis, Debye-Ang**2):
  XXX=              0.0000  YYY=              0.0000  ZZZ=              0.0000  XYY=              0.0000
  XXY=              0.0000  XXZ=              0.0000  XZZ=              0.0000  YZZ=              0.0000
  YYZ=              0.0000  XYZ=              0.0000
 Hexadecapole moment (field-independent basis, Debye-Ang**3):
 XXXX=           -955.8800 YYYY=           -955.8800 ZZZZ=           -629.0885 XXXY=              0.0000
 XXXZ=              0.0000 YYYX=              0.0000 YYYZ=             19.9856 ZZZX=              0.0000
 ZZZY=              0.0000 XXYY=           -318.6267 XXZZ=           -267.8064 YYZZ=           -267.8064
 XXYZ=            -19.9856 YYXZ=              0.0000 ZZXY=              0.0000
 N-N= 4.542377136224D+02 E-N=-4.379455381601D+03  KE= 1.451181477035D+03
 Symmetry AG   KE= 4.652912698509D+02
 Symmetry BG   KE= 2.625443144603D+02
 Symmetry AU   KE= 2.608794826035D+02
 Symmetry BU   KE= 4.624664101203D+02

 Test job not archived.
 1\1\GINC-R1I0N10\SP\RHF\6-31G(d)\Al6\VSC31064\04-Oct-2016\0\\# hf/6-31
 G* test scf=xqc\\Al6-n-s\\0,1\Al,0,0.,1.72859338,-0.96385004\Al,0,0.,-
 1.72859338,0.96385004\Al,0,-1.49700578,-0.86429669,-0.96385004\Al,0,-1
 .49700578,0.86429669,0.96385004\Al,0,1.49700578,-0.86429669,-0.9638500
 4\Al,0,1.49700578,0.86429669,0.96385004\\Version=ES64L-G09RevD.01\Stat
 e=1-A1G\HF=-1451.2965772\RMSD=1.968e-09\Dipole=0.,0.,0.\Quadrupole=-1.
 4986552,-1.4986552,2.9973103,0.,0.,0.\PG=D03D [3SGD(Al2)]\\@


 IF IT HAPPENS, IT MUST BE POSSIBLE.

 -- THE UNNAMED LAW FROM PAUL DICKSON'S 
    "THE OFFICIAL RULES"
 Job cpu time:       0 days  0 hours  0 minutes 56.0 seconds.
 File lengths (MBytes):  RWF=      7 Int=      0 D2E=      0 Chk=      2 Scr=      1
 Normal termination of Gaussian 09 at Tue Oct  4 06:56:56 2016.
 Initial command:
 /apps/leuven/thinking/software/G09//g09D1/l1.exe "/local_scratch/vsc31064/Gau-4129.inp" -scrdir="/local_scratch/vsc31064/"
 Entering Link 1 = /apps/leuven/thinking/software/G09//g09D1/l1.exe PID=      4388.
  
 Copyright (c) 1988,1990,1992,1993,1995,1998,2003,2009,2013,
            Gaussian, Inc.  All Rights Reserved.
  
 This is part of the Gaussian(R) 09 program.  It is based on
 the Gaussian(R) 03 system (copyright 2003, Gaussian, Inc.),
 the Gaussian(R) 98 system (copyright 1998, Gaussian, Inc.),
 the Gaussian(R) 94 system (copyright 1995, Gaussian, Inc.),
 the Gaussian 92(TM) system (copyright 1992, Gaussian, Inc.),
 the Gaussian 90(TM) system (copyright 1990, Gaussian, Inc.),
 the Gaussian 88(TM) system (copyright 1988, Gaussian, Inc.),
 the Gaussian 86(TM) system (copyright 1986, Carnegie Mellon
 University), and the Gaussian 82(TM) system (copyright 1983,
 Carnegie Mellon University). Gaussian is a federally registered
 trademark of Gaussian, Inc.
  
 This software contains proprietary and confidential information,
 including trade secrets, belonging to Gaussian, Inc.
  
 This software is provided under written license and may be
 used, copied, transmitted, or stored only in accord with that
 written license.
  
 The following legend is applicable only to US Government
 contracts under FAR:
  
                    RESTRICTED RIGHTS LEGEND
  
 Use, reproduction and disclosure by the US Government is
 subject to restrictions as set forth in subparagraphs (a)
 and (c) of the Commercial Computer Software - Restricted
 Rights clause in FAR 52.227-19.
  
 Gaussian, Inc.
 340 Quinnipiac St., Bldg. 40, Wallingford CT 06492
  
  
 ---------------------------------------------------------------
 Warning -- This program may not be used in any manner that
 competes with the business of Gaussian, Inc. or will provide
 assistance to any competitor of Gaussian, Inc.  The licensee
 of this program is prohibited from giving any competitor of
 Gaussian, Inc. access to this program.  By using this program,
 the user acknowledges that Gaussian, Inc. is engaged in the
 business of creating and licensing software in the field of
 computational chemistry and represents and warrants to the
 licensee that it is not a competitor of Gaussian, Inc. and that
 it will not use this program in any manner prohibited above.
 ---------------------------------------------------------------
  

 Cite this work as:
 Gaussian 09, Revision D.01,
 M. J. Frisch, G. W. Trucks, H. B. Schlegel, G. E. Scuseria, 
 M. A. Robb, J. R. Cheeseman, G. Scalmani, V. Barone, B. Mennucci, 
 G. A. Petersson, H. Nakatsuji, M. Caricato, X. Li, H. P. Hratchian, 
 A. F. Izmaylov, J. Bloino, G. Zheng, J. L. Sonnenberg, M. Hada, 
 M. Ehara, K. Toyota, R. Fukuda, J. Hasegawa, M. Ishida, T. Nakajima, 
 Y. Honda, O. Kitao, H. Nakai, T. Vreven, J. A. Montgomery, Jr., 
 J. E. Peralta, F. Ogliaro, M. Bearpark, J. J. Heyd, E. Brothers, 
 K. N. Kudin, V. N. Staroverov, T. Keith, R. Kobayashi, J. Normand, 
 K. Raghavachari, A. Rendell, J. C. Burant, S. S. Iyengar, J. Tomasi, 
 M. Cossi, N. Rega, J. M. Millam, M. Klene, J. E. Knox, J. B. Cross, 
 V. Bakken, C. Adamo, J. Jaramillo, R. Gomperts, R. E. Stratmann, 
 O. Yazyev, A. J. Austin, R. Cammi, C. Pomelli, J. W. Ochterski, 
 R. L. Martin, K. Morokuma, V. G. Zakrzewski, G. A. Voth, 
 P. Salvador, J. J. Dannenberg, S. Dapprich, A. D. Daniels, 
 O. Farkas, J. B. Foresman, J. V. Ortiz, J. Cioslowski, 
 and D. J. Fox, Gaussian, Inc., Wallingford CT, 2013.
 
 ******************************************
 Gaussian 09:  ES64L-G09RevD.01 24-Apr-2013
                 4-Oct-2016 
 ******************************************
 %NprocShared=20
 Will use up to   20 processors via shared memory.
 %mem=55000mb
 %chk=cc-Al6-n-s
 --------------------------------------------------------
 # CCSD(T,conver=5)/cc-pVTZ test geom=allcheck guess=read
 --------------------------------------------------------
 1/29=7,38=1/1;
 2/12=2,40=1/2;
 3/5=16,6=1,11=9,14=-4,16=1,25=1,30=1,116=-2/1,2,3;
 4/5=1/1;
 5/5=2,38=6/2;
 8/6=4,9=120000,10=1/1,4;
 9/5=7,9=5,14=2/13;
 6/7=2,8=2,9=2,10=2/1;
 99/5=1,9=1/99;
 Structure from the checkpoint file:  "cc-Al6-n-s.chk"
 -------
 Al6-n-s
 -------
 Charge =  0 Multiplicity = 1
 Z-Matrix found in file.
 Al,0,0.,1.72859338,-0.96385004
 Al,0,0.,-1.72859338,0.96385004
 Al,0,-1.49700578,-0.86429669,-0.96385004
 Al,0,-1.49700578,0.86429669,0.96385004
 Al,0,1.49700578,-0.86429669,-0.96385004
 Al,0,1.49700578,0.86429669,0.96385004
 Recover connectivity data from disk.
                          Input orientation:                          
 ---------------------------------------------------------------------
 Center     Atomic      Atomic             Coordinates (Angstroms)
 Number     Number       Type             X           Y           Z
 ---------------------------------------------------------------------
      1         13           0        0.000000    1.728593   -0.963850
      2         13           0        0.000000   -1.728593    0.963850
      3         13           0       -1.497006   -0.864297   -0.963850
      4         13           0       -1.497006    0.864297    0.963850
      5         13           0        1.497006   -0.864297   -0.963850
      6         13           0        1.497006    0.864297    0.963850
 ---------------------------------------------------------------------
                    Distance matrix (angstroms):
                    1          2          3          4          5
     1  Al   0.000000
     2  Al   3.958304   0.000000
     3  Al   2.994012   2.589220   0.000000
     4  Al   2.589220   2.994012   2.589220   0.000000
     5  Al   2.994012   2.589220   2.994012   3.958304   0.000000
     6  Al   2.589220   2.994012   3.958304   2.994012   2.589220
                    6
     6  Al   0.000000
 Stoichiometry    Al6
 Framework group  D3D[3SGD(Al2)]
 Deg. of freedom     2
 Full point group                 D3D     NOp  12
 Largest Abelian subgroup         C2H     NOp   4
 Largest concise Abelian subgroup C2H     NOp   4
                         Standard orientation:                         
 ---------------------------------------------------------------------
 Center     Atomic      Atomic             Coordinates (Angstroms)
 Number     Number       Type             X           Y           Z
 ---------------------------------------------------------------------
      1         13           0        0.000000    1.728593    0.963850
      2         13           0        0.000000   -1.728593   -0.963850
      3         13           0        1.497006   -0.864297    0.963850
      4         13           0        1.497006    0.864297   -0.963850
      5         13           0       -1.497006   -0.864297    0.963850
      6         13           0       -1.497006    0.864297   -0.963850
 ---------------------------------------------------------------------
 Rotational constants (GHZ):      1.2883724      1.2883724      1.0447527
 Standard basis: CC-pVTZ (5D, 7F)
 There are    66 symmetry adapted cartesian basis functions of AG  symmetry.
 There are    51 symmetry adapted cartesian basis functions of BG  symmetry.
 There are    51 symmetry adapted cartesian basis functions of AU  symmetry.
 There are    66 symmetry adapted cartesian basis functions of BU  symmetry.
 There are    57 symmetry adapted basis functions of AG  symmetry.
 There are    45 symmetry adapted basis functions of BG  symmetry.
 There are    45 symmetry adapted basis functions of AU  symmetry.
 There are    57 symmetry adapted basis functions of BU  symmetry.
   204 basis functions,   570 primitive gaussians,   234 cartesian basis functions
    39 alpha electrons       39 beta electrons
       nuclear repulsion energy       454.2377136224 Hartrees.
 NAtoms=    6 NActive=    6 NUniq=    1 SFac= 4.00D+00 NAtFMM=   60 NAOKFM=F Big=F
 Integral buffers will be    131072 words long.
 Raffenetti 1 integral format.
 Two-electron integral symmetry is turned on.
 One-electron integrals computed using PRISM.
 NBasis=   204 RedAO= T EigKep=  4.68D-04  NBF=    57    45    45    57
 NBsUse=   204 1.00D-06 EigRej= -1.00D+00 NBFU=    57    45    45    57
 Initial guess from the checkpoint file:  "cc-Al6-n-s.chk"
 B after Tr=     0.000000    0.000000    0.000000
         Rot=    1.000000    0.000000    0.000000    0.000000 Ang=   0.00 deg.
 Initial guess orbital symmetries:
       Occupied  (A2U) (EU) (EU) (EG) (EG) (A1G) (A1G) (EU) (EU)
                 (EG) (EG) (A2U) (A1G) (EU) (EU) (EG) (EG) (A2U)
                 (A1G) (EG) (EG) (A2U) (EU) (EU) (A1U) (EG) (EG)
                 (EU) (EU) (A2G) (A1G) (EU) (EU) (A2U) (EG) (EG)
                 (A1G) (EG) (EG)
       Virtual   (A2U) (A2U) (A2U) (A2U) (A2U) (A2U) (A2U) (A2U)
                 (A2U) (A2U) (A2U) (A2U) (A2U) (A2U) (A2U) (A2U)
                 (A2U) (A2U) (A2U) (A2U) (A2U) (A2U) (A2U) (A2U)
                 (A2U) (A2U) (A2U) (A2U) (A2U) (A2U) (A2U) (A2U)
                 (A2U) (A2U) (A2U) (A2U) (A2U) (A2U) (A2U) (A2U)
                 (A2U) (A2U) (A2U) (A2U) (A2U) (A2U) (A2U) (A2U)
                 (A2U) (A2U) (A2U) (A2U) (A2U) (A2U) (A2U) (A2U)
                 (A2U) (A2U) (A2U) (A2U) (A2U) (A2U) (A2U) (A2U)
                 (A2U) (A2U) (A2U) (A2U) (A2U) (A2U) (A2U) (A2U)
                 (A2U) (A2U) (A2U) (A2U) (A2U) (A2U) (A2U) (A2U)
                 (A2U) (?A) (?A) (?A) (?A) (?A) (?A) (?A) (?A)
                 (?A) (?A) (?A) (?A) (?A) (?A) (?A) (?A) (?A) (?A)
                 (?A) (?A) (?A) (?A) (?A) (?A) (?A) (?A) (?A) (?A)
                 (?A) (?A) (?A) (?A) (?A) (?A) (?A) (?A) (?A) (?A)
                 (?A) (?A) (?A) (?A) (?A) (?A) (?A) (?A) (?A) (?A)
                 (?A) (?A) (?A) (?A) (?A) (?A) (?A) (?A) (?A) (?A)
                 (?A) (?A) (?A) (?A) (?A) (?A) (?A) (?A) (?A) (?A)
                 (?A) (?A) (?A) (?A) (?A) (?A) (?A) (?A) (?A) (?A)
                 (?A) (?A) (?A) (?A) (?A) (?A)
 Keep R1 ints in memory in symmetry-blocked form, NReq=273545504.
 Requested convergence on RMS density matrix=1.00D-08 within 128 cycles.
 Requested convergence on MAX density matrix=1.00D-06.
 Requested convergence on             energy=1.00D-06.
 No special actions if energy rises.
 SCF Done:  E(RHF) =  -1451.43823634     A.U. after   11 cycles
            NFock= 11  Conv=0.94D-08     -V/T= 1.9999
 ExpMin= 5.56D-02 ExpMax= 2.06D+05 ExpMxC= 1.99D+03 IAcc=3 IRadAn=         5 AccDes= 0.00D+00
 HarFok:  IExCor=  205 AccDes= 0.00D+00 IRadAn=         5 IDoV=-2 UseB2=F ITyADJ=14
 ICtDFT= 12500011 ScaDFX=  1.000000  1.000000  1.000000  1.000000
 DSYEVD-2 returned Info=          69 IAlg= 4 N=    34 NDim=    34 NE2=   212024583 trying  DSYEV.
 DSYEVD-2 returned Info=          69 IAlg= 4 N=    34 NDim=    34 NE2=   212024583 trying  DSYEV.
 Range of M.O.s used for correlation:    31   204
 NBasis=   204 NAE=    39 NBE=    39 NFC=    30 NFV=     0
 NROrb=    174 NOA=     9 NOB=     9 NVA=   165 NVB=   165
 Semi-Direct transformation.
 ModeAB=           4 MOrb=             9 LenV=    7207814143
 LASXX=      5710779 LTotXX=     5710779 LenRXX=    11521004
 LTotAB=     5810225 MaxLAS=    12856860 LenRXY=           0
 NonZer=    17231783 LenScr=    26616832 LnRSAI=    12856860
 LnScr1=    20047872 LExtra=           0 Total=     71042568
 MaxDsk=          -1 SrtSym=           T ITran=            4
 JobTyp=0 Pass  1:  I=   1 to   9.
 (rs|ai) integrals will be sorted in core.
 Spin components of T(2) and E(2):
     alpha-alpha T2 =       0.7788189551D-01 E2=     -0.6957545133D-01
     alpha-beta  T2 =       0.3773002125D+00 E2=     -0.3760431444D+00
     beta-beta   T2 =       0.7788189551D-01 E2=     -0.6957545133D-01
 ANorm=    0.1238169618D+01
 E2 =    -0.5151940470D+00 EUMP2 =    -0.14519534303821D+04
 Keep R2 and R3 ints in memory in symmetry-blocked form, NReq=273357348.
 Iterations=  50 Convergence= 0.100D-04
 Iteration Nr.   1
 **********************
 DD1Dir will call FoFMem   1 times, MxPair=        90
 NAB=    45 NAA=     0 NBB=     0.
 MP4(R+Q)=  0.43205436D-01
 E3=        0.20622017D-01        EUMP3=      -0.14519328084D+04
 E4(DQ)=    0.42692218D-02        UMP4(DQ)=   -0.14519285391D+04
 E4(SDQ)=  -0.15076915D-02        UMP4(SDQ)=  -0.14519343161D+04
 DE(Corr)= -0.45118479     E(Corr)=     -1451.8894211    
 NORM(A)=   0.11886391D+01
 Iteration Nr.   2
 **********************
 DD1Dir will call FoFMem   1 times, MxPair=        90
 NAB=    45 NAA=     0 NBB=     0.
 DE(Corr)= -0.49714415     E(CORR)=     -1451.9353805     Delta=-4.60D-02
 NORM(A)=   0.12250696D+01
 Iteration Nr.   3
 **********************
 DD1Dir will call FoFMem   1 times, MxPair=        90
 NAB=    45 NAA=     0 NBB=     0.
 DE(Corr)= -0.49128563     E(CORR)=     -1451.9295220     Delta= 5.86D-03
 NORM(A)=   0.12297572D+01
 Iteration Nr.   4
 **********************
 DD1Dir will call FoFMem   1 times, MxPair=        90
 NAB=    45 NAA=     0 NBB=     0.
 DE(Corr)= -0.49440223     E(CORR)=     -1451.9326386     Delta=-3.12D-03
 NORM(A)=   0.12323219D+01
 Iteration Nr.   5
 **********************
 DD1Dir will call FoFMem   1 times, MxPair=        90
 NAB=    45 NAA=     0 NBB=     0.
 DE(Corr)= -0.49481669     E(CORR)=     -1451.9330530     Delta=-4.14D-04
 NORM(A)=   0.12338960D+01
 Iteration Nr.   6
 **********************
 DD1Dir will call FoFMem   1 times, MxPair=        90
 NAB=    45 NAA=     0 NBB=     0.
 DE(Corr)= -0.49484936     E(CORR)=     -1451.9330857     Delta=-3.27D-05
 NORM(A)=   0.12339428D+01
 Iteration Nr.   7
 **********************
 DD1Dir will call FoFMem   1 times, MxPair=        90
 NAB=    45 NAA=     0 NBB=     0.
 DE(Corr)= -0.49487078     E(CORR)=     -1451.9331071     Delta=-2.14D-05
 NORM(A)=   0.12339533D+01
 Iteration Nr.   8
 **********************
 DD1Dir will call FoFMem   1 times, MxPair=        90
 NAB=    45 NAA=     0 NBB=     0.
 DE(Corr)= -0.49486481     E(CORR)=     -1451.9331011     Delta= 5.97D-06
 NORM(A)=   0.12339686D+01
 Iteration Nr.   9
 **********************
 DD1Dir will call FoFMem   1 times, MxPair=        90
 NAB=    45 NAA=     0 NBB=     0.
 DE(Corr)= -0.49486780     E(CORR)=     -1451.9331041     Delta=-2.98D-06
 NORM(A)=   0.12339778D+01
 Iteration Nr.  10
 **********************
 DD1Dir will call FoFMem   1 times, MxPair=        90
 NAB=    45 NAA=     0 NBB=     0.
 DE(Corr)= -0.49486401     E(CORR)=     -1451.9331003     Delta= 3.79D-06
 NORM(A)=   0.12339802D+01
 Iteration Nr.  11
 **********************
 DD1Dir will call FoFMem   1 times, MxPair=        90
 NAB=    45 NAA=     0 NBB=     0.
 DE(Corr)= -0.49486894     E(CORR)=     -1451.9331053     Delta=-4.94D-06
 NORM(A)=   0.12339901D+01
 Largest amplitude= 6.12D-02
 Time for triples=      335.14 seconds.
 T4(CCSD)= -0.63806550D-01
 T5(CCSD)=  0.12155211D-02
 CCSD(T)= -0.14519956963D+04
 Discarding MO integrals.

 **********************************************************************

            Population analysis using the SCF density.

 **********************************************************************

 Orbital symmetries:
       Occupied  (A1G) (EU) (EU) (A2U) (EG) (EG) (A1G) (EU) (EU)
                 (EG) (EG) (A2U) (A1G) (EU) (EU) (EG) (EG) (A2U)
                 (A1G) (EG) (EG) (A2U) (EU) (EU) (A1U) (EG) (EG)
                 (EU) (EU) (A2G) (A1G) (EU) (EU) (A2U) (EG) (EG)
                 (A1G) (EG) (EG)
       Virtual   (A1G) (EU) (EU) (A2U) (A1U) (EU) (EU) (EU) (EU)
                 (A2U) (EG) (EG) (A1G) (EG) (EG) (A2G) (A2U) (EG)
                 (EG) (EU) (EU) (A1G) (A2U) (A1U) (EG) (EG) (EU)
                 (EU) (A1G) (EU) (EU) (A2G) (EG) (EG) (EG) (EG)
                 (A2U) (A1G) (EG) (EG) (EU) (EU) (EU) (EU) (A2U)
                 (A1U) (EU) (EU) (A1G) (EG) (EG) (EU) (EU) (A1U)
                 (EG) (EG) (A2G) (A2U) (A1G) (EU) (EU) (A2U) (EU)
                 (EU) (EG) (EG) (A2G) (EG) (EG) (A2U) (EG) (EG)
                 (A1G) (A1G) (A1U) (EU) (EU) (EG) (EG) (EU) (EU)
                 (EG) (EG) (EU) (EU) (A2U) (A1G) (A2G) (EG) (EG)
                 (EU) (EU) (A2U) (A2G) (EG) (EG) (A1U) (A1G) (EU)
                 (EU) (EU) (EU) (EG) (EG) (A2U) (A2U) (A1U) (EU)
                 (EU) (A2G) (A1G) (EG) (EG) (A2U) (EU) (EU) (A1G)
                 (EG) (EG) (A1U) (EG) (EG) (EU) (EU) (A1G) (EU)
                 (EU) (EG) (EG) (A2U) (EU) (EU) (EG) (EG) (A2G)
                 (EU) (EU) (A1U) (EG) (EG) (A2G) (A1G) (EG) (EG)
                 (A2U) (EU) (EU) (A1G) (A2U) (EG) (EG) (EU) (EU)
                 (A1U) (EU) (EU) (EG) (EG) (A1G) (A2G) (EU) (EU)
                 (EG) (EG) (A2U)
 The electronic state is 1-A1G.
 Alpha  occ. eigenvalues --  -58.48852 -58.48852 -58.48852 -58.48852 -58.48852
 Alpha  occ. eigenvalues --  -58.48852  -4.90065  -4.90057  -4.90057  -4.90048
 Alpha  occ. eigenvalues --   -4.90048  -4.90047  -3.21102  -3.21077  -3.21077
 Alpha  occ. eigenvalues --   -3.21032  -3.21032  -3.21009  -3.20999  -3.20991
 Alpha  occ. eigenvalues --   -3.20991  -3.20990  -3.20987  -3.20987  -3.20975
 Alpha  occ. eigenvalues --   -3.20955  -3.20955  -3.20942  -3.20942  -3.20932
 Alpha  occ. eigenvalues --   -0.64078  -0.48043  -0.48043  -0.39836  -0.28703
 Alpha  occ. eigenvalues --   -0.28703  -0.24621  -0.23628  -0.23628
 Alpha virt. eigenvalues --   -0.03158  -0.01374  -0.01374   0.00036   0.03027
 Alpha virt. eigenvalues --    0.07040   0.07040   0.08416   0.08416   0.08614
 Alpha virt. eigenvalues --    0.12138   0.12138   0.16462   0.16644   0.16644
 Alpha virt. eigenvalues --    0.16777   0.18112   0.19984   0.19984   0.20924
 Alpha virt. eigenvalues --    0.20924   0.22269   0.22686   0.23602   0.26030
 Alpha virt. eigenvalues --    0.26030   0.26229   0.26229   0.26252   0.31499
 Alpha virt. eigenvalues --    0.31499   0.32403   0.32742   0.32742   0.33082
 Alpha virt. eigenvalues --    0.33082   0.34726   0.37324   0.38716   0.38716
 Alpha virt. eigenvalues --    0.38898   0.38898   0.40323   0.40323   0.41537
 Alpha virt. eigenvalues --    0.41614   0.45076   0.45076   0.48836   0.51217
 Alpha virt. eigenvalues --    0.51217   0.52689   0.52689   0.52915   0.53281
 Alpha virt. eigenvalues --    0.53281   0.54348   0.56017   0.58178   0.62875
 Alpha virt. eigenvalues --    0.62875   0.63404   0.64149   0.64149   0.64881
 Alpha virt. eigenvalues --    0.64881   0.67778   0.68116   0.68116   0.69783
 Alpha virt. eigenvalues --    0.75086   0.75086   0.78533   0.85109   0.85662
 Alpha virt. eigenvalues --    0.85681   0.85681   0.85974   0.85974   0.88464
 Alpha virt. eigenvalues --    0.88464   0.91019   0.91019   0.91307   0.91307
 Alpha virt. eigenvalues --    0.91960   0.93799   0.97790   0.98135   0.98135
 Alpha virt. eigenvalues --    0.98248   0.98248   0.98614   0.99388   1.00322
 Alpha virt. eigenvalues --    1.00322   1.01063   1.01067   1.02222   1.02222
 Alpha virt. eigenvalues --    1.06095   1.06095   1.06234   1.06234   1.10661
 Alpha virt. eigenvalues --    1.14092   1.15625   1.16176   1.16176   1.17645
 Alpha virt. eigenvalues --    1.19553   1.20617   1.20617   1.20949   1.22546
 Alpha virt. eigenvalues --    1.22546   1.22867   1.23343   1.23343   1.24630
 Alpha virt. eigenvalues --    1.27670   1.27670   1.28485   1.28485   1.34795
 Alpha virt. eigenvalues --    1.35368   1.35368   1.36641   1.36641   1.38012
 Alpha virt. eigenvalues --    1.38215   1.38215   1.41960   1.41960   1.43643
 Alpha virt. eigenvalues --    1.47483   1.47483   1.48396   1.49948   1.49948
 Alpha virt. eigenvalues --    1.61706   2.27543   2.39388   2.39388   2.41640
 Alpha virt. eigenvalues --    2.44853   2.44853   2.47805   2.52088   2.52480
 Alpha virt. eigenvalues --    2.52480   2.64274   2.64274   2.74012   2.78500
 Alpha virt. eigenvalues --    2.78500   2.87269   2.87269   2.87768   2.99154
 Alpha virt. eigenvalues --    3.24564   3.24564   3.43942   3.43942   3.59598
          Condensed to atoms (all electrons):
               1          2          3          4          5          6
     1  Al  12.390407  -0.034933   0.099451   0.222812   0.099451   0.222812
     2  Al  -0.034933  12.390407   0.222812   0.099451   0.222812   0.099451
     3  Al   0.099451   0.222812  12.390407   0.222812   0.099451  -0.034933
     4  Al   0.222812   0.099451   0.222812  12.390407  -0.034933   0.099451
     5  Al   0.099451   0.222812   0.099451  -0.034933  12.390407   0.222812
     6  Al   0.222812   0.099451  -0.034933   0.099451   0.222812  12.390407
 Mulliken charges:
               1
     1  Al   0.000000
     2  Al   0.000000
     3  Al   0.000000
     4  Al   0.000000
     5  Al   0.000000
     6  Al   0.000000
 Sum of Mulliken charges =   0.00000
 Mulliken charges with hydrogens summed into heavy atoms:
               1
     1  Al   0.000000
     2  Al   0.000000
     3  Al   0.000000
     4  Al   0.000000
     5  Al   0.000000
     6  Al   0.000000
 Electronic spatial extent (au):  <R**2>=           1270.2988
 Charge=              0.0000 electrons
 Dipole moment (field-independent basis, Debye):
    X=              0.0000    Y=              0.0000    Z=              0.0000  Tot=              0.0000
 Quadrupole moment (field-independent basis, Debye-Ang):
   XX=            -82.5369   YY=            -82.5369   ZZ=            -76.0020
   XY=              0.0000   XZ=              0.0000   YZ=              0.0000
 Traceless Quadrupole moment (field-independent basis, Debye-Ang):
   XX=             -2.1783   YY=             -2.1783   ZZ=              4.3565
   XY=              0.0000   XZ=              0.0000   YZ=              0.0000
 Octapole moment (field-independent basis, Debye-Ang**2):
  XXX=              0.0000  YYY=              0.0000  ZZZ=              0.0000  XYY=              0.0000
  XXY=              0.0000  XXZ=              0.0000  XZZ=              0.0000  YZZ=              0.0000
  YYZ=              0.0000  XYZ=              0.0000
 Hexadecapole moment (field-independent basis, Debye-Ang**3):
 XXXX=           -943.9114 YYYY=           -943.9114 ZZZZ=           -617.1330 XXXY=              0.0000
 XXXZ=              0.0000 YYYX=              0.0000 YYYZ=             27.8202 ZZZX=              0.0000
 ZZZY=              0.0000 XXYY=           -314.6371 XXZZ=           -265.3361 YYZZ=           -265.3361
 XXYZ=            -27.8202 YYXZ=              0.0000 ZZXY=              0.0000
 N-N= 4.542377136224D+02 E-N=-4.380143538498D+03  KE= 1.451605362314D+03
 Symmetry AG   KE= 4.653560721300D+02
 Symmetry BG   KE= 2.626273765149D+02
 Symmetry AU   KE= 2.609928966858D+02
 Symmetry BU   KE= 4.626290169837D+02

 Test job not archived.
 1\1\GINC-R1I0N10\SP\RCCSD(T)-FC\CC-pVTZ\Al6\VSC31064\04-Oct-2016\0\\# 
 CCSD(T,conver=5)/cc-pVTZ test geom=allcheck guess=read\\Al6-n-s\\0,1\A
 l,0,0.,1.72859338,-0.96385004\Al,0,0.,-1.72859338,0.96385004\Al,0,-1.4
 9700578,-0.86429669,-0.96385004\Al,0,-1.49700578,0.86429669,0.96385004
 \Al,0,1.49700578,-0.86429669,-0.96385004\Al,0,1.49700578,0.86429669,0.
 96385004\\Version=ES64L-G09RevD.01\State=1-A1G\HF=-1451.4382363\MP2=-1
 451.9534304\MP3=-1451.9328084\MP4D=-1451.9717446\MP4DQ=-1451.9285391\M
 P4SDQ=-1451.9343161\CCSD=-1451.9331053\CCSD(T)=-1451.9956963\RMSD=9.44
 2e-09\PG=D03D [3SGD(Al2)]\\@


 CHARLIE BROWN.."I CAN'T GET THAT STUPID KITE IN THE
 AIR... I CAN'T... I C A N N O T..."
 LUCY.."OH COME NOW CHARLIE BROWN...THAT'S NO WAY TO TALK...
 THE TROUBLE WITH YOU IS YOU DON'T BELIEVE IN YOURSELF... YOU
 DON'T BELIEVE IN YOUR OWN ABILITIES...  YOU'VE GOT TO SAY TO
 YOURSELF...'I BELIEVE I CAN FLY THIS KITE.'... GO AHEAD SAY
 IT...."
 CHARLIE BROWN.."I BELIEVE THAT I CAN FLY THIS STUPID
 KITE.....I BELIEVE THAT I CAN FLY THIS KITE........
 I  A C T U A L L Y  B E L I E V E  T H A T  I  C A N ******"
 LUCY.."I'LL BET YOU TEN-TO-ONE YOU'RE WRONG......."    SCHULZ
 Job cpu time:       0 days  0 hours 15 minutes 59.5 seconds.
 File lengths (MBytes):  RWF=    563 Int=      0 D2E=      0 Chk=      3 Scr=      1
 Normal termination of Gaussian 09 at Tue Oct  4 06:57:44 2016.
