 Entering Gaussian System, Link 0=g09
 Initial command:
 /apps/leuven/thinking/software/G09//g09D1/l1.exe "/local_scratch/vsc31064/Gau-56105.inp" -scrdir="/local_scratch/vsc31064/"
 Entering Link 1 = /apps/leuven/thinking/software/G09//g09D1/l1.exe PID=     56106.
  
 Copyright (c) 1988,1990,1992,1993,1995,1998,2003,2009,2013,
            Gaussian, Inc.  All Rights Reserved.
  
 This is part of the Gaussian(R) 09 program.  It is based on
 the Gaussian(R) 03 system (copyright 2003, Gaussian, Inc.),
 the Gaussian(R) 98 system (copyright 1998, Gaussian, Inc.),
 the Gaussian(R) 94 system (copyright 1995, Gaussian, Inc.),
 the Gaussian 92(TM) system (copyright 1992, Gaussian, Inc.),
 the Gaussian 90(TM) system (copyright 1990, Gaussian, Inc.),
 the Gaussian 88(TM) system (copyright 1988, Gaussian, Inc.),
 the Gaussian 86(TM) system (copyright 1986, Carnegie Mellon
 University), and the Gaussian 82(TM) system (copyright 1983,
 Carnegie Mellon University). Gaussian is a federally registered
 trademark of Gaussian, Inc.
  
 This software contains proprietary and confidential information,
 including trade secrets, belonging to Gaussian, Inc.
  
 This software is provided under written license and may be
 used, copied, transmitted, or stored only in accord with that
 written license.
  
 The following legend is applicable only to US Government
 contracts under FAR:
  
                    RESTRICTED RIGHTS LEGEND
  
 Use, reproduction and disclosure by the US Government is
 subject to restrictions as set forth in subparagraphs (a)
 and (c) of the Commercial Computer Software - Restricted
 Rights clause in FAR 52.227-19.
  
 Gaussian, Inc.
 340 Quinnipiac St., Bldg. 40, Wallingford CT 06492
  
  
 ---------------------------------------------------------------
 Warning -- This program may not be used in any manner that
 competes with the business of Gaussian, Inc. or will provide
 assistance to any competitor of Gaussian, Inc.  The licensee
 of this program is prohibited from giving any competitor of
 Gaussian, Inc. access to this program.  By using this program,
 the user acknowledges that Gaussian, Inc. is engaged in the
 business of creating and licensing software in the field of
 computational chemistry and represents and warrants to the
 licensee that it is not a competitor of Gaussian, Inc. and that
 it will not use this program in any manner prohibited above.
 ---------------------------------------------------------------
  

 Cite this work as:
 Gaussian 09, Revision D.01,
 M. J. Frisch, G. W. Trucks, H. B. Schlegel, G. E. Scuseria, 
 M. A. Robb, J. R. Cheeseman, G. Scalmani, V. Barone, B. Mennucci, 
 G. A. Petersson, H. Nakatsuji, M. Caricato, X. Li, H. P. Hratchian, 
 A. F. Izmaylov, J. Bloino, G. Zheng, J. L. Sonnenberg, M. Hada, 
 M. Ehara, K. Toyota, R. Fukuda, J. Hasegawa, M. Ishida, T. Nakajima, 
 Y. Honda, O. Kitao, H. Nakai, T. Vreven, J. A. Montgomery, Jr., 
 J. E. Peralta, F. Ogliaro, M. Bearpark, J. J. Heyd, E. Brothers, 
 K. N. Kudin, V. N. Staroverov, T. Keith, R. Kobayashi, J. Normand, 
 K. Raghavachari, A. Rendell, J. C. Burant, S. S. Iyengar, J. Tomasi, 
 M. Cossi, N. Rega, J. M. Millam, M. Klene, J. E. Knox, J. B. Cross, 
 V. Bakken, C. Adamo, J. Jaramillo, R. Gomperts, R. E. Stratmann, 
 O. Yazyev, A. J. Austin, R. Cammi, C. Pomelli, J. W. Ochterski, 
 R. L. Martin, K. Morokuma, V. G. Zakrzewski, G. A. Voth, 
 P. Salvador, J. J. Dannenberg, S. Dapprich, A. D. Daniels, 
 O. Farkas, J. B. Foresman, J. V. Ortiz, J. Cioslowski, 
 and D. J. Fox, Gaussian, Inc., Wallingford CT, 2013.
 
 ******************************************
 Gaussian 09:  ES64L-G09RevD.01 24-Apr-2013
                 4-Oct-2016 
 ******************************************
 %NprocShared=20
 Will use up to   20 processors via shared memory.
 %mem=55000mb
 %chk=cc-Al6-n-s-2
 ------------------------
 # hf/6-31G* test scf=xqc
 ------------------------
 1/38=1/1;
 2/12=2,17=6,18=5,40=1/2;
 3/5=1,6=6,7=1,11=9,16=1,25=1,30=1/1,2,3;
 4//1;
 5/5=2,8=3,13=1,38=5/2,8;
 6/7=2,8=2,9=2,10=2,28=1/1;
 99/5=1,9=1/99;
 -------
 Al6-n-s
 -------
 Symbolic Z-matrix:
 Charge =  0 Multiplicity = 1
 Al                   -0.92251  -1.78214  -0.88103 
 Al                    0.54155   0.00402   1.57542 
 Al                    1.59049  -1.38867  -0.2961 
 Al                   -1.90008   0.00461   0.78717 
 Al                    1.60235   1.37402  -0.31032 
 Al                   -0.91181   1.78816  -0.87514 
 
                          Input orientation:                          
 ---------------------------------------------------------------------
 Center     Atomic      Atomic             Coordinates (Angstroms)
 Number     Number       Type             X           Y           Z
 ---------------------------------------------------------------------
      1         13           0       -0.922505   -1.782144   -0.881027
      2         13           0        0.541552    0.004020    1.575416
      3         13           0        1.590491   -1.388665   -0.296104
      4         13           0       -1.900082    0.004610    0.787171
      5         13           0        1.602350    1.374019   -0.310318
      6         13           0       -0.911807    1.788160   -0.875137
 ---------------------------------------------------------------------
                    Distance matrix (angstroms):
                    1          2          3          4          5
     1  Al   0.000000
     2  Al   3.371640   0.000000
     3  Al   2.610002   2.557818   0.000000
     4  Al   2.632685   2.565718   3.911368   0.000000
     5  Al   4.081907   2.560895   2.762746   3.917498   0.000000
     6  Al   3.570325   3.361639   4.085216   2.630780   2.609889
                    6
     6  Al   0.000000
 Stoichiometry    Al6
 Framework group  C1[X(Al6)]
 Deg. of freedom    12
 Full point group                 C1      NOp   1
 Largest Abelian subgroup         C1      NOp   1
 Largest concise Abelian subgroup C1      NOp   1
                         Standard orientation:                         
 ---------------------------------------------------------------------
 Center     Atomic      Atomic             Coordinates (Angstroms)
 Number     Number       Type             X           Y           Z
 ---------------------------------------------------------------------
      1         13           0        0.922497    1.782148   -0.881027
      2         13           0       -0.541552   -0.004022    1.575416
      3         13           0       -1.590497    1.388658   -0.296104
      4         13           0        1.900082   -0.004601    0.787171
      5         13           0       -1.602344   -1.374026   -0.310318
      6         13           0        0.911815   -1.788156   -0.875137
 ---------------------------------------------------------------------
 Rotational constants (GHZ):      1.2472453      1.2075804      0.8973536
 Standard basis: 6-31G(d) (6D, 7F)
 There are   114 symmetry adapted cartesian basis functions of A   symmetry.
 There are   114 symmetry adapted basis functions of A   symmetry.
   114 basis functions,   312 primitive gaussians,   114 cartesian basis functions
    39 alpha electrons       39 beta electrons
       nuclear repulsion energy       441.2760761367 Hartrees.
 NAtoms=    6 NActive=    6 NUniq=    6 SFac= 1.00D+00 NAtFMM=   60 NAOKFM=F Big=F
 Integral buffers will be    131072 words long.
 Raffenetti 1 integral format.
 Two-electron integral symmetry is turned on.
 One-electron integrals computed using PRISM.
 NBasis=   114 RedAO= T EigKep=  2.06D-03  NBF=   114
 NBsUse=   114 1.00D-06 EigRej= -1.00D+00 NBFU=   114
 ExpMin= 5.57D-02 ExpMax= 1.40D+04 ExpMxC= 2.10D+03 IAcc=2 IRadAn=         4 AccDes= 0.00D+00
 Harris functional with IExCor=  205 and IRadAn=       4 diagonalized for initial guess.
 HarFok:  IExCor=  205 AccDes= 0.00D+00 IRadAn=         4 IDoV= 1 UseB2=F ITyADJ=14
 ICtDFT=  3500011 ScaDFX=  1.000000  1.000000  1.000000  1.000000
 FoFCou: FMM=F IPFlag=           0 FMFlag=      100000 FMFlg1=           0
         NFxFlg=           0 DoJE=T BraDBF=F KetDBF=T FulRan=T
         wScrn=  0.000000 ICntrl=     500 IOpCl=  0 I1Cent=   200000004 NGrid=           0
         NMat0=    1 NMatS0=      1 NMatT0=    0 NMatD0=    1 NMtDS0=    0 NMtDT0=    0
 Petite list used in FoFCou.
 Keep R1 ints in memory in canonical form, NReq=22416676.
 Requested convergence on RMS density matrix=1.00D-08 within  64 cycles.
 Requested convergence on MAX density matrix=1.00D-06.
 Requested convergence on             energy=1.00D-06.
 No special actions if energy rises.
 SCF Done:  E(RHF) =  -1451.29969284     A.U. after   22 cycles
            NFock= 22  Conv=0.42D-08     -V/T= 2.0001
 QCSCF skips out because SCF is already converged.

 **********************************************************************

            Population analysis using the SCF density.

 **********************************************************************

 Orbital symmetries:
       Occupied  (A) (A) (A) (A) (A) (A) (A) (A) (A) (A) (A) (A)
                 (A) (A) (A) (A) (A) (A) (A) (A) (A) (A) (A) (A)
                 (A) (A) (A) (A) (A) (A) (A) (A) (A) (A) (A) (A)
                 (A) (A) (A)
       Virtual   (A) (A) (A) (A) (A) (A) (A) (A) (A) (A) (A) (A)
                 (A) (A) (A) (A) (A) (A) (A) (A) (A) (A) (A) (A)
                 (A) (A) (A) (A) (A) (A) (A) (A) (A) (A) (A) (A)
                 (A) (A) (A) (A) (A) (A) (A) (A) (A) (A) (A) (A)
                 (A) (A) (A) (A) (A) (A) (A) (A) (A) (A) (A) (A)
                 (A) (A) (A) (A) (A) (A) (A) (A) (A) (A) (A) (A)
                 (A) (A) (A)
 The electronic state is 1-A.
 Alpha  occ. eigenvalues --  -58.48623 -58.48617 -58.48587 -58.48565 -58.46267
 Alpha  occ. eigenvalues --  -58.45918  -4.90631  -4.90623  -4.90615  -4.90596
 Alpha  occ. eigenvalues --   -4.88521  -4.88307  -3.21670  -3.21648  -3.21583
 Alpha  occ. eigenvalues --   -3.21576  -3.21570  -3.21567  -3.21562  -3.21550
 Alpha  occ. eigenvalues --   -3.21522  -3.21500  -3.21418  -3.21410  -3.19594
 Alpha  occ. eigenvalues --   -3.19482  -3.19474  -3.19467  -3.19340  -3.19314
 Alpha  occ. eigenvalues --   -0.62666  -0.48776  -0.47757  -0.41066  -0.31010
 Alpha  occ. eigenvalues --   -0.27485  -0.24459  -0.22924  -0.22864
 Alpha virt. eigenvalues --   -0.03211  -0.01336  -0.01021   0.00736   0.01481
 Alpha virt. eigenvalues --    0.05059   0.05911   0.08174   0.09962   0.10236
 Alpha virt. eigenvalues --    0.12726   0.13857   0.15910   0.17490   0.18212
 Alpha virt. eigenvalues --    0.21370   0.23210   0.23927   0.25297   0.25840
 Alpha virt. eigenvalues --    0.26739   0.28825   0.29723   0.32058   0.32709
 Alpha virt. eigenvalues --    0.32938   0.37533   0.38183   0.38734   0.40033
 Alpha virt. eigenvalues --    0.41079   0.41118   0.42069   0.43099   0.43943
 Alpha virt. eigenvalues --    0.45222   0.45309   0.46107   0.47451   0.52339
 Alpha virt. eigenvalues --    0.54885   0.55579   0.58347   0.60762   0.63849
 Alpha virt. eigenvalues --    0.64270   0.64878   0.65535   0.68731   0.71995
 Alpha virt. eigenvalues --    0.72263   0.73945   0.74386   0.75633   0.77702
 Alpha virt. eigenvalues --    0.80667   0.82895   0.85105   0.85994   0.88065
 Alpha virt. eigenvalues --    0.89471   0.91979   0.96207   0.98977   1.01671
 Alpha virt. eigenvalues --    1.02241   1.06649   1.12404   1.15906   2.24278
 Alpha virt. eigenvalues --    2.30127   2.32141   2.35101   2.38892   2.45945
          Condensed to atoms (all electrons):
               1          2          3          4          5          6
     1  Al  12.682275   0.048580   0.073865   0.127350  -0.007307  -0.020175
     2  Al   0.048580  13.341185  -0.091458  -0.037851  -0.094271   0.047991
     3  Al   0.073865  -0.091458  12.811884   0.011374   0.159912  -0.007215
     4  Al   0.127350  -0.037851   0.011374  12.821382   0.011475   0.127043
     5  Al  -0.007307  -0.094271   0.159912   0.011475  12.812399   0.074438
     6  Al  -0.020175   0.047991  -0.007215   0.127043   0.074438  12.683373
 Mulliken charges:
               1
     1  Al   0.095413
     2  Al  -0.214176
     3  Al   0.041638
     4  Al  -0.060773
     5  Al   0.043353
     6  Al   0.094546
 Sum of Mulliken charges =   0.00000
 Mulliken charges with hydrogens summed into heavy atoms:
               1
     1  Al   0.095413
     2  Al  -0.214176
     3  Al   0.041638
     4  Al  -0.060773
     5  Al   0.043353
     6  Al   0.094546
 Electronic spatial extent (au):  <R**2>=           1374.8914
 Charge=              0.0000 electrons
 Dipole moment (field-independent basis, Debye):
    X=             -0.0919    Y=             -0.0033    Z=             -0.4780  Tot=              0.4867
 Quadrupole moment (field-independent basis, Debye-Ang):
   XX=            -79.4131   YY=            -82.7777   ZZ=            -82.2899
   XY=             -0.0355   XZ=              0.4096   YZ=              0.0282
 Traceless Quadrupole moment (field-independent basis, Debye-Ang):
   XX=              2.0805   YY=             -1.2841   ZZ=             -0.7964
   XY=             -0.0355   XZ=              0.4096   YZ=              0.0282
 Octapole moment (field-independent basis, Debye-Ang**2):
  XXX=             -5.5622  YYY=             -0.0099  ZZZ=              0.5369  XYY=             -0.7286
  XXY=              0.0311  XXZ=             -2.7944  XZZ=              4.4425  YZZ=             -0.0468
  YYZ=              7.9540  XYZ=              0.0589
 Hexadecapole moment (field-independent basis, Debye-Ang**3):
 XXXX=          -1052.1648 YYYY=          -1071.1468 ZZZZ=           -592.0703 XXXY=             -0.1847
 XXXZ=             24.5124 YYYX=             -0.5871 YYYZ=              0.2865 ZZZX=             -6.7423
 ZZZY=              0.1478 XXYY=           -340.8938 XXZZ=           -290.1286 YYZZ=           -304.7598
 XXYZ=              0.0972 YYXZ=             -4.6938 ZZXY=             -0.0929
 N-N= 4.412760761367D+02 E-N=-4.353648253331D+03  KE= 1.451099149541D+03

 Test job not archived.
 1\1\GINC-R1I0N7\SP\RHF\6-31G(d)\Al6\VSC31064\04-Oct-2016\0\\# hf/6-31G
 * test scf=xqc\\Al6-n-s\\0,1\Al,0,-0.922505,-1.782144,-0.881027\Al,0,0
 .541552,0.00402,1.575416\Al,0,1.590491,-1.388665,-0.296104\Al,0,-1.900
 082,0.00461,0.787171\Al,0,1.60235,1.374019,-0.310318\Al,0,-0.911807,1.
 78816,-0.875137\\Version=ES64L-G09RevD.01\State=1-A\HF=-1451.2996928\R
 MSD=4.242e-09\Dipole=0.036138,0.0013101,-0.1880511\Quadrupole=1.546774
 3,-0.9547046,-0.5920696,-0.026434,-0.3045372,-0.0209488\PG=C01 [X(Al6)
 ]\\@


 THE PROBLEM WITH THE LADDER OF SUCCESS IS YOU CAN'T
 CLIMB IT WHILE YOU'RE TWIDDLING YOUR THUMBS.
 Job cpu time:       0 days  0 hours  0 minutes 40.1 seconds.
 File lengths (MBytes):  RWF=      7 Int=      0 D2E=      0 Chk=      2 Scr=      1
 Normal termination of Gaussian 09 at Tue Oct  4 06:58:57 2016.
 Initial command:
 /apps/leuven/thinking/software/G09//g09D1/l1.exe "/local_scratch/vsc31064/Gau-56105.inp" -scrdir="/local_scratch/vsc31064/"
 Entering Link 1 = /apps/leuven/thinking/software/G09//g09D1/l1.exe PID=     56316.
  
 Copyright (c) 1988,1990,1992,1993,1995,1998,2003,2009,2013,
            Gaussian, Inc.  All Rights Reserved.
  
 This is part of the Gaussian(R) 09 program.  It is based on
 the Gaussian(R) 03 system (copyright 2003, Gaussian, Inc.),
 the Gaussian(R) 98 system (copyright 1998, Gaussian, Inc.),
 the Gaussian(R) 94 system (copyright 1995, Gaussian, Inc.),
 the Gaussian 92(TM) system (copyright 1992, Gaussian, Inc.),
 the Gaussian 90(TM) system (copyright 1990, Gaussian, Inc.),
 the Gaussian 88(TM) system (copyright 1988, Gaussian, Inc.),
 the Gaussian 86(TM) system (copyright 1986, Carnegie Mellon
 University), and the Gaussian 82(TM) system (copyright 1983,
 Carnegie Mellon University). Gaussian is a federally registered
 trademark of Gaussian, Inc.
  
 This software contains proprietary and confidential information,
 including trade secrets, belonging to Gaussian, Inc.
  
 This software is provided under written license and may be
 used, copied, transmitted, or stored only in accord with that
 written license.
  
 The following legend is applicable only to US Government
 contracts under FAR:
  
                    RESTRICTED RIGHTS LEGEND
  
 Use, reproduction and disclosure by the US Government is
 subject to restrictions as set forth in subparagraphs (a)
 and (c) of the Commercial Computer Software - Restricted
 Rights clause in FAR 52.227-19.
  
 Gaussian, Inc.
 340 Quinnipiac St., Bldg. 40, Wallingford CT 06492
  
  
 ---------------------------------------------------------------
 Warning -- This program may not be used in any manner that
 competes with the business of Gaussian, Inc. or will provide
 assistance to any competitor of Gaussian, Inc.  The licensee
 of this program is prohibited from giving any competitor of
 Gaussian, Inc. access to this program.  By using this program,
 the user acknowledges that Gaussian, Inc. is engaged in the
 business of creating and licensing software in the field of
 computational chemistry and represents and warrants to the
 licensee that it is not a competitor of Gaussian, Inc. and that
 it will not use this program in any manner prohibited above.
 ---------------------------------------------------------------
  

 Cite this work as:
 Gaussian 09, Revision D.01,
 M. J. Frisch, G. W. Trucks, H. B. Schlegel, G. E. Scuseria, 
 M. A. Robb, J. R. Cheeseman, G. Scalmani, V. Barone, B. Mennucci, 
 G. A. Petersson, H. Nakatsuji, M. Caricato, X. Li, H. P. Hratchian, 
 A. F. Izmaylov, J. Bloino, G. Zheng, J. L. Sonnenberg, M. Hada, 
 M. Ehara, K. Toyota, R. Fukuda, J. Hasegawa, M. Ishida, T. Nakajima, 
 Y. Honda, O. Kitao, H. Nakai, T. Vreven, J. A. Montgomery, Jr., 
 J. E. Peralta, F. Ogliaro, M. Bearpark, J. J. Heyd, E. Brothers, 
 K. N. Kudin, V. N. Staroverov, T. Keith, R. Kobayashi, J. Normand, 
 K. Raghavachari, A. Rendell, J. C. Burant, S. S. Iyengar, J. Tomasi, 
 M. Cossi, N. Rega, J. M. Millam, M. Klene, J. E. Knox, J. B. Cross, 
 V. Bakken, C. Adamo, J. Jaramillo, R. Gomperts, R. E. Stratmann, 
 O. Yazyev, A. J. Austin, R. Cammi, C. Pomelli, J. W. Ochterski, 
 R. L. Martin, K. Morokuma, V. G. Zakrzewski, G. A. Voth, 
 P. Salvador, J. J. Dannenberg, S. Dapprich, A. D. Daniels, 
 O. Farkas, J. B. Foresman, J. V. Ortiz, J. Cioslowski, 
 and D. J. Fox, Gaussian, Inc., Wallingford CT, 2013.
 
 ******************************************
 Gaussian 09:  ES64L-G09RevD.01 24-Apr-2013
                 4-Oct-2016 
 ******************************************
 %NprocShared=20
 Will use up to   20 processors via shared memory.
 %mem=55000mb
 %chk=cc-Al6-n-s-2
 --------------------------------------------------------
 # CCSD(T,conver=5)/cc-pVTZ test geom=allcheck guess=read
 --------------------------------------------------------
 1/29=7,38=1/1;
 2/12=2,40=1/2;
 3/5=16,6=1,11=9,14=-4,16=1,25=1,30=1,116=-2/1,2,3;
 4/5=1/1;
 5/5=2,38=6/2;
 8/6=4,9=120000,10=1/1,4;
 9/5=7,9=5,14=2/13;
 6/7=2,8=2,9=2,10=2/1;
 99/5=1,9=1/99;
 Structure from the checkpoint file:  "cc-Al6-n-s-2.chk"
 -------
 Al6-n-s
 -------
 Charge =  0 Multiplicity = 1
 Z-Matrix found in file.
 Al,0,-0.922505,-1.782144,-0.881027
 Al,0,0.541552,0.00402,1.575416
 Al,0,1.590491,-1.388665,-0.296104
 Al,0,-1.900082,0.00461,0.787171
 Al,0,1.60235,1.374019,-0.310318
 Al,0,-0.911807,1.78816,-0.875137
 Recover connectivity data from disk.
                          Input orientation:                          
 ---------------------------------------------------------------------
 Center     Atomic      Atomic             Coordinates (Angstroms)
 Number     Number       Type             X           Y           Z
 ---------------------------------------------------------------------
      1         13           0       -0.922505   -1.782144   -0.881027
      2         13           0        0.541552    0.004020    1.575416
      3         13           0        1.590491   -1.388665   -0.296104
      4         13           0       -1.900082    0.004610    0.787171
      5         13           0        1.602350    1.374019   -0.310318
      6         13           0       -0.911807    1.788160   -0.875137
 ---------------------------------------------------------------------
                    Distance matrix (angstroms):
                    1          2          3          4          5
     1  Al   0.000000
     2  Al   3.371640   0.000000
     3  Al   2.610002   2.557818   0.000000
     4  Al   2.632685   2.565718   3.911368   0.000000
     5  Al   4.081907   2.560895   2.762746   3.917498   0.000000
     6  Al   3.570325   3.361639   4.085216   2.630780   2.609889
                    6
     6  Al   0.000000
 Stoichiometry    Al6
 Framework group  C1[X(Al6)]
 Deg. of freedom    12
 Full point group                 C1      NOp   1
 Largest Abelian subgroup         C1      NOp   1
 Largest concise Abelian subgroup C1      NOp   1
                         Standard orientation:                         
 ---------------------------------------------------------------------
 Center     Atomic      Atomic             Coordinates (Angstroms)
 Number     Number       Type             X           Y           Z
 ---------------------------------------------------------------------
      1         13           0        0.922497    1.782148   -0.881027
      2         13           0       -0.541552   -0.004022    1.575416
      3         13           0       -1.590497    1.388658   -0.296104
      4         13           0        1.900082   -0.004601    0.787171
      5         13           0       -1.602344   -1.374026   -0.310318
      6         13           0        0.911815   -1.788156   -0.875137
 ---------------------------------------------------------------------
 Rotational constants (GHZ):      1.2472453      1.2075804      0.8973536
 Standard basis: CC-pVTZ (5D, 7F)
 There are   234 symmetry adapted cartesian basis functions of A   symmetry.
 There are   204 symmetry adapted basis functions of A   symmetry.
   204 basis functions,   570 primitive gaussians,   234 cartesian basis functions
    39 alpha electrons       39 beta electrons
       nuclear repulsion energy       441.2760761367 Hartrees.
 NAtoms=    6 NActive=    6 NUniq=    6 SFac= 1.00D+00 NAtFMM=   60 NAOKFM=F Big=F
 Integral buffers will be    131072 words long.
 Raffenetti 1 integral format.
 Two-electron integral symmetry is turned on.
 One-electron integrals computed using PRISM.
 NBasis=   204 RedAO= T EigKep=  7.15D-04  NBF=   204
 NBsUse=   204 1.00D-06 EigRej= -1.00D+00 NBFU=   204
 Initial guess from the checkpoint file:  "cc-Al6-n-s-2.chk"
 B after Tr=     0.000000    0.000000    0.000000
         Rot=    1.000000    0.000000    0.000000    0.000000 Ang=   0.00 deg.
 Keep R1 ints in memory in canonical form, NReq=225302515.
 Requested convergence on RMS density matrix=1.00D-08 within 128 cycles.
 Requested convergence on MAX density matrix=1.00D-06.
 Requested convergence on             energy=1.00D-06.
 No special actions if energy rises.
 SCF Done:  E(RHF) =  -1451.43789569     A.U. after   19 cycles
            NFock= 19  Conv=0.44D-08     -V/T= 1.9999
 ExpMin= 5.56D-02 ExpMax= 2.06D+05 ExpMxC= 1.99D+03 IAcc=3 IRadAn=         5 AccDes= 0.00D+00
 HarFok:  IExCor=  205 AccDes= 0.00D+00 IRadAn=         5 IDoV=-2 UseB2=F ITyADJ=14
 ICtDFT= 12500011 ScaDFX=  1.000000  1.000000  1.000000  1.000000
 DSYEVD-2 returned Info=          69 IAlg= 4 N=    34 NDim=    34 NE2=   212024583 trying  DSYEV.
 Range of M.O.s used for correlation:    31   204
 NBasis=   204 NAE=    39 NBE=    39 NFC=    30 NFV=     0
 NROrb=    174 NOA=     9 NOB=     9 NVA=   165 NVB=   165

 **** Warning!!: The largest alpha MO coefficient is  0.10021599D+02

 Semi-Direct transformation.
 ModeAB=           2 MOrb=             9 LenV=    7207787485
 LASXX=     22838481 LTotXX=    22838481 LenRXX=    22838481
 LTotAB=    23227425 MaxLAS=    43057170 LenRXY=    43057170
 NonZer=    45676962 LenScr=    69263360 LnRSAI=           0
 LnScr1=           0 LExtra=           0 Total=    135159011
 MaxDsk=          -1 SrtSym=           F ITran=            4
 JobTyp=0 Pass  1:  I=   1 to   9.
 (rs|ai) integrals will be sorted in core.
 SymMOI:  orbitals are not symmetric.
 Spin components of T(2) and E(2):
     alpha-alpha T2 =       0.7634439474D-01 E2=     -0.6687737246D-01
     alpha-beta  T2 =       0.3687715675D+00 E2=     -0.3674175202D+00
     beta-beta   T2 =       0.7634439474D-01 E2=     -0.6687737246D-01
 ANorm=    0.1233474911D+01
 E2 =    -0.5011722651D+00 EUMP2 =    -0.14519390679554D+04
 Keep R2 and R3 ints in memory in canonical form, NReq=443739488.
 Iterations=  50 Convergence= 0.100D-04
 Iteration Nr.   1
 **********************
 DD1Dir will call FoFMem   1 times, MxPair=        90
 NAB=    45 NAA=     0 NBB=     0.
 MP4(R+Q)=  0.43024249D-01
 E3=        0.13244096D-01        EUMP3=      -0.14519258239D+04
 E4(DQ)=    0.68956273D-02        UMP4(DQ)=   -0.14519189282D+04
 E4(SDQ)=   0.88836887D-03        UMP4(SDQ)=  -0.14519249355D+04
 DE(Corr)= -0.44480315     E(Corr)=     -1451.8826988    
 NORM(A)=   0.11877647D+01
 Iteration Nr.   2
 **********************
 DD1Dir will call FoFMem   1 times, MxPair=        90
 NAB=    45 NAA=     0 NBB=     0.
 DE(Corr)= -0.48908614     E(CORR)=     -1451.9269818     Delta=-4.43D-02
 NORM(A)=   0.12228501D+01
 Iteration Nr.   3
 **********************
 DD1Dir will call FoFMem   1 times, MxPair=        90
 NAB=    45 NAA=     0 NBB=     0.
 DE(Corr)= -0.48280238     E(CORR)=     -1451.9206981     Delta= 6.28D-03
 NORM(A)=   0.12278937D+01
 Iteration Nr.   4
 **********************
 DD1Dir will call FoFMem   1 times, MxPair=        90
 NAB=    45 NAA=     0 NBB=     0.
 DE(Corr)= -0.48587899     E(CORR)=     -1451.9237747     Delta=-3.08D-03
 NORM(A)=   0.12301768D+01
 Iteration Nr.   5
 **********************
 DD1Dir will call FoFMem   1 times, MxPair=        90
 NAB=    45 NAA=     0 NBB=     0.
 DE(Corr)= -0.48636604     E(CORR)=     -1451.9242617     Delta=-4.87D-04
 NORM(A)=   0.12326236D+01
 Iteration Nr.   6
 **********************
 DD1Dir will call FoFMem   1 times, MxPair=        90
 NAB=    45 NAA=     0 NBB=     0.
 DE(Corr)= -0.48640832     E(CORR)=     -1451.9243040     Delta=-4.23D-05
 NORM(A)=   0.12334313D+01
 Iteration Nr.   7
 **********************
 DD1Dir will call FoFMem   1 times, MxPair=        90
 NAB=    45 NAA=     0 NBB=     0.
 DE(Corr)= -0.48644313     E(CORR)=     -1451.9243388     Delta=-3.48D-05
 NORM(A)=   0.12336730D+01
 Iteration Nr.   8
 **********************
 DD1Dir will call FoFMem   1 times, MxPair=        90
 NAB=    45 NAA=     0 NBB=     0.
 DE(Corr)= -0.48647136     E(CORR)=     -1451.9243671     Delta=-2.82D-05
 NORM(A)=   0.12339979D+01
 Iteration Nr.   9
 **********************
 DD1Dir will call FoFMem   1 times, MxPair=        90
 NAB=    45 NAA=     0 NBB=     0.
 DE(Corr)= -0.48643929     E(CORR)=     -1451.9243350     Delta= 3.21D-05
 NORM(A)=   0.12340065D+01
 Iteration Nr.  10
 **********************
 DD1Dir will call FoFMem   1 times, MxPair=        90
 NAB=    45 NAA=     0 NBB=     0.
 DE(Corr)= -0.48645646     E(CORR)=     -1451.9243522     Delta=-1.72D-05
 NORM(A)=   0.12340566D+01
 Iteration Nr.  11
 **********************
 DD1Dir will call FoFMem   1 times, MxPair=        90
 NAB=    45 NAA=     0 NBB=     0.
 DE(Corr)= -0.48645584     E(CORR)=     -1451.9243515     Delta= 6.20D-07
 NORM(A)=   0.12340693D+01
 Iteration Nr.  12
 **********************
 DD1Dir will call FoFMem   1 times, MxPair=        90
 NAB=    45 NAA=     0 NBB=     0.
 DE(Corr)= -0.48645807     E(CORR)=     -1451.9243538     Delta=-2.23D-06
 NORM(A)=   0.12340838D+01
 Largest amplitude= 5.73D-02
 T4(AAA)= -0.18384457D-02
 T4(AAB)= -0.29380613D-01
 T5(AAA)=  0.65070260D-04
 T5(AAB)=  0.58583965D-03
 Time for triples=      759.95 seconds.
 T4(CCSD)= -0.62438117D-01
 T5(CCSD)=  0.13018198D-02
 CCSD(T)= -0.14519854901D+04
 Discarding MO integrals.

 **********************************************************************

            Population analysis using the SCF density.

 **********************************************************************

 Orbital symmetries:
       Occupied  (A) (A) (A) (A) (A) (A) (A) (A) (A) (A) (A) (A)
                 (A) (A) (A) (A) (A) (A) (A) (A) (A) (A) (A) (A)
                 (A) (A) (A) (A) (A) (A) (A) (A) (A) (A) (A) (A)
                 (A) (A) (A)
       Virtual   (A) (A) (A) (A) (A) (A) (A) (A) (A) (A) (A) (A)
                 (A) (A) (A) (A) (A) (A) (A) (A) (A) (A) (A) (A)
                 (A) (A) (A) (A) (A) (A) (A) (A) (A) (A) (A) (A)
                 (A) (A) (A) (A) (A) (A) (A) (A) (A) (A) (A) (A)
                 (A) (A) (A) (A) (A) (A) (A) (A) (A) (A) (A) (A)
                 (A) (A) (A) (A) (A) (A) (A) (A) (A) (A) (A) (A)
                 (A) (A) (A) (A) (A) (A) (A) (A) (A) (A) (A) (A)
                 (A) (A) (A) (A) (A) (A) (A) (A) (A) (A) (A) (A)
                 (A) (A) (A) (A) (A) (A) (A) (A) (A) (A) (A) (A)
                 (A) (A) (A) (A) (A) (A) (A) (A) (A) (A) (A) (A)
                 (A) (A) (A) (A) (A) (A) (A) (A) (A) (A) (A) (A)
                 (A) (A) (A) (A) (A) (A) (A) (A) (A) (A) (A) (A)
                 (A) (A) (A) (A) (A) (A) (A) (A) (A) (A) (A) (A)
                 (A) (A) (A) (A) (A) (A) (A) (A) (A)
 The electronic state is 1-A.
 Alpha  occ. eigenvalues --  -58.49367 -58.49361 -58.49323 -58.49298 -58.47132
 Alpha  occ. eigenvalues --  -58.46774  -4.90493  -4.90474  -4.90472  -4.90465
 Alpha  occ. eigenvalues --   -4.88494  -4.88197  -3.21536  -3.21512  -3.21465
 Alpha  occ. eigenvalues --   -3.21456  -3.21439  -3.21430  -3.21411  -3.21407
 Alpha  occ. eigenvalues --   -3.21402  -3.21397  -3.21336  -3.21327  -3.19549
 Alpha  occ. eigenvalues --   -3.19485  -3.19482  -3.19349  -3.19280  -3.19244
 Alpha  occ. eigenvalues --   -0.61910  -0.48166  -0.47107  -0.40576  -0.30612
 Alpha  occ. eigenvalues --   -0.27137  -0.24150  -0.23450  -0.22633
 Alpha virt. eigenvalues --   -0.02780  -0.00966  -0.00605   0.01039   0.01841
 Alpha virt. eigenvalues --    0.05318   0.06043   0.07913   0.09632   0.09659
 Alpha virt. eigenvalues --    0.11863   0.12810   0.15304   0.16392   0.17002
 Alpha virt. eigenvalues --    0.17315   0.19598   0.20017   0.20384   0.21422
 Alpha virt. eigenvalues --    0.22467   0.23105   0.24311   0.25108   0.25424
 Alpha virt. eigenvalues --    0.25868   0.26355   0.27750   0.28369   0.28804
 Alpha virt. eigenvalues --    0.29096   0.30320   0.32237   0.32602   0.33446
 Alpha virt. eigenvalues --    0.33797   0.34011   0.35835   0.36162   0.36771
 Alpha virt. eigenvalues --    0.38364   0.40392   0.41518   0.42791   0.43331
 Alpha virt. eigenvalues --    0.44083   0.44582   0.45738   0.46669   0.46788
 Alpha virt. eigenvalues --    0.47991   0.50646   0.51721   0.52484   0.53565
 Alpha virt. eigenvalues --    0.54796   0.56010   0.56838   0.59624   0.61245
 Alpha virt. eigenvalues --    0.61876   0.62675   0.63660   0.64874   0.65759
 Alpha virt. eigenvalues --    0.68417   0.68463   0.69499   0.70100   0.74469
 Alpha virt. eigenvalues --    0.75483   0.76352   0.78309   0.79100   0.81745
 Alpha virt. eigenvalues --    0.82449   0.84070   0.85279   0.85978   0.87704
 Alpha virt. eigenvalues --    0.88458   0.89721   0.90419   0.91403   0.91764
 Alpha virt. eigenvalues --    0.92503   0.94579   0.94857   0.95487   0.97023
 Alpha virt. eigenvalues --    0.97554   0.98776   0.98996   1.00058   1.00110
 Alpha virt. eigenvalues --    1.00932   1.01270   1.02260   1.03344   1.04618
 Alpha virt. eigenvalues --    1.06375   1.07308   1.07970   1.09450   1.10436
 Alpha virt. eigenvalues --    1.12201   1.13082   1.13817   1.14511   1.15629
 Alpha virt. eigenvalues --    1.16658   1.16987   1.19374   1.20860   1.22179
 Alpha virt. eigenvalues --    1.23121   1.23531   1.24375   1.24463   1.25009
 Alpha virt. eigenvalues --    1.25151   1.25991   1.27868   1.28322   1.30611
 Alpha virt. eigenvalues --    1.33710   1.35444   1.35922   1.36877   1.37806
 Alpha virt. eigenvalues --    1.40856   1.43991   1.44824   1.46298   1.47995
 Alpha virt. eigenvalues --    1.49028   1.49917   1.50483   1.52678   1.53571
 Alpha virt. eigenvalues --    1.55973   2.17639   2.36584   2.37409   2.39326
 Alpha virt. eigenvalues --    2.42931   2.43035   2.44620   2.46842   2.48456
 Alpha virt. eigenvalues --    2.51571   2.53208   2.56045   2.58448   2.62232
 Alpha virt. eigenvalues --    2.66151   2.72270   2.89188   3.04523   3.06027
 Alpha virt. eigenvalues --    3.18940   3.31976   3.40690   3.48077   3.74667
          Condensed to atoms (all electrons):
               1          2          3          4          5          6
     1  Al  12.395388   0.009911   0.275622   0.270647  -0.007262   0.019330
     2  Al   0.009911  12.177596   0.271752   0.333958   0.268654   0.011051
     3  Al   0.275622   0.271752  12.266544  -0.024724   0.193734  -0.007349
     4  Al   0.270647   0.333958  -0.024724  12.223913  -0.024972   0.271116
     5  Al  -0.007262   0.268654   0.193734  -0.024972  12.268622   0.275464
     6  Al   0.019330   0.011051  -0.007349   0.271116   0.275464  12.394077
 Mulliken charges:
               1
     1  Al   0.036364
     2  Al  -0.072920
     3  Al   0.024422
     4  Al  -0.049938
     5  Al   0.025761
     6  Al   0.036312
 Sum of Mulliken charges =   0.00000
 Mulliken charges with hydrogens summed into heavy atoms:
               1
     1  Al   0.036364
     2  Al  -0.072920
     3  Al   0.024422
     4  Al  -0.049938
     5  Al   0.025761
     6  Al   0.036312
 Electronic spatial extent (au):  <R**2>=           1371.7059
 Charge=              0.0000 electrons
 Dipole moment (field-independent basis, Debye):
    X=             -0.1793    Y=             -0.0042    Z=             -0.2378  Tot=              0.2978
 Quadrupole moment (field-independent basis, Debye-Ang):
   XX=            -77.8096   YY=            -81.5188   ZZ=            -80.8676
   XY=             -0.0279   XZ=              0.2014   YZ=              0.0187
 Traceless Quadrupole moment (field-independent basis, Debye-Ang):
   XX=              2.2557   YY=             -1.4535   ZZ=             -0.8023
   XY=             -0.0279   XZ=              0.2014   YZ=              0.0187
 Octapole moment (field-independent basis, Debye-Ang**2):
  XXX=             -6.4254  YYY=             -0.0084  ZZZ=              3.8664  XYY=             -0.7860
  XXY=              0.0312  XXZ=             -0.5197  XZZ=              3.8088  YZZ=             -0.0534
  YYZ=              6.4810  XYZ=              0.0316
 Hexadecapole moment (field-independent basis, Debye-Ang**3):
 XXXX=          -1040.8928 YYYY=          -1051.6654 ZZZZ=           -575.1784 XXXY=             -0.0196
 XXXZ=             27.1796 YYYX=             -0.5835 YYYZ=              0.2668 ZZZX=            -11.2108
 ZZZY=              0.0377 XXYY=           -329.3195 XXZZ=           -285.6380 YYZZ=           -302.3654
 XXYZ=              0.0673 YYXZ=            -10.6496 ZZXY=             -0.0469
 N-N= 4.412760761367D+02 E-N=-4.354394073186D+03  KE= 1.451548068122D+03

 Test job not archived.
 1\1\GINC-R1I0N7\SP\RCCSD(T)-FC\CC-pVTZ\Al6\VSC31064\04-Oct-2016\0\\# C
 CSD(T,conver=5)/cc-pVTZ test geom=allcheck guess=read\\Al6-n-s\\0,1\Al
 ,0,-0.922505,-1.782144,-0.881027\Al,0,0.541552,0.00402,1.575416\Al,0,1
 .590491,-1.388665,-0.296104\Al,0,-1.900082,0.00461,0.787171\Al,0,1.602
 35,1.374019,-0.310318\Al,0,-0.911807,1.78816,-0.875137\\Version=ES64L-
 G09RevD.01\State=1-A\HF=-1451.4378957\MP2=-1451.939068\MP3=-1451.92582
 39\MP4D=-1451.9619525\MP4DQ=-1451.9189282\MP4SDQ=-1451.9249355\CCSD=-1
 451.9243538\CCSD(T)=-1451.9854901\RMSD=4.382e-09\PG=C01 [X(Al6)]\\@


 GROWING OLD ISN'T SO BAD -- WHEN YOU CONSIDER THE ALTERNATIVE.

                     -- MAURICE CHEVALIER
 Job cpu time:       0 days  0 hours 52 minutes 38.3 seconds.
 File lengths (MBytes):  RWF=   2961 Int=      0 D2E=      0 Chk=      3 Scr=      1
 Normal termination of Gaussian 09 at Tue Oct  4 07:01:43 2016.
