 Entering Gaussian System, Link 0=g09
 Initial command:
 /apps/leuven/thinking/software/G09//g09D1/l1.exe "/local_scratch/vsc31064/Gau-8695.inp" -scrdir="/local_scratch/vsc31064/"
 Entering Link 1 = /apps/leuven/thinking/software/G09//g09D1/l1.exe PID=      8696.
  
 Copyright (c) 1988,1990,1992,1993,1995,1998,2003,2009,2013,
            Gaussian, Inc.  All Rights Reserved.
  
 This is part of the Gaussian(R) 09 program.  It is based on
 the Gaussian(R) 03 system (copyright 2003, Gaussian, Inc.),
 the Gaussian(R) 98 system (copyright 1998, Gaussian, Inc.),
 the Gaussian(R) 94 system (copyright 1995, Gaussian, Inc.),
 the Gaussian 92(TM) system (copyright 1992, Gaussian, Inc.),
 the Gaussian 90(TM) system (copyright 1990, Gaussian, Inc.),
 the Gaussian 88(TM) system (copyright 1988, Gaussian, Inc.),
 the Gaussian 86(TM) system (copyright 1986, Carnegie Mellon
 University), and the Gaussian 82(TM) system (copyright 1983,
 Carnegie Mellon University). Gaussian is a federally registered
 trademark of Gaussian, Inc.
  
 This software contains proprietary and confidential information,
 including trade secrets, belonging to Gaussian, Inc.
  
 This software is provided under written license and may be
 used, copied, transmitted, or stored only in accord with that
 written license.
  
 The following legend is applicable only to US Government
 contracts under FAR:
  
                    RESTRICTED RIGHTS LEGEND
  
 Use, reproduction and disclosure by the US Government is
 subject to restrictions as set forth in subparagraphs (a)
 and (c) of the Commercial Computer Software - Restricted
 Rights clause in FAR 52.227-19.
  
 Gaussian, Inc.
 340 Quinnipiac St., Bldg. 40, Wallingford CT 06492
  
  
 ---------------------------------------------------------------
 Warning -- This program may not be used in any manner that
 competes with the business of Gaussian, Inc. or will provide
 assistance to any competitor of Gaussian, Inc.  The licensee
 of this program is prohibited from giving any competitor of
 Gaussian, Inc. access to this program.  By using this program,
 the user acknowledges that Gaussian, Inc. is engaged in the
 business of creating and licensing software in the field of
 computational chemistry and represents and warrants to the
 licensee that it is not a competitor of Gaussian, Inc. and that
 it will not use this program in any manner prohibited above.
 ---------------------------------------------------------------
  

 Cite this work as:
 Gaussian 09, Revision D.01,
 M. J. Frisch, G. W. Trucks, H. B. Schlegel, G. E. Scuseria, 
 M. A. Robb, J. R. Cheeseman, G. Scalmani, V. Barone, B. Mennucci, 
 G. A. Petersson, H. Nakatsuji, M. Caricato, X. Li, H. P. Hratchian, 
 A. F. Izmaylov, J. Bloino, G. Zheng, J. L. Sonnenberg, M. Hada, 
 M. Ehara, K. Toyota, R. Fukuda, J. Hasegawa, M. Ishida, T. Nakajima, 
 Y. Honda, O. Kitao, H. Nakai, T. Vreven, J. A. Montgomery, Jr., 
 J. E. Peralta, F. Ogliaro, M. Bearpark, J. J. Heyd, E. Brothers, 
 K. N. Kudin, V. N. Staroverov, T. Keith, R. Kobayashi, J. Normand, 
 K. Raghavachari, A. Rendell, J. C. Burant, S. S. Iyengar, J. Tomasi, 
 M. Cossi, N. Rega, J. M. Millam, M. Klene, J. E. Knox, J. B. Cross, 
 V. Bakken, C. Adamo, J. Jaramillo, R. Gomperts, R. E. Stratmann, 
 O. Yazyev, A. J. Austin, R. Cammi, C. Pomelli, J. W. Ochterski, 
 R. L. Martin, K. Morokuma, V. G. Zakrzewski, G. A. Voth, 
 P. Salvador, J. J. Dannenberg, S. Dapprich, A. D. Daniels, 
 O. Farkas, J. B. Foresman, J. V. Ortiz, J. Cioslowski, 
 and D. J. Fox, Gaussian, Inc., Wallingford CT, 2013.
 
 ******************************************
 Gaussian 09:  ES64L-G09RevD.01 24-Apr-2013
                 4-Oct-2016 
 ******************************************
 %NprocShared=20
 Will use up to   20 processors via shared memory.
 %mem=55000mb
 %chk=cc-Al6-a-d
 ------------------------
 # hf/6-31G* test scf=xqc
 ------------------------
 1/38=1/1;
 2/12=2,17=6,18=5,40=1/2;
 3/5=1,6=6,7=1,11=9,16=1,25=1,30=1/1,2,3;
 4//1;
 5/5=2,8=3,13=1,38=5/2,8;
 6/7=2,8=2,9=2,10=2,28=1/1;
 99/5=1,9=1/99;
 -------
 Al6-a-d
 -------
 Symbolic Z-matrix:
 Charge = -1 Multiplicity = 2
 Al                    0.       -1.62115   1.04543 
 Al                    0.        1.62115  -1.04543 
 Al                   -1.40396   0.81058   1.04543 
 Al                   -1.40396  -0.81058  -1.04543 
 Al                    1.40396   0.81058   1.04543 
 Al                    1.40396  -0.81058  -1.04543 
 
                          Input orientation:                          
 ---------------------------------------------------------------------
 Center     Atomic      Atomic             Coordinates (Angstroms)
 Number     Number       Type             X           Y           Z
 ---------------------------------------------------------------------
      1         13           0        0.000000   -1.621153    1.045430
      2         13           0        0.000000    1.621153   -1.045430
      3         13           0       -1.403959    0.810576    1.045430
      4         13           0       -1.403959   -0.810576   -1.045430
      5         13           0        1.403959    0.810576    1.045430
      6         13           0        1.403959   -0.810576   -1.045430
 ---------------------------------------------------------------------
                    Distance matrix (angstroms):
                    1          2          3          4          5
     1  Al   0.000000
     2  Al   3.858009   0.000000
     3  Al   2.807919   2.645719   0.000000
     4  Al   2.645719   2.807919   2.645719   0.000000
     5  Al   2.807919   2.645719   2.807919   3.858009   0.000000
     6  Al   2.645719   2.807919   3.858009   2.807919   2.645719
                    6
     6  Al   0.000000
 Stoichiometry    Al6(1-,2)
 Framework group  D3D[3SGD(Al2)]
 Deg. of freedom     2
 Full point group                 D3D     NOp  12
 Largest Abelian subgroup         C2H     NOp   4
 Largest concise Abelian subgroup C2H     NOp   4
                         Standard orientation:                         
 ---------------------------------------------------------------------
 Center     Atomic      Atomic             Coordinates (Angstroms)
 Number     Number       Type             X           Y           Z
 ---------------------------------------------------------------------
      1         13           0        0.000000    1.621153    1.045430
      2         13           0        0.000000   -1.621153   -1.045430
      3         13           0        1.403959   -0.810576    1.045430
      4         13           0        1.403959    0.810576   -1.045430
      5         13           0       -1.403959   -0.810576    1.045430
      6         13           0       -1.403959    0.810576   -1.045430
 ---------------------------------------------------------------------
 Rotational constants (GHZ):      1.2969543      1.2969543      1.1878220
 Standard basis: 6-31G(d) (6D, 7F)
 There are    33 symmetry adapted cartesian basis functions of AG  symmetry.
 There are    24 symmetry adapted cartesian basis functions of BG  symmetry.
 There are    24 symmetry adapted cartesian basis functions of AU  symmetry.
 There are    33 symmetry adapted cartesian basis functions of BU  symmetry.
 There are    33 symmetry adapted basis functions of AG  symmetry.
 There are    24 symmetry adapted basis functions of BG  symmetry.
 There are    24 symmetry adapted basis functions of AU  symmetry.
 There are    33 symmetry adapted basis functions of BU  symmetry.
   114 basis functions,   312 primitive gaussians,   114 cartesian basis functions
    40 alpha electrons       39 beta electrons
       nuclear repulsion energy       463.4518825791 Hartrees.
 NAtoms=    6 NActive=    6 NUniq=    1 SFac= 4.00D+00 NAtFMM=   60 NAOKFM=F Big=F
 Integral buffers will be    131072 words long.
 Raffenetti 2 integral format.
 Two-electron integral symmetry is turned on.
 One-electron integrals computed using PRISM.
 NBasis=   114 RedAO= T EigKep=  1.67D-03  NBF=    33    24    24    33
 NBsUse=   114 1.00D-06 EigRej= -1.00D+00 NBFU=    33    24    24    33
 ExpMin= 5.57D-02 ExpMax= 1.40D+04 ExpMxC= 2.10D+03 IAcc=2 IRadAn=         4 AccDes= 0.00D+00
 Harris functional with IExCor=  205 and IRadAn=       4 diagonalized for initial guess.
 HarFok:  IExCor=  205 AccDes= 0.00D+00 IRadAn=         4 IDoV= 1 UseB2=F ITyADJ=14
 ICtDFT=  3500011 ScaDFX=  1.000000  1.000000  1.000000  1.000000
 FoFCou: FMM=F IPFlag=           0 FMFlag=      100000 FMFlg1=           0
         NFxFlg=           0 DoJE=T BraDBF=F KetDBF=T FulRan=T
         wScrn=  0.000000 ICntrl=     500 IOpCl=  0 I1Cent=   200000004 NGrid=           0
         NMat0=    1 NMatS0=      1 NMatT0=    0 NMatD0=    1 NMtDS0=    0 NMtDT0=    0
 Petite list used in FoFCou.
 Initial guess orbital symmetries:
 Alpha Orbitals:
       Occupied  (EG) (EG) (A2U) (EU) (EU) (A1G) (EU) (EU) (A1G)
                 (A2U) (EG) (EG) (A1G) (EU) (EU) (EG) (EG) (A2U)
                 (EG) (EG) (A1U) (EU) (EU) (A1G) (A2G) (A2U) (EU)
                 (EU) (EG) (EG) (A1G) (EU) (EU) (A2U) (EG) (EG)
                 (A1G) (EG) (EG) (A1G)
       Virtual   (EU) (EU) (A2U) (A1U) (EU) (EU) (EU) (EU) (A2U)
                 (EG) (EG) (A2G) (EG) (EG) (EG) (EG) (A1G) (A1G)
                 (EU) (EU) (A2U) (A1U) (A1G) (EG) (EG) (EU) (EU)
                 (EU) (EU) (A2U) (A2U) (EG) (EG) (A2G) (EG) (EG)
                 (EU) (EU) (EG) (EG) (A2U) (A1G) (A1U) (EU) (EU)
                 (A1G) (EG) (EG) (A2U) (EU) (EU) (EU) (EU) (A1G)
                 (EG) (EG) (EU) (EU) (A2G) (EG) (EG) (A1U) (A2U)
                 (EU) (EU) (EG) (EG) (A2G) (A1G) (EU) (EU) (A2U)
                 (EG) (EG)
 Beta  Orbitals:
       Occupied  (EG) (EG) (A2U) (EU) (EU) (A1G) (EU) (EU) (A1G)
                 (A2U) (EG) (EG) (A1G) (EU) (EU) (EG) (EG) (A2U)
                 (EG) (EG) (A1U) (EU) (EU) (A1G) (A2G) (A2U) (EU)
                 (EU) (EG) (EG) (A1G) (EU) (EU) (A2U) (EG) (EG)
                 (A1G) (EG) (EG)
       Virtual   (A1G) (EU) (EU) (A2U) (A1U) (EU) (EU) (EU) (EU)
                 (A2U) (EG) (EG) (A2G) (EG) (EG) (EG) (EG) (A1G)
                 (A1G) (EU) (EU) (A2U) (A1U) (A1G) (EG) (EG) (EU)
                 (EU) (EU) (EU) (A2U) (A2U) (EG) (EG) (A2G) (EG)
                 (EG) (EU) (EU) (EG) (EG) (A2U) (A1G) (A1U) (EU)
                 (EU) (A1G) (EG) (EG) (A2U) (EU) (EU) (EU) (EU)
                 (A1G) (EG) (EG) (EU) (EU) (A2G) (EG) (EG) (A1U)
                 (A2U) (EU) (EU) (EG) (EG) (A2G) (A1G) (EU) (EU)
                 (A2U) (EG) (EG)
 The electronic state of the initial guess is 2-A1G.
 Initial guess <Sx>= 0.0000 <Sy>= 0.0000 <Sz>= 0.5000 <S**2>= 0.7500 S= 0.5000
 Keep R1 and R2 ints in memory in symmetry-blocked form, NReq=26931894.
 Requested convergence on RMS density matrix=1.00D-08 within  64 cycles.
 Requested convergence on MAX density matrix=1.00D-06.
 Requested convergence on             energy=1.00D-06.
 No special actions if energy rises.
 SCF Done:  E(UHF) =  -1451.36204107     A.U. after   16 cycles
            NFock= 16  Conv=0.52D-08     -V/T= 2.0001
 <Sx>= 0.0000 <Sy>= 0.0000 <Sz>= 0.5000 <S**2>= 0.7728 S= 0.5113
 <L.S>= 0.000000000000E+00
 Annihilation of the first spin contaminant:
 S**2 before annihilation     0.7728,   after     0.7504
 QCSCF skips out because SCF is already converged.

 **********************************************************************

            Population analysis using the SCF density.

 **********************************************************************

 Orbital symmetries:
 Alpha Orbitals:
       Occupied  (A2U) (EU) (EU) (EG) (EG) (A1G) (A1G) (EU) (EU)
                 (A2U) (EG) (EG) (A1G) (EU) (EU) (EG) (EG) (A2U)
                 (A1G) (EU) (EU) (A2U) (EG) (EG) (EG) (EG) (A1U)
                 (EU) (EU) (A2G) (A1G) (EU) (EU) (A2U) (EG) (EG)
                 (A1G) (EG) (EG) (A1G)
       Virtual   (EU) (EU) (A2U) (A1U) (EU) (EU) (A2U) (EU) (EU)
                 (EG) (EG) (EG) (EG) (A2G) (A1G) (EG) (EG) (A1G)
                 (EU) (EU) (A2U) (A1U) (EU) (EU) (EG) (EG) (A1G)
                 (EU) (EU) (A2U) (EG) (EG) (A2U) (EG) (EG) (A2G)
                 (EU) (EU) (A2U) (EG) (EG) (A1G) (A1U) (EU) (EU)
                 (A1G) (EG) (EG) (EU) (EU) (A2U) (EG) (EG) (EU)
                 (EU) (A1G) (EU) (EU) (A2G) (EG) (EG) (A1U) (A2U)
                 (EU) (EU) (EG) (EG) (A2G) (A1G) (EU) (EU) (A2U)
                 (EG) (EG)
 Beta  Orbitals:
       Occupied  (EU) (EU) (A2U) (EG) (EG) (A1G) (A1G) (EU) (EU)
                 (A2U) (EG) (EG) (A1G) (EU) (EU) (A2U) (EG) (EG)
                 (EG) (EG) (A1U) (EU) (EU) (A2G) (A1G) (EU) (EU)
                 (A2U) (EG) (EG) (A1G) (EU) (EU) (A2U) (EG) (EG)
                 (A1G) (EG) (EG)
       Virtual   (A1G) (EU) (EU) (A2U) (A1U) (EU) (EU) (EU) (EU)
                 (A2U) (EG) (EG) (A2G) (EG) (EG) (A1G) (EG) (EG)
                 (EU) (EU) (A1G) (A2U) (A1U) (EU) (EU) (EG) (EG)
                 (A1G) (EU) (EU) (A2U) (EG) (EG) (A2G) (EG) (EG)
                 (A2U) (EU) (EU) (A2U) (EG) (EG) (A1G) (A1U) (EU)
                 (EU) (A1G) (EG) (EG) (EU) (EU) (A2U) (EG) (EG)
                 (EU) (EU) (A1G) (EU) (EU) (A2G) (EG) (EG) (A1U)
                 (A2U) (EU) (EU) (EG) (EG) (A2G) (A1G) (EU) (EU)
                 (A2U) (EG) (EG)
 The electronic state is 2-A1G.
 Alpha  occ. eigenvalues --  -58.32430 -58.32430 -58.32430 -58.32430 -58.32430
 Alpha  occ. eigenvalues --  -58.32428  -4.74547  -4.74536  -4.74536  -4.74532
 Alpha  occ. eigenvalues --   -4.74529  -4.74529  -3.05701  -3.05683  -3.05683
 Alpha  occ. eigenvalues --   -3.05658  -3.05658  -3.05655  -3.05604  -3.05562
 Alpha  occ. eigenvalues --   -3.05562  -3.05561  -3.05542  -3.05542  -3.05443
 Alpha  occ. eigenvalues --   -3.05443  -3.05439  -3.05427  -3.05427  -3.05410
 Alpha  occ. eigenvalues --   -0.51951  -0.33464  -0.33464  -0.31600  -0.13284
 Alpha  occ. eigenvalues --   -0.13284  -0.10071  -0.09865  -0.09865  -0.09717
 Alpha virt. eigenvalues --    0.11966   0.11966   0.12661   0.18746   0.19427
 Alpha virt. eigenvalues --    0.19427   0.21330   0.21441   0.21441   0.25800
 Alpha virt. eigenvalues --    0.25800   0.30655   0.30655   0.31102   0.33364
 Alpha virt. eigenvalues --    0.35439   0.35439   0.36178   0.37679   0.37679
 Alpha virt. eigenvalues --    0.39179   0.46098   0.48007   0.48007   0.50895
 Alpha virt. eigenvalues --    0.50895   0.51517   0.51736   0.51736   0.53213
 Alpha virt. eigenvalues --    0.55403   0.55403   0.57199   0.58205   0.58205
 Alpha virt. eigenvalues --    0.58321   0.65962   0.65962   0.67569   0.71052
 Alpha virt. eigenvalues --    0.71052   0.71543   0.78051   0.78607   0.78607
 Alpha virt. eigenvalues --    0.79976   0.86985   0.86985   0.88427   0.88427
 Alpha virt. eigenvalues --    0.89205   0.93250   0.93250   0.93295   0.93295
 Alpha virt. eigenvalues --    0.93339   1.05637   1.05637   1.06378   1.07708
 Alpha virt. eigenvalues --    1.07708   1.10098   1.11939   1.16419   1.16419
 Alpha virt. eigenvalues --    1.22142   1.22142   1.23102   2.35030   2.47655
 Alpha virt. eigenvalues --    2.47655   2.49330   2.55649   2.55649
  Beta  occ. eigenvalues --  -58.32380 -58.32380 -58.32380 -58.32380 -58.32380
  Beta  occ. eigenvalues --  -58.32378  -4.74490  -4.74481  -4.74481  -4.74476
  Beta  occ. eigenvalues --   -4.74474  -4.74474  -3.05601  -3.05560  -3.05560
  Beta  occ. eigenvalues --   -3.05544  -3.05528  -3.05528  -3.05437  -3.05437
  Beta  occ. eigenvalues --   -3.05426  -3.05418  -3.05418  -3.05400  -3.05304
  Beta  occ. eigenvalues --   -3.05286  -3.05286  -3.05274  -3.05271  -3.05271
  Beta  occ. eigenvalues --   -0.49757  -0.31730  -0.31730  -0.26695  -0.12947
  Beta  occ. eigenvalues --   -0.12947  -0.10011  -0.08593  -0.08593
  Beta virt. eigenvalues --    0.11242   0.12312   0.12312   0.13290   0.18995
  Beta virt. eigenvalues --    0.21464   0.21464   0.22202   0.22202   0.22574
  Beta virt. eigenvalues --    0.26253   0.26253   0.30902   0.31264   0.31264
  Beta virt. eigenvalues --    0.33608   0.35940   0.35940   0.37924   0.37924
  Beta virt. eigenvalues --    0.38771   0.39651   0.46490   0.49664   0.49664
  Beta virt. eigenvalues --    0.51372   0.51372   0.51888   0.51914   0.51914
  Beta virt. eigenvalues --    0.54504   0.56065   0.56065   0.58221   0.59141
  Beta virt. eigenvalues --    0.59141   0.59453   0.65971   0.65971   0.68278
  Beta virt. eigenvalues --    0.71658   0.71658   0.72354   0.78764   0.79273
  Beta virt. eigenvalues --    0.79273   0.80615   0.87771   0.87771   0.89003
  Beta virt. eigenvalues --    0.89003   0.89638   0.93755   0.93755   0.94063
  Beta virt. eigenvalues --    0.94063   0.94283   1.05946   1.05946   1.06921
  Beta virt. eigenvalues --    1.08011   1.08011   1.10327   1.12777   1.16997
  Beta virt. eigenvalues --    1.16997   1.22855   1.22855   1.23220   2.35238
  Beta virt. eigenvalues --    2.47843   2.47843   2.49493   2.55821   2.55821
          Condensed to atoms (all electrons):
               1          2          3          4          5          6
     1  Al  13.091686   0.027474   0.013141   0.010613   0.013141   0.010613
     2  Al   0.027474  13.091686   0.010613   0.013141   0.010613   0.013141
     3  Al   0.013141   0.010613  13.091686   0.010613   0.013141   0.027474
     4  Al   0.010613   0.013141   0.010613  13.091686   0.027474   0.013141
     5  Al   0.013141   0.010613   0.013141   0.027474  13.091686   0.010613
     6  Al   0.010613   0.013141   0.027474   0.013141   0.010613  13.091686
          Atomic-Atomic Spin Densities.
               1          2          3          4          5          6
     1  Al   0.267406   0.028556  -0.016439  -0.048208  -0.016439  -0.048208
     2  Al   0.028556   0.267406  -0.048208  -0.016439  -0.048208  -0.016439
     3  Al  -0.016439  -0.048208   0.267406  -0.048208  -0.016439   0.028556
     4  Al  -0.048208  -0.016439  -0.048208   0.267406   0.028556  -0.016439
     5  Al  -0.016439  -0.048208  -0.016439   0.028556   0.267406  -0.048208
     6  Al  -0.048208  -0.016439   0.028556  -0.016439  -0.048208   0.267406
 Mulliken charges and spin densities:
               1          2
     1  Al  -0.166667   0.166667
     2  Al  -0.166667   0.166667
     3  Al  -0.166667   0.166667
     4  Al  -0.166667   0.166667
     5  Al  -0.166667   0.166667
     6  Al  -0.166667   0.166667
 Sum of Mulliken charges =  -1.00000   1.00000
 Mulliken charges and spin densities with hydrogens summed into heavy atoms:
               1          2
     1  Al  -0.166667   0.166667
     2  Al  -0.166667   0.166667
     3  Al  -0.166667   0.166667
     4  Al  -0.166667   0.166667
     5  Al  -0.166667   0.166667
     6  Al  -0.166667   0.166667
 Electronic spatial extent (au):  <R**2>=           1262.3745
 Charge=             -1.0000 electrons
 Dipole moment (field-independent basis, Debye):
    X=              0.0000    Y=              0.0000    Z=              0.0000  Tot=              0.0000
 Quadrupole moment (field-independent basis, Debye-Ang):
   XX=           -102.3604   YY=           -102.3604   ZZ=            -99.1214
   XY=              0.0000   XZ=              0.0000   YZ=              0.0000
 Traceless Quadrupole moment (field-independent basis, Debye-Ang):
   XX=             -1.0797   YY=             -1.0797   ZZ=              2.1593
   XY=              0.0000   XZ=              0.0000   YZ=              0.0000
 Octapole moment (field-independent basis, Debye-Ang**2):
  XXX=              0.0000  YYY=              0.0000  ZZZ=              0.0000  XYY=              0.0000
  XXY=              0.0000  XXZ=              0.0000  XZZ=              0.0000  YZZ=              0.0000
  YYZ=              0.0000  XYZ=              0.0000
 Hexadecapole moment (field-independent basis, Debye-Ang**3):
 XXXX=          -1032.8567 YYYY=          -1032.8567 ZZZZ=           -893.6124 XXXY=              0.0000
 XXXZ=              0.0000 YYYX=              0.0000 YYYZ=              7.7224 ZZZX=              0.0000
 ZZZY=              0.0000 XXYY=           -344.2856 XXZZ=           -326.9373 YYZZ=           -326.9373
 XXYZ=             -7.7224 YYXZ=              0.0000 ZZXY=              0.0000
 N-N= 4.634518825791D+02 E-N=-4.409951499763D+03  KE= 1.451224260820D+03
 Symmetry AG   KE= 4.656641740550D+02
 Symmetry BG   KE= 2.623502857943D+02
 Symmetry AU   KE= 2.608090859195D+02
 Symmetry BU   KE= 4.624007150511D+02
                          Isotropic Fermi Contact Couplings
        Atom                 a.u.       MegaHertz       Gauss      10(-4) cm-1
     1  Al(27)            -0.04250     -49.53628     -17.67578     -16.52352
     2  Al(27)            -0.04250     -49.53628     -17.67578     -16.52352
     3  Al(27)            -0.04250     -49.53628     -17.67578     -16.52352
     4  Al(27)            -0.04250     -49.53628     -17.67578     -16.52352
     5  Al(27)            -0.04250     -49.53628     -17.67578     -16.52352
     6  Al(27)            -0.04250     -49.53628     -17.67578     -16.52352
 --------------------------------------------------------
       Center         ----  Spin Dipole Couplings  ----
                      3XX-RR        3YY-RR        3ZZ-RR
 --------------------------------------------------------
     1   Atom       -0.112702     -0.046842      0.159544
     2   Atom       -0.112702     -0.046842      0.159544
     3   Atom       -0.063307     -0.096237      0.159544
     4   Atom       -0.063307     -0.096237      0.159544
     5   Atom       -0.063307     -0.096237      0.159544
     6   Atom       -0.063307     -0.096237      0.159544
 --------------------------------------------------------
                        XY            XZ            YZ
 --------------------------------------------------------
     1   Atom        0.000000      0.000000     -0.122258
     2   Atom        0.000000      0.000000     -0.122258
     3   Atom       -0.028518     -0.105878      0.061129
     4   Atom        0.028518      0.105878      0.061129
     5   Atom        0.028518      0.105878      0.061129
     6   Atom       -0.028518     -0.105878      0.061129
 --------------------------------------------------------


 ---------------------------------------------------------------------------------
              Anisotropic Spin Dipole Couplings in Principal Axis System
 ---------------------------------------------------------------------------------

       Atom             a.u.   MegaHertz   Gauss  10(-4) cm-1        Axes

              Baa    -0.1127   -15.681    -5.595    -5.231  1.0000  0.0000  0.0000
     1 Al(27) Bbb    -0.1036   -14.420    -5.145    -4.810  0.0000  0.9069  0.4213
              Bcc     0.2163    30.100    10.741    10.040  0.0000 -0.4213  0.9069
 
              Baa    -0.1127   -15.681    -5.595    -5.231  1.0000  0.0000  0.0000
     2 Al(27) Bbb    -0.1036   -14.420    -5.145    -4.810  0.0000  0.9069  0.4213
              Bcc     0.2163    30.100    10.741    10.040  0.0000 -0.4213  0.9069
 
              Baa    -0.1127   -15.681    -5.595    -5.231  0.5000  0.8660  0.0000
     3 Al(27) Bbb    -0.1036   -14.420    -5.145    -4.810  0.7854 -0.4535  0.4213
              Bcc     0.2163    30.100    10.741    10.040 -0.3649  0.2107  0.9069
 
              Baa    -0.1127   -15.681    -5.595    -5.231 -0.5000  0.8660  0.0000
     4 Al(27) Bbb    -0.1036   -14.420    -5.145    -4.810  0.7854  0.4535 -0.4213
              Bcc     0.2163    30.100    10.741    10.040  0.3649  0.2107  0.9069
 
              Baa    -0.1127   -15.681    -5.595    -5.231 -0.5000  0.8660  0.0000
     5 Al(27) Bbb    -0.1036   -14.420    -5.145    -4.810  0.7854  0.4535 -0.4213
              Bcc     0.2163    30.100    10.741    10.040  0.3649  0.2107  0.9069
 
              Baa    -0.1127   -15.681    -5.595    -5.231  0.5000  0.8660  0.0000
     6 Al(27) Bbb    -0.1036   -14.420    -5.145    -4.810  0.7854 -0.4535  0.4213
              Bcc     0.2163    30.100    10.741    10.040 -0.3649  0.2107  0.9069
 

 ---------------------------------------------------------------------------------


 Test job not archived.
 1\1\GINC-R1I0N10\SP\UHF\6-31G(d)\Al6(1-,2)\VSC31064\04-Oct-2016\0\\# h
 f/6-31G* test scf=xqc\\Al6-a-d\\-1,2\Al,0,0.,-1.62115269,1.04542966\Al
 ,0,0.,1.62115269,-1.04542966\Al,0,-1.40395941,0.81057634,1.04542966\Al
 ,0,-1.40395941,-0.81057634,-1.04542966\Al,0,1.40395941,0.81057634,1.04
 542966\Al,0,1.40395941,-0.81057634,-1.04542966\\Version=ES64L-G09RevD.
 01\State=2-A1G\HF=-1451.3620411\S2=0.77278\S2-1=0.\S2A=0.750417\RMSD=5
 .226e-09\Dipole=0.,0.,0.\Quadrupole=-0.8027059,-0.8027059,1.6054117,0.
 ,0.,0.\PG=D03D [3SGD(Al2)]\\@


 Happiness is a conscious choice, not an automatic response.
 -- Mildred Barthel
 Job cpu time:       0 days  0 hours  2 minutes 25.7 seconds.
 File lengths (MBytes):  RWF=     10 Int=      0 D2E=      0 Chk=      2 Scr=      1
 Normal termination of Gaussian 09 at Tue Oct  4 07:05:14 2016.
 Initial command:
 /apps/leuven/thinking/software/G09//g09D1/l1.exe "/local_scratch/vsc31064/Gau-8695.inp" -scrdir="/local_scratch/vsc31064/"
 Entering Link 1 = /apps/leuven/thinking/software/G09//g09D1/l1.exe PID=      8926.
  
 Copyright (c) 1988,1990,1992,1993,1995,1998,2003,2009,2013,
            Gaussian, Inc.  All Rights Reserved.
  
 This is part of the Gaussian(R) 09 program.  It is based on
 the Gaussian(R) 03 system (copyright 2003, Gaussian, Inc.),
 the Gaussian(R) 98 system (copyright 1998, Gaussian, Inc.),
 the Gaussian(R) 94 system (copyright 1995, Gaussian, Inc.),
 the Gaussian 92(TM) system (copyright 1992, Gaussian, Inc.),
 the Gaussian 90(TM) system (copyright 1990, Gaussian, Inc.),
 the Gaussian 88(TM) system (copyright 1988, Gaussian, Inc.),
 the Gaussian 86(TM) system (copyright 1986, Carnegie Mellon
 University), and the Gaussian 82(TM) system (copyright 1983,
 Carnegie Mellon University). Gaussian is a federally registered
 trademark of Gaussian, Inc.
  
 This software contains proprietary and confidential information,
 including trade secrets, belonging to Gaussian, Inc.
  
 This software is provided under written license and may be
 used, copied, transmitted, or stored only in accord with that
 written license.
  
 The following legend is applicable only to US Government
 contracts under FAR:
  
                    RESTRICTED RIGHTS LEGEND
  
 Use, reproduction and disclosure by the US Government is
 subject to restrictions as set forth in subparagraphs (a)
 and (c) of the Commercial Computer Software - Restricted
 Rights clause in FAR 52.227-19.
  
 Gaussian, Inc.
 340 Quinnipiac St., Bldg. 40, Wallingford CT 06492
  
  
 ---------------------------------------------------------------
 Warning -- This program may not be used in any manner that
 competes with the business of Gaussian, Inc. or will provide
 assistance to any competitor of Gaussian, Inc.  The licensee
 of this program is prohibited from giving any competitor of
 Gaussian, Inc. access to this program.  By using this program,
 the user acknowledges that Gaussian, Inc. is engaged in the
 business of creating and licensing software in the field of
 computational chemistry and represents and warrants to the
 licensee that it is not a competitor of Gaussian, Inc. and that
 it will not use this program in any manner prohibited above.
 ---------------------------------------------------------------
  

 Cite this work as:
 Gaussian 09, Revision D.01,
 M. J. Frisch, G. W. Trucks, H. B. Schlegel, G. E. Scuseria, 
 M. A. Robb, J. R. Cheeseman, G. Scalmani, V. Barone, B. Mennucci, 
 G. A. Petersson, H. Nakatsuji, M. Caricato, X. Li, H. P. Hratchian, 
 A. F. Izmaylov, J. Bloino, G. Zheng, J. L. Sonnenberg, M. Hada, 
 M. Ehara, K. Toyota, R. Fukuda, J. Hasegawa, M. Ishida, T. Nakajima, 
 Y. Honda, O. Kitao, H. Nakai, T. Vreven, J. A. Montgomery, Jr., 
 J. E. Peralta, F. Ogliaro, M. Bearpark, J. J. Heyd, E. Brothers, 
 K. N. Kudin, V. N. Staroverov, T. Keith, R. Kobayashi, J. Normand, 
 K. Raghavachari, A. Rendell, J. C. Burant, S. S. Iyengar, J. Tomasi, 
 M. Cossi, N. Rega, J. M. Millam, M. Klene, J. E. Knox, J. B. Cross, 
 V. Bakken, C. Adamo, J. Jaramillo, R. Gomperts, R. E. Stratmann, 
 O. Yazyev, A. J. Austin, R. Cammi, C. Pomelli, J. W. Ochterski, 
 R. L. Martin, K. Morokuma, V. G. Zakrzewski, G. A. Voth, 
 P. Salvador, J. J. Dannenberg, S. Dapprich, A. D. Daniels, 
 O. Farkas, J. B. Foresman, J. V. Ortiz, J. Cioslowski, 
 and D. J. Fox, Gaussian, Inc., Wallingford CT, 2013.
 
 ******************************************
 Gaussian 09:  ES64L-G09RevD.01 24-Apr-2013
                 4-Oct-2016 
 ******************************************
 %NprocShared=20
 Will use up to   20 processors via shared memory.
 %mem=55000mb
 %chk=cc-Al6-a-d
 --------------------------------------------------------
 # CCSD(T,conver=5)/cc-pVTZ test geom=allcheck guess=read
 --------------------------------------------------------
 1/29=7,38=1/1;
 2/12=2,40=1/2;
 3/5=16,6=1,11=9,14=-4,16=1,25=1,30=1,116=-2/1,2,3;
 4/5=1/1;
 5/5=2,38=6/2;
 8/6=4,9=120000,10=1/1,4;
 9/5=7,9=5,14=2/13;
 6/7=2,8=2,9=2,10=2/1;
 99/5=1,9=1/99;
 Structure from the checkpoint file:  "cc-Al6-a-d.chk"
 -------
 Al6-a-d
 -------
 Charge = -1 Multiplicity = 2
 Z-Matrix found in file.
 Al,0,0.,-1.62115269,1.04542966
 Al,0,0.,1.62115269,-1.04542966
 Al,0,-1.40395941,0.81057634,1.04542966
 Al,0,-1.40395941,-0.81057634,-1.04542966
 Al,0,1.40395941,0.81057634,1.04542966
 Al,0,1.40395941,-0.81057634,-1.04542966
 Recover connectivity data from disk.
                          Input orientation:                          
 ---------------------------------------------------------------------
 Center     Atomic      Atomic             Coordinates (Angstroms)
 Number     Number       Type             X           Y           Z
 ---------------------------------------------------------------------
      1         13           0        0.000000   -1.621153    1.045430
      2         13           0        0.000000    1.621153   -1.045430
      3         13           0       -1.403959    0.810576    1.045430
      4         13           0       -1.403959   -0.810576   -1.045430
      5         13           0        1.403959    0.810576    1.045430
      6         13           0        1.403959   -0.810576   -1.045430
 ---------------------------------------------------------------------
                    Distance matrix (angstroms):
                    1          2          3          4          5
     1  Al   0.000000
     2  Al   3.858009   0.000000
     3  Al   2.807919   2.645719   0.000000
     4  Al   2.645719   2.807919   2.645719   0.000000
     5  Al   2.807919   2.645719   2.807919   3.858009   0.000000
     6  Al   2.645719   2.807919   3.858009   2.807919   2.645719
                    6
     6  Al   0.000000
 Stoichiometry    Al6(1-,2)
 Framework group  D3D[3SGD(Al2)]
 Deg. of freedom     2
 Full point group                 D3D     NOp  12
 Largest Abelian subgroup         C2H     NOp   4
 Largest concise Abelian subgroup C2H     NOp   4
                         Standard orientation:                         
 ---------------------------------------------------------------------
 Center     Atomic      Atomic             Coordinates (Angstroms)
 Number     Number       Type             X           Y           Z
 ---------------------------------------------------------------------
      1         13           0        0.000000    1.621153    1.045430
      2         13           0        0.000000   -1.621153   -1.045430
      3         13           0        1.403959   -0.810576    1.045430
      4         13           0        1.403959    0.810576   -1.045430
      5         13           0       -1.403959   -0.810576    1.045430
      6         13           0       -1.403959    0.810576   -1.045430
 ---------------------------------------------------------------------
 Rotational constants (GHZ):      1.2969543      1.2969543      1.1878220
 Standard basis: CC-pVTZ (5D, 7F)
 There are    66 symmetry adapted cartesian basis functions of AG  symmetry.
 There are    51 symmetry adapted cartesian basis functions of BG  symmetry.
 There are    51 symmetry adapted cartesian basis functions of AU  symmetry.
 There are    66 symmetry adapted cartesian basis functions of BU  symmetry.
 There are    57 symmetry adapted basis functions of AG  symmetry.
 There are    45 symmetry adapted basis functions of BG  symmetry.
 There are    45 symmetry adapted basis functions of AU  symmetry.
 There are    57 symmetry adapted basis functions of BU  symmetry.
   204 basis functions,   570 primitive gaussians,   234 cartesian basis functions
    40 alpha electrons       39 beta electrons
       nuclear repulsion energy       463.4518825791 Hartrees.
 NAtoms=    6 NActive=    6 NUniq=    1 SFac= 4.00D+00 NAtFMM=   60 NAOKFM=F Big=F
 Integral buffers will be    131072 words long.
 Raffenetti 2 integral format.
 Two-electron integral symmetry is turned on.
 One-electron integrals computed using PRISM.
 NBasis=   204 RedAO= T EigKep=  4.44D-04  NBF=    57    45    45    57
 NBsUse=   204 1.00D-06 EigRej= -1.00D+00 NBFU=    57    45    45    57
 Initial guess from the checkpoint file:  "cc-Al6-a-d.chk"
 B after Tr=     0.000000    0.000000    0.000000
         Rot=    1.000000    0.000000    0.000000    0.000000 Ang=   0.00 deg.
 Initial guess orbital symmetries:
 Alpha Orbitals:
       Occupied  (A2U) (EU) (EU) (EG) (EG) (A1G) (A1G) (EU) (EU)
                 (A2U) (EG) (EG) (A1G) (EU) (EU) (EG) (EG) (A2U)
                 (A1G) (EU) (EU) (A2U) (EG) (EG) (EG) (EG) (A1U)
                 (EU) (EU) (A2G) (A1G) (EU) (EU) (A2U) (EG) (EG)
                 (A1G) (EG) (EG) (A1G)
       Virtual   (A2U) (A2U) (A2U) (A2U) (A2U) (A2U) (A2U) (A2U)
                 (A2U) (A2U) (A2U) (A2U) (A2U) (A2U) (A2U) (A2U)
                 (A2U) (A2U) (A2U) (A2U) (A2U) (A2U) (A2U) (A2U)
                 (A2U) (A2U) (A2U) (A2U) (A2U) (A2U) (A2U) (A2U)
                 (A2U) (A2U) (A2U) (A2U) (A2U) (A2U) (A2U) (A2U)
                 (A2U) (A2U) (A2U) (A2U) (A2U) (A2U) (A2U) (A2U)
                 (A2U) (A2U) (A2U) (A2U) (A2U) (A2U) (A2U) (A2U)
                 (A2U) (A2U) (A2U) (A2U) (A2U) (A2U) (A2U) (A2U)
                 (A2U) (A2U) (A2U) (A2U) (A2U) (A2U) (A2U) (A2U)
                 (A2U) (A2U) (A2U) (A2U) (A2U) (A2U) (A2U) (A2U)
                 (?A) (?A) (?A) (?A) (?A) (?A) (?A) (?A) (?A) (?A)
                 (?A) (?A) (?A) (?A) (?A) (?A) (?A) (?A) (?A) (?A)
                 (?A) (?A) (?A) (?A) (?A) (?A) (?A) (?A) (?A) (?A)
                 (?A) (?A) (?A) (?A) (?A) (?A) (?A) (?A) (?A) (?A)
                 (?A) (?A) (?A) (?A) (?A) (?A) (?A) (?A) (?A) (?A)
                 (?A) (?A) (?A) (?A) (?A) (?A) (?A) (?A) (?A) (?A)
                 (?A) (?A) (?A) (?A) (?A) (?A) (?A) (?A) (?A) (?A)
                 (?A) (?A) (?A) (?A) (?A) (?A) (?A) (?A) (?A) (?A)
                 (?A) (?A) (?A) (?A)
 Beta  Orbitals:
       Occupied  (EU) (EU) (A2U) (EG) (EG) (A1G) (A1G) (EU) (EU)
                 (A2U) (EG) (EG) (A1G) (EU) (EU) (A2U) (EG) (EG)
                 (EG) (EG) (A1U) (EU) (EU) (A2G) (A1G) (EU) (EU)
                 (A2U) (EG) (EG) (A1G) (EU) (EU) (A2U) (EG) (EG)
                 (A1G) (EG) (EG)
       Virtual   (A2U) (A2U) (A2U) (A2U) (A2U) (A2U) (A2U) (A2U)
                 (A2U) (A2U) (A2U) (A2U) (A2U) (A2U) (A2U) (A2U)
                 (A2U) (A2U) (A2U) (A2U) (A2U) (A2U) (A2U) (A2U)
                 (A2U) (A2U) (A2U) (A2U) (A2U) (A2U) (A2U) (A2U)
                 (A2U) (A2U) (A2U) (A2U) (A2U) (A2U) (A2U) (A2U)
                 (A2U) (A2U) (A2U) (A2U) (A2U) (A2U) (A2U) (A2U)
                 (A2U) (A2U) (A2U) (A2U) (A2U) (A2U) (A2U) (A2U)
                 (A2U) (A2U) (A2U) (A2U) (A2U) (A2U) (A2U) (A2U)
                 (A2U) (A2U) (A2U) (A2U) (A2U) (A2U) (A2U) (A2U)
                 (A2U) (A2U) (A2U) (A2U) (A2U) (A2U) (A2U) (A2U)
                 (A2U) (?A) (?A) (?A) (?A) (?A) (?A) (?A) (?A)
                 (?A) (?A) (?A) (?A) (?A) (?A) (?A) (?A) (?A) (?A)
                 (?A) (?A) (?A) (?A) (?A) (?A) (?A) (?A) (?A) (?A)
                 (?A) (?A) (?A) (?A) (?A) (?A) (?A) (?A) (?A) (?A)
                 (?A) (?A) (?A) (?A) (?A) (?A) (?A) (?A) (?A) (?A)
                 (?A) (?A) (?A) (?A) (?A) (?A) (?A) (?A) (?A) (?A)
                 (?A) (?A) (?A) (?A) (?A) (?A) (?A) (?A) (?A) (?A)
                 (?A) (?A) (?A) (?A) (?A) (?A) (?A) (?A) (?A) (?A)
                 (?A) (?A) (?A) (?A) (?A) (?A)
 Initial guess <Sx>= 0.0000 <Sy>= 0.0000 <Sz>= 0.5000 <S**2>= 0.7739 S= 0.5119
 Keep R1 and R2 ints in memory in symmetry-blocked form, NReq=273545504.
 Requested convergence on RMS density matrix=1.00D-08 within 128 cycles.
 Requested convergence on MAX density matrix=1.00D-06.
 Requested convergence on             energy=1.00D-06.
 No special actions if energy rises.
 SCF Done:  E(UHF) =  -1451.50242413     A.U. after   15 cycles
            NFock= 15  Conv=0.80D-08     -V/T= 1.9999
 <Sx>= 0.0000 <Sy>= 0.0000 <Sz>= 0.5000 <S**2>= 0.7885 S= 0.5191
 <L.S>= 0.000000000000E+00
 Annihilation of the first spin contaminant:
 S**2 before annihilation     0.7885,   after     0.7511
 ExpMin= 5.56D-02 ExpMax= 2.06D+05 ExpMxC= 1.99D+03 IAcc=3 IRadAn=         5 AccDes= 0.00D+00
 HarFok:  IExCor=  205 AccDes= 0.00D+00 IRadAn=         5 IDoV=-2 UseB2=F ITyADJ=14
 ICtDFT= 12500011 ScaDFX=  1.000000  1.000000  1.000000  1.000000
 DSYEVD-2 returned Info=          69 IAlg= 4 N=    34 NDim=    34 NE2=   212024583 trying  DSYEV.
 DSYEVD-2 returned Info=          69 IAlg= 4 N=    34 NDim=    34 NE2=   212024583 trying  DSYEV.
 DSYEVD-2 returned Info=          69 IAlg= 4 N=    34 NDim=    34 NE2=   212024583 trying  DSYEV.
 Range of M.O.s used for correlation:    31   204
 NBasis=   204 NAE=    40 NBE=    39 NFC=    30 NFV=     0
 NROrb=    174 NOA=    10 NOB=     9 NVA=   164 NVB=   165
 Semi-Direct transformation.
 ModeAB=           4 MOrb=            10 LenV=    7207673471
 LASXX=      6323058 LTotXX=     6323058 LenRXX=    12778947
 LTotAB=     6455889 MaxLAS=    14285400 LenRXY=           0
 NonZer=    19102005 LenScr=    29417472 LnRSAI=    14285400
 LnScr1=    22182912 LExtra=           0 Total=     78664731
 MaxDsk=          -1 SrtSym=           T ITran=            4
 JobTyp=1 Pass  1:  I=   1 to  10.
 (rs|ai) integrals will be sorted in core.
 ModeAB=           4 MOrb=             9 LenV=    7207673471
 LASXX=      5710779 LTotXX=     5710779 LenRXX=    10888518
 LTotAB=     5177739 MaxLAS=    12856860 LenRXY=           0
 NonZer=    16599297 LenScr=    25665024 LnRSAI=    12856860
 LnScr1=    20047872 LExtra=           0 Total=     69458274
 MaxDsk=          -1 SrtSym=           T ITran=            4
 JobTyp=2 Pass  1:  I=   1 to   9.
 (rs|ai) integrals will be sorted in core.
 Spin components of T(2) and E(2):
     alpha-alpha T2 =       0.1004199045D+00 E2=     -0.8782057898D-01
     alpha-beta  T2 =       0.4005694808D+00 E2=     -0.3942635782D+00
     beta-beta   T2 =       0.7685074039D-01 E2=     -0.6782665902D-01
 ANorm=    0.1256121063D+01
 E2 =    -0.5499108162D+00 EUMP2 =    -0.14520523349457D+04
 (S**2,0)=  0.78851D+00           (S**2,1)=  0.76487D+00
 E(PUHF)=      -0.14515057916D+04        E(PMP2)=      -0.14520546863D+04
 Keep R2 and R3 ints in memory in symmetry-blocked form, NReq=273357348.
 Iterations=  50 Convergence= 0.100D-04
 Iteration Nr.   1
 **********************
 DD1Dir will call FoFMem   1 times, MxPair=       262
 NAB=    90 NAA=    45 NBB=    36.
 E(PMP3)=      -0.14520157291D+04
 MP4(R+Q)=  0.45114157D-01
 E3=        0.37917351D-01        EUMP3=      -0.14520144176D+04
 E4(DQ)=   -0.27926118D-02        UMP4(DQ)=   -0.14520172102D+04
 E4(SDQ)=  -0.92723696D-02        UMP4(SDQ)=  -0.14520236900D+04
 DE(Corr)= -0.46665438     E(Corr)=     -1451.9690785    
 NORM(A)=   0.11920479D+01
 Iteration Nr.   2
 **********************
 DD1Dir will call FoFMem   1 times, MxPair=       262
 NAB=    90 NAA=    45 NBB=    36.
 DE(Corr)= -0.52190718     E(CORR)=     -1452.0243313     Delta=-5.53D-02
 NORM(A)=   0.12305351D+01
 Iteration Nr.   3
 **********************
 DD1Dir will call FoFMem   1 times, MxPair=       262
 NAB=    90 NAA=    45 NBB=    36.
 DE(Corr)= -0.51401027     E(CORR)=     -1452.0164344     Delta= 7.90D-03
 NORM(A)=   0.12350632D+01
 Iteration Nr.   4
 **********************
 DD1Dir will call FoFMem   1 times, MxPair=       262
 NAB=    90 NAA=    45 NBB=    36.
 DE(Corr)= -0.51726706     E(CORR)=     -1452.0196912     Delta=-3.26D-03
 NORM(A)=   0.12377915D+01
 Iteration Nr.   5
 **********************
 DD1Dir will call FoFMem   1 times, MxPair=       262
 NAB=    90 NAA=    45 NBB=    36.
 DE(Corr)= -0.51773365     E(CORR)=     -1452.0201578     Delta=-4.67D-04
 NORM(A)=   0.12395726D+01
 Iteration Nr.   6
 **********************
 DD1Dir will call FoFMem   1 times, MxPair=       262
 NAB=    90 NAA=    45 NBB=    36.
 DE(Corr)= -0.51776015     E(CORR)=     -1452.0201843     Delta=-2.65D-05
 NORM(A)=   0.12396192D+01
 Iteration Nr.   7
 **********************
 DD1Dir will call FoFMem   1 times, MxPair=       262
 NAB=    90 NAA=    45 NBB=    36.
 DE(Corr)= -0.51779093     E(CORR)=     -1452.0202151     Delta=-3.08D-05
 NORM(A)=   0.12396330D+01
 Iteration Nr.   8
 **********************
 DD1Dir will call FoFMem   1 times, MxPair=       262
 NAB=    90 NAA=    45 NBB=    36.
 DE(Corr)= -0.51778152     E(CORR)=     -1452.0202056     Delta= 9.41D-06
 NORM(A)=   0.12396478D+01
 Iteration Nr.   9
 **********************
 DD1Dir will call FoFMem   1 times, MxPair=       262
 NAB=    90 NAA=    45 NBB=    36.
 DE(Corr)= -0.51778991     E(CORR)=     -1452.0202140     Delta=-8.39D-06
 NORM(A)=   0.12396711D+01
 Iteration Nr.  10
 **********************
 DD1Dir will call FoFMem   1 times, MxPair=       262
 NAB=    90 NAA=    45 NBB=    36.
 DE(Corr)= -0.51777814     E(CORR)=     -1452.0202023     Delta= 1.18D-05
 NORM(A)=   0.12396706D+01
 Iteration Nr.  11
 **********************
 DD1Dir will call FoFMem   1 times, MxPair=       262
 NAB=    90 NAA=    45 NBB=    36.
 DE(Corr)= -0.51778956     E(CORR)=     -1452.0202137     Delta=-1.14D-05
 NORM(A)=   0.12396882D+01
 Iteration Nr.  12
 **********************
 DD1Dir will call FoFMem   1 times, MxPair=       262
 NAB=    90 NAA=    45 NBB=    36.
 DE(Corr)= -0.51778539     E(CORR)=     -1452.0202095     Delta= 4.18D-06
 NORM(A)=   0.12396943D+01
 Largest amplitude= 6.90D-02
 Time for triples=      878.09 seconds.
 T4(CCSD)= -0.68551045D-01
 T5(CCSD)=  0.13825642D-02
 CCSD(T)= -0.14520873780D+04

 S**2, projected HF & approx projected MPn energies after annihilation of
 unwanted spin states (see manual for definitions):

 spins       (S**2,0) (S**2,1)    PUHF        PMP2        PMP3        PMP4
 annihilated
 s+1         0.74935  0.75014-1451.505792-1452.054686-1452.015729
 s+1,s+2     0.75000  0.75000-1451.505748-1452.054645-1452.015693
 s+1 to s+3  0.75000  0.75000-1451.505749-1452.054646-1452.015693
 s+1 to s+4  0.75000  0.75000-1451.505749-1452.054645-1452.015692
 s+1 to s+5  0.75000  0.75000-1451.505749
 s+1 to s+6  0.75000  0.75000-1451.505749

 Discarding MO integrals.

 **********************************************************************

            Population analysis using the SCF density.

 **********************************************************************

 Orbital symmetries:
 Alpha Orbitals:
       Occupied  (A1G) (EU) (EU) (A2U) (EG) (EG) (A1G) (EU) (EU)
                 (A2U) (EG) (EG) (A1G) (EU) (EU) (A2U) (EG) (EG)
                 (A1G) (EU) (EU) (A2U) (EG) (EG) (EG) (EG) (A1U)
                 (EU) (EU) (A2G) (A1G) (EU) (EU) (A2U) (EG) (EG)
                 (A1G) (A1G) (EG) (EG)
       Virtual   (EU) (EU) (A2U) (A1U) (EU) (EU) (A2U) (EU) (EU)
                 (EG) (EG) (A1G) (EG) (EG) (A2G) (A2U) (A1G) (EG)
                 (EG) (EU) (EU) (A2U) (A1U) (EU) (EU) (EG) (EG)
                 (A1G) (EU) (EU) (EG) (EG) (A2G) (A2U) (EG) (EG)
                 (A1G) (EG) (EG) (EU) (EU) (A2U) (EU) (EU) (A1U)
                 (EU) (EU) (A1G) (EG) (EG) (EG) (EG) (A2G) (EU)
                 (EU) (A1U) (A2U) (A1G) (EU) (EU) (A2U) (EU) (EU)
                 (EG) (EG) (EG) (EG) (A2G) (A2U) (EG) (EG) (A1G)
                 (A1U) (EU) (EU) (EU) (EU) (EG) (EG) (A1G) (A2U)
                 (EG) (EG) (EU) (EU) (A1G) (A2U) (EU) (EU) (A1G)
                 (EG) (EG) (A2G) (EG) (EG) (A2G) (A1U) (EU) (EU)
                 (EG) (EG) (EU) (EU) (A2U) (A2U) (A1G) (A1U) (A2U)
                 (A1G) (A2G) (EG) (EG) (EU) (EU) (EU) (EU) (EG)
                 (EG) (A1U) (EU) (EU) (EG) (EG) (EG) (EG) (EU)
                 (EU) (A1G) (EU) (EU) (A2U) (EG) (EG) (A2G) (EU)
                 (EU) (A1U) (EG) (EG) (A2G) (A1G) (EG) (EG) (A2U)
                 (EU) (EU) (A1G) (EG) (EG) (A2U) (EU) (EU) (A1U)
                 (EU) (EU) (A1G) (EG) (EG) (A2G) (EU) (EU) (EG)
                 (EG) (A2U)
 Beta  Orbitals:
       Occupied  (A1G) (EU) (EU) (A2U) (EG) (EG) (A1G) (EU) (EU)
                 (A2U) (EG) (EG) (A1G) (EU) (EU) (A2U) (EG) (EG)
                 (EG) (EG) (A1U) (EU) (EU) (A2G) (A1G) (EU) (EU)
                 (A2U) (EG) (EG) (A1G) (EU) (EU) (A2U) (EG) (EG)
                 (A1G) (EG) (EG)
       Virtual   (A1G) (EU) (EU) (A2U) (A1U) (EU) (EU) (A2U) (EU)
                 (EU) (EG) (EG) (A2G) (A1G) (EG) (EG) (A2U) (EG)
                 (EG) (EU) (EU) (A2U) (A1G) (A1U) (EU) (EU) (A1G)
                 (EG) (EG) (EU) (EU) (A2G) (EG) (EG) (A2U) (EG)
                 (EG) (A1G) (EU) (EU) (EG) (EG) (A2U) (EU) (EU)
                 (A1U) (EU) (EU) (A1G) (EG) (EG) (EG) (EG) (A2G)
                 (A1U) (EU) (EU) (A1G) (A2U) (EU) (EU) (A2U) (EU)
                 (EU) (EG) (EG) (A2G) (EG) (EG) (A2U) (EG) (EG)
                 (A1G) (A1U) (EU) (EU) (EU) (EU) (EG) (EG) (A2U)
                 (A1G) (EG) (EG) (EU) (EU) (A1G) (A2U) (EU) (EU)
                 (A1G) (A2G) (EG) (EG) (EG) (EG) (A2G) (A1U) (EU)
                 (EU) (EG) (EG) (EU) (EU) (A2U) (A2U) (A1G) (A1U)
                 (A2U) (EG) (EG) (A2G) (A1G) (EU) (EU) (EU) (EU)
                 (EG) (EG) (A1U) (EU) (EU) (EG) (EG) (EG) (EG)
                 (EU) (EU) (A1G) (EU) (EU) (A2U) (EG) (EG) (A2G)
                 (EU) (EU) (A1U) (EG) (EG) (A2G) (A1G) (EG) (EG)
                 (A2U) (EU) (EU) (A1G) (EG) (EG) (A2U) (EU) (EU)
                 (A1U) (EU) (EU) (A1G) (EG) (EG) (A2G) (EU) (EU)
                 (EG) (EG) (A2U)
 The electronic state is 2-A1G.
 Alpha  occ. eigenvalues --  -58.33287 -58.33287 -58.33287 -58.33287 -58.33287
 Alpha  occ. eigenvalues --  -58.33287  -4.74542  -4.74531  -4.74531  -4.74526
 Alpha  occ. eigenvalues --   -4.74523  -4.74523  -3.05733  -3.05715  -3.05715
 Alpha  occ. eigenvalues --   -3.05695  -3.05695  -3.05695  -3.05610  -3.05568
 Alpha  occ. eigenvalues --   -3.05568  -3.05557  -3.05542  -3.05542  -3.05489
 Alpha  occ. eigenvalues --   -3.05489  -3.05484  -3.05471  -3.05471  -3.05455
 Alpha  occ. eigenvalues --   -0.51318  -0.32937  -0.32937  -0.31415  -0.13057
 Alpha  occ. eigenvalues --   -0.13057  -0.10559  -0.10076  -0.09575  -0.09575
 Alpha virt. eigenvalues --    0.12287   0.12287   0.12816   0.18768   0.19331
 Alpha virt. eigenvalues --    0.19331   0.20502   0.20815   0.20815   0.23970
 Alpha virt. eigenvalues --    0.23970   0.28957   0.29211   0.29211   0.29567
 Alpha virt. eigenvalues --    0.30635   0.33138   0.33293   0.33293   0.33891
 Alpha virt. eigenvalues --    0.33891   0.34353   0.36269   0.36970   0.36970
 Alpha virt. eigenvalues --    0.40184   0.40184   0.40741   0.45590   0.45590
 Alpha virt. eigenvalues --    0.45874   0.45874   0.46294   0.46764   0.47989
 Alpha virt. eigenvalues --    0.47989   0.49636   0.53685   0.53685   0.53806
 Alpha virt. eigenvalues --    0.53806   0.54741   0.55160   0.55160   0.55604
 Alpha virt. eigenvalues --    0.59509   0.59509   0.62836   0.64461   0.64461
 Alpha virt. eigenvalues --    0.67159   0.67159   0.68637   0.69549   0.69549
 Alpha virt. eigenvalues --    0.69801   0.71371   0.71880   0.73888   0.73888
 Alpha virt. eigenvalues --    0.76472   0.77639   0.77639   0.79884   0.79884
 Alpha virt. eigenvalues --    0.81929   0.81929   0.82168   0.82839   0.90424
 Alpha virt. eigenvalues --    0.90424   0.91527   1.00582   1.00717   1.00717
 Alpha virt. eigenvalues --    1.01962   1.01962   1.02408   1.02408   1.03657
 Alpha virt. eigenvalues --    1.03899   1.05722   1.05722   1.08519   1.08519
 Alpha virt. eigenvalues --    1.11400   1.12419   1.12654   1.12654   1.12970
 Alpha virt. eigenvalues --    1.13729   1.13729   1.13796   1.15352   1.15352
 Alpha virt. eigenvalues --    1.16378   1.18161   1.18964   1.18964   1.18985
 Alpha virt. eigenvalues --    1.18985   1.21565   1.21565   1.25418   1.27765
 Alpha virt. eigenvalues --    1.34110   1.35076   1.35380   1.35383   1.35470
 Alpha virt. eigenvalues --    1.35615   1.35615   1.35637   1.35637   1.37162
 Alpha virt. eigenvalues --    1.37162   1.37476   1.37476   1.40375   1.43053
 Alpha virt. eigenvalues --    1.43053   1.45088   1.45088   1.51818   1.51818
 Alpha virt. eigenvalues --    1.51872   1.51872   1.52009   1.52829   1.52829
 Alpha virt. eigenvalues --    1.53863   1.59110   1.59110   1.59580   1.63946
 Alpha virt. eigenvalues --    1.63946   1.64560   1.64711   1.64711   1.78036
 Alpha virt. eigenvalues --    2.46219   2.56503   2.56503   2.56641   2.58751
 Alpha virt. eigenvalues --    2.58751   2.60063   2.68355   2.68355   2.72643
 Alpha virt. eigenvalues --    2.77369   2.77369   2.96950   3.00164   3.00164
 Alpha virt. eigenvalues --    3.07346   3.11785   3.11785   3.14654   3.49011
 Alpha virt. eigenvalues --    3.49011   3.60514   3.60514   3.67746
  Beta  occ. eigenvalues --  -58.33236 -58.33236 -58.33236 -58.33236 -58.33236
  Beta  occ. eigenvalues --  -58.33236  -4.74486  -4.74477  -4.74477  -4.74472
  Beta  occ. eigenvalues --   -4.74470  -4.74470  -3.05601  -3.05562  -3.05562
  Beta  occ. eigenvalues --   -3.05543  -3.05529  -3.05529  -3.05482  -3.05482
  Beta  occ. eigenvalues --   -3.05472  -3.05461  -3.05461  -3.05445  -3.05318
  Beta  occ. eigenvalues --   -3.05299  -3.05299  -3.05288  -3.05284  -3.05284
  Beta  occ. eigenvalues --   -0.49003  -0.31266  -0.31266  -0.26079  -0.12878
  Beta  occ. eigenvalues --   -0.12878  -0.10567  -0.08501  -0.08501
  Beta virt. eigenvalues --    0.11829   0.12436   0.12436   0.13586   0.18964
  Beta virt. eigenvalues --    0.20645   0.20645   0.21569   0.21897   0.21897
  Beta virt. eigenvalues --    0.24244   0.24244   0.29310   0.29450   0.29605
  Beta virt. eigenvalues --    0.29605   0.33309   0.33727   0.33727   0.33994
  Beta virt. eigenvalues --    0.33994   0.35198   0.35924   0.36627   0.38270
  Beta virt. eigenvalues --    0.38270   0.40787   0.40869   0.40869   0.45927
  Beta virt. eigenvalues --    0.45927   0.46031   0.46653   0.46653   0.47681
  Beta virt. eigenvalues --    0.49014   0.49014   0.50984   0.54046   0.54046
  Beta virt. eigenvalues --    0.54239   0.54239   0.55137   0.55664   0.55664
  Beta virt. eigenvalues --    0.55944   0.60007   0.60007   0.63584   0.64471
  Beta virt. eigenvalues --    0.64471   0.67363   0.67363   0.68837   0.70094
  Beta virt. eigenvalues --    0.70233   0.70233   0.72515   0.72638   0.74377
  Beta virt. eigenvalues --    0.74377   0.77057   0.77662   0.77662   0.79988
  Beta virt. eigenvalues --    0.79988   0.82145   0.82712   0.82712   0.84103
  Beta virt. eigenvalues --    0.90942   0.90942   0.92577   1.00882   1.01062
  Beta virt. eigenvalues --    1.01062   1.02416   1.02416   1.03065   1.03065
  Beta virt. eigenvalues --    1.04162   1.04339   1.06366   1.06366   1.09387
  Beta virt. eigenvalues --    1.09387   1.12237   1.13046   1.13099   1.13099
  Beta virt. eigenvalues --    1.13246   1.14106   1.14404   1.14404   1.15388
  Beta virt. eigenvalues --    1.15388   1.16539   1.18204   1.19291   1.19291
  Beta virt. eigenvalues --    1.19454   1.19454   1.21720   1.21720   1.26017
  Beta virt. eigenvalues --    1.28237   1.34150   1.35498   1.35523   1.35711
  Beta virt. eigenvalues --    1.35711   1.35752   1.35840   1.36078   1.36078
  Beta virt. eigenvalues --    1.37338   1.37338   1.37912   1.37912   1.40566
  Beta virt. eigenvalues --    1.43566   1.43566   1.45314   1.45314   1.52153
  Beta virt. eigenvalues --    1.52153   1.52155   1.52155   1.52477   1.53113
  Beta virt. eigenvalues --    1.53113   1.54291   1.59513   1.59513   1.59659
  Beta virt. eigenvalues --    1.64280   1.64280   1.64819   1.64907   1.64907
  Beta virt. eigenvalues --    1.78347   2.46248   2.56680   2.56680   2.57071
  Beta virt. eigenvalues --    2.58946   2.58946   2.60629   2.68356   2.68356
  Beta virt. eigenvalues --    2.72722   2.77314   2.77314   2.96967   3.00513
  Beta virt. eigenvalues --    3.00513   3.07523   3.12076   3.12076   3.14667
  Beta virt. eigenvalues --    3.49183   3.49183   3.60712   3.60712   3.67972
          Condensed to atoms (all electrons):
               1          2          3          4          5          6
     1  Al  12.225938  -0.092499   0.221616   0.294998   0.221616   0.294998
     2  Al  -0.092499  12.225938   0.294998   0.221616   0.294998   0.221616
     3  Al   0.221616   0.294998  12.225938   0.294998   0.221616  -0.092499
     4  Al   0.294998   0.221616   0.294998  12.225938  -0.092499   0.221616
     5  Al   0.221616   0.294998   0.221616  -0.092499  12.225938   0.294998
     6  Al   0.294998   0.221616  -0.092499   0.221616   0.294998  12.225938
          Atomic-Atomic Spin Densities.
               1          2          3          4          5          6
     1  Al   0.105696  -0.013263   0.027542   0.009575   0.027542   0.009575
     2  Al  -0.013263   0.105696   0.009575   0.027542   0.009575   0.027542
     3  Al   0.027542   0.009575   0.105696   0.009575   0.027542  -0.013263
     4  Al   0.009575   0.027542   0.009575   0.105696  -0.013263   0.027542
     5  Al   0.027542   0.009575   0.027542  -0.013263   0.105696   0.009575
     6  Al   0.009575   0.027542  -0.013263   0.027542   0.009575   0.105696
 Mulliken charges and spin densities:
               1          2
     1  Al  -0.166667   0.166667
     2  Al  -0.166667   0.166667
     3  Al  -0.166667   0.166667
     4  Al  -0.166667   0.166667
     5  Al  -0.166667   0.166667
     6  Al  -0.166667   0.166667
 Sum of Mulliken charges =  -1.00000   1.00000
 Mulliken charges and spin densities with hydrogens summed into heavy atoms:
               1          2
     1  Al  -0.166667   0.166667
     2  Al  -0.166667   0.166667
     3  Al  -0.166667   0.166667
     4  Al  -0.166667   0.166667
     5  Al  -0.166667   0.166667
     6  Al  -0.166667   0.166667
 Electronic spatial extent (au):  <R**2>=           1260.7674
 Charge=             -1.0000 electrons
 Dipole moment (field-independent basis, Debye):
    X=              0.0000    Y=              0.0000    Z=              0.0000  Tot=              0.0000
 Quadrupole moment (field-independent basis, Debye-Ang):
   XX=           -101.6563   YY=           -101.6563   ZZ=            -98.3681
   XY=              0.0000   XZ=              0.0000   YZ=              0.0000
 Traceless Quadrupole moment (field-independent basis, Debye-Ang):
   XX=             -1.0961   YY=             -1.0961   ZZ=              2.1921
   XY=              0.0000   XZ=              0.0000   YZ=              0.0000
 Octapole moment (field-independent basis, Debye-Ang**2):
  XXX=              0.0000  YYY=              0.0000  ZZZ=              0.0000  XYY=              0.0000
  XXY=              0.0000  XXZ=              0.0000  XZZ=              0.0000  YZZ=              0.0000
  YYZ=              0.0000  XYZ=              0.0000
 Hexadecapole moment (field-independent basis, Debye-Ang**3):
 XXXX=          -1032.5205 YYYY=          -1032.5205 ZZZZ=           -894.1491 XXXY=              0.0000
 XXXZ=              0.0000 YYYX=              0.0000 YYYZ=             13.1723 ZZZX=              0.0000
 ZZZY=              0.0000 XXYY=           -344.1735 XXZZ=           -324.9560 YYZZ=           -324.9560
 XXYZ=            -13.1723 YYXZ=              0.0000 ZZXY=              0.0000
 N-N= 4.634518825791D+02 E-N=-4.410632350263D+03  KE= 1.451693807168D+03
 Symmetry AG   KE= 4.657563103632D+02
 Symmetry BG   KE= 2.624476341794D+02
 Symmetry AU   KE= 2.609198094871D+02
 Symmetry BU   KE= 4.625700531383D+02

 Test job not archived.
 1\1\GINC-R1I0N10\SP\UCCSD(T)-FC\CC-pVTZ\Al6(1-,2)\VSC31064\04-Oct-2016
 \0\\# CCSD(T,conver=5)/cc-pVTZ test geom=allcheck guess=read\\Al6-a-d\
 \-1,2\Al,0,0.,-1.62115269,1.04542966\Al,0,0.,1.62115269,-1.04542966\Al
 ,0,-1.40395941,0.81057634,1.04542966\Al,0,-1.40395941,-0.81057634,-1.0
 4542966\Al,0,1.40395941,0.81057634,1.04542966\Al,0,1.40395941,-0.81057
 634,-1.04542966\\Version=ES64L-G09RevD.01\State=2-A1G\HF=-1451.5024241
 \MP2=-1452.0523349\MP3=-1452.0144176\MP4D=-1452.0623244\MP4DQ=-1452.01
 72102\PUHF=-1451.5057916\PMP2-0=-1452.0546863\PMP3-0=-1452.0157291\MP4
 SDQ=-1452.02369\CCSD=-1452.0202095\CCSD(T)=-1452.087378\S2=0.788509\S2
 -1=0.764875\S2A=0.751101\RMSD=8.019e-09\PG=D03D [3SGD(Al2)]\\@


 EXPERIENCE IS THE FRUIT OF THE TREE OF ERRORS.
 Job cpu time:       0 days  0 hours 46 minutes 47.0 seconds.
 File lengths (MBytes):  RWF=    659 Int=      0 D2E=      0 Chk=      4 Scr=      1
 Normal termination of Gaussian 09 at Tue Oct  4 07:07:36 2016.
