 Entering Gaussian System, Link 0=g09
 Initial command:
 /apps/leuven/thinking/software/G09//g09D1/l1.exe "/local_scratch/vsc31064/Gau-11863.inp" -scrdir="/local_scratch/vsc31064/"
 Entering Link 1 = /apps/leuven/thinking/software/G09//g09D1/l1.exe PID=     11867.
  
 Copyright (c) 1988,1990,1992,1993,1995,1998,2003,2009,2013,
            Gaussian, Inc.  All Rights Reserved.
  
 This is part of the Gaussian(R) 09 program.  It is based on
 the Gaussian(R) 03 system (copyright 2003, Gaussian, Inc.),
 the Gaussian(R) 98 system (copyright 1998, Gaussian, Inc.),
 the Gaussian(R) 94 system (copyright 1995, Gaussian, Inc.),
 the Gaussian 92(TM) system (copyright 1992, Gaussian, Inc.),
 the Gaussian 90(TM) system (copyright 1990, Gaussian, Inc.),
 the Gaussian 88(TM) system (copyright 1988, Gaussian, Inc.),
 the Gaussian 86(TM) system (copyright 1986, Carnegie Mellon
 University), and the Gaussian 82(TM) system (copyright 1983,
 Carnegie Mellon University). Gaussian is a federally registered
 trademark of Gaussian, Inc.
  
 This software contains proprietary and confidential information,
 including trade secrets, belonging to Gaussian, Inc.
  
 This software is provided under written license and may be
 used, copied, transmitted, or stored only in accord with that
 written license.
  
 The following legend is applicable only to US Government
 contracts under FAR:
  
                    RESTRICTED RIGHTS LEGEND
  
 Use, reproduction and disclosure by the US Government is
 subject to restrictions as set forth in subparagraphs (a)
 and (c) of the Commercial Computer Software - Restricted
 Rights clause in FAR 52.227-19.
  
 Gaussian, Inc.
 340 Quinnipiac St., Bldg. 40, Wallingford CT 06492
  
  
 ---------------------------------------------------------------
 Warning -- This program may not be used in any manner that
 competes with the business of Gaussian, Inc. or will provide
 assistance to any competitor of Gaussian, Inc.  The licensee
 of this program is prohibited from giving any competitor of
 Gaussian, Inc. access to this program.  By using this program,
 the user acknowledges that Gaussian, Inc. is engaged in the
 business of creating and licensing software in the field of
 computational chemistry and represents and warrants to the
 licensee that it is not a competitor of Gaussian, Inc. and that
 it will not use this program in any manner prohibited above.
 ---------------------------------------------------------------
  

 Cite this work as:
 Gaussian 09, Revision D.01,
 M. J. Frisch, G. W. Trucks, H. B. Schlegel, G. E. Scuseria, 
 M. A. Robb, J. R. Cheeseman, G. Scalmani, V. Barone, B. Mennucci, 
 G. A. Petersson, H. Nakatsuji, M. Caricato, X. Li, H. P. Hratchian, 
 A. F. Izmaylov, J. Bloino, G. Zheng, J. L. Sonnenberg, M. Hada, 
 M. Ehara, K. Toyota, R. Fukuda, J. Hasegawa, M. Ishida, T. Nakajima, 
 Y. Honda, O. Kitao, H. Nakai, T. Vreven, J. A. Montgomery, Jr., 
 J. E. Peralta, F. Ogliaro, M. Bearpark, J. J. Heyd, E. Brothers, 
 K. N. Kudin, V. N. Staroverov, T. Keith, R. Kobayashi, J. Normand, 
 K. Raghavachari, A. Rendell, J. C. Burant, S. S. Iyengar, J. Tomasi, 
 M. Cossi, N. Rega, J. M. Millam, M. Klene, J. E. Knox, J. B. Cross, 
 V. Bakken, C. Adamo, J. Jaramillo, R. Gomperts, R. E. Stratmann, 
 O. Yazyev, A. J. Austin, R. Cammi, C. Pomelli, J. W. Ochterski, 
 R. L. Martin, K. Morokuma, V. G. Zakrzewski, G. A. Voth, 
 P. Salvador, J. J. Dannenberg, S. Dapprich, A. D. Daniels, 
 O. Farkas, J. B. Foresman, J. V. Ortiz, J. Cioslowski, 
 and D. J. Fox, Gaussian, Inc., Wallingford CT, 2013.
 
 ******************************************
 Gaussian 09:  ES64L-G09RevD.01 24-Apr-2013
                 3-Oct-2016 
 ******************************************
 %NprocShared=20
 Will use up to   20 processors via shared memory.
 %mem=55000mb
 %chk=cc-Al8-c-d
 ------------------------
 # hf/6-31G* test scf=xqc
 ------------------------
 1/38=1/1;
 2/12=2,17=6,18=5,40=1/2;
 3/5=1,6=6,7=1,11=9,16=1,25=1,30=1/1,2,3;
 4//1;
 5/5=2,8=3,13=1,38=5/2,8;
 6/7=2,8=2,9=2,10=2,28=1/1;
 99/5=1,9=1/99;
 -------
 Al8-c-d
 -------
 Symbolic Z-matrix:
 Charge =  1 Multiplicity = 2
 Al                   -2.0874    0.15537   0. 
 Al                    1.76375   0.08844   0. 
 Al                   -0.51449   1.4065    1.68338 
 Al                   -0.51449   1.4065   -1.68338 
 Al                   -0.02041  -1.11137  -1.47885 
 Al                   -0.02041  -1.11137   1.47885 
 Al                    1.05178   2.60191   0. 
 Al                    0.34067  -3.43618   0. 
 
                          Input orientation:                          
 ---------------------------------------------------------------------
 Center     Atomic      Atomic             Coordinates (Angstroms)
 Number     Number       Type             X           Y           Z
 ---------------------------------------------------------------------
      1         13           0       -2.087404    0.155373    0.000000
      2         13           0        1.763748    0.088441    0.000000
      3         13           0       -0.514494    1.406495    1.683380
      4         13           0       -0.514494    1.406495   -1.683380
      5         13           0       -0.020412   -1.111370   -1.478847
      6         13           0       -0.020412   -1.111370    1.478847
      7         13           0        1.051785    2.601914    0.000000
      8         13           0        0.340673   -3.436179    0.000000
 ---------------------------------------------------------------------
                    Distance matrix (angstroms):
                    1          2          3          4          5
     1  Al   0.000000
     2  Al   3.851734   0.000000
     3  Al   2.621663   3.124327   0.000000
     4  Al   2.621663   3.124327   3.366760   0.000000
     5  Al   2.839733   2.609552   4.072277   2.574024   0.000000
     6  Al   2.839733   2.609552   2.574024   4.072277   2.957694
     7  Al   3.979958   2.612363   2.591529   2.591529   4.138245
     8  Al   4.335298   3.801065   5.197747   5.197747   2.778868
                    6          7          8
     6  Al   0.000000
     7  Al   4.138245   0.000000
     8  Al   2.778868   6.079823   0.000000
 Stoichiometry    Al8(1+,2)
 Framework group  CS[SG(Al4),X(Al4)]
 Deg. of freedom    11
 Full point group                 CS      NOp   2
 Largest Abelian subgroup         CS      NOp   2
 Largest concise Abelian subgroup CS      NOp   2
                         Standard orientation:                         
 ---------------------------------------------------------------------
 Center     Atomic      Atomic             Coordinates (Angstroms)
 Number     Number       Type             X           Y           Z
 ---------------------------------------------------------------------
      1         13           0        2.018292   -0.554413    0.000000
      2         13           0       -1.747899    0.252838    0.000000
      3         13           0        0.233905   -1.479244    1.683380
      4         13           0        0.233905   -1.479244   -1.683380
      5         13           0        0.233905    1.086641   -1.478847
      6         13           0        0.233905    1.086641    1.478847
      7         13           0       -1.533250   -2.350691    0.000000
      8         13           0        0.327239    3.437472    0.000000
 ---------------------------------------------------------------------
 Rotational constants (GHZ):      0.9724030      0.5467718      0.5339760
 Standard basis: 6-31G(d) (6D, 7F)
 There are    94 symmetry adapted cartesian basis functions of A'  symmetry.
 There are    58 symmetry adapted cartesian basis functions of A"  symmetry.
 There are    94 symmetry adapted basis functions of A'  symmetry.
 There are    58 symmetry adapted basis functions of A"  symmetry.
   152 basis functions,   416 primitive gaussians,   152 cartesian basis functions
    52 alpha electrons       51 beta electrons
       nuclear repulsion energy       777.0125149693 Hartrees.
 NAtoms=    8 NActive=    8 NUniq=    6 SFac= 1.78D+00 NAtFMM=   60 NAOKFM=F Big=F
 Integral buffers will be    131072 words long.
 Raffenetti 2 integral format.
 Two-electron integral symmetry is turned on.
 One-electron integrals computed using PRISM.
 NBasis=   152 RedAO= T EigKep=  1.38D-03  NBF=    94    58
 NBsUse=   152 1.00D-06 EigRej= -1.00D+00 NBFU=    94    58
 ExpMin= 5.57D-02 ExpMax= 1.40D+04 ExpMxC= 2.10D+03 IAcc=2 IRadAn=         4 AccDes= 0.00D+00
 Harris functional with IExCor=  205 and IRadAn=       4 diagonalized for initial guess.
 HarFok:  IExCor=  205 AccDes= 0.00D+00 IRadAn=         4 IDoV= 1 UseB2=F ITyADJ=14
 ICtDFT=  3500011 ScaDFX=  1.000000  1.000000  1.000000  1.000000
 FoFCou: FMM=F IPFlag=           0 FMFlag=      100000 FMFlg1=           0
         NFxFlg=           0 DoJE=T BraDBF=F KetDBF=T FulRan=T
         wScrn=  0.000000 ICntrl=     500 IOpCl=  0 I1Cent=   200000004 NGrid=           0
         NMat0=    1 NMatS0=      1 NMatT0=    0 NMatD0=    1 NMtDS0=    0 NMtDT0=    0
 Petite list used in FoFCou.
 Initial guess orbital symmetries:
 Alpha Orbitals:
       Occupied  (A") (A') (A') (A") (A') (A') (A') (A') (A") (A')
                 (A') (A") (A') (A') (A') (A') (A') (A") (A') (A")
                 (A') (A") (A') (A') (A') (A") (A') (A") (A") (A')
                 (A") (A') (A') (A") (A") (A') (A') (A') (A") (A')
                 (A') (A') (A") (A') (A') (A") (A') (A') (A") (A')
                 (A') (A")
       Virtual   (A') (A') (A') (A") (A') (A") (A') (A") (A') (A")
                 (A') (A") (A') (A') (A") (A') (A') (A") (A") (A')
                 (A") (A') (A') (A') (A") (A') (A') (A") (A') (A")
                 (A") (A') (A') (A') (A") (A') (A") (A') (A') (A")
                 (A') (A') (A") (A') (A") (A') (A") (A') (A') (A")
                 (A') (A") (A') (A') (A") (A") (A') (A') (A") (A')
                 (A") (A') (A") (A') (A') (A") (A') (A') (A") (A')
                 (A') (A") (A') (A") (A") (A') (A') (A") (A") (A')
                 (A') (A') (A') (A") (A') (A") (A') (A") (A') (A")
                 (A') (A") (A') (A") (A') (A') (A') (A") (A') (A')
 Beta  Orbitals:
       Occupied  (A") (A') (A') (A") (A') (A') (A') (A') (A") (A')
                 (A') (A") (A') (A') (A') (A') (A') (A") (A') (A")
                 (A') (A") (A') (A') (A') (A") (A') (A") (A") (A')
                 (A") (A') (A') (A") (A") (A') (A') (A') (A") (A')
                 (A') (A') (A") (A') (A') (A") (A') (A') (A") (A')
                 (A')
       Virtual   (A") (A') (A') (A') (A") (A') (A") (A') (A") (A')
                 (A") (A') (A") (A') (A') (A") (A') (A') (A") (A")
                 (A') (A") (A') (A') (A') (A") (A') (A') (A") (A')
                 (A") (A") (A') (A') (A') (A") (A') (A") (A') (A')
                 (A") (A') (A') (A") (A') (A") (A') (A") (A') (A')
                 (A") (A') (A") (A') (A') (A") (A") (A') (A') (A")
                 (A') (A") (A') (A") (A') (A') (A") (A') (A') (A")
                 (A') (A') (A") (A') (A") (A") (A') (A') (A") (A")
                 (A') (A') (A') (A') (A") (A') (A") (A') (A") (A')
                 (A") (A') (A") (A') (A") (A') (A') (A') (A") (A')
                 (A')
 The electronic state of the initial guess is 2-A".
 Initial guess <Sx>= 0.0000 <Sy>= 0.0000 <Sz>= 0.5000 <S**2>= 0.7500 S= 0.5000
 Keep R1 and R2 ints in memory in symmetry-blocked form, NReq=101922900.
 Requested convergence on RMS density matrix=1.00D-08 within  64 cycles.
 Requested convergence on MAX density matrix=1.00D-06.
 Requested convergence on             energy=1.00D-06.
 No special actions if energy rises.
 Rare condition: small coef for last iteration:  0.000D+00
 Rare condition: small coef for last iteration:  0.000D+00
 Rare condition: small coef for last iteration:  0.000D+00
 Rare condition: small coef for last iteration:  0.000D+00
 Rare condition: small coef for last iteration:  0.000D+00
 Rare condition: small coef for last iteration:  0.000D+00
 Rare condition: small coef for last iteration:  0.000D+00
 Rare condition: small coef for last iteration:  0.000D+00
 Rare condition: small coef for last iteration:  0.000D+00
 Rare condition: small coef for last iteration:  0.000D+00
 Rare condition: small coef for last iteration:  0.000D+00
 Rare condition: small coef for last iteration:  0.000D+00
 Rare condition: small coef for last iteration:  0.000D+00
 Rare condition: small coef for last iteration:  0.000D+00
 Rare condition: small coef for last iteration:  0.000D+00
 Rare condition: small coef for last iteration:  0.000D+00
 Rare condition: small coef for last iteration:  0.000D+00
 Rare condition: small coef for last iteration:  0.000D+00
 Rare condition: small coef for last iteration:  0.000D+00
 Rare condition: small coef for last iteration:  0.000D+00
 Rare condition: small coef for last iteration:  0.000D+00
 Rare condition: small coef for last iteration:  0.000D+00
 Rare condition: small coef for last iteration:  0.000D+00
 Rare condition: small coef for last iteration:  0.000D+00
 Rare condition: small coef for last iteration:  0.000D+00
 Rare condition: small coef for last iteration:  0.000D+00
 Rare condition: small coef for last iteration:  0.000D+00
 >>>>>>>>>> Convergence criterion not met.
 SCF Done:  E(UHF) =  -1934.93457404     A.U. after   65 cycles
            NFock= 64  Conv=0.15D-03     -V/T= 2.0001
 <Sx>= 0.0000 <Sy>= 0.0000 <Sz>= 0.5000 <S**2>= 0.9510 S= 0.5959
 <L.S>= 0.000000000000E+00
 Annihilation of the first spin contaminant:
 S**2 before annihilation     0.9510,   after     0.7882
 Keep R1 and R2 ints in memory in symmetry-blocked form, NReq=102053444.
 LinEq1:  Iter=  0 NonCon=     1 RMS=6.78D-05 Max=3.11D-03 NDo=     1
 AX will form     1 AO Fock derivatives at one time.
 LinEq1:  Iter=  1 NonCon=     1 RMS=1.57D-05 Max=3.30D-04 NDo=     1
 LinEq1:  Iter=  2 NonCon=     1 RMS=1.18D-05 Max=6.61D-04 NDo=     1
 LinEq1:  Iter=  3 NonCon=     1 RMS=4.19D-06 Max=1.66D-04 NDo=     1
 LinEq1:  Iter=  4 NonCon=     1 RMS=3.47D-06 Max=1.32D-04 NDo=     1
 LinEq1:  Iter=  5 NonCon=     1 RMS=2.06D-06 Max=7.41D-05 NDo=     1
 LinEq1:  Iter=  6 NonCon=     1 RMS=1.06D-06 Max=2.61D-05 NDo=     1
 LinEq1:  Iter=  7 NonCon=     1 RMS=3.86D-07 Max=1.11D-05 NDo=     1
 LinEq1:  Iter=  8 NonCon=     1 RMS=1.40D-07 Max=2.50D-06 NDo=     1
 LinEq1:  Iter=  9 NonCon=     1 RMS=4.39D-08 Max=1.07D-06 NDo=     1
 LinEq1:  Iter= 10 NonCon=     1 RMS=1.51D-08 Max=3.30D-07 NDo=     1
 LinEq1:  Iter= 11 NonCon=     1 RMS=5.92D-09 Max=1.66D-07 NDo=     1
 LinEq1:  Iter= 12 NonCon=     0 RMS=2.04D-09 Max=4.35D-08 NDo=     1
 Linear equations converged to 1.017D-08 1.017D-07 after    12 iterations.
 Incorrect curvature in search direction -- initial direction reversed.
 LinEq1:  Iter=  0 NonCon=     1 RMS=2.12D-04 Max=6.69D-03 NDo=     1
 LinEq1:  Iter=  1 NonCon=     1 RMS=1.31D-04 Max=4.40D-03 NDo=     1
 LinEq1:  Iter=  2 NonCon=     1 RMS=1.04D-04 Max=3.40D-03 NDo=     1
 LinEq1:  Iter=  3 NonCon=     1 RMS=6.01D-05 Max=1.57D-03 NDo=     1
 LinEq1:  Iter=  4 NonCon=     1 RMS=3.51D-05 Max=1.47D-03 NDo=     1
 LinEq1:  Iter=  5 NonCon=     1 RMS=1.98D-05 Max=4.26D-04 NDo=     1
 LinEq1:  Iter=  6 NonCon=     1 RMS=1.23D-05 Max=3.45D-04 NDo=     1
 LinEq1:  Iter=  7 NonCon=     1 RMS=9.59D-06 Max=3.74D-04 NDo=     1
 LinEq1:  Iter=  8 NonCon=     1 RMS=3.79D-06 Max=9.83D-05 NDo=     1
 LinEq1:  Iter=  9 NonCon=     1 RMS=1.03D-06 Max=2.50D-05 NDo=     1
 LinEq1:  Iter= 10 NonCon=     1 RMS=3.64D-07 Max=1.30D-05 NDo=     1
 LinEq1:  Iter= 11 NonCon=     1 RMS=1.59D-07 Max=4.81D-06 NDo=     1
 LinEq1:  Iter= 12 NonCon=     1 RMS=5.08D-08 Max=1.15D-06 NDo=     1
 LinEq1:  Iter= 13 NonCon=     1 RMS=1.66D-08 Max=3.97D-07 NDo=     1
 LinEq1:  Iter= 14 NonCon=     1 RMS=5.92D-09 Max=1.12D-07 NDo=     1
 LinEq1:  Iter= 15 NonCon=     0 RMS=1.98D-09 Max=4.75D-08 NDo=     1
 Linear equations converged to 1.017D-08 1.017D-07 after    15 iterations.
 Incorrect curvature in search direction -- initial direction reversed.
 Gradient too large for Newton-Raphson -- use scaled steepest descent instead.
     Minimum is close to point  4 DX=  1.93D-02 DF= -1.48D-07 DXR=  1.58D-02 DFR=  2.50D-04 which will be used.
 LinEq1:  Iter=  0 NonCon=     1 RMS=2.32D-04 Max=8.07D-03 NDo=     1
 LinEq1:  Iter=  1 NonCon=     1 RMS=2.07D-04 Max=6.77D-03 NDo=     1
 LinEq1:  Iter=  2 NonCon=     1 RMS=1.02D-04 Max=2.59D-03 NDo=     1
 LinEq1:  Iter=  3 NonCon=     1 RMS=7.83D-05 Max=3.61D-03 NDo=     1
 LinEq1:  Iter=  4 NonCon=     1 RMS=2.83D-05 Max=8.82D-04 NDo=     1
 LinEq1:  Iter=  5 NonCon=     1 RMS=2.01D-05 Max=6.84D-04 NDo=     1
 LinEq1:  Iter=  6 NonCon=     1 RMS=1.43D-05 Max=3.77D-04 NDo=     1
 LinEq1:  Iter=  7 NonCon=     1 RMS=5.54D-06 Max=1.98D-04 NDo=     1
 LinEq1:  Iter=  8 NonCon=     1 RMS=1.45D-06 Max=3.57D-05 NDo=     1
 LinEq1:  Iter=  9 NonCon=     1 RMS=5.43D-07 Max=1.07D-05 NDo=     1
 LinEq1:  Iter= 10 NonCon=     1 RMS=1.52D-07 Max=4.06D-06 NDo=     1
 LinEq1:  Iter= 11 NonCon=     1 RMS=5.11D-08 Max=1.11D-06 NDo=     1
 LinEq1:  Iter= 12 NonCon=     1 RMS=1.98D-08 Max=4.30D-07 NDo=     1
 LinEq1:  Iter= 13 NonCon=     1 RMS=6.50D-09 Max=1.57D-07 NDo=     1
 LinEq1:  Iter= 14 NonCon=     0 RMS=1.60D-09 Max=2.96D-08 NDo=     1
 Linear equations converged to 1.017D-08 1.017D-07 after    14 iterations.
     Accept linear search using points  1 and  2.
 LinEq1:  Iter=  0 NonCon=     1 RMS=1.16D-04 Max=5.23D-03 NDo=     1
 LinEq1:  Iter=  1 NonCon=     1 RMS=1.01D-04 Max=3.18D-03 NDo=     1
 LinEq1:  Iter=  2 NonCon=     1 RMS=5.30D-05 Max=1.37D-03 NDo=     1
 LinEq1:  Iter=  3 NonCon=     1 RMS=3.51D-05 Max=1.24D-03 NDo=     1
 LinEq1:  Iter=  4 NonCon=     1 RMS=1.76D-05 Max=7.15D-04 NDo=     1
 LinEq1:  Iter=  5 NonCon=     1 RMS=9.81D-06 Max=3.10D-04 NDo=     1
 LinEq1:  Iter=  6 NonCon=     1 RMS=6.85D-06 Max=1.85D-04 NDo=     1
 LinEq1:  Iter=  7 NonCon=     1 RMS=2.98D-06 Max=6.47D-05 NDo=     1
 LinEq1:  Iter=  8 NonCon=     1 RMS=1.25D-06 Max=3.73D-05 NDo=     1
 LinEq1:  Iter=  9 NonCon=     1 RMS=2.29D-07 Max=4.57D-06 NDo=     1
 LinEq1:  Iter= 10 NonCon=     1 RMS=8.73D-08 Max=2.75D-06 NDo=     1
 LinEq1:  Iter= 11 NonCon=     1 RMS=3.02D-08 Max=6.43D-07 NDo=     1
 LinEq1:  Iter= 12 NonCon=     1 RMS=1.00D-08 Max=2.60D-07 NDo=     1
 LinEq1:  Iter= 13 NonCon=     0 RMS=3.43D-09 Max=7.21D-08 NDo=     1
 Linear equations converged to 1.017D-08 1.017D-07 after    13 iterations.
     Accept linear search using points  1 and  2.
 LinEq1:  Iter=  0 NonCon=     1 RMS=3.35D-05 Max=1.28D-03 NDo=     1
 LinEq1:  Iter=  1 NonCon=     1 RMS=2.51D-05 Max=7.24D-04 NDo=     1
 LinEq1:  Iter=  2 NonCon=     1 RMS=1.57D-05 Max=4.28D-04 NDo=     1
 LinEq1:  Iter=  3 NonCon=     1 RMS=8.22D-06 Max=2.25D-04 NDo=     1
 LinEq1:  Iter=  4 NonCon=     1 RMS=4.64D-06 Max=1.82D-04 NDo=     1
 LinEq1:  Iter=  5 NonCon=     1 RMS=2.79D-06 Max=9.96D-05 NDo=     1
 LinEq1:  Iter=  6 NonCon=     1 RMS=1.59D-06 Max=3.60D-05 NDo=     1
 LinEq1:  Iter=  7 NonCon=     1 RMS=8.28D-07 Max=1.73D-05 NDo=     1
 LinEq1:  Iter=  8 NonCon=     1 RMS=3.66D-07 Max=1.04D-05 NDo=     1
 LinEq1:  Iter=  9 NonCon=     1 RMS=1.41D-07 Max=2.69D-06 NDo=     1
 LinEq1:  Iter= 10 NonCon=     1 RMS=1.11D-07 Max=2.31D-06 NDo=     1
 LinEq1:  Iter= 11 NonCon=     1 RMS=5.92D-08 Max=1.35D-06 NDo=     1
 LinEq1:  Iter= 12 NonCon=     1 RMS=1.92D-08 Max=3.58D-07 NDo=     1
 LinEq1:  Iter= 13 NonCon=     1 RMS=5.91D-09 Max=1.19D-07 NDo=     1
 LinEq1:  Iter= 14 NonCon=     0 RMS=2.15D-09 Max=5.86D-08 NDo=     1
 Linear equations converged to 1.017D-08 1.017D-07 after    14 iterations.
 Incorrect curvature in search direction -- initial direction reversed.
 Gradient too large for Newton-Raphson -- use scaled steepest descent instead.
 Gradient too large for Newton-Raphson -- use scaled steepest descent instead.
     Accept linear search using points  1 and  2.
 LinEq1:  Iter=  0 NonCon=     1 RMS=2.27D-04 Max=8.60D-03 NDo=     1
 LinEq1:  Iter=  1 NonCon=     1 RMS=2.52D-04 Max=7.11D-03 NDo=     1
 LinEq1:  Iter=  2 NonCon=     1 RMS=4.46D-05 Max=1.52D-03 NDo=     1
 LinEq1:  Iter=  3 NonCon=     1 RMS=2.70D-05 Max=6.64D-04 NDo=     1
 LinEq1:  Iter=  4 NonCon=     1 RMS=1.32D-05 Max=3.09D-04 NDo=     1
 LinEq1:  Iter=  5 NonCon=     1 RMS=7.01D-06 Max=1.78D-04 NDo=     1
 LinEq1:  Iter=  6 NonCon=     1 RMS=3.43D-06 Max=7.24D-05 NDo=     1
 LinEq1:  Iter=  7 NonCon=     1 RMS=1.26D-06 Max=3.70D-05 NDo=     1
 LinEq1:  Iter=  8 NonCon=     1 RMS=4.83D-07 Max=1.65D-05 NDo=     1
 LinEq1:  Iter=  9 NonCon=     1 RMS=3.99D-07 Max=1.52D-05 NDo=     1
 LinEq1:  Iter= 10 NonCon=     1 RMS=1.83D-07 Max=4.41D-06 NDo=     1
 LinEq1:  Iter= 11 NonCon=     1 RMS=6.98D-08 Max=1.74D-06 NDo=     1
 LinEq1:  Iter= 12 NonCon=     1 RMS=1.85D-08 Max=4.93D-07 NDo=     1
 LinEq1:  Iter= 13 NonCon=     0 RMS=5.17D-09 Max=9.75D-08 NDo=     1
 Linear equations converged to 1.017D-08 1.017D-07 after    13 iterations.
 Incorrect curvature in search direction -- initial direction reversed.
 Gradient too large for Newton-Raphson -- use scaled steepest descent instead.
     Accept linear search using points  1 and  2.
     Minimum is close to point  2 DX= -7.41D-02 DF= -2.73D-06 DXR=  7.23D-02 DFR=  6.14D-03 which will be used.
 Gradient too large for Newton-Raphson -- use scaled steepest descent instead.
     Accept linear search using points  1 and  2.
 LinEq1:  Iter=  0 NonCon=     1 RMS=2.58D-04 Max=1.31D-02 NDo=     1
 LinEq1:  Iter=  1 NonCon=     1 RMS=2.46D-04 Max=9.17D-03 NDo=     1
 LinEq1:  Iter=  2 NonCon=     1 RMS=5.56D-05 Max=1.76D-03 NDo=     1
 LinEq1:  Iter=  3 NonCon=     1 RMS=2.57D-05 Max=7.37D-04 NDo=     1
 LinEq1:  Iter=  4 NonCon=     1 RMS=1.75D-05 Max=4.28D-04 NDo=     1
 LinEq1:  Iter=  5 NonCon=     1 RMS=4.91D-06 Max=1.13D-04 NDo=     1
 LinEq1:  Iter=  6 NonCon=     1 RMS=3.35D-06 Max=1.02D-04 NDo=     1
 LinEq1:  Iter=  7 NonCon=     1 RMS=1.06D-06 Max=3.01D-05 NDo=     1
 LinEq1:  Iter=  8 NonCon=     1 RMS=3.55D-07 Max=7.51D-06 NDo=     1
 LinEq1:  Iter=  9 NonCon=     1 RMS=2.45D-07 Max=4.85D-06 NDo=     1
 LinEq1:  Iter= 10 NonCon=     1 RMS=1.18D-07 Max=2.75D-06 NDo=     1
 LinEq1:  Iter= 11 NonCon=     1 RMS=4.17D-08 Max=1.30D-06 NDo=     1
 LinEq1:  Iter= 12 NonCon=     1 RMS=1.20D-08 Max=3.43D-07 NDo=     1
 LinEq1:  Iter= 13 NonCon=     0 RMS=4.09D-09 Max=8.12D-08 NDo=     1
 Linear equations converged to 1.017D-08 1.017D-07 after    13 iterations.
 LinEq1:  Iter=  0 NonCon=     1 RMS=2.02D-04 Max=9.49D-03 NDo=     1
 LinEq1:  Iter=  1 NonCon=     1 RMS=1.91D-04 Max=7.15D-03 NDo=     1
 LinEq1:  Iter=  2 NonCon=     1 RMS=4.80D-05 Max=1.85D-03 NDo=     1
 LinEq1:  Iter=  3 NonCon=     1 RMS=2.37D-05 Max=7.30D-04 NDo=     1
 LinEq1:  Iter=  4 NonCon=     1 RMS=1.66D-05 Max=3.65D-04 NDo=     1
 LinEq1:  Iter=  5 NonCon=     1 RMS=5.86D-06 Max=1.58D-04 NDo=     1
 LinEq1:  Iter=  6 NonCon=     1 RMS=2.90D-06 Max=7.89D-05 NDo=     1
 LinEq1:  Iter=  7 NonCon=     1 RMS=1.42D-06 Max=3.22D-05 NDo=     1
 LinEq1:  Iter=  8 NonCon=     1 RMS=7.11D-07 Max=1.63D-05 NDo=     1
 LinEq1:  Iter=  9 NonCon=     1 RMS=3.13D-07 Max=5.62D-06 NDo=     1
 LinEq1:  Iter= 10 NonCon=     1 RMS=2.14D-07 Max=5.25D-06 NDo=     1
 LinEq1:  Iter= 11 NonCon=     1 RMS=8.96D-08 Max=2.27D-06 NDo=     1
 LinEq1:  Iter= 12 NonCon=     1 RMS=3.17D-08 Max=7.46D-07 NDo=     1
 LinEq1:  Iter= 13 NonCon=     1 RMS=8.57D-09 Max=2.47D-07 NDo=     1
 LinEq1:  Iter= 14 NonCon=     0 RMS=2.84D-09 Max=4.91D-08 NDo=     1
 Linear equations converged to 1.017D-08 1.017D-07 after    14 iterations.
 LinEq1:  Iter=  0 NonCon=     1 RMS=1.23D-04 Max=3.84D-03 NDo=     1
 LinEq1:  Iter=  1 NonCon=     1 RMS=1.13D-04 Max=4.27D-03 NDo=     1
 LinEq1:  Iter=  2 NonCon=     1 RMS=3.98D-05 Max=1.85D-03 NDo=     1
 LinEq1:  Iter=  3 NonCon=     1 RMS=1.77D-05 Max=5.23D-04 NDo=     1
 LinEq1:  Iter=  4 NonCon=     1 RMS=1.34D-05 Max=3.92D-04 NDo=     1
 LinEq1:  Iter=  5 NonCon=     1 RMS=5.93D-06 Max=1.25D-04 NDo=     1
 LinEq1:  Iter=  6 NonCon=     1 RMS=2.62D-06 Max=6.58D-05 NDo=     1
 LinEq1:  Iter=  7 NonCon=     1 RMS=1.41D-06 Max=3.32D-05 NDo=     1
 LinEq1:  Iter=  8 NonCon=     1 RMS=7.41D-07 Max=1.79D-05 NDo=     1
 LinEq1:  Iter=  9 NonCon=     1 RMS=3.20D-07 Max=6.07D-06 NDo=     1
 LinEq1:  Iter= 10 NonCon=     1 RMS=2.16D-07 Max=3.73D-06 NDo=     1
 LinEq1:  Iter= 11 NonCon=     1 RMS=8.56D-08 Max=1.84D-06 NDo=     1
 LinEq1:  Iter= 12 NonCon=     1 RMS=3.01D-08 Max=8.68D-07 NDo=     1
 LinEq1:  Iter= 13 NonCon=     1 RMS=9.00D-09 Max=2.09D-07 NDo=     1
 LinEq1:  Iter= 14 NonCon=     0 RMS=2.83D-09 Max=8.63D-08 NDo=     1
 Linear equations converged to 1.017D-08 1.017D-07 after    14 iterations.
 LinEq1:  Iter=  0 NonCon=     1 RMS=8.37D-05 Max=2.22D-03 NDo=     1
 LinEq1:  Iter=  1 NonCon=     1 RMS=4.22D-05 Max=2.07D-03 NDo=     1
 LinEq1:  Iter=  2 NonCon=     1 RMS=3.32D-05 Max=1.19D-03 NDo=     1
 LinEq1:  Iter=  3 NonCon=     1 RMS=1.47D-05 Max=3.82D-04 NDo=     1
 LinEq1:  Iter=  4 NonCon=     1 RMS=9.13D-06 Max=2.76D-04 NDo=     1
 LinEq1:  Iter=  5 NonCon=     1 RMS=4.49D-06 Max=1.20D-04 NDo=     1
 LinEq1:  Iter=  6 NonCon=     1 RMS=2.11D-06 Max=4.87D-05 NDo=     1
 LinEq1:  Iter=  7 NonCon=     1 RMS=1.40D-06 Max=5.09D-05 NDo=     1
 LinEq1:  Iter=  8 NonCon=     1 RMS=8.39D-07 Max=2.67D-05 NDo=     1
 LinEq1:  Iter=  9 NonCon=     1 RMS=2.82D-07 Max=6.35D-06 NDo=     1
 LinEq1:  Iter= 10 NonCon=     1 RMS=1.09D-07 Max=2.39D-06 NDo=     1
 LinEq1:  Iter= 11 NonCon=     1 RMS=8.07D-08 Max=1.76D-06 NDo=     1
 LinEq1:  Iter= 12 NonCon=     1 RMS=3.15D-08 Max=5.99D-07 NDo=     1
 LinEq1:  Iter= 13 NonCon=     1 RMS=1.05D-08 Max=2.80D-07 NDo=     1
 LinEq1:  Iter= 14 NonCon=     0 RMS=3.70D-09 Max=7.46D-08 NDo=     1
 Linear equations converged to 1.017D-08 1.017D-07 after    14 iterations.
     Accept linear search using points  2 and  3.
 LinEq1:  Iter=  0 NonCon=     1 RMS=8.55D-05 Max=3.35D-03 NDo=     1
 LinEq1:  Iter=  1 NonCon=     1 RMS=3.36D-05 Max=1.45D-03 NDo=     1
 LinEq1:  Iter=  2 NonCon=     1 RMS=2.47D-05 Max=7.00D-04 NDo=     1
 LinEq1:  Iter=  3 NonCon=     1 RMS=1.27D-05 Max=4.20D-04 NDo=     1
 LinEq1:  Iter=  4 NonCon=     1 RMS=8.16D-06 Max=1.74D-04 NDo=     1
 LinEq1:  Iter=  5 NonCon=     1 RMS=3.92D-06 Max=1.18D-04 NDo=     1
 LinEq1:  Iter=  6 NonCon=     1 RMS=1.57D-06 Max=3.45D-05 NDo=     1
 LinEq1:  Iter=  7 NonCon=     1 RMS=9.20D-07 Max=2.61D-05 NDo=     1
 LinEq1:  Iter=  8 NonCon=     1 RMS=6.86D-07 Max=1.97D-05 NDo=     1
 LinEq1:  Iter=  9 NonCon=     1 RMS=2.70D-07 Max=8.65D-06 NDo=     1
 LinEq1:  Iter= 10 NonCon=     1 RMS=8.87D-08 Max=2.88D-06 NDo=     1
 LinEq1:  Iter= 11 NonCon=     1 RMS=2.46D-08 Max=5.40D-07 NDo=     1
 LinEq1:  Iter= 12 NonCon=     1 RMS=1.08D-08 Max=2.01D-07 NDo=     1
 LinEq1:  Iter= 13 NonCon=     1 RMS=7.41D-09 Max=1.58D-07 NDo=     1
 LinEq1:  Iter= 14 NonCon=     0 RMS=3.64D-09 Max=8.95D-08 NDo=     1
 Linear equations converged to 1.017D-08 1.017D-07 after    14 iterations.
     Accept linear search using points  1 and  2.
 LinEq1:  Iter=  0 NonCon=     1 RMS=1.58D-05 Max=5.73D-04 NDo=     1
 LinEq1:  Iter=  1 NonCon=     1 RMS=8.88D-06 Max=3.17D-04 NDo=     1
 LinEq1:  Iter=  2 NonCon=     1 RMS=6.45D-06 Max=1.98D-04 NDo=     1
 LinEq1:  Iter=  3 NonCon=     1 RMS=3.88D-06 Max=1.26D-04 NDo=     1
 LinEq1:  Iter=  4 NonCon=     1 RMS=1.99D-06 Max=6.09D-05 NDo=     1
 LinEq1:  Iter=  5 NonCon=     1 RMS=1.26D-06 Max=3.33D-05 NDo=     1
 LinEq1:  Iter=  6 NonCon=     1 RMS=6.22D-07 Max=1.29D-05 NDo=     1
 LinEq1:  Iter=  7 NonCon=     1 RMS=4.57D-07 Max=1.15D-05 NDo=     1
 LinEq1:  Iter=  8 NonCon=     1 RMS=1.94D-07 Max=7.63D-06 NDo=     1
 LinEq1:  Iter=  9 NonCon=     1 RMS=5.52D-08 Max=9.95D-07 NDo=     1
 LinEq1:  Iter= 10 NonCon=     1 RMS=1.89D-08 Max=4.69D-07 NDo=     1
 LinEq1:  Iter= 11 NonCon=     1 RMS=7.59D-09 Max=1.77D-07 NDo=     1
 LinEq1:  Iter= 12 NonCon=     1 RMS=4.39D-09 Max=1.04D-07 NDo=     1
 LinEq1:  Iter= 13 NonCon=     1 RMS=2.92D-09 Max=1.00D-07 NDo=     1
 LinEq1:  Iter= 14 NonCon=     0 RMS=9.64D-10 Max=2.43D-08 NDo=     1
 Linear equations converged to 9.303D-09 9.303D-08 after    14 iterations.
     Accept linear search using points  1 and  2.
     Minimum is close to point  2 DX= -2.70D-02 DF= -1.46D-09 DXR=  2.78D-02 DFR=  7.73D-04 which will be used.
 LinEq1:  Iter=  0 NonCon=     1 RMS=2.35D-06 Max=5.82D-05 NDo=     1
 LinEq1:  Iter=  1 NonCon=     1 RMS=9.84D-07 Max=2.67D-05 NDo=     1
 LinEq1:  Iter=  2 NonCon=     1 RMS=5.98D-07 Max=1.60D-05 NDo=     1
 LinEq1:  Iter=  3 NonCon=     1 RMS=3.92D-07 Max=9.95D-06 NDo=     1
 LinEq1:  Iter=  4 NonCon=     1 RMS=1.80D-07 Max=5.50D-06 NDo=     1
 LinEq1:  Iter=  5 NonCon=     1 RMS=9.92D-08 Max=3.03D-06 NDo=     1
 LinEq1:  Iter=  6 NonCon=     1 RMS=6.53D-08 Max=1.54D-06 NDo=     1
 LinEq1:  Iter=  7 NonCon=     1 RMS=3.25D-08 Max=1.09D-06 NDo=     1
 LinEq1:  Iter=  8 NonCon=     1 RMS=1.70D-08 Max=7.13D-07 NDo=     1
 LinEq1:  Iter=  9 NonCon=     1 RMS=9.50D-09 Max=2.78D-07 NDo=     1
 LinEq1:  Iter= 10 NonCon=     1 RMS=3.80D-09 Max=7.22D-08 NDo=     1
 LinEq1:  Iter= 11 NonCon=     1 RMS=1.30D-09 Max=2.51D-08 NDo=     1
 LinEq1:  Iter= 12 NonCon=     0 RMS=4.60D-10 Max=1.01D-08 NDo=     1
 Linear equations converged to 2.000D-09 2.000D-08 after    12 iterations.
     Accept linear search using points  1 and  2.
     Minimum is close to point  2 DX= -4.86D-02 DF= -3.32D-10 DXR=  5.11D-02 DFR=  2.62D-03 which will be used.
 LinEq1:  Iter=  0 NonCon=     1 RMS=8.24D-07 Max=1.76D-05 NDo=     1
 LinEq1:  Iter=  1 NonCon=     1 RMS=4.13D-07 Max=1.13D-05 NDo=     1
 LinEq1:  Iter=  2 NonCon=     1 RMS=1.99D-07 Max=3.97D-06 NDo=     1
 LinEq1:  Iter=  3 NonCon=     1 RMS=1.38D-07 Max=3.84D-06 NDo=     1
 LinEq1:  Iter=  4 NonCon=     1 RMS=6.05D-08 Max=1.94D-06 NDo=     1
 LinEq1:  Iter=  5 NonCon=     1 RMS=3.15D-08 Max=1.46D-06 NDo=     1
 LinEq1:  Iter=  6 NonCon=     1 RMS=2.50D-08 Max=7.31D-07 NDo=     1
 LinEq1:  Iter=  7 NonCon=     1 RMS=1.25D-08 Max=4.30D-07 NDo=     1
 LinEq1:  Iter=  8 NonCon=     1 RMS=4.46D-09 Max=1.20D-07 NDo=     1
 LinEq1:  Iter=  9 NonCon=     1 RMS=1.81D-09 Max=3.95D-08 NDo=     1
 LinEq1:  Iter= 10 NonCon=     1 RMS=9.15D-10 Max=2.00D-08 NDo=     1
 LinEq1:  Iter= 11 NonCon=     1 RMS=4.27D-10 Max=7.24D-09 NDo=     1
 LinEq1:  Iter= 12 NonCon=     0 RMS=1.94D-10 Max=6.55D-09 NDo=     1
 Linear equations converged to 7.117D-10 7.117D-09 after    12 iterations.
 LinEq1:  Iter=  0 NonCon=     1 RMS=2.67D-07 Max=8.96D-06 NDo=     1
 LinEq1:  Iter=  1 NonCon=     1 RMS=1.49D-07 Max=3.75D-06 NDo=     1
 LinEq1:  Iter=  2 NonCon=     1 RMS=9.57D-08 Max=2.12D-06 NDo=     1
 LinEq1:  Iter=  3 NonCon=     1 RMS=5.07D-08 Max=1.26D-06 NDo=     1
 LinEq1:  Iter=  4 NonCon=     1 RMS=2.47D-08 Max=6.64D-07 NDo=     1
 LinEq1:  Iter=  5 NonCon=     1 RMS=1.31D-08 Max=3.68D-07 NDo=     1
 LinEq1:  Iter=  6 NonCon=     1 RMS=6.41D-09 Max=1.69D-07 NDo=     1
 LinEq1:  Iter=  7 NonCon=     1 RMS=3.95D-09 Max=2.15D-07 NDo=     1
 LinEq1:  Iter=  8 NonCon=     1 RMS=3.10D-09 Max=1.16D-07 NDo=     1
 LinEq1:  Iter=  9 NonCon=     1 RMS=1.36D-09 Max=3.43D-08 NDo=     1
 LinEq1:  Iter= 10 NonCon=     1 RMS=4.64D-10 Max=8.19D-09 NDo=     1
 LinEq1:  Iter= 11 NonCon=     1 RMS=1.48D-10 Max=4.10D-09 NDo=     1
 LinEq1:  Iter= 12 NonCon=     0 RMS=7.31D-11 Max=1.37D-09 NDo=     1
 Linear equations converged to 2.011D-10 2.011D-09 after    12 iterations.
 LinEq1:  Iter=  0 NonCon=     1 RMS=1.18D-07 Max=2.22D-06 NDo=     1
 LinEq1:  Iter=  1 NonCon=     1 RMS=8.86D-08 Max=1.80D-06 NDo=     1
 LinEq1:  Iter=  2 NonCon=     1 RMS=5.58D-08 Max=1.51D-06 NDo=     1
 LinEq1:  Iter=  3 NonCon=     1 RMS=1.90D-08 Max=4.38D-07 NDo=     1
 LinEq1:  Iter=  4 NonCon=     1 RMS=8.03D-09 Max=2.40D-07 NDo=     1
 LinEq1:  Iter=  5 NonCon=     1 RMS=5.87D-09 Max=2.41D-07 NDo=     1
 LinEq1:  Iter=  6 NonCon=     1 RMS=3.43D-09 Max=1.01D-07 NDo=     1
 LinEq1:  Iter=  7 NonCon=     1 RMS=1.62D-09 Max=6.05D-08 NDo=     1
 LinEq1:  Iter=  8 NonCon=     1 RMS=8.62D-10 Max=2.58D-08 NDo=     1
 LinEq1:  Iter=  9 NonCon=     1 RMS=4.37D-10 Max=9.95D-09 NDo=     1
 LinEq1:  Iter= 10 NonCon=     1 RMS=1.72D-10 Max=3.43D-09 NDo=     1
 LinEq1:  Iter= 11 NonCon=     1 RMS=8.31D-11 Max=2.36D-09 NDo=     1
 LinEq1:  Iter= 12 NonCon=     1 RMS=6.03D-11 Max=1.51D-09 NDo=     1
 LinEq1:  Iter= 13 NonCon=     0 RMS=3.07D-11 Max=6.17D-10 NDo=     1
 Linear equations converged to 8.364D-11 8.364D-10 after    13 iterations.
 LinEq1:  Iter=  0 NonCon=     1 RMS=4.47D-08 Max=8.97D-07 NDo=     1
 LinEq1:  Iter=  1 NonCon=     1 RMS=2.51D-08 Max=6.95D-07 NDo=     1
 LinEq1:  Iter=  2 NonCon=     1 RMS=1.84D-08 Max=5.11D-07 NDo=     1
 LinEq1:  Iter=  3 NonCon=     1 RMS=8.46D-09 Max=1.94D-07 NDo=     1
 LinEq1:  Iter=  4 NonCon=     1 RMS=3.37D-09 Max=8.11D-08 NDo=     1
 LinEq1:  Iter=  5 NonCon=     1 RMS=1.86D-09 Max=5.51D-08 NDo=     1
 LinEq1:  Iter=  6 NonCon=     1 RMS=1.33D-09 Max=6.10D-08 NDo=     1
 LinEq1:  Iter=  7 NonCon=     1 RMS=8.28D-10 Max=2.16D-08 NDo=     1
 LinEq1:  Iter=  8 NonCon=     1 RMS=5.66D-10 Max=2.03D-08 NDo=     1
 LinEq1:  Iter=  9 NonCon=     1 RMS=2.15D-10 Max=4.43D-09 NDo=     1
 LinEq1:  Iter= 10 NonCon=     1 RMS=7.63D-11 Max=1.12D-09 NDo=     1
 LinEq1:  Iter= 11 NonCon=     1 RMS=2.90D-11 Max=5.23D-10 NDo=     1
 LinEq1:  Iter= 12 NonCon=     0 RMS=1.81D-11 Max=3.61D-10 NDo=     1
 Linear equations converged to 4.072D-11 4.072D-10 after    12 iterations.
 SCF Done:  E(UHF) =  -1934.94372445     a.u. after   23 cycles
            Convg  =    0.6353D-06                   280 Fock formations.
              S**2 =  1.8532                  -V/T =  2.0001
 <Sx>= 0.0000 <Sy>= 0.0000 <Sz>= 0.5000 <S**2>= 1.8532 S= 0.9503
 <L.S>= 0.000000000000E+00
 Annihilation of the first spin contaminant:
 S**2 before annihilation     1.8532,   after     2.2267

 **********************************************************************

            Population analysis using the SCF density.

 **********************************************************************

 Orbital symmetries:
 Alpha Orbitals:
       Occupied  (A') (A') (A") (A') (A') (A') (A") (A') (A') (A')
                 (A') (A") (A') (A') (A') (A") (A") (A') (A') (A')
                 (A') (A") (A') (A") (A') (A") (A') (A") (A') (A")
                 (A') (A") (A') (A") (A') (A") (A') (A') (A') (A")
                 (A') (A') (A") (A') (A') (A") (A') (A') (A") (A')
                 (A") (A')
       Virtual   (A') (A') (A') (A") (A") (A') (A') (A") (A') (A")
                 (A') (A') (A") (A') (A") (A') (A") (A') (A") (A')
                 (A") (A') (A') (A') (A") (A') (A') (A") (A') (A")
                 (A") (A') (A') (A') (A') (A") (A") (A') (A") (A')
                 (A') (A") (A') (A") (A') (A') (A") (A') (A') (A")
                 (A') (A') (A") (A') (A") (A') (A") (A') (A") (A')
                 (A") (A') (A') (A") (A') (A") (A') (A') (A') (A")
                 (A') (A") (A') (A") (A') (A") (A") (A') (A') (A")
                 (A') (A') (A') (A") (A') (A") (A") (A') (A') (A")
                 (A') (A") (A') (A') (A") (A') (A') (A") (A') (A')
 Beta  Orbitals:
       Occupied  (A') (A') (A') (A") (A') (A") (A') (A') (A') (A')
                 (A') (A') (A") (A') (A") (A') (A') (A') (A") (A')
                 (A") (A') (A') (A') (A") (A') (A") (A') (A") (A')
                 (A") (A') (A") (A') (A") (A') (A") (A') (A") (A')
                 (A') (A') (A') (A") (A') (A") (A') (A') (A") (A')
                 (A')
       Virtual   (A") (A') (A') (A') (A") (A') (A") (A') (A") (A')
                 (A") (A') (A") (A') (A') (A') (A") (A') (A") (A")
                 (A') (A") (A') (A') (A') (A") (A') (A') (A") (A')
                 (A') (A") (A') (A") (A') (A") (A') (A") (A') (A")
                 (A') (A') (A') (A") (A") (A') (A') (A") (A') (A')
                 (A") (A') (A') (A") (A') (A") (A') (A") (A') (A")
                 (A') (A") (A') (A') (A") (A') (A') (A") (A') (A')
                 (A") (A') (A') (A") (A") (A') (A") (A") (A') (A')
                 (A") (A') (A') (A') (A") (A') (A") (A") (A') (A')
                 (A") (A') (A") (A') (A') (A") (A') (A') (A") (A')
                 (A')
 The electronic state is 2-A".
 Alpha  occ. eigenvalues --  -58.64349 -58.62650 -58.61727 -58.61727 -58.61534
 Alpha  occ. eigenvalues --  -58.61248 -58.61158 -58.61157  -5.06058  -5.04670
 Alpha  occ. eigenvalues --   -5.04011  -5.04010  -5.03578  -5.03504  -5.03359
 Alpha  occ. eigenvalues --   -5.03358  -3.37136  -3.36886  -3.36781  -3.35867
 Alpha  occ. eigenvalues --   -3.35517  -3.35514  -3.35216  -3.35215  -3.35052
 Alpha  occ. eigenvalues --   -3.35049  -3.34892  -3.34892  -3.34792  -3.34750
 Alpha  occ. eigenvalues --   -3.34739  -3.34654  -3.34636  -3.34569  -3.34455
 Alpha  occ. eigenvalues --   -3.34422  -3.34409  -3.34358  -3.34259  -3.34249
 Alpha  occ. eigenvalues --   -0.81194  -0.68439  -0.65347  -0.62935  -0.56592
 Alpha  occ. eigenvalues --   -0.48708  -0.43905  -0.41918  -0.40431  -0.39588
 Alpha  occ. eigenvalues --   -0.38477  -0.38268
 Alpha virt. eigenvalues --   -0.17607  -0.13910  -0.13079  -0.13010  -0.11426
 Alpha virt. eigenvalues --   -0.11344  -0.09755  -0.06958  -0.05179  -0.04776
 Alpha virt. eigenvalues --   -0.03469  -0.01007  -0.00253   0.01227   0.02007
 Alpha virt. eigenvalues --    0.02250   0.04366   0.04643   0.05747   0.06443
 Alpha virt. eigenvalues --    0.08796   0.09511   0.10827   0.12364   0.13409
 Alpha virt. eigenvalues --    0.13506   0.14993   0.15554   0.17008   0.17985
 Alpha virt. eigenvalues --    0.18587   0.18670   0.20144   0.22109   0.23178
 Alpha virt. eigenvalues --    0.24167   0.24302   0.25035   0.25319   0.26427
 Alpha virt. eigenvalues --    0.27952   0.29510   0.29677   0.30848   0.30964
 Alpha virt. eigenvalues --    0.32115   0.32705   0.33355   0.35207   0.37982
 Alpha virt. eigenvalues --    0.39612   0.40361   0.41686   0.43637   0.44903
 Alpha virt. eigenvalues --    0.45614   0.46238   0.46732   0.50890   0.51123
 Alpha virt. eigenvalues --    0.51575   0.54279   0.55767   0.56549   0.57190
 Alpha virt. eigenvalues --    0.57630   0.58713   0.59923   0.61106   0.62452
 Alpha virt. eigenvalues --    0.63414   0.65589   0.65714   0.69204   0.71267
 Alpha virt. eigenvalues --    0.72367   0.72746   0.73186   0.74266   0.75505
 Alpha virt. eigenvalues --    0.76881   0.79547   0.81392   0.82023   0.85588
 Alpha virt. eigenvalues --    0.86863   0.90000   0.90453   0.94524   0.96735
 Alpha virt. eigenvalues --    0.98342   1.00940   2.07431   2.15462   2.16994
 Alpha virt. eigenvalues --    2.17852   2.22413   2.23986   2.27530   2.30634
  Beta  occ. eigenvalues --  -58.64300 -58.62570 -58.61836 -58.61458 -58.61458
  Beta  occ. eigenvalues --  -58.61269 -58.61269 -58.60997  -5.06044  -5.04494
  Beta  occ. eigenvalues --   -5.04035  -5.03599  -5.03595  -5.03536  -5.03535
  Beta  occ. eigenvalues --   -5.03148  -3.36905  -3.36882  -3.36406  -3.35604
  Beta  occ. eigenvalues --   -3.35550  -3.35467  -3.35232  -3.34963  -3.34950
  Beta  occ. eigenvalues --   -3.34834  -3.34819  -3.34685  -3.34684  -3.34639
  Beta  occ. eigenvalues --   -3.34632  -3.34595  -3.34594  -3.34479  -3.34478
  Beta  occ. eigenvalues --   -3.34328  -3.34325  -3.34248  -3.34141  -3.34112
  Beta  occ. eigenvalues --   -0.79981  -0.66701  -0.63077  -0.62796  -0.52906
  Beta  occ. eigenvalues --   -0.45518  -0.44487  -0.41623  -0.40110  -0.39553
  Beta  occ. eigenvalues --   -0.38099
  Beta virt. eigenvalues --   -0.16610  -0.15241  -0.14154  -0.13255  -0.11405
  Beta virt. eigenvalues --   -0.10782  -0.10226  -0.09506  -0.05554  -0.04303
  Beta virt. eigenvalues --   -0.03101  -0.02620  -0.00400  -0.00004   0.01582
  Beta virt. eigenvalues --    0.02493   0.03399   0.04033   0.05317   0.06863
  Beta virt. eigenvalues --    0.07180   0.09170   0.10181   0.10593   0.12273
  Beta virt. eigenvalues --    0.13821   0.14000   0.15263   0.16388   0.17401
  Beta virt. eigenvalues --    0.18844   0.18867   0.20385   0.21004   0.22094
  Beta virt. eigenvalues --    0.23510   0.24604   0.24646   0.25068   0.26078
  Beta virt. eigenvalues --    0.26254   0.28282   0.29770   0.30109   0.31344
  Beta virt. eigenvalues --    0.31751   0.32260   0.33827   0.33839   0.35616
  Beta virt. eigenvalues --    0.39180   0.39988   0.40932   0.43018   0.43772
  Beta virt. eigenvalues --    0.45478   0.45642   0.46917   0.46929   0.51229
  Beta virt. eigenvalues --    0.52309   0.52679   0.54392   0.55966   0.56708
  Beta virt. eigenvalues --    0.57453   0.58470   0.58569   0.60361   0.61653
  Beta virt. eigenvalues --    0.62644   0.63730   0.65596   0.67194   0.69904
  Beta virt. eigenvalues --    0.71592   0.72870   0.73520   0.73563   0.74886
  Beta virt. eigenvalues --    0.75138   0.77602   0.79763   0.81740   0.82139
  Beta virt. eigenvalues --    0.85847   0.86982   0.90647   0.90649   0.95077
  Beta virt. eigenvalues --    0.97399   0.98602   1.01189   2.07445   2.15702
  Beta virt. eigenvalues --    2.17402   2.17931   2.22564   2.24068   2.27422
  Beta virt. eigenvalues --    2.31143
          Condensed to atoms (all electrons):
               1          2          3          4          5          6
     1  Al  12.971509  -0.053666  -0.117573  -0.117573   0.049826   0.049826
     2  Al  -0.053666  13.489951   0.161402   0.161402  -0.293278  -0.293278
     3  Al  -0.117573   0.161402  13.065782   0.187954  -0.105356  -0.152832
     4  Al  -0.117573   0.161402   0.187954  13.065783  -0.152832  -0.105356
     5  Al   0.049826  -0.293278  -0.105356  -0.152832  13.369483   0.095206
     6  Al   0.049826  -0.293278  -0.152832  -0.105356   0.095206  13.369481
     7  Al   0.056325  -0.204706  -0.143551  -0.143551   0.107909   0.107909
     8  Al  -0.010570   0.021020   0.014377   0.014378  -0.032887  -0.032887
               7          8
     1  Al   0.056325  -0.010570
     2  Al  -0.204706   0.021020
     3  Al  -0.143551   0.014377
     4  Al  -0.143551   0.014378
     5  Al   0.107909  -0.032887
     6  Al   0.107909  -0.032887
     7  Al  12.947901  -0.001375
     8  Al  -0.001375  12.587588
          Atomic-Atomic Spin Densities.
               1          2          3          4          5          6
     1  Al  -0.460212  -0.062660  -0.039705  -0.039705  -0.053833  -0.053833
     2  Al  -0.062660   0.355850   0.118164   0.118164   0.065455   0.065455
     3  Al  -0.039705   0.118164   0.487326   0.105678  -0.086294   0.098014
     4  Al  -0.039705   0.118164   0.105678   0.487326   0.098013  -0.086294
     5  Al  -0.053833   0.065455  -0.086294   0.098013  -0.252369  -0.066404
     6  Al  -0.053833   0.065455   0.098014  -0.086294  -0.066404  -0.252369
     7  Al   0.052435  -0.040202  -0.072836  -0.072836   0.007080   0.007080
     8  Al   0.005437  -0.013671   0.014201   0.014201   0.053926   0.053926
               7          8
     1  Al   0.052435   0.005437
     2  Al  -0.040202  -0.013671
     3  Al  -0.072836   0.014201
     4  Al  -0.072836   0.014201
     5  Al   0.007080   0.053926
     6  Al   0.007080   0.053926
     7  Al   0.202134  -0.004843
     8  Al  -0.004843   0.064085
 Mulliken charges and spin densities:
               1          2
     1  Al   0.171898  -0.652076
     2  Al   0.011153   0.606556
     3  Al   0.089797   0.624548
     4  Al   0.089796   0.624548
     5  Al  -0.038070  -0.234426
     6  Al  -0.038069  -0.234426
     7  Al   0.273140   0.078013
     8  Al   0.440357   0.187262
 Sum of Mulliken charges =   1.00000   1.00000
 Mulliken charges and spin densities with hydrogens summed into heavy atoms:
               1          2
     1  Al   0.171898  -0.652076
     2  Al   0.011153   0.606556
     3  Al   0.089797   0.624548
     4  Al   0.089796   0.624548
     5  Al  -0.038070  -0.234426
     6  Al  -0.038069  -0.234426
     7  Al   0.273140   0.078013
     8  Al   0.440357   0.187262
 Electronic spatial extent (au):  <R**2>=           2239.3276
 Charge=              1.0000 electrons
 Dipole moment (field-independent basis, Debye):
    X=             -0.1557    Y=              1.1277    Z=              0.0000  Tot=              1.1384
 Quadrupole moment (field-independent basis, Debye-Ang):
   XX=            -88.0506   YY=            -68.7160   ZZ=            -89.1579
   XY=              6.5831   XZ=              0.0000   YZ=              0.0000
 Traceless Quadrupole moment (field-independent basis, Debye-Ang):
   XX=             -6.0758   YY=             13.2588   ZZ=             -7.1830
   XY=              6.5831   XZ=              0.0000   YZ=              0.0000
 Octapole moment (field-independent basis, Debye-Ang**2):
  XXX=             -3.4904  YYY=             35.8018  ZZZ=              0.0001  XYY=            -15.2272
  XXY=             -7.0213  XXZ=              0.0000  XZZ=              4.6711  YZZ=            -10.7082
  YYZ=              0.0000  XYZ=              0.0000
 Hexadecapole moment (field-independent basis, Debye-Ang**3):
 XXXX=           -896.4894 YYYY=          -1693.3941 ZZZZ=           -909.0492 XXXY=            -71.7346
 XXXZ=              0.0000 YYYX=            -31.8719 YYYZ=              0.0000 ZZZX=              0.0000
 ZZZY=              0.0000 XXYY=           -434.2128 XXZZ=           -327.9149 YYZZ=           -474.3740
 XXYZ=              0.0000 YYXZ=              0.0000 ZZXY=            -38.3814
 N-N= 7.770125149693D+02 E-N=-6.167339749944D+03  KE= 1.934804841563D+03
 Symmetry A'   KE= 1.371126406639D+03
 Symmetry A"   KE= 5.636784349236D+02
                          Isotropic Fermi Contact Couplings
        Atom                 a.u.       MegaHertz       Gauss      10(-4) cm-1
     1  Al(27)            -0.33632    -392.02404    -139.88392    -130.76514
     2  Al(27)             0.24300     283.25224     101.07144      94.48278
     3  Al(27)             0.29666     345.79707     123.38899     115.34549
     4  Al(27)             0.29666     345.79698     123.38896     115.34546
     5  Al(27)            -0.25001    -291.41894    -103.98552     -97.20690
     6  Al(27)            -0.25001    -291.41907    -103.98557     -97.20694
     7  Al(27)             0.17867     208.25944      74.31215      69.46787
     8  Al(27)            -0.16906    -197.06146     -70.31643     -65.73263
 --------------------------------------------------------
       Center         ----  Spin Dipole Couplings  ----
                      3XX-RR        3YY-RR        3ZZ-RR
 --------------------------------------------------------
     1   Atom       -0.227988      0.093423      0.134565
     2   Atom        0.115412     -0.165364      0.049952
     3   Atom       -0.101647      0.111768     -0.010121
     4   Atom       -0.101647      0.111768     -0.010121
     5   Atom       -0.073135      0.373153     -0.300018
     6   Atom       -0.073135      0.373153     -0.300018
     7   Atom        0.081312      0.033131     -0.114443
     8   Atom       -0.182352     -0.287990      0.470342
 --------------------------------------------------------
                        XY            XZ            YZ
 --------------------------------------------------------
     1   Atom        0.181966      0.000000      0.000000
     2   Atom       -0.168559      0.000000      0.000000
     3   Atom       -0.168399      0.082911     -0.048298
     4   Atom       -0.168399     -0.082911      0.048298
     5   Atom        0.234970     -0.121450      0.117019
     6   Atom        0.234970      0.121449     -0.117019
     7   Atom        0.215792      0.000000      0.000000
     8   Atom        0.020491      0.000000      0.000000
 --------------------------------------------------------


 ---------------------------------------------------------------------------------
              Anisotropic Spin Dipole Couplings in Principal Axis System
 ---------------------------------------------------------------------------------

       Atom             a.u.   MegaHertz   Gauss  10(-4) cm-1        Axes

              Baa    -0.3101   -43.140   -15.393   -14.390  0.9116 -0.4111  0.0000
     1 Al(27) Bbb     0.1346    18.723     6.681     6.245  0.0000  0.0000  1.0000
              Bcc     0.1755    24.417     8.713     8.145  0.4111  0.9116  0.0000
 
              Baa    -0.2443   -33.997   -12.131   -11.340  0.4243  0.9055  0.0000
     2 Al(27) Bbb     0.0500     6.950     2.480     2.318  0.0000  0.0000  1.0000
              Bcc     0.1944    27.047     9.651     9.022  0.9055 -0.4243  0.0000
 
              Baa    -0.2077   -28.905   -10.314    -9.642  0.8694  0.4186 -0.2625
     3 Al(27) Bbb    -0.0252    -3.506    -1.251    -1.170  0.0753  0.4127  0.9077
              Bcc     0.2329    32.411    11.565    10.811 -0.4883  0.8090 -0.3273
 
              Baa    -0.2077   -28.905   -10.314    -9.642  0.8694  0.4186  0.2625
     4 Al(27) Bbb    -0.0252    -3.506    -1.251    -1.169 -0.0753 -0.4127  0.9077
              Bcc     0.2329    32.411    11.565    10.811 -0.4883  0.8090  0.3273
 
              Baa    -0.4097   -57.000   -20.339   -19.013  0.4883 -0.2706  0.8296
     5 Al(27) Bbb    -0.0692    -9.625    -3.434    -3.211  0.7878 -0.2723 -0.5525
              Bcc     0.4788    66.625    23.774    22.224  0.3754  0.9234  0.0802
 
              Baa    -0.4097   -57.000   -20.339   -19.013 -0.4883  0.2706  0.8296
     6 Al(27) Bbb    -0.0692    -9.625    -3.434    -3.211  0.7878 -0.2723  0.5525
              Bcc     0.4788    66.625    23.774    22.224  0.3754  0.9234 -0.0802
 
              Baa    -0.1599   -22.249    -7.939    -7.422 -0.6667  0.7453  0.0000
     7 Al(27) Bbb    -0.1144   -15.923    -5.682    -5.311  0.0000  0.0000  1.0000
              Bcc     0.2744    38.173    13.621    12.733  0.7453  0.6667  0.0000
 
              Baa    -0.2918   -40.604   -14.488   -13.544 -0.1840  0.9829  0.0000
     8 Al(27) Bbb    -0.1785   -24.838    -8.863    -8.285  0.9829  0.1840  0.0000
              Bcc     0.4703    65.442    23.351    21.829  0.0000  0.0000  1.0000
 

 ---------------------------------------------------------------------------------


 Test job not archived.
 1\1\GINC-R2I2N5\SP\UHF\6-31G(d)\Al8(1+,2)\VSC31064\03-Oct-2016\0\\# hf
 /6-31G* test scf=xqc\\Al8-c-d\\1,2\Al,0,-2.08740391,0.15537342,0.\Al,0
 ,1.76374811,0.08844126,0.\Al,0,-0.51449412,1.40649508,1.68337976\Al,0,
 -0.51449412,1.40649508,-1.68337976\Al,0,-0.02041168,-1.11137041,-1.478
 84679\Al,0,-0.02041168,-1.11137041,1.47884679\Al,0,1.05178455,2.601914
 11,0.\Al,0,0.34067288,-3.43617905,0.\\Version=ES64L-G09RevD.01\State=2
 -A"\HF=-1934.9437245\S2=1.85325\S2-1=0.\S2A=2.226739\RMSD=1.514e-04\Di
 pole=0.1455417,-0.4235607,0.0000074\Quadrupole=-5.8338264,11.1742288,-
 5.3404024,1.8152498,-0.0000014,-0.0000024\PG=CS [SG(Al4),X(Al4)]\\@


 A warm smile is the universal language of kindness.
                             -- William Arthur Ward
 Job cpu time:       0 days  0 hours  4 minutes 35.0 seconds.
 File lengths (MBytes):  RWF=     16 Int=      0 D2E=      0 Chk=      2 Scr=      1
 Normal termination of Gaussian 09 at Mon Oct  3 11:46:02 2016.
 Initial command:
 /apps/leuven/thinking/software/G09//g09D1/l1.exe "/local_scratch/vsc31064/Gau-11863.inp" -scrdir="/local_scratch/vsc31064/"
 Entering Link 1 = /apps/leuven/thinking/software/G09//g09D1/l1.exe PID=     12254.
  
 Copyright (c) 1988,1990,1992,1993,1995,1998,2003,2009,2013,
            Gaussian, Inc.  All Rights Reserved.
  
 This is part of the Gaussian(R) 09 program.  It is based on
 the Gaussian(R) 03 system (copyright 2003, Gaussian, Inc.),
 the Gaussian(R) 98 system (copyright 1998, Gaussian, Inc.),
 the Gaussian(R) 94 system (copyright 1995, Gaussian, Inc.),
 the Gaussian 92(TM) system (copyright 1992, Gaussian, Inc.),
 the Gaussian 90(TM) system (copyright 1990, Gaussian, Inc.),
 the Gaussian 88(TM) system (copyright 1988, Gaussian, Inc.),
 the Gaussian 86(TM) system (copyright 1986, Carnegie Mellon
 University), and the Gaussian 82(TM) system (copyright 1983,
 Carnegie Mellon University). Gaussian is a federally registered
 trademark of Gaussian, Inc.
  
 This software contains proprietary and confidential information,
 including trade secrets, belonging to Gaussian, Inc.
  
 This software is provided under written license and may be
 used, copied, transmitted, or stored only in accord with that
 written license.
  
 The following legend is applicable only to US Government
 contracts under FAR:
  
                    RESTRICTED RIGHTS LEGEND
  
 Use, reproduction and disclosure by the US Government is
 subject to restrictions as set forth in subparagraphs (a)
 and (c) of the Commercial Computer Software - Restricted
 Rights clause in FAR 52.227-19.
  
 Gaussian, Inc.
 340 Quinnipiac St., Bldg. 40, Wallingford CT 06492
  
  
 ---------------------------------------------------------------
 Warning -- This program may not be used in any manner that
 competes with the business of Gaussian, Inc. or will provide
 assistance to any competitor of Gaussian, Inc.  The licensee
 of this program is prohibited from giving any competitor of
 Gaussian, Inc. access to this program.  By using this program,
 the user acknowledges that Gaussian, Inc. is engaged in the
 business of creating and licensing software in the field of
 computational chemistry and represents and warrants to the
 licensee that it is not a competitor of Gaussian, Inc. and that
 it will not use this program in any manner prohibited above.
 ---------------------------------------------------------------
  

 Cite this work as:
 Gaussian 09, Revision D.01,
 M. J. Frisch, G. W. Trucks, H. B. Schlegel, G. E. Scuseria, 
 M. A. Robb, J. R. Cheeseman, G. Scalmani, V. Barone, B. Mennucci, 
 G. A. Petersson, H. Nakatsuji, M. Caricato, X. Li, H. P. Hratchian, 
 A. F. Izmaylov, J. Bloino, G. Zheng, J. L. Sonnenberg, M. Hada, 
 M. Ehara, K. Toyota, R. Fukuda, J. Hasegawa, M. Ishida, T. Nakajima, 
 Y. Honda, O. Kitao, H. Nakai, T. Vreven, J. A. Montgomery, Jr., 
 J. E. Peralta, F. Ogliaro, M. Bearpark, J. J. Heyd, E. Brothers, 
 K. N. Kudin, V. N. Staroverov, T. Keith, R. Kobayashi, J. Normand, 
 K. Raghavachari, A. Rendell, J. C. Burant, S. S. Iyengar, J. Tomasi, 
 M. Cossi, N. Rega, J. M. Millam, M. Klene, J. E. Knox, J. B. Cross, 
 V. Bakken, C. Adamo, J. Jaramillo, R. Gomperts, R. E. Stratmann, 
 O. Yazyev, A. J. Austin, R. Cammi, C. Pomelli, J. W. Ochterski, 
 R. L. Martin, K. Morokuma, V. G. Zakrzewski, G. A. Voth, 
 P. Salvador, J. J. Dannenberg, S. Dapprich, A. D. Daniels, 
 O. Farkas, J. B. Foresman, J. V. Ortiz, J. Cioslowski, 
 and D. J. Fox, Gaussian, Inc., Wallingford CT, 2013.
 
 ******************************************
 Gaussian 09:  ES64L-G09RevD.01 24-Apr-2013
                 3-Oct-2016 
 ******************************************
 %NprocShared=20
 Will use up to   20 processors via shared memory.
 %mem=55000mb
 %chk=cc-Al8-c-d
 --------------------------------------------------------
 # CCSD(T,conver=5)/cc-pVTZ test geom=allcheck guess=read
 --------------------------------------------------------
 1/29=7,38=1/1;
 2/12=2,40=1/2;
 3/5=16,6=1,11=9,14=-4,16=1,25=1,30=1,116=-2/1,2,3;
 4/5=1/1;
 5/5=2,38=6/2;
 8/6=4,9=120000,10=1/1,4;
 9/5=7,9=5,14=2/13;
 6/7=2,8=2,9=2,10=2/1;
 99/5=1,9=1/99;
 Structure from the checkpoint file:  "cc-Al8-c-d.chk"
 -------
 Al8-c-d
 -------
 Charge =  1 Multiplicity = 2
 Z-Matrix found in file.
 Al,0,-2.08740391,0.15537342,0.
 Al,0,1.76374811,0.08844126,0.
 Al,0,-0.51449412,1.40649508,1.68337976
 Al,0,-0.51449412,1.40649508,-1.68337976
 Al,0,-0.02041168,-1.11137041,-1.47884679
 Al,0,-0.02041168,-1.11137041,1.47884679
 Al,0,1.05178455,2.60191411,0.
 Al,0,0.34067288,-3.43617905,0.
 Recover connectivity data from disk.
                          Input orientation:                          
 ---------------------------------------------------------------------
 Center     Atomic      Atomic             Coordinates (Angstroms)
 Number     Number       Type             X           Y           Z
 ---------------------------------------------------------------------
      1         13           0       -2.087404    0.155373    0.000000
      2         13           0        1.763748    0.088441    0.000000
      3         13           0       -0.514494    1.406495    1.683380
      4         13           0       -0.514494    1.406495   -1.683380
      5         13           0       -0.020412   -1.111370   -1.478847
      6         13           0       -0.020412   -1.111370    1.478847
      7         13           0        1.051785    2.601914    0.000000
      8         13           0        0.340673   -3.436179    0.000000
 ---------------------------------------------------------------------
                    Distance matrix (angstroms):
                    1          2          3          4          5
     1  Al   0.000000
     2  Al   3.851734   0.000000
     3  Al   2.621663   3.124327   0.000000
     4  Al   2.621663   3.124327   3.366760   0.000000
     5  Al   2.839733   2.609552   4.072277   2.574024   0.000000
     6  Al   2.839733   2.609552   2.574024   4.072277   2.957694
     7  Al   3.979958   2.612363   2.591529   2.591529   4.138245
     8  Al   4.335298   3.801065   5.197747   5.197747   2.778868
                    6          7          8
     6  Al   0.000000
     7  Al   4.138245   0.000000
     8  Al   2.778868   6.079823   0.000000
 Stoichiometry    Al8(1+,2)
 Framework group  CS[SG(Al4),X(Al4)]
 Deg. of freedom    11
 Full point group                 CS      NOp   2
 Largest Abelian subgroup         CS      NOp   2
 Largest concise Abelian subgroup CS      NOp   2
                         Standard orientation:                         
 ---------------------------------------------------------------------
 Center     Atomic      Atomic             Coordinates (Angstroms)
 Number     Number       Type             X           Y           Z
 ---------------------------------------------------------------------
      1         13           0        2.018292   -0.554413    0.000000
      2         13           0       -1.747899    0.252838    0.000000
      3         13           0        0.233905   -1.479244    1.683380
      4         13           0        0.233905   -1.479244   -1.683380
      5         13           0        0.233905    1.086641   -1.478847
      6         13           0        0.233905    1.086641    1.478847
      7         13           0       -1.533250   -2.350691    0.000000
      8         13           0        0.327239    3.437472    0.000000
 ---------------------------------------------------------------------
 Rotational constants (GHZ):      0.9724030      0.5467718      0.5339760
 Standard basis: CC-pVTZ (5D, 7F)
 There are   186 symmetry adapted cartesian basis functions of A'  symmetry.
 There are   126 symmetry adapted cartesian basis functions of A"  symmetry.
 There are   160 symmetry adapted basis functions of A'  symmetry.
 There are   112 symmetry adapted basis functions of A"  symmetry.
   272 basis functions,   760 primitive gaussians,   312 cartesian basis functions
    52 alpha electrons       51 beta electrons
       nuclear repulsion energy       777.0125149693 Hartrees.
 NAtoms=    8 NActive=    8 NUniq=    6 SFac= 1.78D+00 NAtFMM=   60 NAOKFM=F Big=F
 Integral buffers will be    131072 words long.
 Raffenetti 2 integral format.
 Two-electron integral symmetry is turned on.
 One-electron integrals computed using PRISM.
 NBasis=   272 RedAO= T EigKep=  4.89D-04  NBF=   160   112
 NBsUse=   272 1.00D-06 EigRej= -1.00D+00 NBFU=   160   112
 Initial guess from the checkpoint file:  "cc-Al8-c-d.chk"
 B after Tr=     0.000000    0.000000    0.000000
         Rot=    1.000000    0.000000    0.000000    0.000000 Ang=   0.00 deg.
 Initial guess orbital symmetries:
 Alpha Orbitals:
       Occupied  (A') (A') (A") (A') (A') (A') (A") (A') (A') (A')
                 (A') (A") (A') (A') (A') (A") (A") (A') (A') (A')
                 (A') (A") (A') (A") (A') (A") (A') (A") (A') (A")
                 (A') (A") (A') (A") (A') (A") (A') (A') (A') (A")
                 (A') (A') (A") (A') (A') (A") (A') (A') (A") (A')
                 (A") (A')
       Virtual   (A') (A') (A') (A') (A') (A') (A') (A') (A') (A')
                 (A') (A') (A') (A') (A') (A') (A') (A') (A') (A')
                 (A') (A') (A') (A') (A') (A') (A') (A') (A') (A')
                 (A') (A') (A') (A') (A') (A') (A') (A') (A') (A')
                 (A') (A') (A') (A') (A') (A') (A') (A') (A') (A')
                 (A') (A') (A') (A') (A') (A') (A') (A') (A') (A')
                 (A') (A') (A') (A') (A') (A') (A') (A') (A') (A')
                 (A') (A') (A') (A') (A') (A') (A') (A') (A') (A')
                 (A') (A') (A') (A') (A') (A') (A') (A') (A') (A')
                 (A') (A') (A') (A') (A') (A') (A') (A') (A') (A')
                 (A') (A') (A') (A') (A') (A') (A') (A') (A') (A')
                 (A') (A') (A') (A') (A') (A') (A') (A') (A') (A')
                 (A') (A') (A') (A') (A') (A') (A") (A") (A") (A")
                 (A") (A") (A") (A") (A") (A") (A") (A") (A") (A")
                 (A") (A") (A") (A") (A") (A") (A") (A") (A") (A")
                 (A") (A") (A") (A") (A") (A") (A") (A") (A") (A")
                 (A") (A") (A") (A") (A") (A") (A") (A") (A") (A")
                 (A") (A") (A") (A") (A") (A") (A") (A") (A") (A")
                 (A") (A") (A") (A") (A") (A") (A") (A") (A") (A")
                 (A") (A") (A") (A") (A") (A") (A") (A") (A") (A")
                 (A") (A") (A") (A") (A") (A") (A") (A") (A") (A")
                 (A") (A") (A") (A") (A") (A") (A") (A") (A") (A")
 Beta  Orbitals:
       Occupied  (A') (A') (A') (A") (A') (A") (A') (A') (A') (A')
                 (A') (A') (A") (A') (A") (A') (A') (A') (A") (A')
                 (A") (A') (A') (A') (A") (A') (A") (A') (A") (A')
                 (A") (A') (A") (A') (A") (A') (A") (A') (A") (A')
                 (A') (A') (A') (A") (A') (A") (A') (A') (A") (A')
                 (A')
       Virtual   (A') (A') (A') (A') (A') (A') (A') (A') (A') (A')
                 (A') (A') (A') (A') (A') (A') (A') (A') (A') (A')
                 (A') (A') (A') (A') (A') (A') (A') (A') (A') (A')
                 (A') (A') (A') (A') (A') (A') (A') (A') (A') (A')
                 (A') (A') (A') (A') (A') (A') (A') (A') (A') (A')
                 (A') (A') (A') (A') (A') (A') (A') (A') (A') (A')
                 (A') (A') (A') (A') (A') (A') (A') (A') (A') (A')
                 (A') (A') (A') (A') (A') (A') (A') (A') (A') (A')
                 (A') (A') (A') (A') (A') (A') (A') (A') (A') (A')
                 (A') (A') (A') (A') (A') (A') (A') (A') (A') (A')
                 (A') (A') (A') (A') (A') (A') (A') (A') (A') (A')
                 (A') (A') (A') (A') (A') (A') (A') (A') (A') (A')
                 (A') (A') (A') (A') (A') (A') (A") (A") (A") (A")
                 (A") (A") (A") (A") (A") (A") (A") (A") (A") (A")
                 (A") (A") (A") (A") (A") (A") (A") (A") (A") (A")
                 (A") (A") (A") (A") (A") (A") (A") (A") (A") (A")
                 (A") (A") (A") (A") (A") (A") (A") (A") (A") (A")
                 (A") (A") (A") (A") (A") (A") (A") (A") (A") (A")
                 (A") (A") (A") (A") (A") (A") (A") (A") (A") (A")
                 (A") (A") (A") (A") (A") (A") (A") (A") (A") (A")
                 (A") (A") (A") (A") (A") (A") (A") (A") (A") (A")
                 (A") (A") (A") (A") (A") (A") (A") (A") (A") (A")
                 (A")
 Initial guess <Sx>= 0.0000 <Sy>= 0.0000 <Sz>= 0.5000 <S**2>= 1.8792 S= 0.9592
 Keep R1 and R2 ints in memory in symmetry-blocked form, NReq=1035562886.
 Requested convergence on RMS density matrix=1.00D-08 within 128 cycles.
 Requested convergence on MAX density matrix=1.00D-06.
 Requested convergence on             energy=1.00D-06.
 No special actions if energy rises.
 SCF Done:  E(UHF) =  -1935.12612051     A.U. after   38 cycles
            NFock= 38  Conv=0.10D-07     -V/T= 1.9999
 <Sx>= 0.0000 <Sy>= 0.0000 <Sz>= 0.5000 <S**2>= 1.8900 S= 0.9629
 <L.S>= 0.000000000000E+00
 Annihilation of the first spin contaminant:
 S**2 before annihilation     1.8900,   after     2.4737
 ExpMin= 5.56D-02 ExpMax= 2.06D+05 ExpMxC= 1.99D+03 IAcc=3 IRadAn=         5 AccDes= 0.00D+00
 HarFok:  IExCor=  205 AccDes= 0.00D+00 IRadAn=         5 IDoV=-2 UseB2=F ITyADJ=14
 ICtDFT= 12500011 ScaDFX=  1.000000  1.000000  1.000000  1.000000
 Range of M.O.s used for correlation:    41   272
 NBasis=   272 NAE=    52 NBE=    51 NFC=    40 NFV=     0
 NROrb=    232 NOA=    12 NOB=    11 NVA=   220 NVB=   221

 **** Warning!!: The largest alpha MO coefficient is  0.12825942D+02


 **** Warning!!: The largest beta MO coefficient is  0.10735918D+02

 Semi-Direct transformation.
 ModeAB=           4 MOrb=            12 LenV=    7206851369
 LASXX=     36201263 LTotXX=    36201263 LenRXX=    72986559
 LTotAB=    36785296 MaxLAS=    85808448 LenRXY=           0
 NonZer=   109187822 LenScr=   164552704 LnRSAI=    85808448
 LnScr1=   129454080 LExtra=           0 Total=    452801791
 MaxDsk=          -1 SrtSym=           T ITran=            4
 JobTyp=1 Pass  1:  I=   1 to  12.
 (rs|ai) integrals will be sorted in core.
 ModeAB=           4 MOrb=            11 LenV=    7206851369
 LASXX=     33282384 LTotXX=    33282384 LenRXX=    63687222
 LTotAB=    30404838 MaxLAS=    78657744 LenRXY=           0
 NonZer=    96969606 LenScr=   146216448 LnRSAI=    78657744
 LnScr1=   118759424 LExtra=           0 Total=    407320838
 MaxDsk=          -1 SrtSym=           T ITran=            4
 JobTyp=2 Pass  1:  I=   1 to  11.
 (rs|ai) integrals will be sorted in core.
 Spin components of T(2) and E(2):
     alpha-alpha T2 =       0.9770290205D-01 E2=     -0.9207300530D-01
     alpha-beta  T2 =       0.4024171738D+00 E2=     -0.4373760848D+00
     beta-beta   T2 =       0.8388942892D-01 E2=     -0.7921310368D-01
 ANorm=    0.1258574394D+01
 E2 =    -0.6086621938D+00 EUMP2 =    -0.19357347827059D+04
 (S**2,0)=  0.18900D+01           (S**2,1)=  0.17029D+01
 E(PUHF)=      -0.19351641673D+04        E(PMP2)=      -0.19357711798D+04
 Keep R2 and R3 ints in memory in symmetry-blocked form, NReq=1035245350.
 Iterations=  50 Convergence= 0.100D-04
 Iteration Nr.   1
 **********************
 DD1Dir will call FoFMem   1 times, MxPair=       386
 NAB=   132 NAA=    66 NBB=    55.
 E(PMP3)=      -0.19357552559D+04
 MP4(R+Q)=  0.45085426D-01
 E3=        0.11807973D-01        EUMP3=      -0.19357229747D+04
 E4(DQ)=    0.28402403D-02        UMP4(DQ)=   -0.19357201345D+04
 E4(SDQ)=  -0.13586293D-01        UMP4(SDQ)=  -0.19357365610D+04
 DE(Corr)= -0.55258322     E(Corr)=     -1935.6787037    
 NORM(A)=   0.12268482D+01
 Iteration Nr.   2
 **********************
 DD1Dir will call FoFMem   1 times, MxPair=       386
 NAB=   132 NAA=    66 NBB=    55.
 DE(Corr)= -0.60735356     E(CORR)=     -1935.7334741     Delta=-5.48D-02
 NORM(A)=   0.12793342D+01
 Iteration Nr.   3
 **********************
 DD1Dir will call FoFMem   1 times, MxPair=       386
 NAB=   132 NAA=    66 NBB=    55.
 DE(Corr)= -0.60254422     E(CORR)=     -1935.7286647     Delta= 4.81D-03
 NORM(A)=   0.13164965D+01
 Iteration Nr.   4
 **********************
 DD1Dir will call FoFMem   1 times, MxPair=       386
 NAB=   132 NAA=    66 NBB=    55.
 DE(Corr)= -0.61217576     E(CORR)=     -1935.7382963     Delta=-9.63D-03
 NORM(A)=   0.13560987D+01
 Iteration Nr.   5
 **********************
 DD1Dir will call FoFMem   1 times, MxPair=       386
 NAB=   132 NAA=    66 NBB=    55.
 DE(Corr)= -0.61738432     E(CORR)=     -1935.7435048     Delta=-5.21D-03
 NORM(A)=   0.13899139D+01
 Iteration Nr.   6
 **********************
 DD1Dir will call FoFMem   1 times, MxPair=       386
 NAB=   132 NAA=    66 NBB=    55.
 DE(Corr)= -0.61969206     E(CORR)=     -1935.7458126     Delta=-2.31D-03
 NORM(A)=   0.13971668D+01
 Iteration Nr.   7
 **********************
 DD1Dir will call FoFMem   1 times, MxPair=       386
 NAB=   132 NAA=    66 NBB=    55.
 DE(Corr)= -0.62017342     E(CORR)=     -1935.7462939     Delta=-4.81D-04
 NORM(A)=   0.13982652D+01
 Iteration Nr.   8
 **********************
 DD1Dir will call FoFMem   1 times, MxPair=       386
 NAB=   132 NAA=    66 NBB=    55.
 DE(Corr)= -0.62023789     E(CORR)=     -1935.7463584     Delta=-6.45D-05
 NORM(A)=   0.14005539D+01
 Iteration Nr.   9
 **********************
 DD1Dir will call FoFMem   1 times, MxPair=       386
 NAB=   132 NAA=    66 NBB=    55.
 DE(Corr)= -0.62026359     E(CORR)=     -1935.7463841     Delta=-2.57D-05
 NORM(A)=   0.14002024D+01
 Iteration Nr.  10
 **********************
 DD1Dir will call FoFMem   1 times, MxPair=       386
 NAB=   132 NAA=    66 NBB=    55.
 DE(Corr)= -0.62025120     E(CORR)=     -1935.7463717     Delta= 1.24D-05
 NORM(A)=   0.14003045D+01
 Iteration Nr.  11
 **********************
 DD1Dir will call FoFMem   1 times, MxPair=       386
 NAB=   132 NAA=    66 NBB=    55.
 DE(Corr)= -0.62026614     E(CORR)=     -1935.7463867     Delta=-1.49D-05
 NORM(A)=   0.14004672D+01
 Iteration Nr.  12
 **********************
 DD1Dir will call FoFMem   1 times, MxPair=       386
 NAB=   132 NAA=    66 NBB=    55.
 DE(Corr)= -0.62026805     E(CORR)=     -1935.7463886     Delta=-1.91D-06
 NORM(A)=   0.14007191D+01
 Iteration Nr.  13
 **********************
 DD1Dir will call FoFMem   1 times, MxPair=       386
 NAB=   132 NAA=    66 NBB=    55.
 DE(Corr)= -0.62030106     E(CORR)=     -1935.7464216     Delta=-3.30D-05
 NORM(A)=   0.14009955D+01
 Iteration Nr.  14
 **********************
 DD1Dir will call FoFMem   1 times, MxPair=       386
 NAB=   132 NAA=    66 NBB=    55.
 DE(Corr)= -0.62031923     E(CORR)=     -1935.7464397     Delta=-1.82D-05
 NORM(A)=   0.14011442D+01
 Iteration Nr.  15
 **********************
 DD1Dir will call FoFMem   1 times, MxPair=       386
 NAB=   132 NAA=    66 NBB=    55.
 DE(Corr)= -0.62032982     E(CORR)=     -1935.7464503     Delta=-1.06D-05
 NORM(A)=   0.14012658D+01
 Iteration Nr.  16
 **********************
 DD1Dir will call FoFMem   1 times, MxPair=       386
 NAB=   132 NAA=    66 NBB=    55.
 DE(Corr)= -0.62034025     E(CORR)=     -1935.7464608     Delta=-1.04D-05
 NORM(A)=   0.14013228D+01
 Iteration Nr.  17
 **********************
 DD1Dir will call FoFMem   1 times, MxPair=       386
 NAB=   132 NAA=    66 NBB=    55.
 DE(Corr)= -0.62034186     E(CORR)=     -1935.7464624     Delta=-1.61D-06
 NORM(A)=   0.14013457D+01
 Dominant configurations:
 ***********************
 Spin Case        I    J    A    B          Value
    AA           48        53           -0.158455D+00
    AA           50        54            0.105097D+00
    AA           50        57           -0.149917D+00
    BB           47        54           -0.129096D+00
    BB           50        55           -0.158031D+00
    BB           51        54            0.139052D+00
    BB           51        55           -0.214113D+00
 Largest amplitude= 2.14D-01
 Time for triples=     9853.99 seconds.
 T4(CCSD)= -0.85706724D-01
 T5(CCSD)=  0.58768713D-02
 CCSD(T)= -0.19358262922D+04

 S**2, projected HF & approx projected MPn energies after annihilation of
 unwanted spin states (see manual for definitions):

 spins       (S**2,0) (S**2,1)    PUHF        PMP2        PMP3        PMP4
 annihilated
 s+1        -0.26757  0.17818-1935.164167-1935.771180-1935.755256
 s+1,s+2     0.95374  0.82833-1935.143937-1935.751732-1935.737680
 s+1 to s+3  0.72675  0.74712-1935.147456-1935.754812-1935.739679
 s+1 to s+4  0.75137  0.74975-1935.147088-1935.754437-1935.739280
 s+1 to s+5  0.74996  0.74975-1935.147109
 s+1 to s+6  0.75000  0.74975-1935.147108

 Discarding MO integrals.

 **********************************************************************

            Population analysis using the SCF density.

 **********************************************************************

 Orbital symmetries:
 Alpha Orbitals:
       Occupied  (A') (A') (A') (A") (A') (A') (A') (A") (A') (A')
                 (A') (A") (A') (A') (A') (A") (A") (A') (A') (A')
                 (A") (A') (A') (A") (A') (A") (A') (A") (A') (A")
                 (A') (A") (A') (A") (A') (A") (A') (A') (A') (A")
                 (A') (A') (A") (A') (A') (A") (A') (A') (A") (A')
                 (A") (A')
       Virtual   (A') (A') (A') (A") (A') (A") (A') (A") (A') (A")
                 (A') (A') (A") (A') (A") (A') (A') (A") (A') (A")
                 (A') (A') (A") (A') (A') (A') (A") (A') (A") (A")
                 (A') (A") (A') (A") (A') (A') (A") (A') (A") (A")
                 (A') (A') (A') (A") (A') (A") (A') (A") (A') (A")
                 (A') (A') (A") (A') (A') (A") (A') (A') (A") (A")
                 (A') (A') (A') (A") (A') (A") (A") (A') (A') (A")
                 (A") (A') (A') (A") (A') (A') (A") (A") (A') (A')
                 (A') (A") (A") (A') (A") (A') (A') (A') (A") (A')
                 (A') (A") (A") (A') (A') (A") (A') (A") (A") (A')
                 (A') (A') (A") (A") (A') (A') (A") (A') (A') (A")
                 (A') (A") (A') (A") (A") (A') (A") (A') (A') (A")
                 (A") (A') (A') (A") (A") (A') (A') (A') (A") (A')
                 (A") (A") (A') (A') (A") (A') (A") (A') (A") (A')
                 (A") (A') (A') (A") (A') (A') (A") (A') (A") (A')
                 (A") (A') (A') (A') (A") (A") (A") (A') (A') (A')
                 (A") (A') (A") (A') (A') (A") (A") (A') (A") (A')
                 (A') (A") (A') (A") (A") (A') (A") (A') (A') (A")
                 (A") (A') (A") (A') (A') (A") (A') (A") (A') (A')
                 (A') (A") (A") (A') (A') (A') (A') (A") (A') (A')
                 (A") (A') (A") (A') (A") (A') (A") (A') (A") (A')
                 (A") (A') (A") (A') (A") (A') (A') (A") (A') (A')
 Beta  Orbitals:
       Occupied  (A') (A') (A') (A') (A") (A') (A") (A') (A') (A')
                 (A') (A') (A") (A') (A") (A') (A') (A') (A") (A')
                 (A") (A') (A') (A') (A") (A') (A") (A') (A") (A')
                 (A") (A') (A") (A') (A') (A") (A") (A') (A") (A')
                 (A') (A') (A') (A") (A') (A") (A') (A') (A") (A')
                 (A')
       Virtual   (A") (A') (A') (A') (A") (A') (A") (A') (A") (A')
                 (A") (A') (A") (A') (A') (A') (A") (A') (A') (A")
                 (A') (A") (A') (A') (A") (A') (A') (A") (A') (A")
                 (A") (A') (A") (A') (A') (A') (A") (A') (A") (A")
                 (A') (A') (A") (A') (A") (A') (A") (A') (A') (A")
                 (A') (A") (A') (A") (A') (A') (A") (A') (A') (A")
                 (A") (A') (A') (A') (A") (A') (A") (A") (A') (A')
                 (A") (A') (A") (A') (A") (A') (A') (A") (A") (A')
                 (A') (A') (A") (A') (A") (A') (A") (A') (A') (A")
                 (A') (A') (A") (A') (A") (A') (A") (A') (A") (A')
                 (A") (A') (A') (A") (A") (A') (A') (A") (A') (A')
                 (A') (A") (A") (A') (A") (A") (A') (A') (A") (A")
                 (A') (A') (A') (A") (A") (A') (A") (A') (A') (A")
                 (A') (A") (A") (A') (A') (A') (A") (A") (A') (A")
                 (A') (A") (A') (A') (A") (A') (A') (A") (A') (A")
                 (A') (A') (A") (A') (A') (A") (A") (A") (A') (A')
                 (A') (A") (A') (A") (A') (A') (A") (A') (A") (A")
                 (A') (A') (A") (A') (A") (A") (A') (A") (A') (A')
                 (A") (A") (A') (A") (A') (A') (A") (A') (A") (A')
                 (A') (A') (A") (A") (A') (A') (A') (A') (A") (A')
                 (A") (A') (A') (A") (A') (A") (A') (A") (A') (A")
                 (A') (A") (A') (A") (A') (A") (A') (A') (A") (A')
                 (A')
 The electronic state is 2-A".
 Alpha  occ. eigenvalues --  -58.64956 -58.63339 -58.62617 -58.62617 -58.62496
 Alpha  occ. eigenvalues --  -58.62354 -58.62244 -58.62244  -5.05833  -5.04567
 Alpha  occ. eigenvalues --   -5.03979  -5.03977  -5.03719  -5.03595  -5.03510
 Alpha  occ. eigenvalues --   -5.03508  -3.36979  -3.36689  -3.36593  -3.35772
 Alpha  occ. eigenvalues --   -3.35403  -3.35373  -3.35212  -3.35211  -3.35043
 Alpha  occ. eigenvalues --   -3.35038  -3.34953  -3.34940  -3.34923  -3.34887
 Alpha  occ. eigenvalues --   -3.34885  -3.34824  -3.34708  -3.34687  -3.34621
 Alpha  occ. eigenvalues --   -3.34603  -3.34548  -3.34458  -3.34421  -3.34415
 Alpha  occ. eigenvalues --   -0.80496  -0.67898  -0.64946  -0.62314  -0.56128
 Alpha  occ. eigenvalues --   -0.48573  -0.43621  -0.41684  -0.40174  -0.39764
 Alpha  occ. eigenvalues --   -0.38487  -0.38402
 Alpha virt. eigenvalues --   -0.17250  -0.13840  -0.12722  -0.12602  -0.11449
 Alpha virt. eigenvalues --   -0.11037  -0.09490  -0.06843  -0.05161  -0.04839
 Alpha virt. eigenvalues --   -0.03530  -0.01330  -0.00568   0.00719   0.01409
 Alpha virt. eigenvalues --    0.01538   0.03721   0.03915   0.04615   0.05090
 Alpha virt. eigenvalues --    0.05379   0.06322   0.06552   0.07337   0.08377
 Alpha virt. eigenvalues --    0.09160   0.09596   0.10244   0.10778   0.11230
 Alpha virt. eigenvalues --    0.11854   0.12722   0.13606   0.14458   0.14665
 Alpha virt. eigenvalues --    0.15006   0.16145   0.16291   0.17238   0.18632
 Alpha virt. eigenvalues --    0.18692   0.19260   0.19385   0.20229   0.21106
 Alpha virt. eigenvalues --    0.21298   0.22263   0.23239   0.24007   0.24919
 Alpha virt. eigenvalues --    0.25032   0.25758   0.26610   0.27488   0.27767
 Alpha virt. eigenvalues --    0.27952   0.29697   0.30121   0.30569   0.31646
 Alpha virt. eigenvalues --    0.33204   0.34686   0.36284   0.37072   0.37287
 Alpha virt. eigenvalues --    0.37417   0.38117   0.39189   0.39434   0.39715
 Alpha virt. eigenvalues --    0.41452   0.41465   0.42069   0.42305   0.44914
 Alpha virt. eigenvalues --    0.46263   0.47656   0.48001   0.48194   0.50832
 Alpha virt. eigenvalues --    0.51368   0.51797   0.52292   0.52631   0.53849
 Alpha virt. eigenvalues --    0.53923   0.54267   0.55751   0.56691   0.56984
 Alpha virt. eigenvalues --    0.60187   0.60328   0.62664   0.62861   0.64791
 Alpha virt. eigenvalues --    0.67579   0.68306   0.69395   0.70175   0.70269
 Alpha virt. eigenvalues --    0.71063   0.71623   0.72124   0.72374   0.73896
 Alpha virt. eigenvalues --    0.74923   0.75166   0.75178   0.76569   0.78003
 Alpha virt. eigenvalues --    0.78037   0.78512   0.78593   0.80440   0.81445
 Alpha virt. eigenvalues --    0.82038   0.83543   0.83805   0.85006   0.85140
 Alpha virt. eigenvalues --    0.86077   0.86095   0.86141   0.86973   0.87481
 Alpha virt. eigenvalues --    0.87489   0.88444   0.88582   0.89773   0.90811
 Alpha virt. eigenvalues --    0.91137   0.92444   0.93477   0.94729   0.95443
 Alpha virt. eigenvalues --    0.95741   0.96617   0.98306   0.99129   1.00528
 Alpha virt. eigenvalues --    1.01189   1.01523   1.02879   1.03659   1.05766
 Alpha virt. eigenvalues --    1.06027   1.06201   1.07814   1.08528   1.09151
 Alpha virt. eigenvalues --    1.09467   1.09942   1.10857   1.12210   1.12408
 Alpha virt. eigenvalues --    1.12661   1.13113   1.13858   1.14866   1.16536
 Alpha virt. eigenvalues --    1.18345   1.18995   1.19136   1.20024   1.22430
 Alpha virt. eigenvalues --    1.22989   1.23723   1.23859   1.24853   1.26942
 Alpha virt. eigenvalues --    1.28354   1.29565   1.30650   1.33249   1.34135
 Alpha virt. eigenvalues --    1.34982   1.35142   1.36642   1.36878   1.37316
 Alpha virt. eigenvalues --    1.39661   1.39975   1.40086   1.40788   1.42834
 Alpha virt. eigenvalues --    1.44956   1.45737   1.50475   2.12539   2.21326
 Alpha virt. eigenvalues --    2.24758   2.25852   2.27031   2.28968   2.30098
 Alpha virt. eigenvalues --    2.32839   2.35592   2.41042   2.44263   2.47061
 Alpha virt. eigenvalues --    2.47511   2.53634   2.55097   2.56394   2.58147
 Alpha virt. eigenvalues --    2.58945   2.64860   2.77106   2.78997   2.85586
 Alpha virt. eigenvalues --    2.90560   2.94302   2.99017   3.09124   3.29303
 Alpha virt. eigenvalues --    3.30989   3.41404   3.42719   3.58748   3.74746
  Beta  occ. eigenvalues --  -58.64905 -58.63233 -58.62795 -58.62347 -58.62347
  Beta  occ. eigenvalues --  -58.62338 -58.62338 -58.62120  -5.05833  -5.04322
  Beta  occ. eigenvalues --   -5.04095  -5.03731  -5.03727  -5.03501  -5.03500
  Beta  occ. eigenvalues --   -5.03315  -3.36712  -3.36635  -3.36213  -3.35549
  Beta  occ. eigenvalues --   -3.35476  -3.35325  -3.35278  -3.35056  -3.35025
  Beta  occ. eigenvalues --   -3.34990  -3.34975  -3.34806  -3.34798  -3.34682
  Beta  occ. eigenvalues --   -3.34681  -3.34603  -3.34601  -3.34535  -3.34504
  Beta  occ. eigenvalues --   -3.34504  -3.34425  -3.34425  -3.34327  -3.34278
  Beta  occ. eigenvalues --   -0.79496  -0.66327  -0.62721  -0.62293  -0.52493
  Beta  occ. eigenvalues --   -0.45166  -0.44350  -0.41606  -0.39856  -0.39694
  Beta  occ. eigenvalues --   -0.38199
  Beta virt. eigenvalues --   -0.16048  -0.14835  -0.13681  -0.13303  -0.11144
  Beta virt. eigenvalues --   -0.10756  -0.10076  -0.09108  -0.05420  -0.04501
  Beta virt. eigenvalues --   -0.03154  -0.02938  -0.00550  -0.00413   0.01066
  Beta virt. eigenvalues --    0.01847   0.02938   0.03452   0.04827   0.05007
  Beta virt. eigenvalues --    0.05868   0.06229   0.06883   0.07335   0.07587
  Beta virt. eigenvalues --    0.09094   0.09531   0.09762   0.10562   0.11012
  Beta virt. eigenvalues --    0.11745   0.11937   0.13078   0.13465   0.14949
  Beta virt. eigenvalues --    0.15201   0.15679   0.16526   0.16808   0.17673
  Beta virt. eigenvalues --    0.18751   0.19238   0.19549   0.20136   0.20792
  Beta virt. eigenvalues --    0.21847   0.21913   0.22752   0.23879   0.24580
  Beta virt. eigenvalues --    0.24963   0.25725   0.26367   0.26432   0.27647
  Beta virt. eigenvalues --    0.28172   0.28272   0.30230   0.30469   0.31408
  Beta virt. eigenvalues --    0.32739   0.33875   0.35015   0.36278   0.37395
  Beta virt. eigenvalues --    0.37558   0.37814   0.39082   0.39171   0.39690
  Beta virt. eigenvalues --    0.40216   0.41302   0.41480   0.42285   0.42621
  Beta virt. eigenvalues --    0.45456   0.46287   0.47870   0.48348   0.48561
  Beta virt. eigenvalues --    0.51315   0.51912   0.52395   0.53124   0.53146
  Beta virt. eigenvalues --    0.53623   0.54558   0.54726   0.55828   0.56700
  Beta virt. eigenvalues --    0.57716   0.60383   0.61003   0.62719   0.63352
  Beta virt. eigenvalues --    0.65024   0.67722   0.68636   0.70245   0.70357
  Beta virt. eigenvalues --    0.70466   0.71259   0.71971   0.72353   0.73478
  Beta virt. eigenvalues --    0.74018   0.75254   0.75386   0.75532   0.76611
  Beta virt. eigenvalues --    0.78219   0.78361   0.78820   0.79671   0.80950
  Beta virt. eigenvalues --    0.81898   0.82683   0.83978   0.84625   0.85065
  Beta virt. eigenvalues --    0.85383   0.86178   0.86641   0.86745   0.87232
  Beta virt. eigenvalues --    0.87756   0.87785   0.88381   0.89006   0.89909
  Beta virt. eigenvalues --    0.91255   0.91405   0.92536   0.93216   0.95035
  Beta virt. eigenvalues --    0.95831   0.95843   0.97022   0.98184   0.99633
  Beta virt. eigenvalues --    1.01104   1.01535   1.02090   1.03360   1.04362
  Beta virt. eigenvalues --    1.05786   1.06143   1.06354   1.07963   1.08328
  Beta virt. eigenvalues --    1.09314   1.09833   1.10050   1.11210   1.12263
  Beta virt. eigenvalues --    1.12780   1.13253   1.13696   1.14263   1.15454
  Beta virt. eigenvalues --    1.16838   1.18553   1.19322   1.19594   1.19932
  Beta virt. eigenvalues --    1.22919   1.23377   1.23648   1.24095   1.25146
  Beta virt. eigenvalues --    1.27053   1.28028   1.29572   1.30810   1.33296
  Beta virt. eigenvalues --    1.34205   1.35087   1.35458   1.36903   1.37080
  Beta virt. eigenvalues --    1.37671   1.39913   1.40136   1.40472   1.41082
  Beta virt. eigenvalues --    1.43061   1.45394   1.46192   1.50721   2.12466
  Beta virt. eigenvalues --    2.21430   2.24631   2.26086   2.27633   2.28858
  Beta virt. eigenvalues --    2.30286   2.32692   2.35685   2.41393   2.44423
  Beta virt. eigenvalues --    2.47959   2.48139   2.52816   2.54831   2.56532
  Beta virt. eigenvalues --    2.58834   2.59865   2.65058   2.77146   2.79089
  Beta virt. eigenvalues --    2.85584   2.90586   2.94405   2.99327   3.09432
  Beta virt. eigenvalues --    3.29449   3.31047   3.41446   3.42902   3.58821
  Beta virt. eigenvalues --    3.74828
          Condensed to atoms (all electrons):
               1          2          3          4          5          6
     1  Al  12.368744   0.008866   0.162873   0.162873   0.097913   0.097913
     2  Al   0.008866  12.343933   0.019884   0.019884   0.157194   0.157194
     3  Al   0.162873   0.019884  12.227159   0.005389   0.009324   0.196097
     4  Al   0.162873   0.019884   0.005389  12.227159   0.196097   0.009324
     5  Al   0.097913   0.157194   0.009324   0.196097  12.397373   0.063035
     6  Al   0.097913   0.157194   0.196097   0.009324   0.063035  12.397373
     7  Al  -0.008836   0.214593   0.236528   0.236528  -0.013905  -0.013905
     8  Al  -0.006063  -0.004881  -0.000555  -0.000555   0.081161   0.081161
               7          8
     1  Al  -0.008836  -0.006063
     2  Al   0.214593  -0.004881
     3  Al   0.236528  -0.000555
     4  Al   0.236528  -0.000555
     5  Al  -0.013905   0.081161
     6  Al  -0.013905   0.081161
     7  Al  12.161748   0.000203
     8  Al   0.000203  12.545842
          Atomic-Atomic Spin Densities.
               1          2          3          4          5          6
     1  Al  -0.579971  -0.005646   0.011014   0.011014   0.006930   0.006930
     2  Al  -0.005646   0.502564   0.012801   0.012801  -0.007185  -0.007185
     3  Al   0.011014   0.012801   0.558366  -0.003836  -0.002744  -0.017795
     4  Al   0.011014   0.012801  -0.003836   0.558366  -0.017795  -0.002744
     5  Al   0.006930  -0.007185  -0.002744  -0.017795  -0.218851  -0.038381
     6  Al   0.006930  -0.007185  -0.017795  -0.002744  -0.038381  -0.218851
     7  Al   0.009592  -0.046251  -0.054019  -0.054019   0.012524   0.012524
     8  Al  -0.002456  -0.013723  -0.002621  -0.002621   0.095217   0.095217
               7          8
     1  Al   0.009592  -0.002456
     2  Al  -0.046251  -0.013723
     3  Al  -0.054019  -0.002621
     4  Al  -0.054019  -0.002621
     5  Al   0.012524   0.095217
     6  Al   0.012524   0.095217
     7  Al   0.282753   0.001109
     8  Al   0.001109   0.098322
 Mulliken charges and spin densities:
               1          2
     1  Al   0.115717  -0.542592
     2  Al   0.083332   0.448177
     3  Al   0.143302   0.501166
     4  Al   0.143302   0.501166
     5  Al   0.011807  -0.170286
     6  Al   0.011807  -0.170286
     7  Al   0.187044   0.164213
     8  Al   0.303688   0.268444
 Sum of Mulliken charges =   1.00000   1.00000
 Mulliken charges and spin densities with hydrogens summed into heavy atoms:
               1          2
     1  Al   0.115717  -0.542592
     2  Al   0.083332   0.448177
     3  Al   0.143302   0.501166
     4  Al   0.143302   0.501166
     5  Al   0.011807  -0.170286
     6  Al   0.011807  -0.170286
     7  Al   0.187044   0.164213
     8  Al   0.303688   0.268444
 Electronic spatial extent (au):  <R**2>=           2236.9189
 Charge=              1.0000 electrons
 Dipole moment (field-independent basis, Debye):
    X=             -0.1140    Y=              1.1015    Z=              0.0000  Tot=              1.1074
 Quadrupole moment (field-independent basis, Debye-Ang):
   XX=            -86.5810   YY=            -68.9526   ZZ=            -87.1511
   XY=              5.4916   XZ=              0.0000   YZ=              0.0000
 Traceless Quadrupole moment (field-independent basis, Debye-Ang):
   XX=             -5.6861   YY=             11.9423   ZZ=             -6.2562
   XY=              5.4916   XZ=              0.0000   YZ=              0.0000
 Octapole moment (field-independent basis, Debye-Ang**2):
  XXX=             -3.0800  YYY=             34.4557  ZZZ=              0.0000  XYY=            -13.4827
  XXY=             -6.3887  XXZ=              0.0000  XZZ=              5.1419  YZZ=            -10.0863
  YYZ=              0.0000  XYZ=              0.0000
 Hexadecapole moment (field-independent basis, Debye-Ang**3):
 XXXX=           -873.8956 YYYY=          -1705.4479 ZZZZ=           -878.0968 XXXY=            -83.3227
 XXXZ=              0.0000 YYYX=            -41.0238 YYYZ=              0.0000 ZZZX=              0.0000
 ZZZY=              0.0000 XXYY=           -434.2367 XXZZ=           -327.0822 YYZZ=           -467.7738
 XXYZ=              0.0000 YYXZ=              0.0000 ZZXY=            -41.6542
 N-N= 7.770125149693D+02 E-N=-6.168189819034D+03  KE= 1.935395412661D+03
 Symmetry A'   KE= 1.371550082659D+03
 Symmetry A"   KE= 5.638453300018D+02

 Test job not archived.
 1\1\GINC-R2I2N5\SP\UCCSD(T)-FC\CC-pVTZ\Al8(1+,2)\VSC31064\03-Oct-2016\
 0\\# CCSD(T,conver=5)/cc-pVTZ test geom=allcheck guess=read\\Al8-c-d\\
 1,2\Al,0,-2.08740391,0.15537342,0.\Al,0,1.76374811,0.08844126,0.\Al,0,
 -0.51449412,1.40649508,1.68337976\Al,0,-0.51449412,1.40649508,-1.68337
 976\Al,0,-0.02041168,-1.11137041,-1.47884679\Al,0,-0.02041168,-1.11137
 041,1.47884679\Al,0,1.05178455,2.60191411,0.\Al,0,0.34067288,-3.436179
 05,0.\\Version=ES64L-G09RevD.01\State=2-A"\HF=-1935.1261205\MP2=-1935.
 7347827\MP3=-1935.7229747\MP4D=-1935.7652199\MP4DQ=-1935.7201345\PUHF=
 -1935.1641673\PMP2-0=-1935.7711798\PMP3-0=-1935.7552559\MP4SDQ=-1935.7
 36561\CCSD=-1935.7464624\CCSD(T)=-1935.8262922\S2=1.889976\S2-1=1.7028
 77\S2A=2.473729\RMSD=9.955e-09\PG=CS [SG(Al4),X(Al4)]\\@


 QED = W**5 (WHICH WAS WHAT WE WANTED)
 Job cpu time:       0 days  6 hours 37 minutes 20.1 seconds.
 File lengths (MBytes):  RWF=   3716 Int=      0 D2E=      0 Chk=      6 Scr=      1
 Normal termination of Gaussian 09 at Mon Oct  3 12:06:18 2016.
