 Entering Gaussian System, Link 0=g09
 Initial command:
 /apps/leuven/thinking/software/G09//g09D1/l1.exe "/local_scratch/vsc31064/Gau-26988.inp" -scrdir="/local_scratch/vsc31064/"
 Entering Link 1 = /apps/leuven/thinking/software/G09//g09D1/l1.exe PID=     26992.
  
 Copyright (c) 1988,1990,1992,1993,1995,1998,2003,2009,2013,
            Gaussian, Inc.  All Rights Reserved.
  
 This is part of the Gaussian(R) 09 program.  It is based on
 the Gaussian(R) 03 system (copyright 2003, Gaussian, Inc.),
 the Gaussian(R) 98 system (copyright 1998, Gaussian, Inc.),
 the Gaussian(R) 94 system (copyright 1995, Gaussian, Inc.),
 the Gaussian 92(TM) system (copyright 1992, Gaussian, Inc.),
 the Gaussian 90(TM) system (copyright 1990, Gaussian, Inc.),
 the Gaussian 88(TM) system (copyright 1988, Gaussian, Inc.),
 the Gaussian 86(TM) system (copyright 1986, Carnegie Mellon
 University), and the Gaussian 82(TM) system (copyright 1983,
 Carnegie Mellon University). Gaussian is a federally registered
 trademark of Gaussian, Inc.
  
 This software contains proprietary and confidential information,
 including trade secrets, belonging to Gaussian, Inc.
  
 This software is provided under written license and may be
 used, copied, transmitted, or stored only in accord with that
 written license.
  
 The following legend is applicable only to US Government
 contracts under FAR:
  
                    RESTRICTED RIGHTS LEGEND
  
 Use, reproduction and disclosure by the US Government is
 subject to restrictions as set forth in subparagraphs (a)
 and (c) of the Commercial Computer Software - Restricted
 Rights clause in FAR 52.227-19.
  
 Gaussian, Inc.
 340 Quinnipiac St., Bldg. 40, Wallingford CT 06492
  
  
 ---------------------------------------------------------------
 Warning -- This program may not be used in any manner that
 competes with the business of Gaussian, Inc. or will provide
 assistance to any competitor of Gaussian, Inc.  The licensee
 of this program is prohibited from giving any competitor of
 Gaussian, Inc. access to this program.  By using this program,
 the user acknowledges that Gaussian, Inc. is engaged in the
 business of creating and licensing software in the field of
 computational chemistry and represents and warrants to the
 licensee that it is not a competitor of Gaussian, Inc. and that
 it will not use this program in any manner prohibited above.
 ---------------------------------------------------------------
  

 Cite this work as:
 Gaussian 09, Revision D.01,
 M. J. Frisch, G. W. Trucks, H. B. Schlegel, G. E. Scuseria, 
 M. A. Robb, J. R. Cheeseman, G. Scalmani, V. Barone, B. Mennucci, 
 G. A. Petersson, H. Nakatsuji, M. Caricato, X. Li, H. P. Hratchian, 
 A. F. Izmaylov, J. Bloino, G. Zheng, J. L. Sonnenberg, M. Hada, 
 M. Ehara, K. Toyota, R. Fukuda, J. Hasegawa, M. Ishida, T. Nakajima, 
 Y. Honda, O. Kitao, H. Nakai, T. Vreven, J. A. Montgomery, Jr., 
 J. E. Peralta, F. Ogliaro, M. Bearpark, J. J. Heyd, E. Brothers, 
 K. N. Kudin, V. N. Staroverov, T. Keith, R. Kobayashi, J. Normand, 
 K. Raghavachari, A. Rendell, J. C. Burant, S. S. Iyengar, J. Tomasi, 
 M. Cossi, N. Rega, J. M. Millam, M. Klene, J. E. Knox, J. B. Cross, 
 V. Bakken, C. Adamo, J. Jaramillo, R. Gomperts, R. E. Stratmann, 
 O. Yazyev, A. J. Austin, R. Cammi, C. Pomelli, J. W. Ochterski, 
 R. L. Martin, K. Morokuma, V. G. Zakrzewski, G. A. Voth, 
 P. Salvador, J. J. Dannenberg, S. Dapprich, A. D. Daniels, 
 O. Farkas, J. B. Foresman, J. V. Ortiz, J. Cioslowski, 
 and D. J. Fox, Gaussian, Inc., Wallingford CT, 2013.
 
 ******************************************
 Gaussian 09:  ES64L-G09RevD.01 24-Apr-2013
                 3-Oct-2016 
 ******************************************
 %NprocShared=20
 Will use up to   20 processors via shared memory.
 %mem=55000mb
 %chk=cc-Al8-n-s-test
 ------------------------
 # hf/6-31G* test scf=xqc
 ------------------------
 1/38=1/1;
 2/12=2,17=6,18=5,40=1/2;
 3/5=1,6=6,7=1,11=9,16=1,25=1,30=1/1,2,3;
 4//1;
 5/5=2,8=3,13=1,38=5/2,8;
 6/7=2,8=2,9=2,10=2,28=1/1;
 99/5=1,9=1/99;
 ------------
 Al8-n-s-test
 ------------
 Symbolic Z-matrix:
 Charge =  0 Multiplicity = 1
 Al                    1.79102   0.47288   0. 
 Al                   -1.7759   -0.48248   0. 
 Al                    0.52052  -1.17166   1.6128 
 Al                    0.52052  -1.17166  -1.6128 
 Al                   -0.50746   1.16663  -1.60769 
 Al                   -0.50746   1.16663   1.60769 
 Al                   -0.13432  -3.05876   0. 
 Al                    0.09367   3.07865   0. 
 
                          Input orientation:                          
 ---------------------------------------------------------------------
 Center     Atomic      Atomic             Coordinates (Angstroms)
 Number     Number       Type             X           Y           Z
 ---------------------------------------------------------------------
      1         13           0        1.791016    0.472875    0.000000
      2         13           0       -1.775901   -0.482478    0.000000
      3         13           0        0.520518   -1.171658    1.612799
      4         13           0        0.520518   -1.171658   -1.612799
      5         13           0       -0.507460    1.166628   -1.607686
      6         13           0       -0.507460    1.166628    1.607686
      7         13           0       -0.134316   -3.058759    0.000000
      8         13           0        0.093670    3.078647    0.000000
 ---------------------------------------------------------------------
                    Distance matrix (angstroms):
                    1          2          3          4          5
     1  Al   0.000000
     2  Al   3.692641   0.000000
     3  Al   2.630546   2.889573   0.000000
     4  Al   2.630546   2.889573   3.225598   0.000000
     5  Al   2.889453   2.629286   4.110455   2.554280   0.000000
     6  Al   2.889453   2.629286   2.554280   4.110455   3.215372
     7  Al   4.022355   3.054836   2.567310   2.567310   4.536274
     8  Al   3.109828   4.022053   4.566006   4.566006   2.569402
                    6          7          8
     6  Al   0.000000
     7  Al   4.536274   0.000000
     8  Al   2.569402   6.141639   0.000000
 Stoichiometry    Al8
 Framework group  CS[SG(Al4),X(Al4)]
 Deg. of freedom    11
 Full point group                 CS      NOp   2
 Largest Abelian subgroup         CS      NOp   2
 Largest concise Abelian subgroup CS      NOp   2
                         Standard orientation:                         
 ---------------------------------------------------------------------
 Center     Atomic      Atomic             Coordinates (Angstroms)
 Number     Number       Type             X           Y           Z
 ---------------------------------------------------------------------
      1         13           0        1.829800   -0.287909    0.000000
      2         13           0       -1.819985    0.273043    0.000000
      3         13           0        0.004886   -1.282064    1.612799
      4         13           0        0.004886   -1.282064   -1.612799
      5         13           0        0.004886    1.272211   -1.607686
      6         13           0        0.004886    1.272211    1.607686
      7         13           0       -1.354047   -2.746051    0.000000
      8         13           0        1.324685    2.780623    0.000000
 ---------------------------------------------------------------------
 Rotational constants (GHZ):      1.0512836      0.5816333      0.5331838
 Standard basis: 6-31G(d) (6D, 7F)
 There are    94 symmetry adapted cartesian basis functions of A'  symmetry.
 There are    58 symmetry adapted cartesian basis functions of A"  symmetry.
 There are    94 symmetry adapted basis functions of A'  symmetry.
 There are    58 symmetry adapted basis functions of A"  symmetry.
   152 basis functions,   416 primitive gaussians,   152 cartesian basis functions
    52 alpha electrons       52 beta electrons
       nuclear repulsion energy       788.0634478916 Hartrees.
 NAtoms=    8 NActive=    8 NUniq=    6 SFac= 1.78D+00 NAtFMM=   60 NAOKFM=F Big=F
 Integral buffers will be    131072 words long.
 Raffenetti 1 integral format.
 Two-electron integral symmetry is turned on.
 One-electron integrals computed using PRISM.
 NBasis=   152 RedAO= T EigKep=  1.33D-03  NBF=    94    58
 NBsUse=   152 1.00D-06 EigRej= -1.00D+00 NBFU=    94    58
 ExpMin= 5.57D-02 ExpMax= 1.40D+04 ExpMxC= 2.10D+03 IAcc=2 IRadAn=         4 AccDes= 0.00D+00
 Harris functional with IExCor=  205 and IRadAn=       4 diagonalized for initial guess.
 HarFok:  IExCor=  205 AccDes= 0.00D+00 IRadAn=         4 IDoV= 1 UseB2=F ITyADJ=14
 ICtDFT=  3500011 ScaDFX=  1.000000  1.000000  1.000000  1.000000
 FoFCou: FMM=F IPFlag=           0 FMFlag=      100000 FMFlg1=           0
         NFxFlg=           0 DoJE=T BraDBF=F KetDBF=T FulRan=T
         wScrn=  0.000000 ICntrl=     500 IOpCl=  0 I1Cent=   200000004 NGrid=           0
         NMat0=    1 NMatS0=      1 NMatT0=    0 NMatD0=    1 NMtDS0=    0 NMtDT0=    0
 Petite list used in FoFCou.
 Initial guess orbital symmetries:
       Occupied  (A') (A") (A") (A') (A') (A') (A') (A') (A") (A')
                 (A") (A') (A') (A') (A') (A') (A') (A") (A') (A")
                 (A') (A") (A") (A') (A') (A") (A') (A") (A') (A')
                 (A") (A") (A') (A') (A') (A') (A") (A") (A') (A')
                 (A') (A') (A") (A') (A') (A") (A') (A') (A") (A')
                 (A') (A")
       Virtual   (A') (A') (A') (A") (A') (A") (A") (A') (A') (A")
                 (A') (A") (A') (A') (A') (A") (A") (A') (A") (A')
                 (A") (A') (A') (A") (A') (A') (A') (A") (A") (A")
                 (A') (A') (A') (A") (A') (A') (A") (A') (A') (A")
                 (A') (A') (A') (A") (A") (A') (A") (A') (A') (A")
                 (A') (A') (A") (A") (A') (A") (A') (A') (A") (A")
                 (A') (A') (A") (A') (A') (A") (A') (A') (A") (A")
                 (A') (A') (A') (A") (A") (A') (A') (A") (A') (A')
                 (A") (A') (A') (A') (A") (A") (A') (A') (A") (A")
                 (A') (A") (A') (A") (A') (A') (A") (A') (A') (A')
 The electronic state of the initial guess is 1-A'.
 Keep R1 ints in memory in symmetry-blocked form, NReq=101654998.
 Requested convergence on RMS density matrix=1.00D-08 within  64 cycles.
 Requested convergence on MAX density matrix=1.00D-06.
 Requested convergence on             energy=1.00D-06.
 No special actions if energy rises.
 SCF Done:  E(RHF) =  -1935.13292931     A.U. after   18 cycles
            NFock= 18  Conv=0.91D-08     -V/T= 2.0001
 QCSCF skips out because SCF is already converged.

 **********************************************************************

            Population analysis using the SCF density.

 **********************************************************************

 Orbital symmetries:
       Occupied  (A') (A') (A") (A') (A") (A') (A') (A') (A') (A')
                 (A') (A") (A') (A") (A') (A') (A') (A') (A') (A')
                 (A") (A") (A') (A") (A') (A") (A') (A") (A') (A")
                 (A') (A") (A') (A") (A') (A') (A') (A") (A") (A')
                 (A') (A') (A") (A') (A') (A") (A') (A") (A') (A')
                 (A") (A')
       Virtual   (A') (A') (A') (A") (A') (A") (A') (A") (A") (A')
                 (A') (A") (A') (A') (A') (A") (A') (A") (A") (A')
                 (A') (A") (A") (A') (A') (A') (A') (A") (A") (A')
                 (A") (A') (A') (A") (A') (A') (A') (A") (A") (A')
                 (A') (A") (A') (A") (A') (A') (A") (A') (A') (A')
                 (A") (A') (A") (A') (A") (A') (A") (A') (A") (A")
                 (A') (A') (A") (A') (A') (A') (A') (A") (A") (A')
                 (A") (A') (A') (A") (A") (A') (A') (A") (A') (A")
                 (A') (A') (A') (A') (A") (A") (A') (A') (A") (A")
                 (A') (A") (A') (A') (A") (A') (A') (A") (A') (A')
 The electronic state is 1-A'.
 Alpha  occ. eigenvalues --  -58.48097 -58.48063 -58.47029 -58.47029 -58.47005
 Alpha  occ. eigenvalues --  -58.47005 -58.46867 -58.46796  -4.90043  -4.90007
 Alpha  occ. eigenvalues --   -4.89291  -4.89289  -4.89270  -4.89269  -4.88950
 Alpha  occ. eigenvalues --   -4.88885  -3.21073  -3.21048  -3.21041  -3.21007
 Alpha  occ. eigenvalues --   -3.20888  -3.20862  -3.20474  -3.20467  -3.20442
 Alpha  occ. eigenvalues --   -3.20436  -3.20364  -3.20362  -3.20350  -3.20348
 Alpha  occ. eigenvalues --   -3.20313  -3.20313  -3.20260  -3.20259  -3.20031
 Alpha  occ. eigenvalues --   -3.19975  -3.19912  -3.19910  -3.19856  -3.19853
 Alpha  occ. eigenvalues --   -0.66531  -0.54241  -0.50619  -0.46505  -0.42120
 Alpha  occ. eigenvalues --   -0.34623  -0.28955  -0.25600  -0.25171  -0.24986
 Alpha  occ. eigenvalues --   -0.24011  -0.23672
 Alpha virt. eigenvalues --   -0.03277  -0.02725  -0.00703   0.00227   0.00876
 Alpha virt. eigenvalues --    0.03199   0.06789   0.06812   0.07997   0.09002
 Alpha virt. eigenvalues --    0.09190   0.10709   0.11115   0.12718   0.14334
 Alpha virt. eigenvalues --    0.16085   0.16409   0.16575   0.18706   0.19270
 Alpha virt. eigenvalues --    0.21880   0.22727   0.23396   0.24069   0.24951
 Alpha virt. eigenvalues --    0.25511   0.26428   0.27846   0.31001   0.31131
 Alpha virt. eigenvalues --    0.31640   0.32734   0.34376   0.34695   0.35044
 Alpha virt. eigenvalues --    0.36115   0.37210   0.37881   0.39258   0.39791
 Alpha virt. eigenvalues --    0.42464   0.43067   0.43646   0.43702   0.44648
 Alpha virt. eigenvalues --    0.47482   0.47906   0.48593   0.51212   0.53131
 Alpha virt. eigenvalues --    0.53937   0.54174   0.55989   0.56535   0.58712
 Alpha virt. eigenvalues --    0.60380   0.61182   0.64119   0.65270   0.65344
 Alpha virt. eigenvalues --    0.67222   0.68054   0.70461   0.70504   0.71946
 Alpha virt. eigenvalues --    0.73544   0.74164   0.75212   0.77600   0.78334
 Alpha virt. eigenvalues --    0.78872   0.78991   0.82523   0.83498   0.85370
 Alpha virt. eigenvalues --    0.86512   0.87378   0.87948   0.90367   0.92301
 Alpha virt. eigenvalues --    0.92491   0.94024   0.94430   1.01034   1.02191
 Alpha virt. eigenvalues --    1.02861   1.05965   1.07018   1.08683   1.11507
 Alpha virt. eigenvalues --    1.12803   1.15339   2.22851   2.31030   2.31426
 Alpha virt. eigenvalues --    2.35082   2.36060   2.37189   2.42968   2.44573
          Condensed to atoms (all electrons):
               1          2          3          4          5          6
     1  Al  13.371178   0.046108  -0.204039  -0.204039  -0.005567  -0.005567
     2  Al   0.046108  13.365591  -0.006181  -0.006181  -0.196456  -0.196456
     3  Al  -0.204039  -0.006181  13.109750   0.287192  -0.106686  -0.012185
     4  Al  -0.204039  -0.006181   0.287192  13.109750  -0.012185  -0.106686
     5  Al  -0.005567  -0.196456  -0.106686  -0.012185  13.105915   0.275508
     6  Al  -0.005567  -0.196456  -0.012185  -0.106686   0.275508  13.105915
     7  Al   0.069654  -0.010281  -0.068204  -0.068204   0.034235   0.034235
     8  Al  -0.010315   0.065353   0.031281   0.031281  -0.056064  -0.056064
               7          8
     1  Al   0.069654  -0.010315
     2  Al  -0.010281   0.065353
     3  Al  -0.068204   0.031281
     4  Al  -0.068204   0.031281
     5  Al   0.034235  -0.056064
     6  Al   0.034235  -0.056064
     7  Al  12.878812   0.003805
     8  Al   0.003805  12.858509
 Mulliken charges:
               1
     1  Al  -0.057413
     2  Al  -0.061497
     3  Al  -0.030926
     4  Al  -0.030926
     5  Al  -0.038700
     6  Al  -0.038700
     7  Al   0.125948
     8  Al   0.132215
 Sum of Mulliken charges =   0.00000
 Mulliken charges with hydrogens summed into heavy atoms:
               1
     1  Al  -0.057413
     2  Al  -0.061497
     3  Al  -0.030926
     4  Al  -0.030926
     5  Al  -0.038700
     6  Al  -0.038700
     7  Al   0.125948
     8  Al   0.132215
 Electronic spatial extent (au):  <R**2>=           2211.2537
 Charge=              0.0000 electrons
 Dipole moment (field-independent basis, Debye):
    X=             -0.0031    Y=              0.0338    Z=              0.0000  Tot=              0.0340
 Quadrupole moment (field-independent basis, Debye-Ang):
   XX=           -109.4424   YY=           -105.1780   ZZ=           -101.1437
   XY=              2.8800   XZ=              0.0000   YZ=              0.0000
 Traceless Quadrupole moment (field-independent basis, Debye-Ang):
   XX=             -4.1877   YY=              0.0767   ZZ=              4.1110
   XY=              2.8800   XZ=              0.0000   YZ=              0.0000
 Octapole moment (field-independent basis, Debye-Ang**2):
  XXX=              0.0285  YYY=             -0.0273  ZZZ=              0.0000  XYY=             -0.7518
  XXY=             -0.0179  XXZ=              0.0000  XZZ=             -0.1020  YZZ=             -0.1724
  YYZ=              0.0000  XYZ=              0.0000
 Hexadecapole moment (field-independent basis, Debye-Ang**3):
 XXXX=          -1111.9611 YYYY=          -1998.5565 ZZZZ=          -1002.9554 XXXY=           -231.0671
 XXXZ=              0.0000 YYYX=           -231.5393 YYYZ=              0.0000 ZZZX=              0.0000
 ZZZY=              0.0000 XXYY=           -522.3746 XXZZ=           -391.0223 YYZZ=           -514.1120
 XXYZ=              0.0000 YYXZ=              0.0000 ZZXY=            -99.5240
 N-N= 7.880634478916D+02 E-N=-6.204650438925D+03  KE= 1.934853270753D+03
 Symmetry A'   KE= 1.370480796561D+03
 Symmetry A"   KE= 5.643724741920D+02

 Test job not archived.
 1\1\GINC-R1I2N14\SP\RHF\6-31G(d)\Al8\VSC31064\03-Oct-2016\0\\# hf/6-31
 G* test scf=xqc\\Al8-n-s-test\\0,1\Al,0,1.79101571,0.47287514,0.\Al,0,
 -1.77590121,-0.48247814,0.\Al,0,0.52051791,-1.17165771,1.61279883\Al,0
 ,0.52051791,-1.17165771,-1.61279883\Al,0,-0.50746041,1.16662771,-1.607
 68584\Al,0,-0.50746041,1.16662771,1.60768584\Al,0,-0.13431601,-3.05875
 901,0.\Al,0,0.09366951,3.07864701,0.\\Version=ES64L-G09RevD.01\State=1
 -A'\HF=-1935.1329293\RMSD=9.143e-09\Dipole=-0.0064661,0.0117033,0.\Qua
 drupole=-4.1776969,1.1212563,3.0564407,0.2795341,0.,0.\PG=CS [SG(Al4),
 X(Al4)]\\@


 COMMON SENSE IS NOT SO COMMON.   -- VOLTAIRE
 Job cpu time:       0 days  0 hours  1 minutes 45.9 seconds.
 File lengths (MBytes):  RWF=     11 Int=      0 D2E=      0 Chk=      2 Scr=      1
 Normal termination of Gaussian 09 at Mon Oct  3 11:42:23 2016.
 Initial command:
 /apps/leuven/thinking/software/G09//g09D1/l1.exe "/local_scratch/vsc31064/Gau-26988.inp" -scrdir="/local_scratch/vsc31064/"
 Entering Link 1 = /apps/leuven/thinking/software/G09//g09D1/l1.exe PID=     27222.
  
 Copyright (c) 1988,1990,1992,1993,1995,1998,2003,2009,2013,
            Gaussian, Inc.  All Rights Reserved.
  
 This is part of the Gaussian(R) 09 program.  It is based on
 the Gaussian(R) 03 system (copyright 2003, Gaussian, Inc.),
 the Gaussian(R) 98 system (copyright 1998, Gaussian, Inc.),
 the Gaussian(R) 94 system (copyright 1995, Gaussian, Inc.),
 the Gaussian 92(TM) system (copyright 1992, Gaussian, Inc.),
 the Gaussian 90(TM) system (copyright 1990, Gaussian, Inc.),
 the Gaussian 88(TM) system (copyright 1988, Gaussian, Inc.),
 the Gaussian 86(TM) system (copyright 1986, Carnegie Mellon
 University), and the Gaussian 82(TM) system (copyright 1983,
 Carnegie Mellon University). Gaussian is a federally registered
 trademark of Gaussian, Inc.
  
 This software contains proprietary and confidential information,
 including trade secrets, belonging to Gaussian, Inc.
  
 This software is provided under written license and may be
 used, copied, transmitted, or stored only in accord with that
 written license.
  
 The following legend is applicable only to US Government
 contracts under FAR:
  
                    RESTRICTED RIGHTS LEGEND
  
 Use, reproduction and disclosure by the US Government is
 subject to restrictions as set forth in subparagraphs (a)
 and (c) of the Commercial Computer Software - Restricted
 Rights clause in FAR 52.227-19.
  
 Gaussian, Inc.
 340 Quinnipiac St., Bldg. 40, Wallingford CT 06492
  
  
 ---------------------------------------------------------------
 Warning -- This program may not be used in any manner that
 competes with the business of Gaussian, Inc. or will provide
 assistance to any competitor of Gaussian, Inc.  The licensee
 of this program is prohibited from giving any competitor of
 Gaussian, Inc. access to this program.  By using this program,
 the user acknowledges that Gaussian, Inc. is engaged in the
 business of creating and licensing software in the field of
 computational chemistry and represents and warrants to the
 licensee that it is not a competitor of Gaussian, Inc. and that
 it will not use this program in any manner prohibited above.
 ---------------------------------------------------------------
  

 Cite this work as:
 Gaussian 09, Revision D.01,
 M. J. Frisch, G. W. Trucks, H. B. Schlegel, G. E. Scuseria, 
 M. A. Robb, J. R. Cheeseman, G. Scalmani, V. Barone, B. Mennucci, 
 G. A. Petersson, H. Nakatsuji, M. Caricato, X. Li, H. P. Hratchian, 
 A. F. Izmaylov, J. Bloino, G. Zheng, J. L. Sonnenberg, M. Hada, 
 M. Ehara, K. Toyota, R. Fukuda, J. Hasegawa, M. Ishida, T. Nakajima, 
 Y. Honda, O. Kitao, H. Nakai, T. Vreven, J. A. Montgomery, Jr., 
 J. E. Peralta, F. Ogliaro, M. Bearpark, J. J. Heyd, E. Brothers, 
 K. N. Kudin, V. N. Staroverov, T. Keith, R. Kobayashi, J. Normand, 
 K. Raghavachari, A. Rendell, J. C. Burant, S. S. Iyengar, J. Tomasi, 
 M. Cossi, N. Rega, J. M. Millam, M. Klene, J. E. Knox, J. B. Cross, 
 V. Bakken, C. Adamo, J. Jaramillo, R. Gomperts, R. E. Stratmann, 
 O. Yazyev, A. J. Austin, R. Cammi, C. Pomelli, J. W. Ochterski, 
 R. L. Martin, K. Morokuma, V. G. Zakrzewski, G. A. Voth, 
 P. Salvador, J. J. Dannenberg, S. Dapprich, A. D. Daniels, 
 O. Farkas, J. B. Foresman, J. V. Ortiz, J. Cioslowski, 
 and D. J. Fox, Gaussian, Inc., Wallingford CT, 2013.
 
 ******************************************
 Gaussian 09:  ES64L-G09RevD.01 24-Apr-2013
                 3-Oct-2016 
 ******************************************
 %NprocShared=20
 Will use up to   20 processors via shared memory.
 %mem=55000mb
 %chk=cc-Al8-n-s-test
 --------------------------------------------------------
 # CCSD(T,conver=5)/cc-pVTZ test geom=allcheck guess=read
 --------------------------------------------------------
 1/29=7,38=1/1;
 2/12=2,40=1/2;
 3/5=16,6=1,11=9,14=-4,16=1,25=1,30=1,116=-2/1,2,3;
 4/5=1/1;
 5/5=2,38=6/2;
 8/6=4,9=120000,10=1/1,4;
 9/5=7,9=5,14=2/13;
 6/7=2,8=2,9=2,10=2/1;
 99/5=1,9=1/99;
 Structure from the checkpoint file:  "cc-Al8-n-s-test.chk"
 ------------
 Al8-n-s-test
 ------------
 Charge =  0 Multiplicity = 1
 Z-Matrix found in file.
 Al,0,1.79101571,0.47287514,0.
 Al,0,-1.77590121,-0.48247814,0.
 Al,0,0.52051791,-1.17165771,1.61279883
 Al,0,0.52051791,-1.17165771,-1.61279883
 Al,0,-0.50746041,1.16662771,-1.60768584
 Al,0,-0.50746041,1.16662771,1.60768584
 Al,0,-0.13431601,-3.05875901,0.
 Al,0,0.09366951,3.07864701,0.
 Recover connectivity data from disk.
                          Input orientation:                          
 ---------------------------------------------------------------------
 Center     Atomic      Atomic             Coordinates (Angstroms)
 Number     Number       Type             X           Y           Z
 ---------------------------------------------------------------------
      1         13           0        1.791016    0.472875    0.000000
      2         13           0       -1.775901   -0.482478    0.000000
      3         13           0        0.520518   -1.171658    1.612799
      4         13           0        0.520518   -1.171658   -1.612799
      5         13           0       -0.507460    1.166628   -1.607686
      6         13           0       -0.507460    1.166628    1.607686
      7         13           0       -0.134316   -3.058759    0.000000
      8         13           0        0.093670    3.078647    0.000000
 ---------------------------------------------------------------------
                    Distance matrix (angstroms):
                    1          2          3          4          5
     1  Al   0.000000
     2  Al   3.692641   0.000000
     3  Al   2.630546   2.889573   0.000000
     4  Al   2.630546   2.889573   3.225598   0.000000
     5  Al   2.889453   2.629286   4.110455   2.554280   0.000000
     6  Al   2.889453   2.629286   2.554280   4.110455   3.215372
     7  Al   4.022355   3.054836   2.567310   2.567310   4.536274
     8  Al   3.109828   4.022053   4.566006   4.566006   2.569402
                    6          7          8
     6  Al   0.000000
     7  Al   4.536274   0.000000
     8  Al   2.569402   6.141639   0.000000
 Stoichiometry    Al8
 Framework group  CS[SG(Al4),X(Al4)]
 Deg. of freedom    11
 Full point group                 CS      NOp   2
 Largest Abelian subgroup         CS      NOp   2
 Largest concise Abelian subgroup CS      NOp   2
                         Standard orientation:                         
 ---------------------------------------------------------------------
 Center     Atomic      Atomic             Coordinates (Angstroms)
 Number     Number       Type             X           Y           Z
 ---------------------------------------------------------------------
      1         13           0        1.829800   -0.287909    0.000000
      2         13           0       -1.819985    0.273043    0.000000
      3         13           0        0.004886   -1.282064    1.612799
      4         13           0        0.004886   -1.282064   -1.612799
      5         13           0        0.004886    1.272211   -1.607686
      6         13           0        0.004886    1.272211    1.607686
      7         13           0       -1.354047   -2.746051    0.000000
      8         13           0        1.324685    2.780623    0.000000
 ---------------------------------------------------------------------
 Rotational constants (GHZ):      1.0512836      0.5816333      0.5331838
 Standard basis: CC-pVTZ (5D, 7F)
 There are   186 symmetry adapted cartesian basis functions of A'  symmetry.
 There are   126 symmetry adapted cartesian basis functions of A"  symmetry.
 There are   160 symmetry adapted basis functions of A'  symmetry.
 There are   112 symmetry adapted basis functions of A"  symmetry.
   272 basis functions,   760 primitive gaussians,   312 cartesian basis functions
    52 alpha electrons       52 beta electrons
       nuclear repulsion energy       788.0634478916 Hartrees.
 NAtoms=    8 NActive=    8 NUniq=    6 SFac= 1.78D+00 NAtFMM=   60 NAOKFM=F Big=F
 Integral buffers will be    131072 words long.
 Raffenetti 1 integral format.
 Two-electron integral symmetry is turned on.
 One-electron integrals computed using PRISM.
 NBasis=   272 RedAO= T EigKep=  4.89D-04  NBF=   160   112
 NBsUse=   272 1.00D-06 EigRej= -1.00D+00 NBFU=   160   112
 Initial guess from the checkpoint file:  "cc-Al8-n-s-test.chk"
 B after Tr=     0.000000    0.000000    0.000000
         Rot=    1.000000    0.000000    0.000000    0.000000 Ang=   0.00 deg.
 Initial guess orbital symmetries:
       Occupied  (A') (A') (A") (A') (A") (A') (A') (A') (A') (A')
                 (A') (A") (A') (A") (A') (A') (A') (A') (A') (A')
                 (A") (A") (A') (A") (A') (A") (A') (A") (A') (A")
                 (A') (A") (A') (A") (A') (A') (A') (A") (A") (A')
                 (A') (A') (A") (A') (A') (A") (A') (A") (A') (A')
                 (A") (A')
       Virtual   (A') (A') (A') (A') (A') (A') (A') (A') (A') (A')
                 (A') (A') (A') (A') (A') (A') (A') (A') (A') (A')
                 (A') (A') (A') (A') (A') (A') (A') (A') (A') (A')
                 (A') (A') (A') (A') (A') (A') (A') (A') (A') (A')
                 (A') (A') (A') (A') (A') (A') (A') (A') (A') (A')
                 (A') (A') (A') (A') (A') (A') (A') (A') (A') (A')
                 (A') (A') (A') (A') (A') (A') (A') (A') (A') (A')
                 (A') (A') (A') (A') (A') (A') (A') (A') (A') (A')
                 (A') (A') (A') (A') (A') (A') (A') (A') (A') (A')
                 (A') (A') (A') (A') (A') (A') (A') (A') (A') (A')
                 (A') (A') (A') (A') (A') (A') (A') (A') (A') (A')
                 (A') (A') (A') (A') (A') (A') (A') (A') (A') (A')
                 (A') (A') (A') (A') (A') (A') (A") (A") (A") (A")
                 (A") (A") (A") (A") (A") (A") (A") (A") (A") (A")
                 (A") (A") (A") (A") (A") (A") (A") (A") (A") (A")
                 (A") (A") (A") (A") (A") (A") (A") (A") (A") (A")
                 (A") (A") (A") (A") (A") (A") (A") (A") (A") (A")
                 (A") (A") (A") (A") (A") (A") (A") (A") (A") (A")
                 (A") (A") (A") (A") (A") (A") (A") (A") (A") (A")
                 (A") (A") (A") (A") (A") (A") (A") (A") (A") (A")
                 (A") (A") (A") (A") (A") (A") (A") (A") (A") (A")
                 (A") (A") (A") (A") (A") (A") (A") (A") (A") (A")
 Keep R1 ints in memory in symmetry-blocked form, NReq=1034714850.
 Requested convergence on RMS density matrix=1.00D-08 within 128 cycles.
 Requested convergence on MAX density matrix=1.00D-06.
 Requested convergence on             energy=1.00D-06.
 No special actions if energy rises.
 SCF Done:  E(RHF) =  -1935.31067888     A.U. after   17 cycles
            NFock= 17  Conv=0.38D-08     -V/T= 1.9999
 ExpMin= 5.56D-02 ExpMax= 2.06D+05 ExpMxC= 1.99D+03 IAcc=3 IRadAn=         5 AccDes= 0.00D+00
 HarFok:  IExCor=  205 AccDes= 0.00D+00 IRadAn=         5 IDoV=-2 UseB2=F ITyADJ=14
 ICtDFT= 12500011 ScaDFX=  1.000000  1.000000  1.000000  1.000000
 Range of M.O.s used for correlation:    41   272
 NBasis=   272 NAE=    52 NBE=    52 NFC=    40 NFV=     0
 NROrb=    232 NOA=    12 NOB=    12 NVA=   220 NVB=   220
 Semi-Direct transformation.
 ModeAB=           4 MOrb=            12 LenV=    7207095021
 LASXX=     36201263 LTotXX=    36201263 LenRXX=    72882703
 LTotAB=    36681440 MaxLAS=    85905888 LenRXY=           0
 NonZer=   109083966 LenScr=   164398080 LnRSAI=    85905888
 LnScr1=   129626112 LExtra=           0 Total=    452812783
 MaxDsk=          -1 SrtSym=           T ITran=            4
 JobTyp=0 Pass  1:  I=   1 to  12.
 (rs|ai) integrals will be sorted in core.
 Spin components of T(2) and E(2):
     alpha-alpha T2 =       0.1125572761D+00 E2=     -0.1002714418D+00
     alpha-beta  T2 =       0.5011634103D+00 E2=     -0.5084995802D+00
     beta-beta   T2 =       0.1125572761D+00 E2=     -0.1002714418D+00
 ANorm=    0.1313878976D+01
 E2 =    -0.7090424638D+00 EUMP2 =    -0.19360197213406D+04
 Keep R2 and R3 ints in memory in symmetry-blocked form, NReq=1035245350.
 Iterations=  50 Convergence= 0.100D-04
 Iteration Nr.   1
 **********************
 DD1Dir will call FoFMem   1 times, MxPair=       156
 NAB=    78 NAA=     0 NBB=     0.
 MP4(R+Q)=  0.57203552D-01
 E3=        0.56444836D-01        EUMP3=      -0.19359632765D+04
 E4(DQ)=   -0.11643655D-01        UMP4(DQ)=   -0.19359749202D+04
 E4(SDQ)=  -0.22633113D-01        UMP4(SDQ)=  -0.19359859096D+04
 DE(Corr)= -0.59548503     E(Corr)=     -1935.9061639    
 NORM(A)=   0.12334001D+01
 Iteration Nr.   2
 **********************
 DD1Dir will call FoFMem   1 times, MxPair=       156
 NAB=    78 NAA=     0 NBB=     0.
 DE(Corr)= -0.67378455     E(CORR)=     -1935.9844634     Delta=-7.83D-02
 NORM(A)=   0.12776283D+01
 Iteration Nr.   3
 **********************
 DD1Dir will call FoFMem   1 times, MxPair=       156
 NAB=    78 NAA=     0 NBB=     0.
 DE(Corr)= -0.65877403     E(CORR)=     -1935.9694529     Delta= 1.50D-02
 NORM(A)=   0.12847181D+01
 Iteration Nr.   4
 **********************
 DD1Dir will call FoFMem   1 times, MxPair=       156
 NAB=    78 NAA=     0 NBB=     0.
 DE(Corr)= -0.66324023     E(CORR)=     -1935.9739191     Delta=-4.47D-03
 NORM(A)=   0.12880104D+01
 Iteration Nr.   5
 **********************
 DD1Dir will call FoFMem   1 times, MxPair=       156
 NAB=    78 NAA=     0 NBB=     0.
 DE(Corr)= -0.66418777     E(CORR)=     -1935.9748666     Delta=-9.48D-04
 NORM(A)=   0.12916672D+01
 Iteration Nr.   6
 **********************
 DD1Dir will call FoFMem   1 times, MxPair=       156
 NAB=    78 NAA=     0 NBB=     0.
 DE(Corr)= -0.66427585     E(CORR)=     -1935.9749547     Delta=-8.81D-05
 NORM(A)=   0.12932754D+01
 Iteration Nr.   7
 **********************
 DD1Dir will call FoFMem   1 times, MxPair=       156
 NAB=    78 NAA=     0 NBB=     0.
 DE(Corr)= -0.66429139     E(CORR)=     -1935.9749703     Delta=-1.55D-05
 NORM(A)=   0.12931359D+01
 Iteration Nr.   8
 **********************
 DD1Dir will call FoFMem   1 times, MxPair=       156
 NAB=    78 NAA=     0 NBB=     0.
 DE(Corr)= -0.66442820     E(CORR)=     -1935.9751071     Delta=-1.37D-04
 NORM(A)=   0.12935411D+01
 Iteration Nr.   9
 **********************
 DD1Dir will call FoFMem   1 times, MxPair=       156
 NAB=    78 NAA=     0 NBB=     0.
 DE(Corr)= -0.66432798     E(CORR)=     -1935.9750069     Delta= 1.00D-04
 NORM(A)=   0.12934723D+01
 Iteration Nr.  10
 **********************
 DD1Dir will call FoFMem   1 times, MxPair=       156
 NAB=    78 NAA=     0 NBB=     0.
 DE(Corr)= -0.66438007     E(CORR)=     -1935.9750589     Delta=-5.21D-05
 NORM(A)=   0.12935025D+01
 Iteration Nr.  11
 **********************
 DD1Dir will call FoFMem   1 times, MxPair=       156
 NAB=    78 NAA=     0 NBB=     0.
 DE(Corr)= -0.66436093     E(CORR)=     -1935.9750398     Delta= 1.91D-05
 NORM(A)=   0.12935129D+01
 Iteration Nr.  12
 **********************
 DD1Dir will call FoFMem   1 times, MxPair=       156
 NAB=    78 NAA=     0 NBB=     0.
 DE(Corr)= -0.66436746     E(CORR)=     -1935.9750463     Delta=-6.53D-06
 NORM(A)=   0.12935175D+01
 Dominant configurations:
 ***********************
 Spin Case        I    J    A    B          Value
   ABAB          49   49   53   53      -0.116522D+00
 Largest amplitude= 1.17D-01
 Time for triples=     5210.22 seconds.
 T4(CCSD)= -0.90093064D-01
 T5(CCSD)=  0.22683725D-02
 CCSD(T)= -0.19360628710D+04
 Discarding MO integrals.

 **********************************************************************

            Population analysis using the SCF density.

 **********************************************************************

 Orbital symmetries:
       Occupied  (A') (A') (A') (A") (A') (A") (A') (A') (A') (A')
                 (A') (A") (A') (A") (A') (A') (A') (A') (A') (A')
                 (A") (A") (A') (A") (A') (A") (A') (A") (A') (A")
                 (A') (A") (A') (A") (A') (A') (A") (A') (A") (A')
                 (A') (A') (A") (A') (A') (A") (A') (A") (A') (A')
                 (A') (A")
       Virtual   (A') (A') (A') (A") (A') (A") (A') (A") (A") (A')
                 (A') (A") (A') (A') (A') (A") (A') (A") (A') (A")
                 (A') (A') (A') (A") (A") (A') (A') (A') (A") (A")
                 (A") (A') (A") (A') (A') (A') (A") (A') (A') (A')
                 (A") (A") (A') (A") (A") (A') (A") (A') (A') (A")
                 (A') (A') (A") (A') (A") (A') (A') (A') (A") (A')
                 (A") (A') (A') (A') (A") (A") (A") (A') (A") (A")
                 (A') (A') (A") (A') (A') (A') (A') (A") (A") (A')
                 (A") (A') (A') (A") (A') (A") (A') (A") (A') (A')
                 (A") (A') (A') (A") (A') (A') (A") (A") (A') (A")
                 (A') (A") (A") (A') (A') (A') (A') (A") (A') (A")
                 (A') (A") (A') (A') (A") (A") (A') (A") (A") (A')
                 (A") (A') (A") (A") (A') (A') (A') (A") (A") (A')
                 (A') (A') (A") (A') (A") (A") (A') (A') (A") (A')
                 (A') (A') (A") (A') (A") (A") (A') (A') (A") (A')
                 (A') (A') (A') (A") (A") (A') (A") (A") (A') (A")
                 (A') (A') (A") (A') (A") (A') (A') (A") (A") (A")
                 (A') (A') (A") (A") (A') (A') (A') (A") (A") (A')
                 (A") (A') (A') (A') (A') (A") (A") (A") (A') (A')
                 (A") (A') (A') (A") (A') (A') (A") (A') (A') (A")
                 (A') (A') (A") (A') (A') (A") (A") (A') (A') (A")
                 (A") (A') (A") (A') (A') (A") (A') (A") (A') (A')
 The electronic state is 1-A'.
 Alpha  occ. eigenvalues --  -58.48847 -58.48819 -58.47931 -58.47931 -58.47912
 Alpha  occ. eigenvalues --  -58.47912 -58.47734 -58.47667  -4.89979  -4.89953
 Alpha  occ. eigenvalues --   -4.89283  -4.89282  -4.89265  -4.89264  -4.88942
 Alpha  occ. eigenvalues --   -4.88881  -3.21017  -3.21001  -3.20970  -3.20949
 Alpha  occ. eigenvalues --   -3.20890  -3.20873  -3.20465  -3.20459  -3.20430
 Alpha  occ. eigenvalues --   -3.20423  -3.20393  -3.20389  -3.20380  -3.20378
 Alpha  occ. eigenvalues --   -3.20360  -3.20360  -3.20322  -3.20321  -3.20033
 Alpha  occ. eigenvalues --   -3.19979  -3.19948  -3.19941  -3.19896  -3.19886
 Alpha  occ. eigenvalues --   -0.65927  -0.53758  -0.50148  -0.46091  -0.41741
 Alpha  occ. eigenvalues --   -0.34320  -0.28772  -0.25322  -0.24965  -0.24878
 Alpha  occ. eigenvalues --   -0.24001  -0.23707
 Alpha virt. eigenvalues --   -0.03010  -0.02519  -0.00465   0.00552   0.01044
 Alpha virt. eigenvalues --    0.03437   0.06611   0.06791   0.07506   0.08398
 Alpha virt. eigenvalues --    0.09135   0.10144   0.10581   0.12252   0.13110
 Alpha virt. eigenvalues --    0.15549   0.15610   0.15996   0.16840   0.17534
 Alpha virt. eigenvalues --    0.18115   0.19796   0.20356   0.20446   0.20611
 Alpha virt. eigenvalues --    0.21357   0.22102   0.22830   0.23272   0.23999
 Alpha virt. eigenvalues --    0.24204   0.24851   0.25438   0.25602   0.27043
 Alpha virt. eigenvalues --    0.27997   0.28115   0.29429   0.31214   0.31397
 Alpha virt. eigenvalues --    0.31425   0.31558   0.32336   0.32606   0.33913
 Alpha virt. eigenvalues --    0.34013   0.34971   0.36841   0.37414   0.38606
 Alpha virt. eigenvalues --    0.39028   0.39165   0.39594   0.40582   0.40808
 Alpha virt. eigenvalues --    0.42587   0.42742   0.43727   0.45137   0.46095
 Alpha virt. eigenvalues --    0.47009   0.48863   0.50242   0.50415   0.50424
 Alpha virt. eigenvalues --    0.50865   0.52458   0.53015   0.53343   0.54377
 Alpha virt. eigenvalues --    0.55797   0.55910   0.56064   0.58183   0.59860
 Alpha virt. eigenvalues --    0.60626   0.61519   0.61600   0.63455   0.63487
 Alpha virt. eigenvalues --    0.64422   0.64762   0.64921   0.65573   0.66631
 Alpha virt. eigenvalues --    0.67175   0.68430   0.68503   0.69140   0.70104
 Alpha virt. eigenvalues --    0.71550   0.72998   0.78120   0.78323   0.79031
 Alpha virt. eigenvalues --    0.79392   0.80787   0.84317   0.84381   0.84471
 Alpha virt. eigenvalues --    0.84685   0.84867   0.85637   0.85673   0.89167
 Alpha virt. eigenvalues --    0.89462   0.89656   0.91912   0.92853   0.93053
 Alpha virt. eigenvalues --    0.93381   0.93408   0.94493   0.95180   0.95523
 Alpha virt. eigenvalues --    0.95837   0.97253   0.97628   0.98471   0.99041
 Alpha virt. eigenvalues --    0.99434   1.00128   1.00374   1.00644   1.01347
 Alpha virt. eigenvalues --    1.02350   1.02576   1.03492   1.04549   1.07023
 Alpha virt. eigenvalues --    1.07160   1.08477   1.08828   1.09273   1.10483
 Alpha virt. eigenvalues --    1.11045   1.11132   1.14376   1.15326   1.16820
 Alpha virt. eigenvalues --    1.17131   1.18529   1.18814   1.19353   1.19734
 Alpha virt. eigenvalues --    1.20784   1.21272   1.21611   1.22731   1.24242
 Alpha virt. eigenvalues --    1.24635   1.25206   1.25931   1.26772   1.27463
 Alpha virt. eigenvalues --    1.27611   1.29218   1.30474   1.31330   1.32403
 Alpha virt. eigenvalues --    1.33137   1.33879   1.35482   1.37454   1.37544
 Alpha virt. eigenvalues --    1.39024   1.39216   1.40926   1.41092   1.41878
 Alpha virt. eigenvalues --    1.42479   1.45501   1.46316   1.46407   1.46800
 Alpha virt. eigenvalues --    1.49559   1.49819   1.50333   1.50393   1.51572
 Alpha virt. eigenvalues --    1.52101   1.52662   1.54545   1.56593   1.57642
 Alpha virt. eigenvalues --    1.59725   1.60553   1.62185   2.31190   2.39778
 Alpha virt. eigenvalues --    2.41656   2.45190   2.46865   2.47267   2.49457
 Alpha virt. eigenvalues --    2.49618   2.53246   2.53282   2.56967   2.60130
 Alpha virt. eigenvalues --    2.65188   2.66251   2.67899   2.73478   2.75838
 Alpha virt. eigenvalues --    2.77565   2.78513   2.88998   2.93448   3.00577
 Alpha virt. eigenvalues --    3.05704   3.11725   3.15756   3.29115   3.45429
 Alpha virt. eigenvalues --    3.47589   3.48672   3.59641   3.68305   3.94020
          Condensed to atoms (all electrons):
               1          2          3          4          5          6
     1  Al  12.325085  -0.039715   0.256829   0.256829   0.086224   0.086224
     2  Al  -0.039715  12.314922   0.082601   0.082601   0.258423   0.258423
     3  Al   0.256829   0.082601  12.052220   0.012458  -0.025002   0.299517
     4  Al   0.256829   0.082601   0.012458  12.052220   0.299517  -0.025002
     5  Al   0.086224   0.258423  -0.025002   0.299517  12.053042   0.012542
     6  Al   0.086224   0.258423   0.299517  -0.025002   0.012542  12.053042
     7  Al  -0.010839   0.100076   0.329995   0.329995  -0.019748  -0.019748
     8  Al   0.084771  -0.010447  -0.018592  -0.018592   0.327510   0.327510
               7          8
     1  Al  -0.010839   0.084771
     2  Al   0.100076  -0.010447
     3  Al   0.329995  -0.018592
     4  Al   0.329995  -0.018592
     5  Al  -0.019748   0.327510
     6  Al  -0.019748   0.327510
     7  Al  12.259818   0.002631
     8  Al   0.002631  12.275672
 Mulliken charges:
               1
     1  Al  -0.045407
     2  Al  -0.046884
     3  Al   0.009974
     4  Al   0.009974
     5  Al   0.007492
     6  Al   0.007492
     7  Al   0.027822
     8  Al   0.029537
 Sum of Mulliken charges =   0.00000
 Mulliken charges with hydrogens summed into heavy atoms:
               1
     1  Al  -0.045407
     2  Al  -0.046884
     3  Al   0.009974
     4  Al   0.009974
     5  Al   0.007492
     6  Al   0.007492
     7  Al   0.027822
     8  Al   0.029537
 Electronic spatial extent (au):  <R**2>=           2209.2582
 Charge=              0.0000 electrons
 Dipole moment (field-independent basis, Debye):
    X=             -0.0091    Y=              0.0304    Z=              0.0000  Tot=              0.0317
 Quadrupole moment (field-independent basis, Debye-Ang):
   XX=           -107.5905   YY=           -105.5359   ZZ=            -99.9535
   XY=              2.0559   XZ=              0.0000   YZ=              0.0000
 Traceless Quadrupole moment (field-independent basis, Debye-Ang):
   XX=             -3.2305   YY=             -1.1760   ZZ=              4.4065
   XY=              2.0559   XZ=              0.0000   YZ=              0.0000
 Octapole moment (field-independent basis, Debye-Ang**2):
  XXX=             -0.0373  YYY=             -0.0374  ZZZ=              0.0000  XYY=             -0.7444
  XXY=             -0.0278  XXZ=              0.0000  XZZ=             -0.0877  YZZ=             -0.1448
  YYZ=              0.0000  XYZ=              0.0000
 Hexadecapole moment (field-independent basis, Debye-Ang**3):
 XXXX=          -1084.6922 YYYY=          -2025.7821 ZZZZ=           -978.7803 XXXY=           -238.1291
 XXXZ=              0.0000 YYYX=           -243.3649 YYYZ=              0.0000 ZZZX=              0.0000
 ZZZY=              0.0000 XXYY=           -523.5021 XXZZ=           -392.3742 YYZZ=           -515.5819
 XXYZ=              0.0000 YYXZ=              0.0000 ZZXY=           -104.5935
 N-N= 7.880634478916D+02 E-N=-6.205551527257D+03  KE= 1.935469121393D+03
 Symmetry A'   KE= 1.370888492495D+03
 Symmetry A"   KE= 5.645806288981D+02

 Test job not archived.
 1\1\GINC-R1I2N14\SP\RCCSD(T)-FC\CC-pVTZ\Al8\VSC31064\03-Oct-2016\0\\# 
 CCSD(T,conver=5)/cc-pVTZ test geom=allcheck guess=read\\Al8-n-s-test\\
 0,1\Al,0,1.79101571,0.47287514,0.\Al,0,-1.77590121,-0.48247814,0.\Al,0
 ,0.52051791,-1.17165771,1.61279883\Al,0,0.52051791,-1.17165771,-1.6127
 9883\Al,0,-0.50746041,1.16662771,-1.60768584\Al,0,-0.50746041,1.166627
 71,1.60768584\Al,0,-0.13431601,-3.05875901,0.\Al,0,0.09366951,3.078647
 01,0.\\Version=ES64L-G09RevD.01\State=1-A'\HF=-1935.3106789\MP2=-1936.
 0197213\MP3=-1935.9632765\MP4D=-1936.0321237\MP4DQ=-1935.9749202\MP4SD
 Q=-1935.9859096\CCSD=-1935.9750463\CCSD(T)=-1936.062871\RMSD=3.827e-09
 \PG=CS [SG(Al4),X(Al4)]\\@


 THERE IS NO SCIENCE WITHOUT FANCY, NOR ART WITHOUT FACTS.
     -- VLADIMIR NABAKOV
 Job cpu time:       0 days  2 hours 40 minutes 58.8 seconds.
 File lengths (MBytes):  RWF=   3487 Int=      0 D2E=      0 Chk=      4 Scr=      1
 Normal termination of Gaussian 09 at Mon Oct  3 11:50:42 2016.
