 Entering Gaussian System, Link 0=g09
 Initial command:
 /apps/leuven/thinking/software/G09//g09D1/l1.exe "/local_scratch/vsc31064/Gau-42209.inp" -scrdir="/local_scratch/vsc31064/"
 Entering Link 1 = /apps/leuven/thinking/software/G09//g09D1/l1.exe PID=     42213.
  
 Copyright (c) 1988,1990,1992,1993,1995,1998,2003,2009,2013,
            Gaussian, Inc.  All Rights Reserved.
  
 This is part of the Gaussian(R) 09 program.  It is based on
 the Gaussian(R) 03 system (copyright 2003, Gaussian, Inc.),
 the Gaussian(R) 98 system (copyright 1998, Gaussian, Inc.),
 the Gaussian(R) 94 system (copyright 1995, Gaussian, Inc.),
 the Gaussian 92(TM) system (copyright 1992, Gaussian, Inc.),
 the Gaussian 90(TM) system (copyright 1990, Gaussian, Inc.),
 the Gaussian 88(TM) system (copyright 1988, Gaussian, Inc.),
 the Gaussian 86(TM) system (copyright 1986, Carnegie Mellon
 University), and the Gaussian 82(TM) system (copyright 1983,
 Carnegie Mellon University). Gaussian is a federally registered
 trademark of Gaussian, Inc.
  
 This software contains proprietary and confidential information,
 including trade secrets, belonging to Gaussian, Inc.
  
 This software is provided under written license and may be
 used, copied, transmitted, or stored only in accord with that
 written license.
  
 The following legend is applicable only to US Government
 contracts under FAR:
  
                    RESTRICTED RIGHTS LEGEND
  
 Use, reproduction and disclosure by the US Government is
 subject to restrictions as set forth in subparagraphs (a)
 and (c) of the Commercial Computer Software - Restricted
 Rights clause in FAR 52.227-19.
  
 Gaussian, Inc.
 340 Quinnipiac St., Bldg. 40, Wallingford CT 06492
  
  
 ---------------------------------------------------------------
 Warning -- This program may not be used in any manner that
 competes with the business of Gaussian, Inc. or will provide
 assistance to any competitor of Gaussian, Inc.  The licensee
 of this program is prohibited from giving any competitor of
 Gaussian, Inc. access to this program.  By using this program,
 the user acknowledges that Gaussian, Inc. is engaged in the
 business of creating and licensing software in the field of
 computational chemistry and represents and warrants to the
 licensee that it is not a competitor of Gaussian, Inc. and that
 it will not use this program in any manner prohibited above.
 ---------------------------------------------------------------
  

 Cite this work as:
 Gaussian 09, Revision D.01,
 M. J. Frisch, G. W. Trucks, H. B. Schlegel, G. E. Scuseria, 
 M. A. Robb, J. R. Cheeseman, G. Scalmani, V. Barone, B. Mennucci, 
 G. A. Petersson, H. Nakatsuji, M. Caricato, X. Li, H. P. Hratchian, 
 A. F. Izmaylov, J. Bloino, G. Zheng, J. L. Sonnenberg, M. Hada, 
 M. Ehara, K. Toyota, R. Fukuda, J. Hasegawa, M. Ishida, T. Nakajima, 
 Y. Honda, O. Kitao, H. Nakai, T. Vreven, J. A. Montgomery, Jr., 
 J. E. Peralta, F. Ogliaro, M. Bearpark, J. J. Heyd, E. Brothers, 
 K. N. Kudin, V. N. Staroverov, T. Keith, R. Kobayashi, J. Normand, 
 K. Raghavachari, A. Rendell, J. C. Burant, S. S. Iyengar, J. Tomasi, 
 M. Cossi, N. Rega, J. M. Millam, M. Klene, J. E. Knox, J. B. Cross, 
 V. Bakken, C. Adamo, J. Jaramillo, R. Gomperts, R. E. Stratmann, 
 O. Yazyev, A. J. Austin, R. Cammi, C. Pomelli, J. W. Ochterski, 
 R. L. Martin, K. Morokuma, V. G. Zakrzewski, G. A. Voth, 
 P. Salvador, J. J. Dannenberg, S. Dapprich, A. D. Daniels, 
 O. Farkas, J. B. Foresman, J. V. Ortiz, J. Cioslowski, 
 and D. J. Fox, Gaussian, Inc., Wallingford CT, 2013.
 
 ******************************************
 Gaussian 09:  ES64L-G09RevD.01 24-Apr-2013
                 3-Oct-2016 
 ******************************************
 %NprocShared=20
 Will use up to   20 processors via shared memory.
 %mem=55000mb
 %chk=cc-Al8-n-s
 ------------------------
 # hf/6-31G* test scf=xqc
 ------------------------
 1/38=1/1;
 2/12=2,17=6,18=5,40=1/2;
 3/5=1,6=6,7=1,11=9,16=1,25=1,30=1/1,2,3;
 4//1;
 5/5=2,8=3,13=1,38=5/2,8;
 6/7=2,8=2,9=2,10=2,28=1/1;
 99/5=1,9=1/99;
 -------
 Al8-n-s
 -------
 Symbolic Z-matrix:
 Charge =  0 Multiplicity = 1
 Al                   -1.91879   0.25443   0. 
 Al                    1.70846  -0.4407    0. 
 Al                   -0.52102  -1.22988  -1.66774 
 Al                   -0.52102  -1.22988   1.66774 
 Al                    0.35328   1.17332   1.55543 
 Al                    0.35328   1.17332  -1.55543 
 Al                    0.42718  -2.9251    0. 
 Al                    0.11765   3.22481   0. 
 
                          Input orientation:                          
 ---------------------------------------------------------------------
 Center     Atomic      Atomic             Coordinates (Angstroms)
 Number     Number       Type             X           Y           Z
 ---------------------------------------------------------------------
      1         13           0       -1.918788    0.254435    0.000000
      2         13           0        1.708458   -0.440703    0.000000
      3         13           0       -0.521022   -1.229879   -1.667737
      4         13           0       -0.521022   -1.229879    1.667737
      5         13           0        0.353278    1.173315    1.555433
      6         13           0        0.353278    1.173315   -1.555433
      7         13           0        0.427182   -2.925100    0.000000
      8         13           0        0.117646    3.224814    0.000000
 ---------------------------------------------------------------------
                    Distance matrix (angstroms):
                    1          2          3          4          5
     1  Al   0.000000
     2  Al   3.693255   0.000000
     3  Al   2.634062   2.893912   0.000000
     4  Al   2.634062   2.893912   3.335474   0.000000
     5  Al   2.902757   2.619339   4.114434   2.559758   0.000000
     6  Al   2.902757   2.619339   2.559758   4.114434   3.110866
     7  Al   3.951331   2.795335   2.560119   2.560119   4.384272
     8  Al   3.601418   3.995835   4.799327   4.799327   2.585255
                    6          7          8
     6  Al   0.000000
     7  Al   4.384272   0.000000
     8  Al   2.585255   6.157699   0.000000
 Stoichiometry    Al8
 Framework group  CS[SG(Al4),X(Al4)]
 Deg. of freedom    11
 Full point group                 CS      NOp   2
 Largest Abelian subgroup         CS      NOp   2
 Largest concise Abelian subgroup CS      NOp   2
                         Standard orientation:                         
 ---------------------------------------------------------------------
 Center     Atomic      Atomic             Coordinates (Angstroms)
 Number     Number       Type             X           Y           Z
 ---------------------------------------------------------------------
      1         13           0        1.890023   -0.416897    0.000000
      2         13           0       -1.756309    0.169955    0.000000
      3         13           0        0.069019   -1.333894    1.667737
      4         13           0        0.069019   -1.333894   -1.667737
      5         13           0        0.069019    1.223399   -1.555433
      6         13           0        0.069019    1.223399    1.555433
      7         13           0       -1.401620   -2.602786    0.000000
      8         13           0        0.991830    3.070718    0.000000
 ---------------------------------------------------------------------
 Rotational constants (GHZ):      1.0411135      0.5748639      0.5291926
 Standard basis: 6-31G(d) (6D, 7F)
 There are    94 symmetry adapted cartesian basis functions of A'  symmetry.
 There are    58 symmetry adapted cartesian basis functions of A"  symmetry.
 There are    94 symmetry adapted basis functions of A'  symmetry.
 There are    58 symmetry adapted basis functions of A"  symmetry.
   152 basis functions,   416 primitive gaussians,   152 cartesian basis functions
    52 alpha electrons       52 beta electrons
       nuclear repulsion energy       786.2109097146 Hartrees.
 NAtoms=    8 NActive=    8 NUniq=    6 SFac= 1.78D+00 NAtFMM=   60 NAOKFM=F Big=F
 Integral buffers will be    131072 words long.
 Raffenetti 1 integral format.
 Two-electron integral symmetry is turned on.
 One-electron integrals computed using PRISM.
 NBasis=   152 RedAO= T EigKep=  1.24D-03  NBF=    94    58
 NBsUse=   152 1.00D-06 EigRej= -1.00D+00 NBFU=    94    58
 ExpMin= 5.57D-02 ExpMax= 1.40D+04 ExpMxC= 2.10D+03 IAcc=2 IRadAn=         4 AccDes= 0.00D+00
 Harris functional with IExCor=  205 and IRadAn=       4 diagonalized for initial guess.
 HarFok:  IExCor=  205 AccDes= 0.00D+00 IRadAn=         4 IDoV= 1 UseB2=F ITyADJ=14
 ICtDFT=  3500011 ScaDFX=  1.000000  1.000000  1.000000  1.000000
 FoFCou: FMM=F IPFlag=           0 FMFlag=      100000 FMFlg1=           0
         NFxFlg=           0 DoJE=T BraDBF=F KetDBF=T FulRan=T
         wScrn=  0.000000 ICntrl=     500 IOpCl=  0 I1Cent=   200000004 NGrid=           0
         NMat0=    1 NMatS0=      1 NMatT0=    0 NMatD0=    1 NMtDS0=    0 NMtDT0=    0
 Petite list used in FoFCou.
 Initial guess orbital symmetries:
       Occupied  (A") (A') (A") (A') (A') (A') (A') (A') (A") (A')
                 (A") (A') (A') (A') (A') (A') (A') (A") (A') (A")
                 (A') (A") (A") (A') (A') (A") (A') (A") (A') (A')
                 (A") (A') (A') (A") (A") (A') (A') (A') (A") (A')
                 (A') (A') (A") (A') (A') (A") (A') (A') (A") (A')
                 (A') (A")
       Virtual   (A') (A') (A') (A") (A') (A") (A') (A") (A') (A")
                 (A') (A") (A') (A') (A") (A') (A") (A') (A") (A')
                 (A") (A') (A') (A") (A') (A') (A") (A') (A") (A')
                 (A") (A') (A') (A') (A") (A') (A") (A') (A') (A")
                 (A') (A') (A") (A') (A") (A') (A") (A') (A') (A")
                 (A') (A') (A") (A") (A') (A") (A') (A') (A") (A")
                 (A') (A') (A") (A') (A') (A") (A') (A') (A") (A')
                 (A') (A") (A") (A') (A') (A") (A") (A') (A') (A")
                 (A') (A') (A') (A') (A") (A") (A") (A') (A') (A')
                 (A") (A") (A') (A') (A") (A') (A") (A') (A') (A')
 The electronic state of the initial guess is 1-A'.
 Keep R1 ints in memory in symmetry-blocked form, NReq=101654998.
 Requested convergence on RMS density matrix=1.00D-08 within  64 cycles.
 Requested convergence on MAX density matrix=1.00D-06.
 Requested convergence on             energy=1.00D-06.
 No special actions if energy rises.
 SCF Done:  E(RHF) =  -1935.13476398     A.U. after   20 cycles
            NFock= 20  Conv=0.59D-08     -V/T= 2.0001
 QCSCF skips out because SCF is already converged.

 **********************************************************************

            Population analysis using the SCF density.

 **********************************************************************

 Orbital symmetries:
       Occupied  (A') (A') (A') (A") (A') (A') (A") (A') (A') (A')
                 (A') (A") (A') (A') (A") (A') (A') (A') (A") (A')
                 (A') (A") (A') (A") (A') (A") (A') (A") (A') (A")
                 (A') (A') (A") (A') (A") (A') (A") (A') (A") (A')
                 (A') (A') (A") (A') (A') (A") (A') (A") (A') (A')
                 (A") (A')
       Virtual   (A') (A') (A') (A") (A') (A") (A') (A") (A") (A')
                 (A') (A") (A') (A') (A') (A") (A') (A") (A") (A')
                 (A') (A") (A') (A") (A') (A') (A') (A") (A') (A")
                 (A") (A') (A') (A') (A") (A') (A') (A") (A") (A')
                 (A') (A") (A") (A') (A') (A') (A") (A') (A') (A')
                 (A") (A') (A") (A') (A") (A") (A') (A') (A") (A")
                 (A') (A') (A") (A') (A') (A') (A") (A') (A') (A")
                 (A') (A") (A") (A') (A') (A") (A") (A') (A') (A")
                 (A') (A') (A') (A') (A") (A") (A') (A") (A') (A')
                 (A") (A") (A') (A') (A") (A') (A") (A') (A') (A')
 The electronic state is 1-A'.
 Alpha  occ. eigenvalues --  -58.48373 -58.47876 -58.47236 -58.47044 -58.47044
 Alpha  occ. eigenvalues --  -58.46831 -58.46831 -58.46304  -4.90312  -4.89826
 Alpha  occ. eigenvalues --   -4.89279  -4.89263  -4.89262  -4.89124  -4.89123
 Alpha  occ. eigenvalues --   -4.88455  -3.21297  -3.21283  -3.21107  -3.20934
 Alpha  occ. eigenvalues --   -3.20839  -3.20748  -3.20443  -3.20435  -3.20347
 Alpha  occ. eigenvalues --   -3.20336  -3.20318  -3.20302  -3.20301  -3.20264
 Alpha  occ. eigenvalues --   -3.20264  -3.20217  -3.20209  -3.20206  -3.20189
 Alpha  occ. eigenvalues --   -3.20146  -3.20145  -3.19596  -3.19483  -3.19463
 Alpha  occ. eigenvalues --   -0.66415  -0.54110  -0.50509  -0.46831  -0.41865
 Alpha  occ. eigenvalues --   -0.34570  -0.29021  -0.25679  -0.25494  -0.24783
 Alpha  occ. eigenvalues --   -0.23825  -0.23618
 Alpha virt. eigenvalues --   -0.03325  -0.02269  -0.00338   0.00292   0.00840
 Alpha virt. eigenvalues --    0.03192   0.05713   0.06644   0.08308   0.08314
 Alpha virt. eigenvalues --    0.10363   0.10803   0.10917   0.12756   0.14477
 Alpha virt. eigenvalues --    0.15803   0.16552   0.16617   0.18850   0.19402
 Alpha virt. eigenvalues --    0.22025   0.22455   0.23954   0.24202   0.24555
 Alpha virt. eigenvalues --    0.26255   0.27412   0.28160   0.30057   0.30916
 Alpha virt. eigenvalues --    0.31671   0.32652   0.33894   0.34207   0.35150
 Alpha virt. eigenvalues --    0.36091   0.37365   0.37860   0.39273   0.40998
 Alpha virt. eigenvalues --    0.41968   0.42782   0.44034   0.44079   0.44931
 Alpha virt. eigenvalues --    0.46761   0.47852   0.49707   0.50006   0.52087
 Alpha virt. eigenvalues --    0.54008   0.55071   0.56041   0.56569   0.57973
 Alpha virt. eigenvalues --    0.60970   0.61130   0.64066   0.65586   0.65711
 Alpha virt. eigenvalues --    0.66529   0.68205   0.70233   0.71175   0.71580
 Alpha virt. eigenvalues --    0.73937   0.74474   0.75213   0.76615   0.77842
 Alpha virt. eigenvalues --    0.78053   0.80854   0.82575   0.82920   0.86023
 Alpha virt. eigenvalues --    0.86411   0.87406   0.88866   0.89347   0.91752
 Alpha virt. eigenvalues --    0.92461   0.94006   0.97915   1.00325   1.01433
 Alpha virt. eigenvalues --    1.03113   1.06167   1.06621   1.08905   1.11984
 Alpha virt. eigenvalues --    1.13208   1.15847   2.22516   2.29932   2.31472
 Alpha virt. eigenvalues --    2.34125   2.37568   2.37675   2.43404   2.44343
          Condensed to atoms (all electrons):
               1          2          3          4          5          6
     1  Al  13.231087  -0.003467  -0.172989  -0.172989   0.042046   0.042046
     2  Al  -0.003467  13.285592   0.044051   0.044051  -0.138500  -0.138500
     3  Al  -0.172989   0.044051  13.049443   0.299966  -0.129433  -0.025421
     4  Al  -0.172989   0.044051   0.299966  13.049443  -0.025421  -0.129433
     5  Al   0.042046  -0.138500  -0.129433  -0.025421  13.065414   0.184404
     6  Al   0.042046  -0.138500  -0.025421  -0.129433   0.184404  13.065414
     7  Al   0.070960  -0.037757  -0.086451  -0.086451   0.057282   0.057282
     8  Al  -0.023619   0.032901   0.019707   0.019707   0.040263   0.040263
               7          8
     1  Al   0.070960  -0.023619
     2  Al  -0.037757   0.032901
     3  Al  -0.086451   0.019707
     4  Al  -0.086451   0.019707
     5  Al   0.057282   0.040263
     6  Al   0.057282   0.040263
     7  Al  12.921900   0.003989
     8  Al   0.003989  12.674730
 Mulliken charges:
               1
     1  Al  -0.013076
     2  Al  -0.088370
     3  Al   0.001126
     4  Al   0.001126
     5  Al  -0.096056
     6  Al  -0.096056
     7  Al   0.099245
     8  Al   0.192059
 Sum of Mulliken charges =   0.00000
 Mulliken charges with hydrogens summed into heavy atoms:
               1
     1  Al  -0.013076
     2  Al  -0.088370
     3  Al   0.001126
     4  Al   0.001126
     5  Al  -0.096056
     6  Al  -0.096056
     7  Al   0.099245
     8  Al   0.192059
 Electronic spatial extent (au):  <R**2>=           2230.1538
 Charge=              0.0000 electrons
 Dipole moment (field-independent basis, Debye):
    X=             -0.0636    Y=              0.4335    Z=              0.0000  Tot=              0.4382
 Quadrupole moment (field-independent basis, Debye-Ang):
   XX=           -108.8600   YY=           -104.9151   ZZ=           -101.8651
   XY=              3.0812   XZ=              0.0000   YZ=              0.0000
 Traceless Quadrupole moment (field-independent basis, Debye-Ang):
   XX=             -3.6466   YY=              0.2983   ZZ=              3.3483
   XY=              3.0812   XZ=              0.0000   YZ=              0.0000
 Octapole moment (field-independent basis, Debye-Ang**2):
  XXX=              0.9546  YYY=              0.7613  ZZZ=              0.0000  XYY=             -8.5662
  XXY=              0.5975  XXZ=              0.0000  XZZ=             -1.5009  YZZ=             -2.6247
  YYZ=              0.0000  XYZ=              0.0000
 Hexadecapole moment (field-independent basis, Debye-Ang**3):
 XXXX=          -1058.3860 YYYY=          -2078.4204 ZZZZ=          -1012.8706 XXXY=           -197.2645
 XXXZ=              0.0000 YYYX=           -197.4623 YYYZ=              0.0000 ZZZX=              0.0000
 ZZZY=              0.0000 XXYY=           -521.4274 XXZZ=           -381.1071 YYZZ=           -536.0785
 XXYZ=              0.0000 YYXZ=              0.0000 ZZXY=            -86.8759
 N-N= 7.862109097146D+02 E-N=-6.200982784949D+03  KE= 1.934846958975D+03
 Symmetry A'   KE= 1.370494978243D+03
 Symmetry A"   KE= 5.643519807317D+02

 Test job not archived.
 1\1\GINC-R2I2N8\SP\RHF\6-31G(d)\Al8\VSC31064\03-Oct-2016\0\\# hf/6-31G
 * test scf=xqc\\Al8-n-s\\0,1\Al,0,-1.91878802,0.25443469,0.\Al,0,1.708
 45804,-0.44070296,0.\Al,0,-0.52102241,-1.22987946,-1.66773694\Al,0,-0.
 52102241,-1.22987946,1.66773694\Al,0,0.35327845,1.17331517,1.5554329\A
 l,0,0.35327845,1.17331517,-1.5554329\Al,0,0.42718228,-2.92510008,0.\Al
 ,0,0.11764569,3.22481389,0.\\Version=ES64L-G09RevD.01\State=1-A'\HF=-1
 935.134764\RMSD=5.932e-09\Dipole=0.0818371,0.1517324,0.\Quadrupole=-3.
 8403157,1.3509121,2.4894036,-0.8129701,0.,0.\PG=CS [SG(Al4),X(Al4)]\\@


 In the race for quality, there is no finish line.
                               -- David T. Kearns
 Job cpu time:       0 days  0 hours  1 minutes 53.9 seconds.
 File lengths (MBytes):  RWF=     11 Int=      0 D2E=      0 Chk=      2 Scr=      1
 Normal termination of Gaussian 09 at Mon Oct  3 11:45:31 2016.
 Initial command:
 /apps/leuven/thinking/software/G09//g09D1/l1.exe "/local_scratch/vsc31064/Gau-42209.inp" -scrdir="/local_scratch/vsc31064/"
 Entering Link 1 = /apps/leuven/thinking/software/G09//g09D1/l1.exe PID=     42474.
  
 Copyright (c) 1988,1990,1992,1993,1995,1998,2003,2009,2013,
            Gaussian, Inc.  All Rights Reserved.
  
 This is part of the Gaussian(R) 09 program.  It is based on
 the Gaussian(R) 03 system (copyright 2003, Gaussian, Inc.),
 the Gaussian(R) 98 system (copyright 1998, Gaussian, Inc.),
 the Gaussian(R) 94 system (copyright 1995, Gaussian, Inc.),
 the Gaussian 92(TM) system (copyright 1992, Gaussian, Inc.),
 the Gaussian 90(TM) system (copyright 1990, Gaussian, Inc.),
 the Gaussian 88(TM) system (copyright 1988, Gaussian, Inc.),
 the Gaussian 86(TM) system (copyright 1986, Carnegie Mellon
 University), and the Gaussian 82(TM) system (copyright 1983,
 Carnegie Mellon University). Gaussian is a federally registered
 trademark of Gaussian, Inc.
  
 This software contains proprietary and confidential information,
 including trade secrets, belonging to Gaussian, Inc.
  
 This software is provided under written license and may be
 used, copied, transmitted, or stored only in accord with that
 written license.
  
 The following legend is applicable only to US Government
 contracts under FAR:
  
                    RESTRICTED RIGHTS LEGEND
  
 Use, reproduction and disclosure by the US Government is
 subject to restrictions as set forth in subparagraphs (a)
 and (c) of the Commercial Computer Software - Restricted
 Rights clause in FAR 52.227-19.
  
 Gaussian, Inc.
 340 Quinnipiac St., Bldg. 40, Wallingford CT 06492
  
  
 ---------------------------------------------------------------
 Warning -- This program may not be used in any manner that
 competes with the business of Gaussian, Inc. or will provide
 assistance to any competitor of Gaussian, Inc.  The licensee
 of this program is prohibited from giving any competitor of
 Gaussian, Inc. access to this program.  By using this program,
 the user acknowledges that Gaussian, Inc. is engaged in the
 business of creating and licensing software in the field of
 computational chemistry and represents and warrants to the
 licensee that it is not a competitor of Gaussian, Inc. and that
 it will not use this program in any manner prohibited above.
 ---------------------------------------------------------------
  

 Cite this work as:
 Gaussian 09, Revision D.01,
 M. J. Frisch, G. W. Trucks, H. B. Schlegel, G. E. Scuseria, 
 M. A. Robb, J. R. Cheeseman, G. Scalmani, V. Barone, B. Mennucci, 
 G. A. Petersson, H. Nakatsuji, M. Caricato, X. Li, H. P. Hratchian, 
 A. F. Izmaylov, J. Bloino, G. Zheng, J. L. Sonnenberg, M. Hada, 
 M. Ehara, K. Toyota, R. Fukuda, J. Hasegawa, M. Ishida, T. Nakajima, 
 Y. Honda, O. Kitao, H. Nakai, T. Vreven, J. A. Montgomery, Jr., 
 J. E. Peralta, F. Ogliaro, M. Bearpark, J. J. Heyd, E. Brothers, 
 K. N. Kudin, V. N. Staroverov, T. Keith, R. Kobayashi, J. Normand, 
 K. Raghavachari, A. Rendell, J. C. Burant, S. S. Iyengar, J. Tomasi, 
 M. Cossi, N. Rega, J. M. Millam, M. Klene, J. E. Knox, J. B. Cross, 
 V. Bakken, C. Adamo, J. Jaramillo, R. Gomperts, R. E. Stratmann, 
 O. Yazyev, A. J. Austin, R. Cammi, C. Pomelli, J. W. Ochterski, 
 R. L. Martin, K. Morokuma, V. G. Zakrzewski, G. A. Voth, 
 P. Salvador, J. J. Dannenberg, S. Dapprich, A. D. Daniels, 
 O. Farkas, J. B. Foresman, J. V. Ortiz, J. Cioslowski, 
 and D. J. Fox, Gaussian, Inc., Wallingford CT, 2013.
 
 ******************************************
 Gaussian 09:  ES64L-G09RevD.01 24-Apr-2013
                 3-Oct-2016 
 ******************************************
 %NprocShared=20
 Will use up to   20 processors via shared memory.
 %mem=55000mb
 %chk=cc-Al8-n-s
 --------------------------------------------------------
 # CCSD(T,conver=5)/cc-pVTZ test geom=allcheck guess=read
 --------------------------------------------------------
 1/29=7,38=1/1;
 2/12=2,40=1/2;
 3/5=16,6=1,11=9,14=-4,16=1,25=1,30=1,116=-2/1,2,3;
 4/5=1/1;
 5/5=2,38=6/2;
 8/6=4,9=120000,10=1/1,4;
 9/5=7,9=5,14=2/13;
 6/7=2,8=2,9=2,10=2/1;
 99/5=1,9=1/99;
 Structure from the checkpoint file:  "cc-Al8-n-s.chk"
 -------
 Al8-n-s
 -------
 Charge =  0 Multiplicity = 1
 Z-Matrix found in file.
 Al,0,-1.91878802,0.25443469,0.
 Al,0,1.70845804,-0.44070296,0.
 Al,0,-0.52102241,-1.22987946,-1.66773694
 Al,0,-0.52102241,-1.22987946,1.66773694
 Al,0,0.35327845,1.17331517,1.5554329
 Al,0,0.35327845,1.17331517,-1.5554329
 Al,0,0.42718228,-2.92510008,0.
 Al,0,0.11764569,3.22481389,0.
 Recover connectivity data from disk.
                          Input orientation:                          
 ---------------------------------------------------------------------
 Center     Atomic      Atomic             Coordinates (Angstroms)
 Number     Number       Type             X           Y           Z
 ---------------------------------------------------------------------
      1         13           0       -1.918788    0.254435    0.000000
      2         13           0        1.708458   -0.440703    0.000000
      3         13           0       -0.521022   -1.229879   -1.667737
      4         13           0       -0.521022   -1.229879    1.667737
      5         13           0        0.353278    1.173315    1.555433
      6         13           0        0.353278    1.173315   -1.555433
      7         13           0        0.427182   -2.925100    0.000000
      8         13           0        0.117646    3.224814    0.000000
 ---------------------------------------------------------------------
                    Distance matrix (angstroms):
                    1          2          3          4          5
     1  Al   0.000000
     2  Al   3.693255   0.000000
     3  Al   2.634062   2.893912   0.000000
     4  Al   2.634062   2.893912   3.335474   0.000000
     5  Al   2.902757   2.619339   4.114434   2.559758   0.000000
     6  Al   2.902757   2.619339   2.559758   4.114434   3.110866
     7  Al   3.951331   2.795335   2.560119   2.560119   4.384272
     8  Al   3.601418   3.995835   4.799327   4.799327   2.585255
                    6          7          8
     6  Al   0.000000
     7  Al   4.384272   0.000000
     8  Al   2.585255   6.157699   0.000000
 Stoichiometry    Al8
 Framework group  CS[SG(Al4),X(Al4)]
 Deg. of freedom    11
 Full point group                 CS      NOp   2
 Largest Abelian subgroup         CS      NOp   2
 Largest concise Abelian subgroup CS      NOp   2
                         Standard orientation:                         
 ---------------------------------------------------------------------
 Center     Atomic      Atomic             Coordinates (Angstroms)
 Number     Number       Type             X           Y           Z
 ---------------------------------------------------------------------
      1         13           0        1.890023   -0.416897    0.000000
      2         13           0       -1.756309    0.169955    0.000000
      3         13           0        0.069019   -1.333894    1.667737
      4         13           0        0.069019   -1.333894   -1.667737
      5         13           0        0.069019    1.223399   -1.555433
      6         13           0        0.069019    1.223399    1.555433
      7         13           0       -1.401620   -2.602786    0.000000
      8         13           0        0.991830    3.070718    0.000000
 ---------------------------------------------------------------------
 Rotational constants (GHZ):      1.0411135      0.5748639      0.5291926
 Standard basis: CC-pVTZ (5D, 7F)
 There are   186 symmetry adapted cartesian basis functions of A'  symmetry.
 There are   126 symmetry adapted cartesian basis functions of A"  symmetry.
 There are   160 symmetry adapted basis functions of A'  symmetry.
 There are   112 symmetry adapted basis functions of A"  symmetry.
   272 basis functions,   760 primitive gaussians,   312 cartesian basis functions
    52 alpha electrons       52 beta electrons
       nuclear repulsion energy       786.2109097146 Hartrees.
 NAtoms=    8 NActive=    8 NUniq=    6 SFac= 1.78D+00 NAtFMM=   60 NAOKFM=F Big=F
 Integral buffers will be    131072 words long.
 Raffenetti 1 integral format.
 Two-electron integral symmetry is turned on.
 One-electron integrals computed using PRISM.
 NBasis=   272 RedAO= T EigKep=  4.78D-04  NBF=   160   112
 NBsUse=   272 1.00D-06 EigRej= -1.00D+00 NBFU=   160   112
 Initial guess from the checkpoint file:  "cc-Al8-n-s.chk"
 B after Tr=     0.000000    0.000000    0.000000
         Rot=    1.000000    0.000000    0.000000    0.000000 Ang=   0.00 deg.
 Initial guess orbital symmetries:
       Occupied  (A') (A') (A') (A") (A') (A') (A") (A') (A') (A')
                 (A') (A") (A') (A') (A") (A') (A') (A') (A") (A')
                 (A') (A") (A') (A") (A') (A") (A') (A") (A') (A")
                 (A') (A') (A") (A') (A") (A') (A") (A') (A") (A')
                 (A') (A') (A") (A') (A') (A") (A') (A") (A') (A')
                 (A") (A')
       Virtual   (A') (A') (A') (A') (A') (A') (A') (A') (A') (A')
                 (A') (A') (A') (A') (A') (A') (A') (A') (A') (A')
                 (A') (A') (A') (A') (A') (A') (A') (A') (A') (A')
                 (A') (A') (A') (A') (A') (A') (A') (A') (A') (A')
                 (A') (A') (A') (A') (A') (A') (A') (A') (A') (A')
                 (A') (A') (A') (A') (A') (A') (A') (A') (A') (A')
                 (A') (A') (A') (A') (A') (A') (A') (A') (A') (A')
                 (A') (A') (A') (A') (A') (A') (A') (A') (A') (A')
                 (A') (A') (A') (A') (A') (A') (A') (A') (A') (A')
                 (A') (A') (A') (A') (A') (A') (A') (A') (A') (A')
                 (A') (A') (A') (A') (A') (A') (A') (A') (A') (A')
                 (A') (A') (A') (A') (A') (A') (A') (A') (A') (A')
                 (A') (A') (A') (A') (A') (A') (A") (A") (A") (A")
                 (A") (A") (A") (A") (A") (A") (A") (A") (A") (A")
                 (A") (A") (A") (A") (A") (A") (A") (A") (A") (A")
                 (A") (A") (A") (A") (A") (A") (A") (A") (A") (A")
                 (A") (A") (A") (A") (A") (A") (A") (A") (A") (A")
                 (A") (A") (A") (A") (A") (A") (A") (A") (A") (A")
                 (A") (A") (A") (A") (A") (A") (A") (A") (A") (A")
                 (A") (A") (A") (A") (A") (A") (A") (A") (A") (A")
                 (A") (A") (A") (A") (A") (A") (A") (A") (A") (A")
                 (A") (A") (A") (A") (A") (A") (A") (A") (A") (A")
 Keep R1 ints in memory in symmetry-blocked form, NReq=1034714850.
 Requested convergence on RMS density matrix=1.00D-08 within 128 cycles.
 Requested convergence on MAX density matrix=1.00D-06.
 Requested convergence on             energy=1.00D-06.
 No special actions if energy rises.
 SCF Done:  E(RHF) =  -1935.31265322     A.U. after   17 cycles
            NFock= 17  Conv=0.69D-08     -V/T= 1.9999
 ExpMin= 5.56D-02 ExpMax= 2.06D+05 ExpMxC= 1.99D+03 IAcc=3 IRadAn=         5 AccDes= 0.00D+00
 HarFok:  IExCor=  205 AccDes= 0.00D+00 IRadAn=         5 IDoV=-2 UseB2=F ITyADJ=14
 ICtDFT= 12500011 ScaDFX=  1.000000  1.000000  1.000000  1.000000
 Range of M.O.s used for correlation:    41   272
 NBasis=   272 NAE=    52 NBE=    52 NFC=    40 NFV=     0
 NROrb=    232 NOA=    12 NOB=    12 NVA=   220 NVB=   220

 **** Warning!!: The largest alpha MO coefficient is  0.10803770D+02

 Semi-Direct transformation.
 ModeAB=           4 MOrb=            12 LenV=    7207095440
 LASXX=     36201263 LTotXX=    36201263 LenRXX=    72882703
 LTotAB=    36681440 MaxLAS=    85805664 LenRXY=           0
 NonZer=   109083966 LenScr=   164398080 LnRSAI=    85805664
 LnScr1=   129454080 LExtra=           0 Total=    452540527
 MaxDsk=          -1 SrtSym=           T ITran=            4
 JobTyp=0 Pass  1:  I=   1 to  12.
 (rs|ai) integrals will be sorted in core.
 Spin components of T(2) and E(2):
     alpha-alpha T2 =       0.1110062859D+00 E2=     -0.9937841145D-01
     alpha-beta  T2 =       0.4960413729D+00 E2=     -0.5060757042D+00
     beta-beta   T2 =       0.1110062859D+00 E2=     -0.9937841145D-01
 ANorm=    0.1310745568D+01
 E2 =    -0.7048325271D+00 EUMP2 =    -0.19360174857515D+04
 Keep R2 and R3 ints in memory in symmetry-blocked form, NReq=1035245350.
 Iterations=  50 Convergence= 0.100D-04
 Iteration Nr.   1
 **********************
 DD1Dir will call FoFMem   1 times, MxPair=       156
 NAB=    78 NAA=     0 NBB=     0.
 MP4(R+Q)=  0.56798505D-01
 E3=        0.52701842D-01        EUMP3=      -0.19359647839D+04
 E4(DQ)=   -0.95863912D-02        UMP4(DQ)=   -0.19359743703D+04
 E4(SDQ)=  -0.20021208D-01        UMP4(SDQ)=  -0.19359848051D+04
 DE(Corr)= -0.59540824     E(Corr)=     -1935.9080615    
 NORM(A)=   0.12329523D+01
 Iteration Nr.   2
 **********************
 DD1Dir will call FoFMem   1 times, MxPair=       156
 NAB=    78 NAA=     0 NBB=     0.
 DE(Corr)= -0.67131851     E(CORR)=     -1935.9839717     Delta=-7.59D-02
 NORM(A)=   0.12767147D+01
 Iteration Nr.   3
 **********************
 DD1Dir will call FoFMem   1 times, MxPair=       156
 NAB=    78 NAA=     0 NBB=     0.
 DE(Corr)= -0.65713480     E(CORR)=     -1935.9697880     Delta= 1.42D-02
 NORM(A)=   0.12837065D+01
 Iteration Nr.   4
 **********************
 DD1Dir will call FoFMem   1 times, MxPair=       156
 NAB=    78 NAA=     0 NBB=     0.
 DE(Corr)= -0.66147295     E(CORR)=     -1935.9741262     Delta=-4.34D-03
 NORM(A)=   0.12869100D+01
 Iteration Nr.   5
 **********************
 DD1Dir will call FoFMem   1 times, MxPair=       156
 NAB=    78 NAA=     0 NBB=     0.
 DE(Corr)= -0.66239504     E(CORR)=     -1935.9750483     Delta=-9.22D-04
 NORM(A)=   0.12906245D+01
 Iteration Nr.   6
 **********************
 DD1Dir will call FoFMem   1 times, MxPair=       156
 NAB=    78 NAA=     0 NBB=     0.
 DE(Corr)= -0.66248810     E(CORR)=     -1935.9751413     Delta=-9.31D-05
 NORM(A)=   0.12923390D+01
 Iteration Nr.   7
 **********************
 DD1Dir will call FoFMem   1 times, MxPair=       156
 NAB=    78 NAA=     0 NBB=     0.
 DE(Corr)= -0.66250282     E(CORR)=     -1935.9751560     Delta=-1.47D-05
 NORM(A)=   0.12922444D+01
 Iteration Nr.   8
 **********************
 DD1Dir will call FoFMem   1 times, MxPair=       156
 NAB=    78 NAA=     0 NBB=     0.
 DE(Corr)= -0.66264923     E(CORR)=     -1935.9753025     Delta=-1.46D-04
 NORM(A)=   0.12926888D+01
 Iteration Nr.   9
 **********************
 DD1Dir will call FoFMem   1 times, MxPair=       156
 NAB=    78 NAA=     0 NBB=     0.
 DE(Corr)= -0.66254177     E(CORR)=     -1935.9751950     Delta= 1.07D-04
 NORM(A)=   0.12926603D+01
 Iteration Nr.  10
 **********************
 DD1Dir will call FoFMem   1 times, MxPair=       156
 NAB=    78 NAA=     0 NBB=     0.
 DE(Corr)= -0.66258999     E(CORR)=     -1935.9752432     Delta=-4.82D-05
 NORM(A)=   0.12926622D+01
 Iteration Nr.  11
 **********************
 DD1Dir will call FoFMem   1 times, MxPair=       156
 NAB=    78 NAA=     0 NBB=     0.
 DE(Corr)= -0.66257980     E(CORR)=     -1935.9752330     Delta= 1.02D-05
 NORM(A)=   0.12926898D+01
 Iteration Nr.  12
 **********************
 DD1Dir will call FoFMem   1 times, MxPair=       156
 NAB=    78 NAA=     0 NBB=     0.
 DE(Corr)= -0.66258097     E(CORR)=     -1935.9752342     Delta=-1.17D-06
 NORM(A)=   0.12926904D+01
 Iteration Nr.  13
 **********************
 DD1Dir will call FoFMem   1 times, MxPair=       156
 NAB=    78 NAA=     0 NBB=     0.
 DE(Corr)= -0.66258236     E(CORR)=     -1935.9752356     Delta=-1.40D-06
 NORM(A)=   0.12926976D+01
 Largest amplitude= 7.38D-02
 Time for triples=     5518.78 seconds.
 T4(CCSD)= -0.89122514D-01
 T5(CCSD)=  0.21856022D-02
 CCSD(T)= -0.19360621725D+04
 Discarding MO integrals.

 **********************************************************************

            Population analysis using the SCF density.

 **********************************************************************

 Orbital symmetries:
       Occupied  (A') (A') (A') (A') (A") (A') (A") (A') (A') (A')
                 (A') (A") (A') (A') (A") (A') (A') (A') (A") (A')
                 (A') (A") (A') (A") (A') (A") (A') (A") (A') (A")
                 (A') (A') (A") (A') (A") (A') (A") (A') (A") (A')
                 (A') (A') (A") (A') (A') (A") (A') (A") (A') (A')
                 (A') (A")
       Virtual   (A') (A') (A') (A") (A') (A") (A') (A") (A") (A')
                 (A') (A") (A') (A') (A') (A") (A') (A") (A') (A")
                 (A') (A') (A") (A') (A") (A') (A') (A') (A") (A')
                 (A") (A") (A") (A') (A') (A") (A') (A') (A") (A')
                 (A') (A") (A') (A") (A") (A') (A") (A') (A') (A')
                 (A") (A') (A") (A") (A') (A') (A') (A') (A") (A')
                 (A") (A') (A') (A") (A') (A") (A") (A") (A') (A')
                 (A") (A") (A') (A') (A') (A') (A') (A") (A") (A')
                 (A') (A") (A") (A') (A') (A") (A') (A') (A") (A')
                 (A") (A') (A') (A") (A') (A") (A') (A") (A') (A")
                 (A") (A') (A') (A') (A") (A') (A') (A") (A') (A")
                 (A') (A") (A') (A") (A') (A") (A") (A") (A') (A')
                 (A") (A') (A") (A') (A') (A") (A') (A") (A') (A")
                 (A') (A') (A") (A") (A') (A") (A') (A') (A') (A")
                 (A') (A') (A") (A') (A") (A") (A') (A") (A') (A')
                 (A") (A') (A') (A') (A") (A") (A') (A") (A') (A')
                 (A") (A') (A") (A') (A") (A') (A") (A") (A') (A')
                 (A") (A') (A") (A") (A') (A') (A") (A') (A") (A')
                 (A") (A') (A') (A') (A') (A") (A") (A") (A') (A')
                 (A") (A') (A') (A") (A') (A') (A") (A') (A') (A')
                 (A") (A') (A") (A') (A') (A") (A") (A') (A") (A')
                 (A") (A') (A") (A') (A') (A") (A') (A") (A') (A')
 The electronic state is 1-A'.
 Alpha  occ. eigenvalues --  -58.49033 -58.48657 -58.48037 -58.47920 -58.47920
 Alpha  occ. eigenvalues --  -58.47758 -58.47758 -58.47199  -4.90155  -4.89808
 Alpha  occ. eigenvalues --   -4.89244  -4.89242  -4.89217  -4.89133  -4.89131
 Alpha  occ. eigenvalues --   -4.88473  -3.21145  -3.21119  -3.21022  -3.20916
 Alpha  occ. eigenvalues --   -3.20833  -3.20783  -3.20417  -3.20410  -3.20348
 Alpha  occ. eigenvalues --   -3.20344  -3.20328  -3.20325  -3.20301  -3.20292
 Alpha  occ. eigenvalues --   -3.20265  -3.20248  -3.20247  -3.20219  -3.20218
 Alpha  occ. eigenvalues --   -3.20186  -3.20179  -3.19618  -3.19540  -3.19526
 Alpha  occ. eigenvalues --   -0.65810  -0.53619  -0.50034  -0.46413  -0.41466
 Alpha  occ. eigenvalues --   -0.34250  -0.28819  -0.25397  -0.25295  -0.24680
 Alpha  occ. eigenvalues --   -0.23959  -0.23508
 Alpha virt. eigenvalues --   -0.03058  -0.02068  -0.00097   0.00632   0.01020
 Alpha virt. eigenvalues --    0.03432   0.05710   0.06603   0.07864   0.07955
 Alpha virt. eigenvalues --    0.09941   0.10225   0.10335   0.12238   0.13243
 Alpha virt. eigenvalues --    0.15237   0.15788   0.15999   0.16772   0.17653
 Alpha virt. eigenvalues --    0.18000   0.19837   0.20411   0.20529   0.20907
 Alpha virt. eigenvalues --    0.21215   0.22002   0.22898   0.23196   0.23808
 Alpha virt. eigenvalues --    0.23909   0.24495   0.26189   0.26378   0.27000
 Alpha virt. eigenvalues --    0.27925   0.28170   0.29326   0.30658   0.31003
 Alpha virt. eigenvalues --    0.31811   0.31899   0.32515   0.33140   0.33306
 Alpha virt. eigenvalues --    0.34140   0.35689   0.37068   0.37176   0.38283
 Alpha virt. eigenvalues --    0.38512   0.39148   0.39619   0.40696   0.41337
 Alpha virt. eigenvalues --    0.42053   0.42767   0.43548   0.45112   0.46146
 Alpha virt. eigenvalues --    0.46540   0.48979   0.49766   0.50504   0.50715
 Alpha virt. eigenvalues --    0.51289   0.52512   0.53364   0.53370   0.54889
 Alpha virt. eigenvalues --    0.55055   0.55659   0.55777   0.58027   0.59270
 Alpha virt. eigenvalues --    0.60914   0.61679   0.61748   0.63563   0.63842
 Alpha virt. eigenvalues --    0.64078   0.64178   0.65217   0.65749   0.66477
 Alpha virt. eigenvalues --    0.67549   0.68950   0.69367   0.69824   0.70580
 Alpha virt. eigenvalues --    0.72049   0.73219   0.77339   0.78318   0.78357
 Alpha virt. eigenvalues --    0.80782   0.81562   0.82963   0.83922   0.84499
 Alpha virt. eigenvalues --    0.84991   0.85360   0.86495   0.88117   0.88387
 Alpha virt. eigenvalues --    0.89235   0.89529   0.89687   0.92014   0.92556
 Alpha virt. eigenvalues --    0.93629   0.93945   0.94681   0.95145   0.95724
 Alpha virt. eigenvalues --    0.96631   0.97388   0.98187   0.98196   0.98703
 Alpha virt. eigenvalues --    0.99099   1.00679   1.01126   1.01180   1.01904
 Alpha virt. eigenvalues --    1.02032   1.03868   1.04132   1.05031   1.05357
 Alpha virt. eigenvalues --    1.07244   1.08536   1.08566   1.09949   1.10709
 Alpha virt. eigenvalues --    1.11777   1.12108   1.13512   1.15643   1.16224
 Alpha virt. eigenvalues --    1.16550   1.16639   1.16923   1.18654   1.19797
 Alpha virt. eigenvalues --    1.20414   1.20694   1.21571   1.21929   1.22989
 Alpha virt. eigenvalues --    1.23990   1.24467   1.24869   1.26712   1.27802
 Alpha virt. eigenvalues --    1.29532   1.30313   1.31629   1.32286   1.32752
 Alpha virt. eigenvalues --    1.32808   1.33182   1.36083   1.36772   1.38305
 Alpha virt. eigenvalues --    1.39055   1.39916   1.40260   1.40746   1.42666
 Alpha virt. eigenvalues --    1.43431   1.44169   1.45882   1.46749   1.46880
 Alpha virt. eigenvalues --    1.48002   1.50075   1.50520   1.50863   1.51885
 Alpha virt. eigenvalues --    1.52410   1.53691   1.55070   1.57175   1.58553
 Alpha virt. eigenvalues --    1.59365   1.62144   1.63187   2.31082   2.39003
 Alpha virt. eigenvalues --    2.41676   2.43471   2.45746   2.46379   2.48268
 Alpha virt. eigenvalues --    2.50218   2.53861   2.54125   2.55075   2.60201
 Alpha virt. eigenvalues --    2.60434   2.67497   2.67989   2.73317   2.77331
 Alpha virt. eigenvalues --    2.77979   2.78824   2.89020   2.99524   3.01929
 Alpha virt. eigenvalues --    3.05550   3.11350   3.17986   3.33603   3.44209
 Alpha virt. eigenvalues --    3.46303   3.52163   3.58367   3.71917   3.95649
          Condensed to atoms (all electrons):
               1          2          3          4          5          6
     1  Al  12.344941  -0.040160   0.255199   0.255199   0.106859   0.106859
     2  Al  -0.040160  12.231043   0.066315   0.066315   0.264668   0.264668
     3  Al   0.255199   0.066315  12.047531   0.003957  -0.024119   0.300253
     4  Al   0.255199   0.066315   0.003957  12.047531   0.300253  -0.024119
     5  Al   0.106859   0.264668  -0.024119   0.300253  12.070921   0.015273
     6  Al   0.106859   0.264668   0.300253  -0.024119   0.015273  12.070921
     7  Al  -0.010628   0.203615   0.342326   0.342326  -0.027301  -0.027301
     8  Al   0.016006  -0.004404  -0.011326  -0.011326   0.306979   0.306979
               7          8
     1  Al  -0.010628   0.016006
     2  Al   0.203615  -0.004404
     3  Al   0.342326  -0.011326
     4  Al   0.342326  -0.011326
     5  Al  -0.027301   0.306979
     6  Al  -0.027301   0.306979
     7  Al  12.151287   0.001726
     8  Al   0.001726  12.345645
 Mulliken charges:
               1
     1  Al  -0.034275
     2  Al  -0.052060
     3  Al   0.019864
     4  Al   0.019864
     5  Al  -0.013533
     6  Al  -0.013533
     7  Al   0.023950
     8  Al   0.049723
 Sum of Mulliken charges =   0.00000
 Mulliken charges with hydrogens summed into heavy atoms:
               1
     1  Al  -0.034275
     2  Al  -0.052060
     3  Al   0.019864
     4  Al   0.019864
     5  Al  -0.013533
     6  Al  -0.013533
     7  Al   0.023950
     8  Al   0.049723
 Electronic spatial extent (au):  <R**2>=           2228.0812
 Charge=              0.0000 electrons
 Dipole moment (field-independent basis, Debye):
    X=             -0.1524    Y=              0.3798    Z=              0.0000  Tot=              0.4093
 Quadrupole moment (field-independent basis, Debye-Ang):
   XX=           -106.8930   YY=           -105.3458   ZZ=           -100.6136
   XY=              2.2281   XZ=              0.0000   YZ=              0.0000
 Traceless Quadrupole moment (field-independent basis, Debye-Ang):
   XX=             -2.6089   YY=             -1.0616   ZZ=              3.6705
   XY=              2.2281   XZ=              0.0000   YZ=              0.0000
 Octapole moment (field-independent basis, Debye-Ang**2):
  XXX=             -0.1494  YYY=              0.1612  ZZZ=              0.0000  XYY=             -8.6923
  XXY=              0.4302  XXZ=              0.0000  XZZ=             -1.2772  YZZ=             -2.3500
  YYZ=              0.0000  XYZ=              0.0000
 Hexadecapole moment (field-independent basis, Debye-Ang**3):
 XXXX=          -1029.0955 YYYY=          -2106.9021 ZZZZ=           -987.8882 XXXY=           -204.0304
 XXXZ=              0.0000 YYYX=           -208.4289 YYYZ=              0.0000 ZZZX=              0.0000
 ZZZY=              0.0000 XXYY=           -520.5932 XXZZ=           -382.3012 YYZZ=           -537.5228
 XXYZ=              0.0000 YYXZ=              0.0000 ZZXY=            -91.8353
 N-N= 7.862109097146D+02 E-N=-6.201898081525D+03  KE= 1.935466214558D+03
 Symmetry A'   KE= 1.370909356626D+03
 Symmetry A"   KE= 5.645568579321D+02

 Test job not archived.
 1\1\GINC-R2I2N8\SP\RCCSD(T)-FC\CC-pVTZ\Al8\VSC31064\03-Oct-2016\0\\# C
 CSD(T,conver=5)/cc-pVTZ test geom=allcheck guess=read\\Al8-n-s\\0,1\Al
 ,0,-1.91878802,0.25443469,0.\Al,0,1.70845804,-0.44070296,0.\Al,0,-0.52
 102241,-1.22987946,-1.66773694\Al,0,-0.52102241,-1.22987946,1.66773694
 \Al,0,0.35327845,1.17331517,1.5554329\Al,0,0.35327845,1.17331517,-1.55
 54329\Al,0,0.42718228,-2.92510008,0.\Al,0,0.11764569,3.22481389,0.\\Ve
 rsion=ES64L-G09RevD.01\State=1-A'\HF=-1935.3126532\MP2=-1936.0174858\M
 P3=-1935.9647839\MP4D=-1936.0311688\MP4DQ=-1935.9743703\MP4SDQ=-1935.9
 848051\CCSD=-1935.9752356\CCSD(T)=-1936.0621725\RMSD=6.930e-09\PG=CS [
 SG(Al4),X(Al4)]\\@


 THERE ARE TWO THINGS THAT EVERYBODY THINKS THEY CAN DO BETTER THAN
 ANYONE ELSE - PUNCH THE FIRE, AND EDIT A DAILY PAPER.
 -- UNCLE ESEK, "CENTURY MAGAZINE", 1885
 Job cpu time:       0 days  2 hours 48 minutes  1.2 seconds.
 File lengths (MBytes):  RWF=   3485 Int=      0 D2E=      0 Chk=      4 Scr=      1
 Normal termination of Gaussian 09 at Mon Oct  3 11:54:10 2016.
