 Entering Gaussian System, Link 0=g09
 Initial command:
 /apps/leuven/thinking/software/G09//g09D1/l1.exe "/local_scratch/vsc31064/Gau-37964.inp" -scrdir="/local_scratch/vsc31064/"
 Entering Link 1 = /apps/leuven/thinking/software/G09//g09D1/l1.exe PID=     37968.
  
 Copyright (c) 1988,1990,1992,1993,1995,1998,2003,2009,2013,
            Gaussian, Inc.  All Rights Reserved.
  
 This is part of the Gaussian(R) 09 program.  It is based on
 the Gaussian(R) 03 system (copyright 2003, Gaussian, Inc.),
 the Gaussian(R) 98 system (copyright 1998, Gaussian, Inc.),
 the Gaussian(R) 94 system (copyright 1995, Gaussian, Inc.),
 the Gaussian 92(TM) system (copyright 1992, Gaussian, Inc.),
 the Gaussian 90(TM) system (copyright 1990, Gaussian, Inc.),
 the Gaussian 88(TM) system (copyright 1988, Gaussian, Inc.),
 the Gaussian 86(TM) system (copyright 1986, Carnegie Mellon
 University), and the Gaussian 82(TM) system (copyright 1983,
 Carnegie Mellon University). Gaussian is a federally registered
 trademark of Gaussian, Inc.
  
 This software contains proprietary and confidential information,
 including trade secrets, belonging to Gaussian, Inc.
  
 This software is provided under written license and may be
 used, copied, transmitted, or stored only in accord with that
 written license.
  
 The following legend is applicable only to US Government
 contracts under FAR:
  
                    RESTRICTED RIGHTS LEGEND
  
 Use, reproduction and disclosure by the US Government is
 subject to restrictions as set forth in subparagraphs (a)
 and (c) of the Commercial Computer Software - Restricted
 Rights clause in FAR 52.227-19.
  
 Gaussian, Inc.
 340 Quinnipiac St., Bldg. 40, Wallingford CT 06492
  
  
 ---------------------------------------------------------------
 Warning -- This program may not be used in any manner that
 competes with the business of Gaussian, Inc. or will provide
 assistance to any competitor of Gaussian, Inc.  The licensee
 of this program is prohibited from giving any competitor of
 Gaussian, Inc. access to this program.  By using this program,
 the user acknowledges that Gaussian, Inc. is engaged in the
 business of creating and licensing software in the field of
 computational chemistry and represents and warrants to the
 licensee that it is not a competitor of Gaussian, Inc. and that
 it will not use this program in any manner prohibited above.
 ---------------------------------------------------------------
  

 Cite this work as:
 Gaussian 09, Revision D.01,
 M. J. Frisch, G. W. Trucks, H. B. Schlegel, G. E. Scuseria, 
 M. A. Robb, J. R. Cheeseman, G. Scalmani, V. Barone, B. Mennucci, 
 G. A. Petersson, H. Nakatsuji, M. Caricato, X. Li, H. P. Hratchian, 
 A. F. Izmaylov, J. Bloino, G. Zheng, J. L. Sonnenberg, M. Hada, 
 M. Ehara, K. Toyota, R. Fukuda, J. Hasegawa, M. Ishida, T. Nakajima, 
 Y. Honda, O. Kitao, H. Nakai, T. Vreven, J. A. Montgomery, Jr., 
 J. E. Peralta, F. Ogliaro, M. Bearpark, J. J. Heyd, E. Brothers, 
 K. N. Kudin, V. N. Staroverov, T. Keith, R. Kobayashi, J. Normand, 
 K. Raghavachari, A. Rendell, J. C. Burant, S. S. Iyengar, J. Tomasi, 
 M. Cossi, N. Rega, J. M. Millam, M. Klene, J. E. Knox, J. B. Cross, 
 V. Bakken, C. Adamo, J. Jaramillo, R. Gomperts, R. E. Stratmann, 
 O. Yazyev, A. J. Austin, R. Cammi, C. Pomelli, J. W. Ochterski, 
 R. L. Martin, K. Morokuma, V. G. Zakrzewski, G. A. Voth, 
 P. Salvador, J. J. Dannenberg, S. Dapprich, A. D. Daniels, 
 O. Farkas, J. B. Foresman, J. V. Ortiz, J. Cioslowski, 
 and D. J. Fox, Gaussian, Inc., Wallingford CT, 2013.
 
 ******************************************
 Gaussian 09:  ES64L-G09RevD.01 24-Apr-2013
                 3-Oct-2016 
 ******************************************
 %NprocShared=20
 Will use up to   20 processors via shared memory.
 %mem=55000mb
 %chk=cc-Al9-n-d
 ------------------------
 # hf/6-31G* test scf=xqc
 ------------------------
 1/38=1/1;
 2/12=2,17=6,18=5,40=1/2;
 3/5=1,6=6,7=1,11=9,16=1,25=1,30=1/1,2,3;
 4//1;
 5/5=2,8=3,13=1,38=5/2,8;
 6/7=2,8=2,9=2,10=2,28=1/1;
 99/5=1,9=1/99;
 -------
 Al9-n-d
 -------
 Symbolic Z-matrix:
 Charge =  0 Multiplicity = 2
 Al                    2.76676   0.79099   0. 
 Al                    0.31778   0.07106   1.3728 
 Al                   -0.35306  -2.22669   0. 
 Al                   -2.13728  -0.56659   1.27571 
 Al                   -2.13728  -0.56659  -1.27571 
 Al                    0.74077   2.46129   0. 
 Al                    0.31778   0.07106  -1.3728 
 Al                    2.23374  -1.83899   0. 
 Al                   -1.74942   1.80442   0. 
 
                          Input orientation:                          
 ---------------------------------------------------------------------
 Center     Atomic      Atomic             Coordinates (Angstroms)
 Number     Number       Type             X           Y           Z
 ---------------------------------------------------------------------
      1         13           0        2.766757    0.790989    0.000000
      2         13           0        0.317775    0.071055    1.372805
      3         13           0       -0.353065   -2.226686    0.000000
      4         13           0       -2.137284   -0.566593    1.275712
      5         13           0       -2.137284   -0.566593   -1.275712
      6         13           0        0.740766    2.461289    0.000000
      7         13           0        0.317775    0.071055   -1.372805
      8         13           0        2.233744   -1.838991    0.000000
      9         13           0       -1.749417    1.804423    0.000000
 ---------------------------------------------------------------------
                    Distance matrix (angstroms):
                    1          2          3          4          5
     1  Al   0.000000
     2  Al   2.898346   0.000000
     3  Al   4.340466   2.759390   0.000000
     4  Al   5.245959   2.538373   2.750779   0.000000
     5  Al   5.245959   3.667227   2.750779   2.551424   0.000000
     6  Al   2.625747   2.788680   4.813894   4.367915   4.367915
     7  Al   2.898346   2.745610   2.759390   3.667227   2.538373
     8  Al   2.683449   3.033778   2.615700   4.727825   4.727825
     9  Al   4.628486   3.026952   4.266103   2.720220   2.720220
                    6          7          8          9
     6  Al   0.000000
     7  Al   2.788680   0.000000
     8  Al   4.552076   3.033778   0.000000
     9  Al   2.575361   3.026952   5.398152   0.000000
 Stoichiometry    Al9(2)
 Framework group  CS[SG(Al5),X(Al4)]
 Deg. of freedom    13
 Full point group                 CS      NOp   2
 Largest Abelian subgroup         CS      NOp   2
 Largest concise Abelian subgroup CS      NOp   2
                         Standard orientation:                         
 ---------------------------------------------------------------------
 Center     Atomic      Atomic             Coordinates (Angstroms)
 Number     Number       Type             X           Y           Z
 ---------------------------------------------------------------------
      1         13           0       -0.070058    2.876778    0.000000
      2         13           0        0.011112    0.325459    1.372805
      3         13           0        2.066424   -0.901461    0.000000
      4         13           0        0.011112   -2.211056    1.275712
      5         13           0        0.011112   -2.211056   -1.275712
      6         13           0       -2.196029    1.335741    0.000000
      7         13           0        0.011112    0.325459   -1.372805
      8         13           0        2.341471    1.699738    0.000000
      9         13           0       -2.186257   -1.239601    0.000000
 ---------------------------------------------------------------------
 Rotational constants (GHZ):      0.7216326      0.5720927      0.4195154
 Standard basis: 6-31G(d) (6D, 7F)
 There are   108 symmetry adapted cartesian basis functions of A'  symmetry.
 There are    63 symmetry adapted cartesian basis functions of A"  symmetry.
 There are   108 symmetry adapted basis functions of A'  symmetry.
 There are    63 symmetry adapted basis functions of A"  symmetry.
   171 basis functions,   468 primitive gaussians,   171 cartesian basis functions
    59 alpha electrons       58 beta electrons
       nuclear repulsion energy       991.2087652367 Hartrees.
 NAtoms=    9 NActive=    9 NUniq=    7 SFac= 1.65D+00 NAtFMM=   60 NAOKFM=F Big=F
 Integral buffers will be    131072 words long.
 Raffenetti 2 integral format.
 Two-electron integral symmetry is turned on.
 One-electron integrals computed using PRISM.
 NBasis=   171 RedAO= T EigKep=  1.19D-03  NBF=   108    63
 NBsUse=   171 1.00D-06 EigRej= -1.00D+00 NBFU=   108    63
 ExpMin= 5.57D-02 ExpMax= 1.40D+04 ExpMxC= 2.10D+03 IAcc=2 IRadAn=         4 AccDes= 0.00D+00
 Harris functional with IExCor=  205 and IRadAn=       4 diagonalized for initial guess.
 HarFok:  IExCor=  205 AccDes= 0.00D+00 IRadAn=         4 IDoV= 1 UseB2=F ITyADJ=14
 ICtDFT=  3500011 ScaDFX=  1.000000  1.000000  1.000000  1.000000
 FoFCou: FMM=F IPFlag=           0 FMFlag=      100000 FMFlg1=           0
         NFxFlg=           0 DoJE=T BraDBF=F KetDBF=T FulRan=T
         wScrn=  0.000000 ICntrl=     500 IOpCl=  0 I1Cent=   200000004 NGrid=           0
         NMat0=    1 NMatS0=      1 NMatT0=    0 NMatD0=    1 NMtDS0=    0 NMtDT0=    0
 Petite list used in FoFCou.
 Initial guess orbital symmetries:
 Alpha Orbitals:
       Occupied  (A") (A') (A") (A') (A') (A') (A') (A') (A') (A')
                 (A") (A') (A") (A') (A') (A') (A') (A') (A') (A")
                 (A') (A") (A') (A") (A') (A") (A') (A') (A") (A')
                 (A") (A') (A") (A') (A') (A') (A') (A") (A") (A')
                 (A') (A') (A") (A') (A") (A') (A') (A') (A") (A')
                 (A') (A') (A") (A") (A') (A') (A') (A') (A')
       Virtual   (A") (A") (A') (A') (A") (A') (A") (A') (A') (A')
                 (A") (A') (A") (A") (A') (A') (A") (A") (A') (A')
                 (A") (A') (A') (A') (A') (A") (A') (A') (A") (A')
                 (A') (A') (A") (A') (A") (A') (A') (A") (A") (A')
                 (A') (A") (A') (A") (A") (A') (A") (A') (A') (A")
                 (A') (A") (A') (A") (A') (A') (A") (A') (A") (A')
                 (A') (A") (A') (A') (A") (A') (A') (A') (A") (A')
                 (A") (A') (A") (A') (A') (A') (A") (A') (A") (A")
                 (A') (A') (A") (A") (A") (A') (A') (A') (A") (A")
                 (A') (A") (A") (A') (A') (A") (A') (A") (A') (A')
                 (A') (A") (A') (A') (A') (A') (A") (A') (A') (A')
                 (A') (A")
 Beta  Orbitals:
       Occupied  (A") (A') (A") (A') (A') (A') (A') (A') (A') (A')
                 (A") (A') (A") (A') (A') (A') (A') (A') (A') (A")
                 (A') (A") (A') (A") (A') (A") (A') (A') (A") (A')
                 (A") (A') (A") (A') (A') (A') (A') (A") (A") (A')
                 (A') (A') (A") (A') (A") (A') (A') (A') (A") (A')
                 (A') (A') (A") (A") (A') (A') (A') (A')
       Virtual   (A') (A") (A") (A') (A') (A") (A') (A") (A') (A')
                 (A') (A") (A') (A") (A") (A') (A') (A") (A") (A')
                 (A') (A") (A') (A') (A') (A') (A") (A') (A') (A")
                 (A') (A') (A') (A") (A') (A") (A') (A') (A") (A")
                 (A') (A') (A") (A') (A") (A") (A') (A") (A') (A')
                 (A") (A') (A") (A') (A") (A') (A') (A") (A') (A")
                 (A') (A') (A") (A') (A') (A") (A') (A') (A') (A")
                 (A') (A") (A') (A") (A') (A') (A') (A") (A') (A")
                 (A") (A') (A') (A") (A") (A") (A') (A') (A') (A")
                 (A") (A') (A") (A") (A') (A') (A") (A') (A") (A')
                 (A') (A') (A") (A') (A') (A') (A') (A") (A') (A')
                 (A') (A') (A")
 The electronic state of the initial guess is 2-A'.
 Initial guess <Sx>= 0.0000 <Sy>= 0.0000 <Sz>= 0.5000 <S**2>= 0.7500 S= 0.5000
 Keep R1 and R2 ints in memory in symmetry-blocked form, NReq=163256004.
 Requested convergence on RMS density matrix=1.00D-08 within  64 cycles.
 Requested convergence on MAX density matrix=1.00D-06.
 Requested convergence on             energy=1.00D-06.
 No special actions if energy rises.
 Rare condition: small coef for last iteration:  0.000D+00
 Rare condition: small coef for last iteration:  0.000D+00
 Rare condition: small coef for last iteration:  0.000D+00
 Rare condition: small coef for last iteration:  0.000D+00
 SCF Done:  E(UHF) =  -2177.04579312     A.U. after   63 cycles
            NFock= 63  Conv=0.75D-08     -V/T= 2.0002
 <Sx>= 0.0000 <Sy>= 0.0000 <Sz>= 0.5000 <S**2>= 1.1209 S= 0.6709
 <L.S>= 0.000000000000E+00
 Annihilation of the first spin contaminant:
 S**2 before annihilation     1.1209,   after     0.8544
 QCSCF skips out because SCF is already converged.

 **********************************************************************

            Population analysis using the SCF density.

 **********************************************************************

 Orbital symmetries:
 Alpha Orbitals:
       Occupied  (A') (A') (A") (A') (A') (A') (A") (A') (A') (A')
                 (A') (A") (A') (A') (A') (A") (A') (A') (A') (A')
                 (A') (A") (A") (A") (A') (A') (A") (A') (A") (A')
                 (A') (A") (A') (A') (A") (A') (A") (A') (A") (A")
                 (A') (A') (A") (A') (A') (A') (A') (A') (A") (A')
                 (A') (A') (A") (A') (A') (A") (A') (A') (A')
       Virtual   (A") (A') (A') (A") (A') (A") (A') (A") (A') (A')
                 (A") (A') (A") (A") (A') (A") (A') (A") (A') (A')
                 (A") (A') (A') (A') (A') (A') (A") (A') (A') (A")
                 (A') (A') (A") (A") (A') (A") (A') (A') (A") (A')
                 (A") (A') (A") (A') (A') (A") (A') (A") (A') (A")
                 (A') (A') (A") (A') (A") (A') (A') (A") (A') (A")
                 (A') (A") (A') (A') (A') (A") (A') (A') (A") (A')
                 (A") (A') (A") (A') (A') (A') (A") (A') (A") (A')
                 (A") (A") (A') (A") (A') (A') (A") (A') (A") (A")
                 (A') (A") (A") (A') (A') (A") (A') (A") (A') (A')
                 (A') (A') (A") (A') (A') (A') (A") (A') (A') (A')
                 (A') (A")
 Beta  Orbitals:
       Occupied  (A') (A") (A') (A') (A') (A') (A") (A') (A') (A')
                 (A') (A") (A') (A') (A') (A") (A') (A') (A') (A")
                 (A') (A') (A") (A") (A') (A') (A") (A") (A') (A')
                 (A') (A") (A') (A") (A') (A") (A') (A") (A') (A')
                 (A") (A') (A') (A") (A') (A') (A') (A') (A") (A')
                 (A') (A') (A") (A') (A') (A") (A') (A')
       Virtual   (A") (A') (A') (A") (A') (A") (A') (A") (A') (A")
                 (A') (A') (A') (A") (A') (A") (A") (A') (A") (A')
                 (A') (A") (A') (A') (A') (A') (A') (A") (A') (A')
                 (A") (A') (A') (A") (A") (A') (A") (A') (A') (A")
                 (A') (A") (A') (A') (A") (A') (A') (A") (A") (A')
                 (A") (A') (A') (A") (A") (A') (A') (A') (A') (A")
                 (A") (A') (A") (A') (A') (A') (A") (A') (A') (A")
                 (A') (A") (A') (A") (A') (A') (A') (A") (A") (A')
                 (A') (A") (A") (A') (A") (A') (A') (A") (A') (A")
                 (A") (A') (A") (A") (A') (A') (A") (A') (A") (A')
                 (A') (A') (A') (A") (A') (A') (A') (A") (A') (A')
                 (A') (A') (A")
 The electronic state is 2-A'.
 Alpha  occ. eigenvalues --  -58.48396 -58.48209 -58.48167 -58.48166 -58.47619
 Alpha  occ. eigenvalues --  -58.47145 -58.47025 -58.47024 -58.46861  -4.90469
 Alpha  occ. eigenvalues --   -4.90339  -4.90328  -4.90318  -4.89861  -4.89305
 Alpha  occ. eigenvalues --   -4.89299  -4.89122  -4.88939  -3.21713  -3.21544
 Alpha  occ. eigenvalues --   -3.21538  -3.21505  -3.21443  -3.21408  -3.21392
 Alpha  occ. eigenvalues --   -3.21370  -3.21316  -3.21297  -3.21284  -3.21125
 Alpha  occ. eigenvalues --   -3.21121  -3.20835  -3.20690  -3.20562  -3.20540
 Alpha  occ. eigenvalues --   -3.20502  -3.20486  -3.20406  -3.20398  -3.20151
 Alpha  occ. eigenvalues --   -3.20102  -3.20100  -3.19965  -3.19879  -3.19812
 Alpha  occ. eigenvalues --   -0.69197  -0.57662  -0.54872  -0.47589  -0.41789
 Alpha  occ. eigenvalues --   -0.40735  -0.39230  -0.30567  -0.26851  -0.25769
 Alpha  occ. eigenvalues --   -0.25669  -0.25152  -0.24376  -0.22467
 Alpha virt. eigenvalues --   -0.04088  -0.01371  -0.00991  -0.00239   0.00747
 Alpha virt. eigenvalues --    0.01949   0.05522   0.05554   0.07758   0.08155
 Alpha virt. eigenvalues --    0.08228   0.09295   0.11269   0.12179   0.13158
 Alpha virt. eigenvalues --    0.14587   0.14655   0.15536   0.15975   0.17401
 Alpha virt. eigenvalues --    0.18716   0.19731   0.20677   0.21300   0.22652
 Alpha virt. eigenvalues --    0.23373   0.25064   0.25298   0.27281   0.27561
 Alpha virt. eigenvalues --    0.28515   0.28608   0.30066   0.31448   0.31487
 Alpha virt. eigenvalues --    0.34054   0.34226   0.35723   0.36189   0.36608
 Alpha virt. eigenvalues --    0.37469   0.39269   0.39517   0.40157   0.40982
 Alpha virt. eigenvalues --    0.42278   0.42289   0.42678   0.42855   0.43945
 Alpha virt. eigenvalues --    0.46638   0.47216   0.48333   0.50154   0.50178
 Alpha virt. eigenvalues --    0.52513   0.52864   0.54833   0.55083   0.56343
 Alpha virt. eigenvalues --    0.57009   0.60602   0.61583   0.62414   0.63237
 Alpha virt. eigenvalues --    0.64123   0.65328   0.68069   0.68854   0.69565
 Alpha virt. eigenvalues --    0.70641   0.70928   0.72522   0.72851   0.73924
 Alpha virt. eigenvalues --    0.75094   0.78930   0.78981   0.79354   0.81079
 Alpha virt. eigenvalues --    0.81880   0.83515   0.84653   0.85876   0.91110
 Alpha virt. eigenvalues --    0.91723   0.91978   0.92174   0.94711   0.96170
 Alpha virt. eigenvalues --    0.96840   0.99256   1.00373   1.01080   1.01621
 Alpha virt. eigenvalues --    1.02331   1.03315   1.04325   1.04605   1.06974
 Alpha virt. eigenvalues --    1.11964   1.13743   1.16749   2.21400   2.29308
 Alpha virt. eigenvalues --    2.31714   2.32913   2.34474   2.38468   2.39725
 Alpha virt. eigenvalues --    2.41305   2.42576
  Beta  occ. eigenvalues --  -58.48499 -58.48155 -58.48155 -58.47840 -58.47353
  Beta  occ. eigenvalues --  -58.47195 -58.46981 -58.46981 -58.46864  -4.90497
  Beta  occ. eigenvalues --   -4.90298  -4.90287  -4.89806  -4.89325  -4.89242
  Beta  occ. eigenvalues --   -4.89237  -4.89186  -4.88930  -3.21643  -3.21505
  Beta  occ. eigenvalues --   -3.21483  -3.21466  -3.21458  -3.21423  -3.21312
  Beta  occ. eigenvalues --   -3.21297  -3.21262  -3.21123  -3.20904  -3.20791
  Beta  occ. eigenvalues --   -3.20680  -3.20607  -3.20531  -3.20504  -3.20395
  Beta  occ. eigenvalues --   -3.20379  -3.20307  -3.20243  -3.20241  -3.20201
  Beta  occ. eigenvalues --   -3.20173  -3.20113  -3.20065  -3.20020  -3.19861
  Beta  occ. eigenvalues --   -0.68437  -0.57254  -0.53272  -0.47399  -0.41573
  Beta  occ. eigenvalues --   -0.40444  -0.34097  -0.30381  -0.26208  -0.25554
  Beta  occ. eigenvalues --   -0.24958  -0.24647  -0.23048
  Beta virt. eigenvalues --   -0.03601  -0.01642  -0.01293  -0.00025   0.00303
  Beta virt. eigenvalues --    0.02785   0.02900   0.05515   0.06625   0.08342
  Beta virt. eigenvalues --    0.08916   0.09332   0.10334   0.11363   0.13551
  Beta virt. eigenvalues --    0.14387   0.14671   0.14877   0.16080   0.16874
  Beta virt. eigenvalues --    0.18092   0.18682   0.21133   0.21606   0.21908
  Beta virt. eigenvalues --    0.22966   0.23900   0.24999   0.25298   0.27625
  Beta virt. eigenvalues --    0.27652   0.28238   0.30268   0.30367   0.31622
  Beta virt. eigenvalues --    0.33136   0.33936   0.34111   0.35956   0.36547
  Beta virt. eigenvalues --    0.37539   0.37866   0.40060   0.40427   0.40430
  Beta virt. eigenvalues --    0.41742   0.42418   0.42732   0.42931   0.43494
  Beta virt. eigenvalues --    0.44235   0.47053   0.47572   0.48427   0.50627
  Beta virt. eigenvalues --    0.50861   0.53225   0.53891   0.55088   0.55628
  Beta virt. eigenvalues --    0.57282   0.57544   0.60337   0.61882   0.63261
  Beta virt. eigenvalues --    0.63716   0.64866   0.65893   0.68414   0.69194
  Beta virt. eigenvalues --    0.69977   0.71221   0.71451   0.72685   0.73148
  Beta virt. eigenvalues --    0.74664   0.75693   0.78886   0.79327   0.79609
  Beta virt. eigenvalues --    0.81757   0.81930   0.83815   0.84938   0.86627
  Beta virt. eigenvalues --    0.91261   0.91758   0.92076   0.92329   0.95079
  Beta virt. eigenvalues --    0.96709   0.96736   0.99464   1.00970   1.01706
  Beta virt. eigenvalues --    1.02068   1.02455   1.04023   1.04528   1.04781
  Beta virt. eigenvalues --    1.07219   1.12163   1.13936   1.16884   2.21719
  Beta virt. eigenvalues --    2.29273   2.32230   2.33014   2.34559   2.38557
  Beta virt. eigenvalues --    2.40058   2.41736   2.42667
          Condensed to atoms (all electrons):
               1          2          3          4          5          6
     1  Al  12.833213  -0.071545  -0.021710  -0.010383  -0.010383   0.092526
     2  Al  -0.071545  13.605575  -0.013737   0.110401   0.041481  -0.023491
     3  Al  -0.021710  -0.013737  12.962615  -0.025678  -0.025678  -0.005315
     4  Al  -0.010383   0.110401  -0.025678  12.703974   0.107185  -0.019287
     5  Al  -0.010383   0.041481  -0.025678   0.107185  12.703974  -0.019287
     6  Al   0.092526  -0.023491  -0.005315  -0.019287  -0.019287  12.826009
     7  Al  -0.071545  -0.395636  -0.013737   0.041481   0.110401  -0.023491
     8  Al   0.195237  -0.048909   0.116157  -0.003686  -0.003686   0.003619
     9  Al  -0.007234  -0.018206  -0.002885   0.059995   0.059995   0.129372
               7          8          9
     1  Al  -0.071545   0.195237  -0.007234
     2  Al  -0.395636  -0.048909  -0.018206
     3  Al  -0.013737   0.116157  -0.002885
     4  Al   0.041481  -0.003686   0.059995
     5  Al   0.110401  -0.003686   0.059995
     6  Al  -0.023491   0.003619   0.129372
     7  Al  13.605575  -0.048909  -0.018206
     8  Al  -0.048909  12.694164  -0.013971
     9  Al  -0.018206  -0.013971  12.762385
          Atomic-Atomic Spin Densities.
               1          2          3          4          5          6
     1  Al  -0.185414  -0.057361   0.022799  -0.002533  -0.002533   0.086126
     2  Al  -0.057361  -0.029599   0.110408  -0.006910   0.023655   0.104600
     3  Al   0.022799   0.110408   0.604461  -0.106748  -0.106748  -0.038982
     4  Al  -0.002533  -0.006910  -0.106748   0.078514   0.070815  -0.019324
     5  Al  -0.002533   0.023655  -0.106748   0.070815   0.078514  -0.019324
     6  Al   0.086126   0.104600  -0.038982  -0.019324  -0.019324   0.554767
     7  Al  -0.057361  -0.078640   0.110408   0.023655  -0.006910   0.104600
     8  Al  -0.064555   0.042926  -0.123075   0.003432   0.003432  -0.010858
     9  Al   0.011827  -0.029455   0.024884  -0.062096  -0.062096   0.063082
               7          8          9
     1  Al  -0.057361  -0.064555   0.011827
     2  Al  -0.078640   0.042926  -0.029455
     3  Al   0.110408  -0.123075   0.024884
     4  Al   0.023655   0.003432  -0.062096
     5  Al  -0.006910   0.003432  -0.062096
     6  Al   0.104600  -0.010858   0.063082
     7  Al  -0.029599   0.042926  -0.029455
     8  Al   0.042926  -0.014453  -0.009661
     9  Al  -0.029455  -0.009661   0.032907
 Mulliken charges and spin densities:
               1          2
     1  Al   0.071822  -0.249003
     2  Al  -0.185934   0.079624
     3  Al   0.029966   0.497408
     4  Al   0.035997  -0.021195
     5  Al   0.035997  -0.021195
     6  Al   0.039345   0.824688
     7  Al  -0.185934   0.079624
     8  Al   0.109985  -0.129887
     9  Al   0.048755  -0.060064
 Sum of Mulliken charges =   0.00000   1.00000
 Mulliken charges and spin densities with hydrogens summed into heavy atoms:
               1          2
     1  Al   0.071822  -0.249003
     2  Al  -0.185934   0.079624
     3  Al   0.029966   0.497408
     4  Al   0.035997  -0.021195
     5  Al   0.035997  -0.021195
     6  Al   0.039345   0.824688
     7  Al  -0.185934   0.079624
     8  Al   0.109985  -0.129887
     9  Al   0.048755  -0.060064
 Electronic spatial extent (au):  <R**2>=           2667.1064
 Charge=              0.0000 electrons
 Dipole moment (field-independent basis, Debye):
    X=             -0.3604    Y=             -0.4830    Z=              0.0000  Tot=              0.6027
 Quadrupole moment (field-independent basis, Debye-Ang):
   XX=           -125.4105   YY=           -116.6579   ZZ=           -118.7879
   XY=             -4.0163   XZ=              0.0000   YZ=              0.0000
 Traceless Quadrupole moment (field-independent basis, Debye-Ang):
   XX=             -5.1250   YY=              3.6275   ZZ=              1.4975
   XY=             -4.0163   XZ=              0.0000   YZ=              0.0000
 Octapole moment (field-independent basis, Debye-Ang**2):
  XXX=            -11.3817  YYY=            -22.1608  ZZZ=              0.0000  XYY=             -1.8078
  XXY=             -2.4107  XXZ=              0.0000  XZZ=              1.3210  YZZ=              1.0599
  YYZ=              0.0000  XYZ=              0.0000
 Hexadecapole moment (field-independent basis, Debye-Ang**3):
 XXXX=          -1964.2916 YYYY=          -2364.6025 ZZZZ=           -886.7577 XXXY=           -124.8856
 XXXZ=              0.0000 YYYX=            -88.5712 YYYZ=              0.0000 ZZZX=              0.0000
 ZZZY=              0.0000 XXYY=           -727.9886 XXZZ=           -459.1433 YYZZ=           -483.4124
 XXYZ=              0.0000 YYXZ=              0.0000 ZZXY=            -25.8101
 N-N= 9.912087652367D+02 E-N=-7.188990504570D+03  KE= 2.176712284208D+03
 Symmetry A'   KE= 1.594633847885D+03
 Symmetry A"   KE= 5.820784363233D+02
                          Isotropic Fermi Contact Couplings
        Atom                 a.u.       MegaHertz       Gauss      10(-4) cm-1
     1  Al(27)            -0.11767    -137.15873     -48.94165     -45.75123
     2  Al(27)             0.00763       8.89846       3.17519       2.96821
     3  Al(27)             0.48784     568.63810     202.90421     189.67725
     4  Al(27)             0.07220      84.15812      30.02971      28.07213
     5  Al(27)             0.07220      84.15812      30.02971      28.07213
     6  Al(27)             0.43714     509.54750     181.81921     169.96675
     7  Al(27)             0.00763       8.89846       3.17519       2.96821
     8  Al(27)             0.00781       9.10536       3.24902       3.03722
     9  Al(27)             0.03227      37.61470      13.42186      12.54691
 --------------------------------------------------------
       Center         ----  Spin Dipole Couplings  ----
                      3XX-RR        3YY-RR        3ZZ-RR
 --------------------------------------------------------
     1   Atom        0.064523     -0.133443      0.068920
     2   Atom        0.128788     -0.077067     -0.051722
     3   Atom        0.232835     -0.118254     -0.114581
     4   Atom       -0.132657      0.107660      0.024996
     5   Atom       -0.132657      0.107660      0.024996
     6   Atom        0.119001      0.153230     -0.272230
     7   Atom        0.128788     -0.077067     -0.051722
     8   Atom        0.056037     -0.140569      0.084531
     9   Atom       -0.145283      0.178457     -0.033174
 --------------------------------------------------------
                        XY            XZ            YZ
 --------------------------------------------------------
     1   Atom        0.229889      0.000000      0.000000
     2   Atom       -0.082981     -0.018415     -0.013567
     3   Atom       -0.323750      0.000000      0.000000
     4   Atom       -0.030922     -0.027990     -0.007363
     5   Atom       -0.030922      0.027990      0.007363
     6   Atom       -0.128343      0.000000      0.000000
     7   Atom       -0.082981      0.018415      0.013567
     8   Atom        0.025106      0.000000      0.000000
     9   Atom        0.108763      0.000000      0.000000
 --------------------------------------------------------


 ---------------------------------------------------------------------------------
              Anisotropic Spin Dipole Couplings in Principal Axis System
 ---------------------------------------------------------------------------------

       Atom             a.u.   MegaHertz   Gauss  10(-4) cm-1        Axes

              Baa    -0.2848   -39.620   -14.137   -13.216 -0.5498  0.8353  0.0000
     1 Al(27) Bbb     0.0689     9.589     3.422     3.199  0.0000  0.0000  1.0000
              Bcc     0.2158    30.030    10.716    10.017  0.8353  0.5498  0.0000
 
              Baa    -0.1123   -15.628    -5.576    -5.213  0.3308  0.8945  0.3008
     2 Al(27) Bbb    -0.0465    -6.476    -2.311    -2.160 -0.0438 -0.3038  0.9517
              Bcc     0.1589    22.103     7.887     7.373  0.9427 -0.3280 -0.0613
 
              Baa    -0.3110   -43.270   -15.440   -14.433  0.5115  0.8593  0.0000
     3 Al(27) Bbb    -0.1146   -15.942    -5.689    -5.318  0.0000  0.0000  1.0000
              Bcc     0.4256    59.212    21.128    19.751  0.8593 -0.5115  0.0000
 
              Baa    -0.1415   -19.690    -7.026    -6.568  0.9773  0.1263  0.1699
     4 Al(27) Bbb     0.0298     4.142     1.478     1.382 -0.1742  0.0239  0.9844
              Bcc     0.1117    15.548     5.548     5.186 -0.1203  0.9917 -0.0454
 
              Baa    -0.1415   -19.690    -7.026    -6.568  0.9773  0.1263 -0.1699
     5 Al(27) Bbb     0.0298     4.142     1.478     1.382  0.1742 -0.0239  0.9844
              Bcc     0.1117    15.548     5.548     5.186 -0.1203  0.9917  0.0454
 
              Baa    -0.2722   -37.877   -13.516   -12.634  0.0000  0.0000  1.0000
     6 Al(27) Bbb     0.0066     0.923     0.329     0.308  0.7524  0.6587  0.0000
              Bcc     0.2656    36.954    13.186    12.326 -0.6587  0.7524  0.0000
 
              Baa    -0.1123   -15.628    -5.576    -5.213  0.3308  0.8945 -0.3008
     7 Al(27) Bbb    -0.0465    -6.476    -2.311    -2.160  0.0438  0.3038  0.9517
              Bcc     0.1589    22.103     7.887     7.373  0.9427 -0.3280  0.0613
 
              Baa    -0.1437   -19.997    -7.136    -6.670 -0.1247  0.9922  0.0000
     8 Al(27) Bbb     0.0592     8.236     2.939     2.747  0.9922  0.1247  0.0000
              Bcc     0.0845    11.761     4.197     3.923  0.0000  0.0000  1.0000
 
              Baa    -0.1784   -24.826    -8.859    -8.281  0.9566 -0.2915  0.0000
     9 Al(27) Bbb    -0.0332    -4.616    -1.647    -1.540  0.0000  0.0000  1.0000
              Bcc     0.2116    29.442    10.506     9.821  0.2915  0.9566  0.0000
 

 ---------------------------------------------------------------------------------


 Test job not archived.
 1\1\GINC-R2I1N15\SP\UHF\6-31G(d)\Al9(2)\VSC31064\03-Oct-2016\0\\# hf/6
 -31G* test scf=xqc\\Al9-n-d\\0,2\Al,0,2.76675688,0.79098863,0.\Al,0,0.
 3177751,0.0710552,1.37280487\Al,0,-0.35306467,-2.22668583,0.\Al,0,-2.1
 3728381,-0.56659316,1.27571203\Al,0,-2.13728381,-0.56659316,-1.2757120
 3\Al,0,0.74076564,2.46128933,0.\Al,0,0.3177751,0.0710552,-1.37280487\A
 l,0,2.23374427,-1.83899145,0.\Al,0,-1.74941727,1.80442296,0.\\Version=
 ES64L-G09RevD.01\State=2-A'\HF=-2177.0457931\S2=1.120931\S2-1=0.\S2A=0
 .854377\RMSD=7.458e-09\Dipole=-0.2195713,0.0894765,0.\Quadrupole=0.832
 6472,-1.9460082,1.113361,4.1919513,0.,0.\PG=CS [SG(Al5),X(Al4)]\\@


 A leading authority is anyone who has guessed right more than once.
 -- Frank A. Clark
 Job cpu time:       0 days  0 hours  2 minutes 30.1 seconds.
 File lengths (MBytes):  RWF=     20 Int=      0 D2E=      0 Chk=      2 Scr=      1
 Normal termination of Gaussian 09 at Mon Oct  3 06:35:16 2016.
 Initial command:
 /apps/leuven/thinking/software/G09//g09D1/l1.exe "/local_scratch/vsc31064/Gau-37964.inp" -scrdir="/local_scratch/vsc31064/"
 Entering Link 1 = /apps/leuven/thinking/software/G09//g09D1/l1.exe PID=     38238.
  
 Copyright (c) 1988,1990,1992,1993,1995,1998,2003,2009,2013,
            Gaussian, Inc.  All Rights Reserved.
  
 This is part of the Gaussian(R) 09 program.  It is based on
 the Gaussian(R) 03 system (copyright 2003, Gaussian, Inc.),
 the Gaussian(R) 98 system (copyright 1998, Gaussian, Inc.),
 the Gaussian(R) 94 system (copyright 1995, Gaussian, Inc.),
 the Gaussian 92(TM) system (copyright 1992, Gaussian, Inc.),
 the Gaussian 90(TM) system (copyright 1990, Gaussian, Inc.),
 the Gaussian 88(TM) system (copyright 1988, Gaussian, Inc.),
 the Gaussian 86(TM) system (copyright 1986, Carnegie Mellon
 University), and the Gaussian 82(TM) system (copyright 1983,
 Carnegie Mellon University). Gaussian is a federally registered
 trademark of Gaussian, Inc.
  
 This software contains proprietary and confidential information,
 including trade secrets, belonging to Gaussian, Inc.
  
 This software is provided under written license and may be
 used, copied, transmitted, or stored only in accord with that
 written license.
  
 The following legend is applicable only to US Government
 contracts under FAR:
  
                    RESTRICTED RIGHTS LEGEND
  
 Use, reproduction and disclosure by the US Government is
 subject to restrictions as set forth in subparagraphs (a)
 and (c) of the Commercial Computer Software - Restricted
 Rights clause in FAR 52.227-19.
  
 Gaussian, Inc.
 340 Quinnipiac St., Bldg. 40, Wallingford CT 06492
  
  
 ---------------------------------------------------------------
 Warning -- This program may not be used in any manner that
 competes with the business of Gaussian, Inc. or will provide
 assistance to any competitor of Gaussian, Inc.  The licensee
 of this program is prohibited from giving any competitor of
 Gaussian, Inc. access to this program.  By using this program,
 the user acknowledges that Gaussian, Inc. is engaged in the
 business of creating and licensing software in the field of
 computational chemistry and represents and warrants to the
 licensee that it is not a competitor of Gaussian, Inc. and that
 it will not use this program in any manner prohibited above.
 ---------------------------------------------------------------
  

 Cite this work as:
 Gaussian 09, Revision D.01,
 M. J. Frisch, G. W. Trucks, H. B. Schlegel, G. E. Scuseria, 
 M. A. Robb, J. R. Cheeseman, G. Scalmani, V. Barone, B. Mennucci, 
 G. A. Petersson, H. Nakatsuji, M. Caricato, X. Li, H. P. Hratchian, 
 A. F. Izmaylov, J. Bloino, G. Zheng, J. L. Sonnenberg, M. Hada, 
 M. Ehara, K. Toyota, R. Fukuda, J. Hasegawa, M. Ishida, T. Nakajima, 
 Y. Honda, O. Kitao, H. Nakai, T. Vreven, J. A. Montgomery, Jr., 
 J. E. Peralta, F. Ogliaro, M. Bearpark, J. J. Heyd, E. Brothers, 
 K. N. Kudin, V. N. Staroverov, T. Keith, R. Kobayashi, J. Normand, 
 K. Raghavachari, A. Rendell, J. C. Burant, S. S. Iyengar, J. Tomasi, 
 M. Cossi, N. Rega, J. M. Millam, M. Klene, J. E. Knox, J. B. Cross, 
 V. Bakken, C. Adamo, J. Jaramillo, R. Gomperts, R. E. Stratmann, 
 O. Yazyev, A. J. Austin, R. Cammi, C. Pomelli, J. W. Ochterski, 
 R. L. Martin, K. Morokuma, V. G. Zakrzewski, G. A. Voth, 
 P. Salvador, J. J. Dannenberg, S. Dapprich, A. D. Daniels, 
 O. Farkas, J. B. Foresman, J. V. Ortiz, J. Cioslowski, 
 and D. J. Fox, Gaussian, Inc., Wallingford CT, 2013.
 
 ******************************************
 Gaussian 09:  ES64L-G09RevD.01 24-Apr-2013
                 3-Oct-2016 
 ******************************************
 %NprocShared=20
 Will use up to   20 processors via shared memory.
 %mem=55000mb
 %chk=cc-Al9-n-d
 ----------------------------------------------------------------
 # CCSD(T,conver=5)/cc-pVTZ test geom=allcheck guess=read scf=xqc
 ----------------------------------------------------------------
 1/29=7,38=1/1;
 2/12=2,40=1/2;
 3/5=16,6=1,11=9,14=-4,16=1,25=1,30=1,116=-2/1,2,3;
 4/5=1/1;
 5/5=2,8=3,13=1,38=6/2,8;
 8/6=4,9=120000,10=1/1,4;
 9/5=7,9=5,14=2/13;
 6/7=2,8=2,9=2,10=2/1;
 99/5=1,9=1/99;
 Structure from the checkpoint file:  "cc-Al9-n-d.chk"
 -------
 Al9-n-d
 -------
 Charge =  0 Multiplicity = 2
 Z-Matrix found in file.
 Al,0,2.76675688,0.79098863,0.
 Al,0,0.3177751,0.0710552,1.37280487
 Al,0,-0.35306467,-2.22668583,0.
 Al,0,-2.13728381,-0.56659316,1.27571203
 Al,0,-2.13728381,-0.56659316,-1.27571203
 Al,0,0.74076564,2.46128933,0.
 Al,0,0.3177751,0.0710552,-1.37280487
 Al,0,2.23374427,-1.83899145,0.
 Al,0,-1.74941727,1.80442296,0.
 Recover connectivity data from disk.
                          Input orientation:                          
 ---------------------------------------------------------------------
 Center     Atomic      Atomic             Coordinates (Angstroms)
 Number     Number       Type             X           Y           Z
 ---------------------------------------------------------------------
      1         13           0        2.766757    0.790989    0.000000
      2         13           0        0.317775    0.071055    1.372805
      3         13           0       -0.353065   -2.226686    0.000000
      4         13           0       -2.137284   -0.566593    1.275712
      5         13           0       -2.137284   -0.566593   -1.275712
      6         13           0        0.740766    2.461289    0.000000
      7         13           0        0.317775    0.071055   -1.372805
      8         13           0        2.233744   -1.838991    0.000000
      9         13           0       -1.749417    1.804423    0.000000
 ---------------------------------------------------------------------
                    Distance matrix (angstroms):
                    1          2          3          4          5
     1  Al   0.000000
     2  Al   2.898346   0.000000
     3  Al   4.340466   2.759390   0.000000
     4  Al   5.245959   2.538373   2.750779   0.000000
     5  Al   5.245959   3.667227   2.750779   2.551424   0.000000
     6  Al   2.625747   2.788680   4.813894   4.367915   4.367915
     7  Al   2.898346   2.745610   2.759390   3.667227   2.538373
     8  Al   2.683449   3.033778   2.615700   4.727825   4.727825
     9  Al   4.628486   3.026952   4.266103   2.720220   2.720220
                    6          7          8          9
     6  Al   0.000000
     7  Al   2.788680   0.000000
     8  Al   4.552076   3.033778   0.000000
     9  Al   2.575361   3.026952   5.398152   0.000000
 Stoichiometry    Al9(2)
 Framework group  CS[SG(Al5),X(Al4)]
 Deg. of freedom    13
 Full point group                 CS      NOp   2
 Largest Abelian subgroup         CS      NOp   2
 Largest concise Abelian subgroup CS      NOp   2
                         Standard orientation:                         
 ---------------------------------------------------------------------
 Center     Atomic      Atomic             Coordinates (Angstroms)
 Number     Number       Type             X           Y           Z
 ---------------------------------------------------------------------
      1         13           0       -0.070058    2.876778    0.000000
      2         13           0        0.011112    0.325459    1.372805
      3         13           0        2.066424   -0.901461    0.000000
      4         13           0        0.011112   -2.211056    1.275712
      5         13           0        0.011112   -2.211056   -1.275712
      6         13           0       -2.196029    1.335741    0.000000
      7         13           0        0.011112    0.325459   -1.372805
      8         13           0        2.341471    1.699738    0.000000
      9         13           0       -2.186257   -1.239601    0.000000
 ---------------------------------------------------------------------
 Rotational constants (GHZ):      0.7216326      0.5720927      0.4195154
 Standard basis: CC-pVTZ (5D, 7F)
 There are   213 symmetry adapted cartesian basis functions of A'  symmetry.
 There are   138 symmetry adapted cartesian basis functions of A"  symmetry.
 There are   183 symmetry adapted basis functions of A'  symmetry.
 There are   123 symmetry adapted basis functions of A"  symmetry.
   306 basis functions,   855 primitive gaussians,   351 cartesian basis functions
    59 alpha electrons       58 beta electrons
       nuclear repulsion energy       991.2087652367 Hartrees.
 NAtoms=    9 NActive=    9 NUniq=    7 SFac= 1.65D+00 NAtFMM=   60 NAOKFM=F Big=F
 Integral buffers will be    131072 words long.
 Raffenetti 2 integral format.
 Two-electron integral symmetry is turned on.
 One-electron integrals computed using PRISM.
 NBasis=   306 RedAO= T EigKep=  3.68D-04  NBF=   183   123
 NBsUse=   306 1.00D-06 EigRej= -1.00D+00 NBFU=   183   123
 Initial guess from the checkpoint file:  "cc-Al9-n-d.chk"
 B after Tr=     0.000000    0.000000    0.000000
         Rot=    1.000000    0.000000    0.000000    0.000000 Ang=   0.00 deg.
 Initial guess orbital symmetries:
 Alpha Orbitals:
       Occupied  (A') (A') (A") (A') (A') (A') (A") (A') (A') (A')
                 (A') (A") (A') (A') (A') (A") (A') (A') (A') (A')
                 (A') (A") (A") (A") (A') (A') (A") (A') (A") (A')
                 (A') (A") (A') (A') (A") (A') (A") (A') (A") (A")
                 (A') (A') (A") (A') (A') (A') (A') (A') (A") (A')
                 (A') (A') (A") (A') (A') (A") (A') (A') (A')
       Virtual   (A') (A') (A') (A') (A') (A') (A') (A') (A') (A')
                 (A') (A') (A') (A') (A') (A') (A') (A') (A') (A')
                 (A') (A') (A') (A') (A') (A') (A') (A') (A') (A')
                 (A') (A') (A') (A') (A') (A') (A') (A') (A') (A')
                 (A') (A') (A') (A') (A') (A') (A') (A') (A') (A')
                 (A') (A') (A') (A') (A') (A') (A') (A') (A') (A')
                 (A') (A') (A') (A') (A') (A') (A') (A') (A') (A')
                 (A') (A') (A') (A') (A') (A') (A') (A') (A') (A')
                 (A') (A') (A') (A') (A') (A') (A') (A') (A') (A')
                 (A') (A') (A') (A') (A') (A') (A') (A') (A') (A')
                 (A') (A') (A') (A') (A') (A') (A') (A') (A') (A')
                 (A') (A') (A') (A') (A') (A') (A') (A') (A') (A')
                 (A') (A') (A') (A') (A') (A') (A') (A') (A') (A')
                 (A') (A') (A') (A') (A') (A') (A') (A') (A') (A')
                 (A') (A') (A") (A") (A") (A") (A") (A") (A") (A")
                 (A") (A") (A") (A") (A") (A") (A") (A") (A") (A")
                 (A") (A") (A") (A") (A") (A") (A") (A") (A") (A")
                 (A") (A") (A") (A") (A") (A") (A") (A") (A") (A")
                 (A") (A") (A") (A") (A") (A") (A") (A") (A") (A")
                 (A") (A") (A") (A") (A") (A") (A") (A") (A") (A")
                 (A") (A") (A") (A") (A") (A") (A") (A") (A") (A")
                 (A") (A") (A") (A") (A") (A") (A") (A") (A") (A")
                 (A") (A") (A") (A") (A") (A") (A") (A") (A") (A")
                 (A") (A") (A") (A") (A") (A") (A") (A") (A") (A")
                 (A") (A") (A") (A") (A") (A") (A")
 Beta  Orbitals:
       Occupied  (A') (A") (A') (A') (A') (A') (A") (A') (A') (A')
                 (A') (A") (A') (A') (A') (A") (A') (A') (A') (A")
                 (A') (A') (A") (A") (A') (A') (A") (A") (A') (A')
                 (A') (A") (A') (A") (A') (A") (A') (A") (A') (A')
                 (A") (A') (A') (A") (A') (A') (A') (A') (A") (A')
                 (A') (A') (A") (A') (A') (A") (A') (A')
       Virtual   (A') (A') (A') (A') (A') (A') (A') (A') (A') (A')
                 (A') (A') (A') (A') (A') (A') (A') (A') (A') (A')
                 (A') (A') (A') (A') (A') (A') (A') (A') (A') (A')
                 (A') (A') (A') (A') (A') (A') (A') (A') (A') (A')
                 (A') (A') (A') (A') (A') (A') (A') (A') (A') (A')
                 (A') (A') (A') (A') (A') (A') (A') (A') (A') (A')
                 (A') (A') (A') (A') (A') (A') (A') (A') (A') (A')
                 (A') (A') (A') (A') (A') (A') (A') (A') (A') (A')
                 (A') (A') (A') (A') (A') (A') (A') (A') (A') (A')
                 (A') (A') (A') (A') (A') (A') (A') (A') (A') (A')
                 (A') (A') (A') (A') (A') (A') (A') (A') (A') (A')
                 (A') (A') (A') (A') (A') (A') (A') (A') (A') (A')
                 (A') (A') (A') (A') (A') (A') (A') (A') (A') (A')
                 (A') (A') (A') (A') (A') (A') (A') (A') (A') (A')
                 (A') (A') (A') (A") (A") (A") (A") (A") (A") (A")
                 (A") (A") (A") (A") (A") (A") (A") (A") (A") (A")
                 (A") (A") (A") (A") (A") (A") (A") (A") (A") (A")
                 (A") (A") (A") (A") (A") (A") (A") (A") (A") (A")
                 (A") (A") (A") (A") (A") (A") (A") (A") (A") (A")
                 (A") (A") (A") (A") (A") (A") (A") (A") (A") (A")
                 (A") (A") (A") (A") (A") (A") (A") (A") (A") (A")
                 (A") (A") (A") (A") (A") (A") (A") (A") (A") (A")
                 (A") (A") (A") (A") (A") (A") (A") (A") (A") (A")
                 (A") (A") (A") (A") (A") (A") (A") (A") (A") (A")
                 (A") (A") (A") (A") (A") (A") (A") (A")
 Initial guess <Sx>= 0.0000 <Sy>= 0.0000 <Sz>= 0.5000 <S**2>= 1.1324 S= 0.6757
 Keep R1 and R2 ints in memory in symmetry-blocked form, NReq=1658120175.
 Requested convergence on RMS density matrix=1.00D-08 within  64 cycles.
 Requested convergence on MAX density matrix=1.00D-06.
 Requested convergence on             energy=1.00D-06.
 No special actions if energy rises.
 SCF Done:  E(UHF) =  -2177.24503597     A.U. after   50 cycles
            NFock= 50  Conv=0.78D-08     -V/T= 1.9999
 <Sx>= 0.0000 <Sy>= 0.0000 <Sz>= 0.5000 <S**2>= 1.2152 S= 0.7104
 <L.S>= 0.000000000000E+00
 Annihilation of the first spin contaminant:
 S**2 before annihilation     1.2152,   after     0.9372
 QCSCF skips out because SCF is already converged.
 ExpMin= 5.56D-02 ExpMax= 2.06D+05 ExpMxC= 1.99D+03 IAcc=3 IRadAn=         5 AccDes= 0.00D+00
 HarFok:  IExCor=  205 AccDes= 0.00D+00 IRadAn=         5 IDoV=-2 UseB2=F ITyADJ=14
 ICtDFT= 12500011 ScaDFX=  1.000000  1.000000  1.000000  1.000000
 DSYEVD-2 returned Info=          69 IAlg= 4 N=    34 NDim=    34 NE2=   212020261 trying  DSYEV.
 Range of M.O.s used for correlation:    46   306
 NBasis=   306 NAE=    59 NBE=    58 NFC=    45 NFV=     0
 NROrb=    261 NOA=    14 NOB=    13 NVA=   247 NVB=   248

 **** Warning!!: The largest alpha MO coefficient is  0.12143247D+02


 **** Warning!!: The largest beta MO coefficient is  0.12907986D+02

 Semi-Direct transformation.
 ModeAB=           4 MOrb=            14 LenV=    7206354964
 LASXX=     60187126 LTotXX=    60187126 LenRXX=   121289845
 LTotAB=    61102719 MaxLAS=   148849344 LenRXY=           0
 NonZer=   181476971 LenScr=   273283072 LnRSAI=   148849344
 LnScr1=   224150528 LExtra=           0 Total=    767572789
 MaxDsk=          -1 SrtSym=           T ITran=            4
 JobTyp=1 Pass  1:  I=   1 to  14.
 (rs|ai) integrals will be sorted in core.
 ModeAB=           4 MOrb=            13 LenV=    7206354964
 LASXX=     56013981 LTotXX=    56013981 LenRXX=   106899879
 LTotAB=    50885898 MaxLAS=   138217248 LenRXY=           0
 NonZer=   162913860 LenScr=   245329920 LnRSAI=   138217248
 LnScr1=   208139264 LExtra=           0 Total=    698586311
 MaxDsk=          -1 SrtSym=           T ITran=            4
 JobTyp=2 Pass  1:  I=   1 to  13.
 (rs|ai) integrals will be sorted in core.
 Spin components of T(2) and E(2):
     alpha-alpha T2 =       0.1320678794D+00 E2=     -0.1203335836D+00
     alpha-beta  T2 =       0.5280928712D+00 E2=     -0.5542633961D+00
     beta-beta   T2 =       0.1168369713D+00 E2=     -0.1075066990D+00
 ANorm=    0.1333040780D+01
 E2 =    -0.7821036786D+00 EUMP2 =    -0.21780271396438D+04
 (S**2,0)=  0.12152D+01           (S**2,1)=  0.11009D+01
 E(PUHF)=      -0.21772613266D+04        E(PMP2)=      -0.21780417972D+04
 Keep R2 and R3 ints in memory in symmetry-blocked form, NReq=1657736660.
 Iterations=  50 Convergence= 0.100D-04
 Iteration Nr.   1
 **********************
 DD1Dir will call FoFMem   1 times, MxPair=       534
 NAB=   182 NAA=    91 NBB=    78.
 E(PMP3)=      -0.21779746377D+04
 MP4(R+Q)=  0.59063834D-01
 E3=        0.63543142D-01        EUMP3=      -0.21779635965D+04
 E4(DQ)=   -0.18155884D-01        UMP4(DQ)=   -0.21779817524D+04
 E4(SDQ)=  -0.34751370D-01        UMP4(SDQ)=  -0.21779983479D+04
 DE(Corr)= -0.66012648     E(Corr)=     -2177.9051624    
 NORM(A)=   0.12548403D+01
 Iteration Nr.   2
 **********************
 DD1Dir will call FoFMem   1 times, MxPair=       534
 NAB=   182 NAA=    91 NBB=    78.
 DE(Corr)= -0.74782972     E(CORR)=     -2177.9928657     Delta=-8.77D-02
 NORM(A)=   0.13065475D+01
 Iteration Nr.   3
 **********************
 DD1Dir will call FoFMem   1 times, MxPair=       534
 NAB=   182 NAA=    91 NBB=    78.
 DE(Corr)= -0.73187171     E(CORR)=     -2177.9769077     Delta= 1.60D-02
 NORM(A)=   0.13242867D+01
 Iteration Nr.   4
 **********************
 DD1Dir will call FoFMem   1 times, MxPair=       534
 NAB=   182 NAA=    91 NBB=    78.
 DE(Corr)= -0.73906750     E(CORR)=     -2177.9841035     Delta=-7.20D-03
 NORM(A)=   0.13377067D+01
 Iteration Nr.   5
 **********************
 DD1Dir will call FoFMem   1 times, MxPair=       534
 NAB=   182 NAA=    91 NBB=    78.
 DE(Corr)= -0.74175405     E(CORR)=     -2177.9867900     Delta=-2.69D-03
 NORM(A)=   0.13527841D+01
 Iteration Nr.   6
 **********************
 DD1Dir will call FoFMem   1 times, MxPair=       534
 NAB=   182 NAA=    91 NBB=    78.
 DE(Corr)= -0.74254041     E(CORR)=     -2177.9875764     Delta=-7.86D-04
 NORM(A)=   0.13568889D+01
 Iteration Nr.   7
 **********************
 DD1Dir will call FoFMem   1 times, MxPair=       534
 NAB=   182 NAA=    91 NBB=    78.
 DE(Corr)= -0.74282218     E(CORR)=     -2177.9878581     Delta=-2.82D-04
 NORM(A)=   0.13571920D+01
 Iteration Nr.   8
 **********************
 DD1Dir will call FoFMem   1 times, MxPair=       534
 NAB=   182 NAA=    91 NBB=    78.
 DE(Corr)= -0.74308171     E(CORR)=     -2177.9881177     Delta=-2.60D-04
 NORM(A)=   0.13584773D+01
 Iteration Nr.   9
 **********************
 DD1Dir will call FoFMem   1 times, MxPair=       534
 NAB=   182 NAA=    91 NBB=    78.
 DE(Corr)= -0.74289839     E(CORR)=     -2177.9879344     Delta= 1.83D-04
 NORM(A)=   0.13584154D+01
 Iteration Nr.  10
 **********************
 DD1Dir will call FoFMem   1 times, MxPair=       534
 NAB=   182 NAA=    91 NBB=    78.
 DE(Corr)= -0.74301889     E(CORR)=     -2177.9880549     Delta=-1.21D-04
 NORM(A)=   0.13584881D+01
 Iteration Nr.  11
 **********************
 DD1Dir will call FoFMem   1 times, MxPair=       534
 NAB=   182 NAA=    91 NBB=    78.
 DE(Corr)= -0.74296438     E(CORR)=     -2177.9880003     Delta= 5.45D-05
 NORM(A)=   0.13585651D+01
 Iteration Nr.  12
 **********************
 DD1Dir will call FoFMem   1 times, MxPair=       534
 NAB=   182 NAA=    91 NBB=    78.
 DE(Corr)= -0.74298285     E(CORR)=     -2177.9880188     Delta=-1.85D-05
 NORM(A)=   0.13586060D+01
 Iteration Nr.  13
 **********************
 DD1Dir will call FoFMem   1 times, MxPair=       534
 NAB=   182 NAA=    91 NBB=    78.
 DE(Corr)= -0.74298621     E(CORR)=     -2177.9880222     Delta=-3.36D-06
 NORM(A)=   0.13587564D+01
 Iteration Nr.  14
 **********************
 DD1Dir will call FoFMem   1 times, MxPair=       534
 NAB=   182 NAA=    91 NBB=    78.
 DE(Corr)= -0.74299294     E(CORR)=     -2177.9880289     Delta=-6.73D-06
 NORM(A)=   0.13588514D+01
 Iteration Nr.  15
 **********************
 DD1Dir will call FoFMem   1 times, MxPair=       534
 NAB=   182 NAA=    91 NBB=    78.
 DE(Corr)= -0.74300045     E(CORR)=     -2177.9880364     Delta=-7.51D-06
 NORM(A)=   0.13589364D+01
 Iteration Nr.  16
 **********************
 DD1Dir will call FoFMem   1 times, MxPair=       534
 NAB=   182 NAA=    91 NBB=    78.
 DE(Corr)= -0.74300667     E(CORR)=     -2177.9880426     Delta=-6.22D-06
 NORM(A)=   0.13590091D+01
 Iteration Nr.  17
 **********************
 DD1Dir will call FoFMem   1 times, MxPair=       534
 NAB=   182 NAA=    91 NBB=    78.
 DE(Corr)= -0.74301047     E(CORR)=     -2177.9880464     Delta=-3.80D-06
 NORM(A)=   0.13590452D+01
 Iteration Nr.  18
 **********************
 DD1Dir will call FoFMem   1 times, MxPair=       534
 NAB=   182 NAA=    91 NBB=    78.
 DE(Corr)= -0.74301206     E(CORR)=     -2177.9880480     Delta=-1.60D-06
 NORM(A)=   0.13590723D+01
 Dominant configurations:
 ***********************
 Spin Case        I    J    A    B          Value
    AA           55        62           -0.100060D+00
    AA           58        64            0.148208D+00
    BB           55        61           -0.105625D+00
 Largest amplitude= 1.48D-01
 Time for triples=    22997.17 seconds.
 T4(CCSD)= -0.10345679D+00
 T5(CCSD)=  0.42544613D-02
 CCSD(T)= -0.21780872504D+04

 S**2, projected HF & approx projected MPn energies after annihilation of
 unwanted spin states (see manual for definitions):

 spins       (S**2,0) (S**2,1)    PUHF        PMP2        PMP3        PMP4
 annihilated
 s+1         0.64502  0.70418-2177.261327-2178.041797-2177.974638
 s+1,s+2     0.75694  0.75076-2177.258465-2178.039080-2177.972209
 s+1 to s+3  0.74977  0.75005-2177.258636-2178.039208-2177.972244
 s+1 to s+4  0.75000  0.75000-2177.258631-2178.039206-2177.972251
 s+1 to s+5  0.75000  0.75000-2177.258631
 s+1 to s+6  0.75000  0.75000-2177.258631

 Discarding MO integrals.

 **********************************************************************

            Population analysis using the SCF density.

 **********************************************************************

 Orbital symmetries:
 Alpha Orbitals:
       Occupied  (A') (A') (A") (A') (A') (A') (A") (A') (A') (A')
                 (A') (A") (A') (A') (A') (A") (A') (A') (A') (A')
                 (A') (A") (A') (A") (A') (A") (A") (A') (A") (A')
                 (A') (A") (A') (A") (A') (A") (A') (A') (A") (A')
                 (A") (A") (A') (A') (A') (A') (A') (A') (A") (A')
                 (A') (A') (A") (A') (A') (A") (A') (A') (A')
       Virtual   (A") (A') (A') (A") (A') (A") (A") (A') (A') (A')
                 (A") (A') (A") (A") (A') (A") (A') (A") (A') (A')
                 (A') (A') (A") (A') (A') (A') (A') (A") (A') (A')
                 (A") (A") (A") (A') (A') (A") (A') (A") (A') (A")
                 (A") (A') (A') (A") (A') (A') (A") (A') (A") (A')
                 (A") (A") (A') (A') (A') (A") (A') (A') (A") (A')
                 (A") (A') (A") (A') (A") (A') (A') (A") (A') (A')
                 (A") (A') (A") (A') (A") (A') (A") (A') (A') (A")
                 (A') (A") (A') (A") (A') (A") (A") (A') (A") (A')
                 (A") (A') (A') (A") (A') (A') (A') (A") (A') (A')
                 (A") (A') (A") (A") (A') (A') (A') (A') (A') (A")
                 (A') (A") (A') (A") (A') (A') (A") (A') (A") (A')
                 (A') (A") (A') (A') (A") (A') (A") (A") (A") (A')
                 (A') (A") (A') (A') (A") (A") (A') (A") (A") (A')
                 (A") (A") (A') (A") (A') (A') (A') (A') (A') (A")
                 (A") (A") (A') (A") (A') (A') (A") (A') (A') (A')
                 (A") (A') (A") (A') (A') (A") (A") (A") (A") (A')
                 (A") (A') (A') (A") (A') (A') (A') (A") (A') (A")
                 (A") (A') (A') (A") (A') (A") (A') (A') (A") (A')
                 (A") (A') (A") (A') (A") (A') (A') (A") (A') (A")
                 (A') (A") (A") (A') (A') (A") (A') (A") (A') (A')
                 (A") (A') (A") (A') (A") (A') (A') (A') (A') (A')
                 (A') (A") (A") (A") (A') (A') (A") (A') (A") (A')
                 (A') (A") (A") (A') (A") (A') (A") (A') (A') (A')
                 (A') (A') (A') (A") (A') (A") (A')
 Beta  Orbitals:
       Occupied  (A') (A') (A") (A') (A') (A') (A") (A') (A') (A')
                 (A') (A") (A') (A') (A") (A') (A') (A') (A') (A')
                 (A") (A') (A") (A") (A') (A") (A') (A") (A') (A')
                 (A') (A') (A") (A') (A") (A") (A') (A") (A') (A')
                 (A') (A") (A") (A') (A') (A') (A') (A') (A") (A')
                 (A') (A') (A") (A') (A') (A") (A') (A')
       Virtual   (A") (A') (A') (A") (A') (A") (A') (A") (A') (A")
                 (A') (A') (A') (A") (A') (A") (A") (A') (A") (A')
                 (A') (A") (A') (A') (A') (A') (A') (A') (A") (A')
                 (A") (A') (A") (A") (A') (A') (A") (A') (A") (A')
                 (A") (A") (A') (A') (A') (A") (A") (A') (A") (A')
                 (A") (A') (A") (A') (A') (A') (A") (A') (A') (A")
                 (A') (A") (A') (A") (A") (A') (A') (A') (A") (A')
                 (A') (A") (A') (A") (A') (A") (A') (A") (A') (A')
                 (A") (A') (A") (A") (A') (A') (A") (A") (A') (A")
                 (A') (A") (A') (A') (A") (A') (A') (A") (A') (A')
                 (A') (A") (A') (A") (A") (A') (A') (A') (A') (A')
                 (A") (A') (A") (A') (A") (A') (A') (A") (A") (A')
                 (A') (A") (A') (A') (A') (A") (A") (A') (A") (A")
                 (A') (A') (A") (A') (A') (A") (A") (A') (A") (A")
                 (A") (A') (A") (A') (A") (A') (A') (A') (A') (A")
                 (A') (A") (A") (A') (A") (A') (A') (A') (A") (A')
                 (A') (A") (A') (A") (A') (A") (A') (A") (A") (A")
                 (A') (A") (A') (A') (A") (A') (A') (A') (A") (A')
                 (A") (A") (A') (A') (A") (A') (A") (A') (A') (A")
                 (A') (A") (A') (A") (A') (A") (A') (A') (A") (A')
                 (A") (A') (A") (A") (A') (A') (A") (A') (A") (A')
                 (A') (A") (A') (A") (A') (A") (A') (A') (A') (A')
                 (A') (A') (A") (A") (A") (A') (A') (A") (A') (A")
                 (A') (A') (A") (A") (A') (A") (A') (A") (A') (A')
                 (A') (A') (A') (A') (A") (A') (A") (A')
 The electronic state is 2-A'.
 Alpha  occ. eigenvalues --  -58.49167 -58.49054 -58.49054 -58.49035 -58.48411
 Alpha  occ. eigenvalues --  -58.48120 -58.48120 -58.47880 -58.47810  -4.90443
 Alpha  occ. eigenvalues --   -4.90364  -4.90353  -4.90257  -4.89793  -4.89459
 Alpha  occ. eigenvalues --   -4.89453  -4.89031  -4.89017  -3.21749  -3.21598
 Alpha  occ. eigenvalues --   -3.21569  -3.21535  -3.21431  -3.21429  -3.21412
 Alpha  occ. eigenvalues --   -3.21369  -3.21348  -3.21323  -3.21311  -3.21103
 Alpha  occ. eigenvalues --   -3.21092  -3.20786  -3.20742  -3.20732  -3.20701
 Alpha  occ. eigenvalues --   -3.20669  -3.20641  -3.20588  -3.20582  -3.20233
 Alpha  occ. eigenvalues --   -3.20068  -3.20042  -3.20033  -3.19931  -3.19838
 Alpha  occ. eigenvalues --   -0.68661  -0.57206  -0.54498  -0.47219  -0.41447
 Alpha  occ. eigenvalues --   -0.40412  -0.38967  -0.30302  -0.26703  -0.25655
 Alpha  occ. eigenvalues --   -0.25462  -0.25185  -0.24443  -0.22638
 Alpha virt. eigenvalues --   -0.03964  -0.01153  -0.00713  -0.00068   0.00990
 Alpha virt. eigenvalues --    0.02064   0.05505   0.05605   0.07596   0.08068
 Alpha virt. eigenvalues --    0.08105   0.08462   0.11140   0.11928   0.12067
 Alpha virt. eigenvalues --    0.13622   0.13751   0.14721   0.15020   0.16139
 Alpha virt. eigenvalues --    0.16645   0.16948   0.17654   0.18984   0.19247
 Alpha virt. eigenvalues --    0.19565   0.20469   0.21066   0.21427   0.21463
 Alpha virt. eigenvalues --    0.22369   0.22650   0.22764   0.23406   0.24908
 Alpha virt. eigenvalues --    0.26490   0.26864   0.27555   0.27757   0.28233
 Alpha virt. eigenvalues --    0.28572   0.28941   0.30202   0.30744   0.31282
 Alpha virt. eigenvalues --    0.31788   0.31913   0.33624   0.33630   0.34078
 Alpha virt. eigenvalues --    0.34527   0.35084   0.36072   0.36958   0.38209
 Alpha virt. eigenvalues --    0.38553   0.38693   0.39688   0.39987   0.40426
 Alpha virt. eigenvalues --    0.42296   0.44244   0.44500   0.45420   0.45603
 Alpha virt. eigenvalues --    0.46411   0.47306   0.47782   0.47929   0.48985
 Alpha virt. eigenvalues --    0.49109   0.49362   0.50435   0.51717   0.53255
 Alpha virt. eigenvalues --    0.53633   0.54851   0.55467   0.56112   0.57490
 Alpha virt. eigenvalues --    0.57999   0.58412   0.58432   0.58860   0.60205
 Alpha virt. eigenvalues --    0.60650   0.61225   0.62147   0.63263   0.64584
 Alpha virt. eigenvalues --    0.64981   0.65361   0.66107   0.66755   0.67267
 Alpha virt. eigenvalues --    0.67701   0.69314   0.69370   0.69815   0.71614
 Alpha virt. eigenvalues --    0.72729   0.73338   0.75663   0.76722   0.77469
 Alpha virt. eigenvalues --    0.79073   0.79730   0.80435   0.81244   0.83376
 Alpha virt. eigenvalues --    0.84395   0.84674   0.87108   0.87518   0.88158
 Alpha virt. eigenvalues --    0.88836   0.88929   0.90066   0.90066   0.90643
 Alpha virt. eigenvalues --    0.91198   0.91495   0.92689   0.93228   0.93818
 Alpha virt. eigenvalues --    0.94483   0.94583   0.95386   0.96449   0.96707
 Alpha virt. eigenvalues --    0.97474   0.97676   0.99485   0.99735   1.00379
 Alpha virt. eigenvalues --    1.00795   1.01197   1.02199   1.02761   1.02893
 Alpha virt. eigenvalues --    1.03107   1.03699   1.03962   1.05279   1.05477
 Alpha virt. eigenvalues --    1.05937   1.07012   1.07692   1.08787   1.09181
 Alpha virt. eigenvalues --    1.10084   1.10334   1.11651   1.13662   1.13886
 Alpha virt. eigenvalues --    1.16295   1.17126   1.17132   1.17715   1.19536
 Alpha virt. eigenvalues --    1.21036   1.21559   1.21738   1.22725   1.23665
 Alpha virt. eigenvalues --    1.23998   1.25525   1.25699   1.26441   1.27127
 Alpha virt. eigenvalues --    1.27284   1.27976   1.28961   1.30310   1.30346
 Alpha virt. eigenvalues --    1.32384   1.32649   1.33174   1.34340   1.34996
 Alpha virt. eigenvalues --    1.35180   1.36152   1.36371   1.38483   1.38722
 Alpha virt. eigenvalues --    1.40632   1.40690   1.41383   1.41803   1.43233
 Alpha virt. eigenvalues --    1.43371   1.44321   1.44586   1.45169   1.46715
 Alpha virt. eigenvalues --    1.46735   1.48301   1.50074   1.50390   1.51980
 Alpha virt. eigenvalues --    1.52768   1.53496   1.54975   1.55562   1.55746
 Alpha virt. eigenvalues --    1.58647   1.59563   1.59842   1.62669   1.65262
 Alpha virt. eigenvalues --    1.66444   2.35550   2.39486   2.40215   2.44874
 Alpha virt. eigenvalues --    2.46221   2.46638   2.48313   2.51353   2.54661
 Alpha virt. eigenvalues --    2.59164   2.60700   2.63617   2.64231   2.65962
 Alpha virt. eigenvalues --    2.69155   2.70342   2.72155   2.74949   2.75400
 Alpha virt. eigenvalues --    2.81100   2.84845   2.92751   2.95412   2.98491
 Alpha virt. eigenvalues --    3.05471   3.14838   3.14983   3.17290   3.29124
 Alpha virt. eigenvalues --    3.34839   3.49360   3.54226   3.54492   3.64892
 Alpha virt. eigenvalues --    3.82851   4.21445
  Beta  occ. eigenvalues --  -58.49290 -58.49035 -58.49035 -58.48629 -58.48147
  Beta  occ. eigenvalues --  -58.48064 -58.48064 -58.47932 -58.47817  -4.90469
  Beta  occ. eigenvalues --   -4.90302  -4.90291  -4.89761  -4.89375  -4.89370
  Beta  occ. eigenvalues --   -4.89276  -4.89087  -4.89028  -3.21670  -3.21529
  Beta  occ. eigenvalues --   -3.21513  -3.21492  -3.21478  -3.21426  -3.21353
  Beta  occ. eigenvalues --   -3.21329  -3.21309  -3.21073  -3.20866  -3.20743
  Beta  occ. eigenvalues --   -3.20689  -3.20680  -3.20661  -3.20583  -3.20577
  Beta  occ. eigenvalues --   -3.20560  -3.20430  -3.20424  -3.20242  -3.20220
  Beta  occ. eigenvalues --   -3.20158  -3.20137  -3.20070  -3.20035  -3.19979
  Beta  occ. eigenvalues --   -0.67854  -0.56858  -0.52788  -0.47119  -0.41196
  Beta  occ. eigenvalues --   -0.40111  -0.33930  -0.30220  -0.26142  -0.25348
  Beta  occ. eigenvalues --   -0.24813  -0.24730  -0.23171
  Beta virt. eigenvalues --   -0.03348  -0.01476  -0.01031   0.00013   0.00471
  Beta virt. eigenvalues --    0.02844   0.03077   0.05420   0.06621   0.08153
  Beta virt. eigenvalues --    0.08317   0.08818   0.09910   0.11247   0.12456
  Beta virt. eigenvalues --    0.13664   0.13864   0.13899   0.15223   0.15810
  Beta virt. eigenvalues --    0.16576   0.17619   0.17622   0.18306   0.18584
  Beta virt. eigenvalues --    0.20043   0.20167   0.20482   0.20742   0.21702
  Beta virt. eigenvalues --    0.22423   0.22563   0.22886   0.23028   0.24114
  Beta virt. eigenvalues --    0.25926   0.27101   0.27251   0.27529   0.27683
  Beta virt. eigenvalues --    0.28402   0.29162   0.29363   0.30789   0.31356
  Beta virt. eigenvalues --    0.31480   0.31899   0.32368   0.33481   0.34143
  Beta virt. eigenvalues --    0.35049   0.35049   0.35749   0.37123   0.37441
  Beta virt. eigenvalues --    0.38725   0.39042   0.39478   0.40186   0.40355
  Beta virt. eigenvalues --    0.40682   0.42494   0.44548   0.44891   0.45802
  Beta virt. eigenvalues --    0.45811   0.46891   0.47938   0.47981   0.48133
  Beta virt. eigenvalues --    0.49082   0.49119   0.50219   0.51399   0.52155
  Beta virt. eigenvalues --    0.53335   0.54281   0.55390   0.55711   0.56592
  Beta virt. eigenvalues --    0.57678   0.58315   0.58809   0.58961   0.59534
  Beta virt. eigenvalues --    0.60732   0.60861   0.61792   0.62918   0.63389
  Beta virt. eigenvalues --    0.64636   0.65202   0.65499   0.66790   0.66898
  Beta virt. eigenvalues --    0.67243   0.67957   0.69442   0.69794   0.70409
  Beta virt. eigenvalues --    0.71896   0.72699   0.73891   0.75822   0.76888
  Beta virt. eigenvalues --    0.77568   0.79414   0.79832   0.80794   0.81348
  Beta virt. eigenvalues --    0.83602   0.84410   0.84830   0.87596   0.87665
  Beta virt. eigenvalues --    0.88356   0.89104   0.89222   0.90143   0.90385
  Beta virt. eigenvalues --    0.90888   0.91699   0.92004   0.92842   0.93754
  Beta virt. eigenvalues --    0.93961   0.94655   0.94709   0.95631   0.96817
  Beta virt. eigenvalues --    0.97004   0.97944   0.98098   0.99494   0.99869
  Beta virt. eigenvalues --    1.00715   1.01282   1.01386   1.02620   1.02999
  Beta virt. eigenvalues --    1.03230   1.03289   1.03660   1.04154   1.05266
  Beta virt. eigenvalues --    1.05783   1.06018   1.07386   1.08111   1.09165
  Beta virt. eigenvalues --    1.09536   1.10262   1.11162   1.12063   1.14202
  Beta virt. eigenvalues --    1.14365   1.16509   1.17352   1.17539   1.18006
  Beta virt. eigenvalues --    1.19629   1.21194   1.21620   1.21784   1.22935
  Beta virt. eigenvalues --    1.24174   1.24402   1.25503   1.25723   1.26728
  Beta virt. eigenvalues --    1.27408   1.27619   1.28045   1.29304   1.30526
  Beta virt. eigenvalues --    1.30669   1.32651   1.32818   1.33225   1.34626
  Beta virt. eigenvalues --    1.35179   1.35379   1.36291   1.36589   1.38847
  Beta virt. eigenvalues --    1.39084   1.40914   1.41170   1.41545   1.42143
  Beta virt. eigenvalues --    1.43477   1.43575   1.44546   1.44766   1.45337
  Beta virt. eigenvalues --    1.46930   1.47028   1.48438   1.50304   1.50682
  Beta virt. eigenvalues --    1.52212   1.53118   1.53667   1.55161   1.55830
  Beta virt. eigenvalues --    1.56355   1.58724   1.59710   1.60018   1.62920
  Beta virt. eigenvalues --    1.65516   1.66547   2.35796   2.39640   2.40370
  Beta virt. eigenvalues --    2.44886   2.46409   2.46994   2.48098   2.51558
  Beta virt. eigenvalues --    2.55582   2.58954   2.60717   2.63877   2.64424
  Beta virt. eigenvalues --    2.66115   2.69434   2.70324   2.72469   2.75109
  Beta virt. eigenvalues --    2.76155   2.81340   2.84898   2.92765   2.95664
  Beta virt. eigenvalues --    2.98752   3.05535   3.14895   3.15093   3.17455
  Beta virt. eigenvalues --    3.29223   3.35044   3.49370   3.54237   3.54654
  Beta virt. eigenvalues --    3.64886   3.82853   4.21599
          Condensed to atoms (all electrons):
               1          2          3          4          5          6
     1  Al  12.302565   0.104406  -0.032728  -0.002053  -0.002053   0.234714
     2  Al   0.104406  12.213571   0.136009   0.310092  -0.023796   0.162206
     3  Al  -0.032728   0.136009  12.200360   0.146299   0.146299  -0.005276
     4  Al  -0.002053   0.310092   0.146299  12.109227   0.274583  -0.020280
     5  Al  -0.002053  -0.023796   0.146299   0.274583  12.109227  -0.020280
     6  Al   0.234714   0.162206  -0.005276  -0.020280  -0.020280  12.179665
     7  Al   0.104406   0.013674   0.136009  -0.023796   0.310092   0.162206
     8  Al   0.271358   0.080897   0.287832  -0.014877  -0.014877  -0.033295
     9  Al  -0.021649   0.055997  -0.029231   0.203877   0.203877   0.319051
               7          8          9
     1  Al   0.104406   0.271358  -0.021649
     2  Al   0.013674   0.080897   0.055997
     3  Al   0.136009   0.287832  -0.029231
     4  Al  -0.023796  -0.014877   0.203877
     5  Al   0.310092  -0.014877   0.203877
     6  Al   0.162206  -0.033295   0.319051
     7  Al  12.213571   0.080897   0.055997
     8  Al   0.080897  12.333246   0.000049
     9  Al   0.055997   0.000049  12.225298
          Atomic-Atomic Spin Densities.
               1          2          3          4          5          6
     1  Al  -0.301855  -0.001073   0.000579   0.000192   0.000192   0.035300
     2  Al  -0.001073   0.092306   0.000053  -0.011347  -0.000449  -0.020028
     3  Al   0.000579   0.000053   0.589915  -0.049557  -0.049557   0.001655
     4  Al   0.000192  -0.011347  -0.049557   0.046834   0.034023  -0.003351
     5  Al   0.000192  -0.000449  -0.049557   0.034023   0.046834  -0.003351
     6  Al   0.035300  -0.020028   0.001655  -0.003351  -0.003351   0.776495
     7  Al  -0.001073   0.011051   0.000053  -0.000449  -0.011347  -0.020028
     8  Al   0.022957   0.013612  -0.047433   0.001487   0.001487  -0.002146
     9  Al   0.002358   0.005567   0.000366  -0.017959  -0.017959   0.006111
               7          8          9
     1  Al  -0.001073   0.022957   0.002358
     2  Al   0.011051   0.013612   0.005567
     3  Al   0.000053  -0.047433   0.000366
     4  Al  -0.000449   0.001487  -0.017959
     5  Al  -0.011347   0.001487  -0.017959
     6  Al  -0.020028  -0.002146   0.006111
     7  Al   0.092306   0.013612   0.005567
     8  Al   0.013612  -0.103147  -0.002334
     9  Al   0.005567  -0.002334  -0.033251
 Mulliken charges and spin densities:
               1          2
     1  Al   0.041034  -0.242421
     2  Al  -0.053055   0.089691
     3  Al   0.014426   0.446074
     4  Al   0.016928  -0.000127
     5  Al   0.016928  -0.000127
     6  Al   0.021289   0.770657
     7  Al  -0.053055   0.089691
     8  Al   0.008771  -0.101906
     9  Al  -0.013266  -0.051533
 Sum of Mulliken charges =   0.00000   1.00000
 Mulliken charges and spin densities with hydrogens summed into heavy atoms:
               1          2
     1  Al   0.041034  -0.242421
     2  Al  -0.053055   0.089691
     3  Al   0.014426   0.446074
     4  Al   0.016928  -0.000127
     5  Al   0.016928  -0.000127
     6  Al   0.021289   0.770657
     7  Al  -0.053055   0.089691
     8  Al   0.008771  -0.101906
     9  Al  -0.013266  -0.051533
 Electronic spatial extent (au):  <R**2>=           2665.2915
 Charge=              0.0000 electrons
 Dipole moment (field-independent basis, Debye):
    X=             -0.4833    Y=             -0.5771    Z=              0.0000  Tot=              0.7527
 Quadrupole moment (field-independent basis, Debye-Ang):
   XX=           -125.2491   YY=           -116.5061   ZZ=           -116.6600
   XY=             -3.7186   XZ=              0.0000   YZ=              0.0000
 Traceless Quadrupole moment (field-independent basis, Debye-Ang):
   XX=             -5.7773   YY=              2.9656   ZZ=              2.8117
   XY=             -3.7186   XZ=              0.0000   YZ=              0.0000
 Octapole moment (field-independent basis, Debye-Ang**2):
  XXX=            -12.8366  YYY=            -24.8819  ZZZ=              0.0000  XYY=             -2.9936
  XXY=             -4.0935  XXZ=              0.0000  XZZ=              1.4703  YZZ=              0.5796
  YYZ=              0.0000  XYZ=              0.0000
 Hexadecapole moment (field-independent basis, Debye-Ang**3):
 XXXX=          -1970.6901 YYYY=          -2369.8480 ZZZZ=           -864.7887 XXXY=           -121.8870
 XXXZ=              0.0000 YYYX=            -86.5160 YYYZ=              0.0000 ZZZX=              0.0000
 ZZZY=              0.0000 XXYY=           -728.4759 XXZZ=           -457.6022 YYZZ=           -476.1194
 XXYZ=              0.0000 YYXZ=              0.0000 ZZXY=            -25.8172
 N-N= 9.912087652367D+02 E-N=-7.189964585321D+03  KE= 2.177416507004D+03
 Symmetry A'   KE= 1.595230019743D+03
 Symmetry A"   KE= 5.821864872610D+02

 Test job not archived.
 1\1\GINC-R2I1N15\SP\UCCSD(T)-FC\CC-pVTZ\Al9(2)\VSC31064\03-Oct-2016\0\
 \# CCSD(T,conver=5)/cc-pVTZ test geom=allcheck guess=read scf=xqc\\Al9
 -n-d\\0,2\Al,0,2.76675688,0.79098863,0.\Al,0,0.3177751,0.0710552,1.372
 80487\Al,0,-0.35306467,-2.22668583,0.\Al,0,-2.13728381,-0.56659316,1.2
 7571203\Al,0,-2.13728381,-0.56659316,-1.27571203\Al,0,0.74076564,2.461
 28933,0.\Al,0,0.3177751,0.0710552,-1.37280487\Al,0,2.23374427,-1.83899
 145,0.\Al,0,-1.74941727,1.80442296,0.\\Version=ES64L-G09RevD.01\State=
 2-A'\HF=-2177.245036\MP2=-2178.0271396\MP3=-2177.9635965\MP4D=-2178.04
 08162\MP4DQ=-2177.9817524\PUHF=-2177.2613266\PMP2-0=-2178.0417972\PMP3
 -0=-2177.9746377\MP4SDQ=-2177.9983479\CCSD=-2177.988048\CCSD(T)=-2178.
 0872504\S2=1.215174\S2-1=1.100865\S2A=0.937173\RMSD=7.818e-09\PG=CS [S
 G(Al5),X(Al4)]\\@


 ERWIN WITH HIS PSI CAN DO
 CALCULATIONS QUITE A FEW.
 BUT ONE THING HAS NOT BEEN SEEN
 JUST WHAT DOES PSI REALLY MEAN.
 -- WALTER HUCKEL, TRANS. BY FELIX BLOCH
 Job cpu time:       0 days 13 hours 12 minutes 23.0 seconds.
 File lengths (MBytes):  RWF=   6319 Int=      0 D2E=      0 Chk=      8 Scr=      1
 Normal termination of Gaussian 09 at Mon Oct  3 07:15:41 2016.
