 Entering Gaussian System, Link 0=g09
 Initial command:
 /apps/leuven/thinking/software/G09//g09D1/l1.exe "/local_scratch/vsc31064/Gau-48752.inp" -scrdir="/local_scratch/vsc31064/"
 Entering Link 1 = /apps/leuven/thinking/software/G09//g09D1/l1.exe PID=     48756.
  
 Copyright (c) 1988,1990,1992,1993,1995,1998,2003,2009,2013,
            Gaussian, Inc.  All Rights Reserved.
  
 This is part of the Gaussian(R) 09 program.  It is based on
 the Gaussian(R) 03 system (copyright 2003, Gaussian, Inc.),
 the Gaussian(R) 98 system (copyright 1998, Gaussian, Inc.),
 the Gaussian(R) 94 system (copyright 1995, Gaussian, Inc.),
 the Gaussian 92(TM) system (copyright 1992, Gaussian, Inc.),
 the Gaussian 90(TM) system (copyright 1990, Gaussian, Inc.),
 the Gaussian 88(TM) system (copyright 1988, Gaussian, Inc.),
 the Gaussian 86(TM) system (copyright 1986, Carnegie Mellon
 University), and the Gaussian 82(TM) system (copyright 1983,
 Carnegie Mellon University). Gaussian is a federally registered
 trademark of Gaussian, Inc.
  
 This software contains proprietary and confidential information,
 including trade secrets, belonging to Gaussian, Inc.
  
 This software is provided under written license and may be
 used, copied, transmitted, or stored only in accord with that
 written license.
  
 The following legend is applicable only to US Government
 contracts under FAR:
  
                    RESTRICTED RIGHTS LEGEND
  
 Use, reproduction and disclosure by the US Government is
 subject to restrictions as set forth in subparagraphs (a)
 and (c) of the Commercial Computer Software - Restricted
 Rights clause in FAR 52.227-19.
  
 Gaussian, Inc.
 340 Quinnipiac St., Bldg. 40, Wallingford CT 06492
  
  
 ---------------------------------------------------------------
 Warning -- This program may not be used in any manner that
 competes with the business of Gaussian, Inc. or will provide
 assistance to any competitor of Gaussian, Inc.  The licensee
 of this program is prohibited from giving any competitor of
 Gaussian, Inc. access to this program.  By using this program,
 the user acknowledges that Gaussian, Inc. is engaged in the
 business of creating and licensing software in the field of
 computational chemistry and represents and warrants to the
 licensee that it is not a competitor of Gaussian, Inc. and that
 it will not use this program in any manner prohibited above.
 ---------------------------------------------------------------
  

 Cite this work as:
 Gaussian 09, Revision D.01,
 M. J. Frisch, G. W. Trucks, H. B. Schlegel, G. E. Scuseria, 
 M. A. Robb, J. R. Cheeseman, G. Scalmani, V. Barone, B. Mennucci, 
 G. A. Petersson, H. Nakatsuji, M. Caricato, X. Li, H. P. Hratchian, 
 A. F. Izmaylov, J. Bloino, G. Zheng, J. L. Sonnenberg, M. Hada, 
 M. Ehara, K. Toyota, R. Fukuda, J. Hasegawa, M. Ishida, T. Nakajima, 
 Y. Honda, O. Kitao, H. Nakai, T. Vreven, J. A. Montgomery, Jr., 
 J. E. Peralta, F. Ogliaro, M. Bearpark, J. J. Heyd, E. Brothers, 
 K. N. Kudin, V. N. Staroverov, T. Keith, R. Kobayashi, J. Normand, 
 K. Raghavachari, A. Rendell, J. C. Burant, S. S. Iyengar, J. Tomasi, 
 M. Cossi, N. Rega, J. M. Millam, M. Klene, J. E. Knox, J. B. Cross, 
 V. Bakken, C. Adamo, J. Jaramillo, R. Gomperts, R. E. Stratmann, 
 O. Yazyev, A. J. Austin, R. Cammi, C. Pomelli, J. W. Ochterski, 
 R. L. Martin, K. Morokuma, V. G. Zakrzewski, G. A. Voth, 
 P. Salvador, J. J. Dannenberg, S. Dapprich, A. D. Daniels, 
 O. Farkas, J. B. Foresman, J. V. Ortiz, J. Cioslowski, 
 and D. J. Fox, Gaussian, Inc., Wallingford CT, 2013.
 
 ******************************************
 Gaussian 09:  ES64L-G09RevD.01 24-Apr-2013
                 3-Oct-2016 
 ******************************************
 %NprocShared=20
 Will use up to   20 processors via shared memory.
 %mem=55000mb
 %chk=cc-Al9-c-s
 ------------------------
 # hf/6-31G* test scf=xqc
 ------------------------
 1/38=1/1;
 2/12=2,17=6,18=5,40=1/2;
 3/5=1,6=6,7=1,11=9,16=1,25=1,30=1/1,2,3;
 4//1;
 5/5=2,8=3,13=1,38=5/2,8;
 6/7=2,8=2,9=2,10=2,28=1/1;
 99/5=1,9=1/99;
 -------
 Al9-c-s
 -------
 Symbolic Z-matrix:
 Charge =  1 Multiplicity = 1
 Al                    0.59314  -3.23146   0. 
 Al                   -1.90179   0.39889   0. 
 Al                    0.10426   0.82839  -1.742 
 Al                   -0.82168   2.90828   0. 
 Al                    1.67388   2.13875   0. 
 Al                   -0.65538  -1.65588   1.6302 
 Al                    1.55696  -0.55966   0. 
 Al                   -0.65538  -1.65588  -1.6302 
 Al                    0.10426   0.82839   1.742 
 
                          Input orientation:                          
 ---------------------------------------------------------------------
 Center     Atomic      Atomic             Coordinates (Angstroms)
 Number     Number       Type             X           Y           Z
 ---------------------------------------------------------------------
      1         13           0        0.593144   -3.231460    0.000000
      2         13           0       -1.901791    0.398890    0.000000
      3         13           0        0.104261    0.828388   -1.741997
      4         13           0       -0.821683    2.908281    0.000000
      5         13           0        1.673883    2.138754    0.000000
      6         13           0       -0.655381   -1.655882    1.630204
      7         13           0        1.556961   -0.559663    0.000000
      8         13           0       -0.655381   -1.655882   -1.630204
      9         13           0        0.104261    0.828388    1.741997
 ---------------------------------------------------------------------
                    Distance matrix (angstroms):
                    1          2          3          4          5
     1  Al   0.000000
     2  Al   4.405013   0.000000
     3  Al   4.444764   2.691332   0.000000
     4  Al   6.300647   2.731973   2.866685   0.000000
     5  Al   5.477882   3.976502   2.686136   2.611517   0.000000
     6  Al   2.588209   2.903996   4.256805   4.849413   4.741550
     7  Al   2.840324   3.589121   2.659243   4.205304   2.700949
     8  Al   2.588209   2.903996   2.600221   4.849413   4.741550
     9  Al   4.444764   2.691332   3.483994   2.866685   2.686136
                    6          7          8          9
     6  Al   0.000000
     7  Al   2.958668   0.000000
     8  Al   3.260408   2.958668   0.000000
     9  Al   2.600221   2.659243   4.256805   0.000000
 Stoichiometry    Al9(1+)
 Framework group  CS[SG(Al5),X(Al4)]
 Deg. of freedom    13
 Full point group                 CS      NOp   2
 Largest Abelian subgroup         CS      NOp   2
 Largest concise Abelian subgroup CS      NOp   2
                         Standard orientation:                         
 ---------------------------------------------------------------------
 Center     Atomic      Atomic             Coordinates (Angstroms)
 Number     Number       Type             X           Y           Z
 ---------------------------------------------------------------------
      1         13           0        1.512325    2.916697    0.000000
      2         13           0       -1.935131    0.174582    0.000000
      3         13           0       -0.142352   -0.822744    1.741997
      4         13           0       -1.636018   -2.540967    0.000000
      5         13           0        0.975492   -2.534817    0.000000
      6         13           0       -0.142352    1.775073   -1.630204
      7         13           0        1.652740    0.079845    0.000000
      8         13           0       -0.142352    1.775073    1.630204
      9         13           0       -0.142352   -0.822744   -1.741997
 ---------------------------------------------------------------------
 Rotational constants (GHZ):      0.8462028      0.4507522      0.4439820
 Standard basis: 6-31G(d) (6D, 7F)
 There are   108 symmetry adapted cartesian basis functions of A'  symmetry.
 There are    63 symmetry adapted cartesian basis functions of A"  symmetry.
 There are   108 symmetry adapted basis functions of A'  symmetry.
 There are    63 symmetry adapted basis functions of A"  symmetry.
   171 basis functions,   468 primitive gaussians,   171 cartesian basis functions
    58 alpha electrons       58 beta electrons
       nuclear repulsion energy       983.6729460218 Hartrees.
 NAtoms=    9 NActive=    9 NUniq=    7 SFac= 1.65D+00 NAtFMM=   60 NAOKFM=F Big=F
 Integral buffers will be    131072 words long.
 Raffenetti 1 integral format.
 Two-electron integral symmetry is turned on.
 One-electron integrals computed using PRISM.
 NBasis=   171 RedAO= T EigKep=  1.24D-03  NBF=   108    63
 NBsUse=   171 1.00D-06 EigRej= -1.00D+00 NBFU=   108    63
 ExpMin= 5.57D-02 ExpMax= 1.40D+04 ExpMxC= 2.10D+03 IAcc=2 IRadAn=         4 AccDes= 0.00D+00
 Harris functional with IExCor=  205 and IRadAn=       4 diagonalized for initial guess.
 HarFok:  IExCor=  205 AccDes= 0.00D+00 IRadAn=         4 IDoV= 1 UseB2=F ITyADJ=14
 ICtDFT=  3500011 ScaDFX=  1.000000  1.000000  1.000000  1.000000
 FoFCou: FMM=F IPFlag=           0 FMFlag=      100000 FMFlg1=           0
         NFxFlg=           0 DoJE=T BraDBF=F KetDBF=T FulRan=T
         wScrn=  0.000000 ICntrl=     500 IOpCl=  0 I1Cent=   200000004 NGrid=           0
         NMat0=    1 NMatS0=      1 NMatT0=    0 NMatD0=    1 NMtDS0=    0 NMtDT0=    0
 Petite list used in FoFCou.
 Initial guess orbital symmetries:
       Occupied  (A") (A') (A') (A') (A') (A") (A') (A') (A') (A")
                 (A') (A') (A') (A') (A") (A') (A') (A') (A") (A')
                 (A') (A") (A') (A") (A') (A') (A") (A') (A') (A')
                 (A') (A") (A') (A") (A") (A') (A") (A") (A') (A')
                 (A') (A') (A") (A") (A') (A') (A') (A") (A') (A')
                 (A") (A') (A') (A") (A') (A') (A") (A')
       Virtual   (A') (A') (A') (A") (A") (A') (A') (A") (A') (A")
                 (A') (A') (A") (A") (A') (A') (A') (A") (A') (A")
                 (A') (A") (A') (A") (A') (A") (A') (A') (A") (A')
                 (A') (A') (A") (A') (A") (A') (A") (A') (A") (A')
                 (A') (A") (A') (A') (A") (A') (A') (A') (A") (A")
                 (A') (A") (A') (A') (A") (A") (A') (A') (A") (A')
                 (A') (A') (A") (A") (A') (A') (A") (A') (A") (A')
                 (A") (A') (A') (A") (A') (A') (A") (A") (A') (A")
                 (A') (A') (A") (A') (A') (A') (A") (A') (A') (A")
                 (A") (A') (A') (A") (A') (A') (A") (A') (A') (A")
                 (A') (A") (A') (A") (A') (A") (A') (A') (A") (A')
                 (A') (A') (A')
 The electronic state of the initial guess is 1-A'.
 Keep R1 ints in memory in symmetry-blocked form, NReq=162645849.
 Requested convergence on RMS density matrix=1.00D-08 within  64 cycles.
 Requested convergence on MAX density matrix=1.00D-06.
 Requested convergence on             energy=1.00D-06.
 No special actions if energy rises.
 SCF Done:  E(RHF) =  -2176.83802541     A.U. after   21 cycles
            NFock= 21  Conv=0.71D-08     -V/T= 2.0001
 QCSCF skips out because SCF is already converged.

 **********************************************************************

            Population analysis using the SCF density.

 **********************************************************************

 Orbital symmetries:
       Occupied  (A') (A") (A') (A') (A') (A") (A') (A') (A') (A')
                 (A') (A") (A') (A') (A') (A") (A') (A') (A') (A')
                 (A") (A') (A") (A') (A") (A') (A") (A') (A") (A')
                 (A') (A') (A") (A') (A") (A') (A") (A') (A") (A')
                 (A") (A') (A') (A") (A') (A') (A') (A") (A') (A')
                 (A") (A') (A') (A") (A') (A') (A") (A')
       Virtual   (A') (A') (A') (A") (A") (A') (A') (A") (A') (A")
                 (A') (A") (A') (A") (A') (A') (A') (A') (A") (A")
                 (A') (A") (A') (A") (A') (A") (A') (A') (A') (A")
                 (A') (A") (A') (A') (A') (A") (A") (A') (A") (A')
                 (A") (A') (A") (A') (A') (A') (A") (A') (A') (A")
                 (A') (A') (A") (A') (A') (A') (A") (A") (A') (A")
                 (A') (A') (A") (A") (A') (A') (A") (A') (A') (A")
                 (A") (A') (A') (A') (A") (A') (A") (A') (A") (A')
                 (A") (A') (A") (A') (A') (A") (A') (A') (A') (A")
                 (A") (A') (A') (A") (A') (A') (A") (A') (A') (A")
                 (A') (A") (A') (A") (A') (A") (A') (A') (A") (A')
                 (A') (A') (A')
 The electronic state is 1-A'.
 Alpha  occ. eigenvalues --  -58.62227 -58.62066 -58.62065 -58.61693 -58.61607
 Alpha  occ. eigenvalues --  -58.60976 -58.60976 -58.60884 -58.60559  -5.04254
 Alpha  occ. eigenvalues --   -5.04038  -5.04037  -5.03588  -5.03533  -5.03256
 Alpha  occ. eigenvalues --   -5.03256  -5.02806  -5.02768  -3.35283  -3.35188
 Alpha  occ. eigenvalues --   -3.35153  -3.35143  -3.35138  -3.35084  -3.35082
 Alpha  occ. eigenvalues --   -3.34935  -3.34933  -3.34732  -3.34627  -3.34600
 Alpha  occ. eigenvalues --   -3.34551  -3.34454  -3.34446  -3.34445  -3.34442
 Alpha  occ. eigenvalues --   -3.34336  -3.34336  -3.34260  -3.34260  -3.33974
 Alpha  occ. eigenvalues --   -3.33876  -3.33805  -3.33800  -3.33715  -3.33676
 Alpha  occ. eigenvalues --   -0.81617  -0.70496  -0.64971  -0.63734  -0.57554
 Alpha  occ. eigenvalues --   -0.49720  -0.47794  -0.43604  -0.40390  -0.39454
 Alpha  occ. eigenvalues --   -0.38105  -0.37090  -0.35494
 Alpha virt. eigenvalues --   -0.16399  -0.15535  -0.15213  -0.14105  -0.12763
 Alpha virt. eigenvalues --   -0.12610  -0.07407  -0.06346  -0.05296  -0.04908
 Alpha virt. eigenvalues --   -0.03715  -0.02795  -0.02501  -0.01108   0.00552
 Alpha virt. eigenvalues --    0.01653   0.01906   0.03741   0.04373   0.05181
 Alpha virt. eigenvalues --    0.05374   0.06559   0.07307   0.08879   0.09306
 Alpha virt. eigenvalues --    0.11052   0.12083   0.12548   0.14429   0.14629
 Alpha virt. eigenvalues --    0.15296   0.17321   0.17437   0.17969   0.19683
 Alpha virt. eigenvalues --    0.20773   0.21096   0.22447   0.23471   0.23738
 Alpha virt. eigenvalues --    0.25045   0.26202   0.26701   0.27143   0.28117
 Alpha virt. eigenvalues --    0.28365   0.30049   0.30098   0.30702   0.31740
 Alpha virt. eigenvalues --    0.32336   0.33317   0.33701   0.35869   0.38074
 Alpha virt. eigenvalues --    0.39057   0.39535   0.41048   0.42522   0.43127
 Alpha virt. eigenvalues --    0.44525   0.46182   0.47226   0.49329   0.49548
 Alpha virt. eigenvalues --    0.50289   0.51353   0.51599   0.53998   0.54404
 Alpha virt. eigenvalues --    0.55843   0.56348   0.58177   0.58673   0.60685
 Alpha virt. eigenvalues --    0.63378   0.64288   0.65818   0.66085   0.67388
 Alpha virt. eigenvalues --    0.68618   0.68801   0.68903   0.70176   0.71308
 Alpha virt. eigenvalues --    0.72502   0.73846   0.74081   0.77565   0.78364
 Alpha virt. eigenvalues --    0.79587   0.82073   0.84036   0.84336   0.84811
 Alpha virt. eigenvalues --    0.88383   0.88448   0.89531   0.91549   0.92154
 Alpha virt. eigenvalues --    0.95649   0.96221   0.96723   0.98281   2.06297
 Alpha virt. eigenvalues --    2.16147   2.16900   2.17346   2.21971   2.24212
 Alpha virt. eigenvalues --    2.25575   2.27374   2.31190
          Condensed to atoms (all electrons):
               1          2          3          4          5          6
     1  Al  12.995785   0.035287   0.074539  -0.006400   0.023635  -0.161155
     2  Al   0.035287  13.572452  -0.318800  -0.115963   0.101220  -0.098271
     3  Al   0.074539  -0.318800  13.720451  -0.157389  -0.094580  -0.096430
     4  Al  -0.006400  -0.115963  -0.157389  13.198921  -0.097982   0.027686
     5  Al   0.023635   0.101220  -0.094580  -0.097982  12.998611   0.006709
     6  Al  -0.161155  -0.098271  -0.096430   0.027686   0.006709  12.962088
     7  Al  -0.136834   0.093264  -0.499265   0.117591   0.012342   0.007394
     8  Al  -0.161155  -0.098271  -0.014397   0.027686   0.006709   0.189745
     9  Al   0.074539  -0.318800   0.363508  -0.157389  -0.094580  -0.014397
               7          8          9
     1  Al  -0.136834  -0.161155   0.074539
     2  Al   0.093264  -0.098271  -0.318800
     3  Al  -0.499265  -0.014397   0.363508
     4  Al   0.117591   0.027686  -0.157389
     5  Al   0.012342   0.006709  -0.094580
     6  Al   0.007394   0.189745  -0.014397
     7  Al  14.006167   0.007394  -0.499265
     8  Al   0.007394  12.962088  -0.096430
     9  Al  -0.499265  -0.096430  13.720451
 Mulliken charges:
               1
     1  Al   0.261758
     2  Al   0.147883
     3  Al   0.022363
     4  Al   0.163240
     5  Al   0.137917
     6  Al   0.176632
     7  Al  -0.108788
     8  Al   0.176632
     9  Al   0.022363
 Sum of Mulliken charges =   1.00000
 Mulliken charges with hydrogens summed into heavy atoms:
               1
     1  Al   0.261758
     2  Al   0.147883
     3  Al   0.022363
     4  Al   0.163240
     5  Al   0.137917
     6  Al   0.176632
     7  Al  -0.108788
     8  Al   0.176632
     9  Al   0.022363
 Electronic spatial extent (au):  <R**2>=           2665.5314
 Charge=              1.0000 electrons
 Dipole moment (field-independent basis, Debye):
    X=              0.3343    Y=              0.2729    Z=              0.0000  Tot=              0.4315
 Quadrupole moment (field-independent basis, Debye-Ang):
   XX=           -100.1247   YY=            -84.4268   ZZ=            -95.1300
   XY=              1.6692   XZ=              0.0000   YZ=              0.0000
 Traceless Quadrupole moment (field-independent basis, Debye-Ang):
   XX=             -6.8975   YY=              8.8004   ZZ=             -1.9029
   XY=              1.6692   XZ=              0.0000   YZ=              0.0000
 Octapole moment (field-independent basis, Debye-Ang**2):
  XXX=              3.9667  YYY=              6.5229  ZZZ=              0.0000  XYY=             20.8654
  XXY=              3.5412  XXZ=              0.0000  XZZ=             -5.2956  YZZ=              2.0596
  YYZ=              0.0000  XYZ=              0.0000
 Hexadecapole moment (field-independent basis, Debye-Ang**3):
 XXXX=          -1148.9014 YYYY=          -2129.4607 ZZZZ=           -953.3322 XXXY=           -221.2132
 XXXZ=              0.0000 YYYX=           -118.9070 YYYZ=              0.0000 ZZZX=              0.0000
 ZZZY=              0.0000 XXYY=           -500.2679 XXZZ=           -385.5868 YYZZ=           -538.3953
 XXYZ=              0.0000 YYXZ=              0.0000 ZZXY=            -83.9236
 N-N= 9.836729460218D+02 E-N=-7.157808009164D+03  KE= 2.176523755519D+03
 Symmetry A'   KE= 1.592437062652D+03
 Symmetry A"   KE= 5.840866928671D+02

 Test job not archived.
 1\1\GINC-R1I0N14\SP\RHF\6-31G(d)\Al9(1+)\VSC31064\03-Oct-2016\0\\# hf/
 6-31G* test scf=xqc\\Al9-c-s\\1,1\Al,0,0.59314399,-3.23146002,0.\Al,0,
 -1.90179088,0.39889007,0.\Al,0,0.1042612,0.82838786,-1.74199689\Al,0,-
 0.82168278,2.90828103,0.\Al,0,1.67388319,2.13875394,0.\Al,0,-0.6553809
 4,-1.65588185,1.63020385\Al,0,1.55696109,-0.55966306,0.\Al,0,-0.655380
 94,-1.65588185,-1.63020385\Al,0,0.1042612,0.82838786,1.74199689\\Versi
 on=ES64L-G09RevD.01\State=1-A'\HF=-2176.8380254\RMSD=7.076e-09\Dipole=
 0.0943584,-0.1411387,0.\Quadrupole=-4.8242412,6.2389733,-1.4147321,2.2
 348477,0.,0.\PG=CS [SG(Al5),X(Al4)]\\@


 A MAN IS NEVER SO BRILLIANT AS WHEN HE TAKES THE WORDS RIGHT OUT
 OF YOUR MOUTH. -- ARNOT SHEPPARD, JR.
 Job cpu time:       0 days  0 hours  0 minutes 55.8 seconds.
 File lengths (MBytes):  RWF=     13 Int=      0 D2E=      0 Chk=      2 Scr=      1
 Normal termination of Gaussian 09 at Mon Oct  3 10:34:51 2016.
 Initial command:
 /apps/leuven/thinking/software/G09//g09D1/l1.exe "/local_scratch/vsc31064/Gau-48752.inp" -scrdir="/local_scratch/vsc31064/"
 Entering Link 1 = /apps/leuven/thinking/software/G09//g09D1/l1.exe PID=     48988.
  
 Copyright (c) 1988,1990,1992,1993,1995,1998,2003,2009,2013,
            Gaussian, Inc.  All Rights Reserved.
  
 This is part of the Gaussian(R) 09 program.  It is based on
 the Gaussian(R) 03 system (copyright 2003, Gaussian, Inc.),
 the Gaussian(R) 98 system (copyright 1998, Gaussian, Inc.),
 the Gaussian(R) 94 system (copyright 1995, Gaussian, Inc.),
 the Gaussian 92(TM) system (copyright 1992, Gaussian, Inc.),
 the Gaussian 90(TM) system (copyright 1990, Gaussian, Inc.),
 the Gaussian 88(TM) system (copyright 1988, Gaussian, Inc.),
 the Gaussian 86(TM) system (copyright 1986, Carnegie Mellon
 University), and the Gaussian 82(TM) system (copyright 1983,
 Carnegie Mellon University). Gaussian is a federally registered
 trademark of Gaussian, Inc.
  
 This software contains proprietary and confidential information,
 including trade secrets, belonging to Gaussian, Inc.
  
 This software is provided under written license and may be
 used, copied, transmitted, or stored only in accord with that
 written license.
  
 The following legend is applicable only to US Government
 contracts under FAR:
  
                    RESTRICTED RIGHTS LEGEND
  
 Use, reproduction and disclosure by the US Government is
 subject to restrictions as set forth in subparagraphs (a)
 and (c) of the Commercial Computer Software - Restricted
 Rights clause in FAR 52.227-19.
  
 Gaussian, Inc.
 340 Quinnipiac St., Bldg. 40, Wallingford CT 06492
  
  
 ---------------------------------------------------------------
 Warning -- This program may not be used in any manner that
 competes with the business of Gaussian, Inc. or will provide
 assistance to any competitor of Gaussian, Inc.  The licensee
 of this program is prohibited from giving any competitor of
 Gaussian, Inc. access to this program.  By using this program,
 the user acknowledges that Gaussian, Inc. is engaged in the
 business of creating and licensing software in the field of
 computational chemistry and represents and warrants to the
 licensee that it is not a competitor of Gaussian, Inc. and that
 it will not use this program in any manner prohibited above.
 ---------------------------------------------------------------
  

 Cite this work as:
 Gaussian 09, Revision D.01,
 M. J. Frisch, G. W. Trucks, H. B. Schlegel, G. E. Scuseria, 
 M. A. Robb, J. R. Cheeseman, G. Scalmani, V. Barone, B. Mennucci, 
 G. A. Petersson, H. Nakatsuji, M. Caricato, X. Li, H. P. Hratchian, 
 A. F. Izmaylov, J. Bloino, G. Zheng, J. L. Sonnenberg, M. Hada, 
 M. Ehara, K. Toyota, R. Fukuda, J. Hasegawa, M. Ishida, T. Nakajima, 
 Y. Honda, O. Kitao, H. Nakai, T. Vreven, J. A. Montgomery, Jr., 
 J. E. Peralta, F. Ogliaro, M. Bearpark, J. J. Heyd, E. Brothers, 
 K. N. Kudin, V. N. Staroverov, T. Keith, R. Kobayashi, J. Normand, 
 K. Raghavachari, A. Rendell, J. C. Burant, S. S. Iyengar, J. Tomasi, 
 M. Cossi, N. Rega, J. M. Millam, M. Klene, J. E. Knox, J. B. Cross, 
 V. Bakken, C. Adamo, J. Jaramillo, R. Gomperts, R. E. Stratmann, 
 O. Yazyev, A. J. Austin, R. Cammi, C. Pomelli, J. W. Ochterski, 
 R. L. Martin, K. Morokuma, V. G. Zakrzewski, G. A. Voth, 
 P. Salvador, J. J. Dannenberg, S. Dapprich, A. D. Daniels, 
 O. Farkas, J. B. Foresman, J. V. Ortiz, J. Cioslowski, 
 and D. J. Fox, Gaussian, Inc., Wallingford CT, 2013.
 
 ******************************************
 Gaussian 09:  ES64L-G09RevD.01 24-Apr-2013
                 3-Oct-2016 
 ******************************************
 %NprocShared=20
 Will use up to   20 processors via shared memory.
 %mem=55000mb
 %chk=cc-Al9-c-s
 --------------------------------------------------------
 # CCSD(T,conver=5)/cc-pVTZ test geom=allcheck guess=read
 --------------------------------------------------------
 1/29=7,38=1/1;
 2/12=2,40=1/2;
 3/5=16,6=1,11=9,14=-4,16=1,25=1,30=1,116=-2/1,2,3;
 4/5=1/1;
 5/5=2,38=6/2;
 8/6=4,9=120000,10=1/1,4;
 9/5=7,9=5,14=2/13;
 6/7=2,8=2,9=2,10=2/1;
 99/5=1,9=1/99;
 Structure from the checkpoint file:  "cc-Al9-c-s.chk"
 -------
 Al9-c-s
 -------
 Charge =  1 Multiplicity = 1
 Z-Matrix found in file.
 Al,0,0.59314399,-3.23146002,0.
 Al,0,-1.90179088,0.39889007,0.
 Al,0,0.1042612,0.82838786,-1.74199689
 Al,0,-0.82168278,2.90828103,0.
 Al,0,1.67388319,2.13875394,0.
 Al,0,-0.65538094,-1.65588185,1.63020385
 Al,0,1.55696109,-0.55966306,0.
 Al,0,-0.65538094,-1.65588185,-1.63020385
 Al,0,0.1042612,0.82838786,1.74199689
 Recover connectivity data from disk.
                          Input orientation:                          
 ---------------------------------------------------------------------
 Center     Atomic      Atomic             Coordinates (Angstroms)
 Number     Number       Type             X           Y           Z
 ---------------------------------------------------------------------
      1         13           0        0.593144   -3.231460    0.000000
      2         13           0       -1.901791    0.398890    0.000000
      3         13           0        0.104261    0.828388   -1.741997
      4         13           0       -0.821683    2.908281    0.000000
      5         13           0        1.673883    2.138754    0.000000
      6         13           0       -0.655381   -1.655882    1.630204
      7         13           0        1.556961   -0.559663    0.000000
      8         13           0       -0.655381   -1.655882   -1.630204
      9         13           0        0.104261    0.828388    1.741997
 ---------------------------------------------------------------------
                    Distance matrix (angstroms):
                    1          2          3          4          5
     1  Al   0.000000
     2  Al   4.405013   0.000000
     3  Al   4.444764   2.691332   0.000000
     4  Al   6.300647   2.731973   2.866685   0.000000
     5  Al   5.477882   3.976502   2.686136   2.611517   0.000000
     6  Al   2.588209   2.903996   4.256805   4.849413   4.741550
     7  Al   2.840324   3.589121   2.659243   4.205304   2.700949
     8  Al   2.588209   2.903996   2.600221   4.849413   4.741550
     9  Al   4.444764   2.691332   3.483994   2.866685   2.686136
                    6          7          8          9
     6  Al   0.000000
     7  Al   2.958668   0.000000
     8  Al   3.260408   2.958668   0.000000
     9  Al   2.600221   2.659243   4.256805   0.000000
 Stoichiometry    Al9(1+)
 Framework group  CS[SG(Al5),X(Al4)]
 Deg. of freedom    13
 Full point group                 CS      NOp   2
 Largest Abelian subgroup         CS      NOp   2
 Largest concise Abelian subgroup CS      NOp   2
                         Standard orientation:                         
 ---------------------------------------------------------------------
 Center     Atomic      Atomic             Coordinates (Angstroms)
 Number     Number       Type             X           Y           Z
 ---------------------------------------------------------------------
      1         13           0        1.512325    2.916697    0.000000
      2         13           0       -1.935131    0.174582    0.000000
      3         13           0       -0.142352   -0.822744    1.741997
      4         13           0       -1.636018   -2.540967    0.000000
      5         13           0        0.975492   -2.534817    0.000000
      6         13           0       -0.142352    1.775073   -1.630204
      7         13           0        1.652740    0.079845    0.000000
      8         13           0       -0.142352    1.775073    1.630204
      9         13           0       -0.142352   -0.822744   -1.741997
 ---------------------------------------------------------------------
 Rotational constants (GHZ):      0.8462028      0.4507522      0.4439820
 Standard basis: CC-pVTZ (5D, 7F)
 There are   213 symmetry adapted cartesian basis functions of A'  symmetry.
 There are   138 symmetry adapted cartesian basis functions of A"  symmetry.
 There are   183 symmetry adapted basis functions of A'  symmetry.
 There are   123 symmetry adapted basis functions of A"  symmetry.
   306 basis functions,   855 primitive gaussians,   351 cartesian basis functions
    58 alpha electrons       58 beta electrons
       nuclear repulsion energy       983.6729460218 Hartrees.
 NAtoms=    9 NActive=    9 NUniq=    7 SFac= 1.65D+00 NAtFMM=   60 NAOKFM=F Big=F
 Integral buffers will be    131072 words long.
 Raffenetti 1 integral format.
 Two-electron integral symmetry is turned on.
 One-electron integrals computed using PRISM.
 NBasis=   306 RedAO= T EigKep=  4.42D-04  NBF=   183   123
 NBsUse=   306 1.00D-06 EigRej= -1.00D+00 NBFU=   183   123
 Initial guess from the checkpoint file:  "cc-Al9-c-s.chk"
 B after Tr=     0.000000    0.000000    0.000000
         Rot=    1.000000    0.000000    0.000000    0.000000 Ang=   0.00 deg.
 Initial guess orbital symmetries:
       Occupied  (A') (A") (A') (A') (A') (A") (A') (A') (A') (A')
                 (A') (A") (A') (A') (A') (A") (A') (A') (A') (A')
                 (A") (A') (A") (A') (A") (A') (A") (A') (A") (A')
                 (A') (A') (A") (A') (A") (A') (A") (A') (A") (A')
                 (A") (A') (A') (A") (A') (A') (A') (A") (A') (A')
                 (A") (A') (A') (A") (A') (A') (A") (A')
       Virtual   (A') (A') (A') (A') (A') (A') (A') (A') (A') (A')
                 (A') (A') (A') (A') (A') (A') (A') (A') (A') (A')
                 (A') (A') (A') (A') (A') (A') (A') (A') (A') (A')
                 (A') (A') (A') (A') (A') (A') (A') (A') (A') (A')
                 (A') (A') (A') (A') (A') (A') (A') (A') (A') (A')
                 (A') (A') (A') (A') (A') (A') (A') (A') (A') (A')
                 (A') (A') (A') (A') (A') (A') (A') (A') (A') (A')
                 (A') (A') (A') (A') (A') (A') (A') (A') (A') (A')
                 (A') (A') (A') (A') (A') (A') (A') (A') (A') (A')
                 (A') (A') (A') (A') (A') (A') (A') (A') (A') (A')
                 (A') (A') (A') (A') (A') (A') (A') (A') (A') (A')
                 (A') (A') (A') (A') (A') (A') (A') (A') (A') (A')
                 (A') (A') (A') (A') (A') (A') (A') (A') (A') (A')
                 (A') (A') (A') (A') (A') (A') (A') (A') (A') (A')
                 (A') (A') (A') (A') (A") (A") (A") (A") (A") (A")
                 (A") (A") (A") (A") (A") (A") (A") (A") (A") (A")
                 (A") (A") (A") (A") (A") (A") (A") (A") (A") (A")
                 (A") (A") (A") (A") (A") (A") (A") (A") (A") (A")
                 (A") (A") (A") (A") (A") (A") (A") (A") (A") (A")
                 (A") (A") (A") (A") (A") (A") (A") (A") (A") (A")
                 (A") (A") (A") (A") (A") (A") (A") (A") (A") (A")
                 (A") (A") (A") (A") (A") (A") (A") (A") (A") (A")
                 (A") (A") (A") (A") (A") (A") (A") (A") (A") (A")
                 (A") (A") (A") (A") (A") (A") (A") (A") (A") (A")
                 (A") (A") (A") (A") (A") (A") (A") (A")
 Keep R1 ints in memory in symmetry-blocked form, NReq=1656202193.
 Requested convergence on RMS density matrix=1.00D-08 within 128 cycles.
 Requested convergence on MAX density matrix=1.00D-06.
 Requested convergence on             energy=1.00D-06.
 No special actions if energy rises.
 SCF Done:  E(RHF) =  -2177.03955488     A.U. after   19 cycles
            NFock= 19  Conv=0.73D-08     -V/T= 1.9999
 ExpMin= 5.56D-02 ExpMax= 2.06D+05 ExpMxC= 1.99D+03 IAcc=3 IRadAn=         5 AccDes= 0.00D+00
 HarFok:  IExCor=  205 AccDes= 0.00D+00 IRadAn=         5 IDoV=-2 UseB2=F ITyADJ=14
 ICtDFT= 12500011 ScaDFX=  1.000000  1.000000  1.000000  1.000000
 Range of M.O.s used for correlation:    46   306
 NBasis=   306 NAE=    58 NBE=    58 NFC=    45 NFV=     0
 NROrb=    261 NOA=    13 NOB=    13 NVA=   248 NVB=   248

 **** Warning!!: The largest alpha MO coefficient is  0.10887285D+02

 Semi-Direct transformation.
 ModeAB=           4 MOrb=            13 LenV=    7206668390
 LASXX=     55981449 LTotXX=    55981449 LenRXX=   112629598
 LTotAB=    56648149 MaxLAS=   137586150 LenRXY=           0
 NonZer=   168611047 LenScr=   253908992 LnRSAI=   137586150
 LnScr1=   207188992 LExtra=           0 Total=    711313732
 MaxDsk=          -1 SrtSym=           T ITran=            4
 JobTyp=0 Pass  1:  I=   1 to  13.
 (rs|ai) integrals will be sorted in core.
 Spin components of T(2) and E(2):
     alpha-alpha T2 =       0.1208344896D+00 E2=     -0.1100829384D+00
     alpha-beta  T2 =       0.5375356511D+00 E2=     -0.5564578593D+00
     beta-beta   T2 =       0.1208344896D+00 E2=     -0.1100829384D+00
 ANorm=    0.1333868296D+01
 E2 =    -0.7766237361D+00 EUMP2 =    -0.21778161786163D+04
 Keep R2 and R3 ints in memory in symmetry-blocked form, NReq=1657736660.
 Iterations=  50 Convergence= 0.100D-04
 Iteration Nr.   1
 **********************
 DD1Dir will call FoFMem   1 times, MxPair=       182
 NAB=    91 NAA=     0 NBB=     0.
 MP4(R+Q)=  0.62018405D-01
 E3=        0.62333600D-01        EUMP3=      -0.21777538450D+04
 E4(DQ)=   -0.12871805D-01        UMP4(DQ)=   -0.21777667168D+04
 E4(SDQ)=  -0.25913685D-01        UMP4(SDQ)=  -0.21777797587D+04
 DE(Corr)= -0.65240261     E(Corr)=     -2177.6919575    
 NORM(A)=   0.12505736D+01
 Iteration Nr.   2
 **********************
 DD1Dir will call FoFMem   1 times, MxPair=       182
 NAB=    91 NAA=     0 NBB=     0.
 DE(Corr)= -0.73769708     E(CORR)=     -2177.7772520     Delta=-8.53D-02
 NORM(A)=   0.12962749D+01
 Iteration Nr.   3
 **********************
 DD1Dir will call FoFMem   1 times, MxPair=       182
 NAB=    91 NAA=     0 NBB=     0.
 DE(Corr)= -0.72089891     E(CORR)=     -2177.7604538     Delta= 1.68D-02
 NORM(A)=   0.13044524D+01
 Iteration Nr.   4
 **********************
 DD1Dir will call FoFMem   1 times, MxPair=       182
 NAB=    91 NAA=     0 NBB=     0.
 DE(Corr)= -0.72576401     E(CORR)=     -2177.7653189     Delta=-4.87D-03
 NORM(A)=   0.13080726D+01
 Iteration Nr.   5
 **********************
 DD1Dir will call FoFMem   1 times, MxPair=       182
 NAB=    91 NAA=     0 NBB=     0.
 DE(Corr)= -0.72679898     E(CORR)=     -2177.7663539     Delta=-1.03D-03
 NORM(A)=   0.13122215D+01
 Iteration Nr.   6
 **********************
 DD1Dir will call FoFMem   1 times, MxPair=       182
 NAB=    91 NAA=     0 NBB=     0.
 DE(Corr)= -0.72691442     E(CORR)=     -2177.7664693     Delta=-1.15D-04
 NORM(A)=   0.13144456D+01
 Iteration Nr.   7
 **********************
 DD1Dir will call FoFMem   1 times, MxPair=       182
 NAB=    91 NAA=     0 NBB=     0.
 DE(Corr)= -0.72689106     E(CORR)=     -2177.7664459     Delta= 2.34D-05
 NORM(A)=   0.13144240D+01
 Iteration Nr.   8
 **********************
 DD1Dir will call FoFMem   1 times, MxPair=       182
 NAB=    91 NAA=     0 NBB=     0.
 DE(Corr)= -0.72715537     E(CORR)=     -2177.7667103     Delta=-2.64D-04
 NORM(A)=   0.13150919D+01
 Iteration Nr.   9
 **********************
 DD1Dir will call FoFMem   1 times, MxPair=       182
 NAB=    91 NAA=     0 NBB=     0.
 DE(Corr)= -0.72695312     E(CORR)=     -2177.7665080     Delta= 2.02D-04
 NORM(A)=   0.13151389D+01
 Iteration Nr.  10
 **********************
 DD1Dir will call FoFMem   1 times, MxPair=       182
 NAB=    91 NAA=     0 NBB=     0.
 DE(Corr)= -0.72706046     E(CORR)=     -2177.7666153     Delta=-1.07D-04
 NORM(A)=   0.13151530D+01
 Iteration Nr.  11
 **********************
 DD1Dir will call FoFMem   1 times, MxPair=       182
 NAB=    91 NAA=     0 NBB=     0.
 DE(Corr)= -0.72701693     E(CORR)=     -2177.7665718     Delta= 4.35D-05
 NORM(A)=   0.13152164D+01
 Iteration Nr.  12
 **********************
 DD1Dir will call FoFMem   1 times, MxPair=       182
 NAB=    91 NAA=     0 NBB=     0.
 DE(Corr)= -0.72703264     E(CORR)=     -2177.7665875     Delta=-1.57D-05
 NORM(A)=   0.13152157D+01
 Iteration Nr.  13
 **********************
 DD1Dir will call FoFMem   1 times, MxPair=       182
 NAB=    91 NAA=     0 NBB=     0.
 DE(Corr)= -0.72703242     E(CORR)=     -2177.7665873     Delta= 2.23D-07
 NORM(A)=   0.13152272D+01
 Iteration Nr.  14
 **********************
 DD1Dir will call FoFMem   1 times, MxPair=       182
 NAB=    91 NAA=     0 NBB=     0.
 DE(Corr)= -0.72703410     E(CORR)=     -2177.7665890     Delta=-1.68D-06
 NORM(A)=   0.13152416D+01
 Iteration Nr.  15
 **********************
 DD1Dir will call FoFMem   1 times, MxPair=       182
 NAB=    91 NAA=     0 NBB=     0.
 DE(Corr)= -0.72703246     E(CORR)=     -2177.7665873     Delta= 1.64D-06
 NORM(A)=   0.13152441D+01
 Largest amplitude= 8.19D-02
 Time for triples=     9266.59 seconds.
 T4(CCSD)= -0.99784661D-01
 T5(CCSD)=  0.27737213D-02
 CCSD(T)= -0.21778635983D+04
 Discarding MO integrals.

 **********************************************************************

            Population analysis using the SCF density.

 **********************************************************************

 Orbital symmetries:
       Occupied  (A') (A') (A") (A') (A') (A') (A") (A') (A') (A')
                 (A') (A") (A') (A') (A') (A") (A') (A') (A') (A')
                 (A") (A') (A") (A') (A") (A') (A") (A') (A") (A')
                 (A') (A') (A") (A') (A") (A') (A") (A') (A") (A')
                 (A") (A') (A') (A") (A') (A') (A') (A") (A') (A')
                 (A") (A') (A') (A") (A') (A') (A") (A')
       Virtual   (A') (A') (A') (A") (A") (A') (A') (A") (A') (A")
                 (A') (A") (A') (A") (A') (A') (A') (A') (A") (A')
                 (A") (A') (A") (A') (A') (A") (A") (A') (A') (A")
                 (A') (A') (A") (A') (A") (A') (A") (A') (A') (A')
                 (A") (A") (A') (A") (A") (A') (A') (A') (A") (A")
                 (A') (A") (A') (A') (A") (A') (A") (A') (A') (A')
                 (A') (A") (A') (A") (A") (A') (A') (A") (A') (A')
                 (A") (A") (A") (A') (A') (A") (A') (A") (A') (A')
                 (A') (A") (A') (A') (A") (A') (A") (A') (A") (A")
                 (A') (A') (A') (A") (A') (A") (A') (A') (A") (A')
                 (A') (A') (A") (A') (A") (A") (A') (A") (A') (A')
                 (A') (A") (A") (A') (A") (A') (A') (A') (A") (A')
                 (A") (A') (A") (A') (A") (A') (A") (A') (A") (A')
                 (A") (A") (A') (A") (A') (A") (A') (A') (A') (A")
                 (A") (A') (A') (A") (A") (A') (A") (A') (A') (A')
                 (A") (A") (A') (A') (A") (A') (A') (A") (A') (A")
                 (A') (A") (A') (A') (A") (A') (A') (A") (A') (A")
                 (A') (A") (A') (A") (A') (A") (A') (A") (A') (A")
                 (A') (A") (A") (A') (A") (A') (A') (A") (A') (A')
                 (A") (A') (A') (A") (A") (A') (A") (A") (A') (A')
                 (A") (A') (A') (A") (A') (A') (A") (A') (A") (A")
                 (A') (A') (A') (A") (A') (A') (A") (A') (A') (A")
                 (A') (A") (A') (A') (A') (A') (A") (A") (A') (A")
                 (A') (A') (A") (A') (A") (A') (A") (A') (A") (A')
                 (A') (A") (A') (A') (A') (A') (A") (A')
 The electronic state is 1-A'.
 Alpha  occ. eigenvalues --  -58.62971 -58.62910 -58.62910 -58.62443 -58.62392
 Alpha  occ. eigenvalues --  -58.61914 -58.61914 -58.61683 -58.61504  -5.04134
 Alpha  occ. eigenvalues --   -5.04022  -5.04021  -5.03546  -5.03496  -5.03264
 Alpha  occ. eigenvalues --   -5.03263  -5.02788  -5.02785  -3.35170  -3.35124
 Alpha  occ. eigenvalues --   -3.35118  -3.35105  -3.35079  -3.35073  -3.35066
 Alpha  occ. eigenvalues --   -3.35003  -3.35001  -3.34688  -3.34603  -3.34567
 Alpha  occ. eigenvalues --   -3.34559  -3.34447  -3.34446  -3.34445  -3.34444
 Alpha  occ. eigenvalues --   -3.34378  -3.34378  -3.34333  -3.34332  -3.33998
 Alpha  occ. eigenvalues --   -3.33931  -3.33890  -3.33782  -3.33715  -3.33702
 Alpha  occ. eigenvalues --   -0.80986  -0.69996  -0.64485  -0.63239  -0.57115
 Alpha  occ. eigenvalues --   -0.49346  -0.47492  -0.43311  -0.40062  -0.39300
 Alpha  occ. eigenvalues --   -0.38538  -0.36824  -0.35354
 Alpha virt. eigenvalues --   -0.16123  -0.15308  -0.15065  -0.13798  -0.12529
 Alpha virt. eigenvalues --   -0.12291  -0.07277  -0.06444  -0.05308  -0.05057
 Alpha virt. eigenvalues --   -0.03742  -0.02823  -0.02488  -0.01110   0.00292
 Alpha virt. eigenvalues --    0.01135   0.01353   0.03148   0.03847   0.04217
 Alpha virt. eigenvalues --    0.04472   0.04505   0.05721   0.06047   0.07312
 Alpha virt. eigenvalues --    0.07552   0.08143   0.09134   0.09191   0.09674
 Alpha virt. eigenvalues --    0.10996   0.11079   0.11485   0.13013   0.13502
 Alpha virt. eigenvalues --    0.13531   0.13686   0.14714   0.14952   0.15583
 Alpha virt. eigenvalues --    0.16021   0.17370   0.17771   0.17921   0.19097
 Alpha virt. eigenvalues --    0.19583   0.19971   0.20488   0.20548   0.21538
 Alpha virt. eigenvalues --    0.22349   0.23174   0.23912   0.24004   0.24819
 Alpha virt. eigenvalues --    0.25248   0.25424   0.25884   0.27775   0.28340
 Alpha virt. eigenvalues --    0.29091   0.29508   0.30684   0.30848   0.32309
 Alpha virt. eigenvalues --    0.32950   0.34108   0.35054   0.35509   0.36668
 Alpha virt. eigenvalues --    0.36773   0.37452   0.38232   0.38469   0.38763
 Alpha virt. eigenvalues --    0.39325   0.41009   0.41383   0.41989   0.43874
 Alpha virt. eigenvalues --    0.45060   0.45431   0.45884   0.47640   0.47695
 Alpha virt. eigenvalues --    0.48521   0.48577   0.50087   0.50442   0.50942
 Alpha virt. eigenvalues --    0.51067   0.51306   0.52432   0.53017   0.53462
 Alpha virt. eigenvalues --    0.54088   0.54517   0.55625   0.56471   0.56641
 Alpha virt. eigenvalues --    0.58422   0.58515   0.58877   0.63504   0.63926
 Alpha virt. eigenvalues --    0.64403   0.66385   0.67697   0.68302   0.69258
 Alpha virt. eigenvalues --    0.69826   0.70011   0.71056   0.72103   0.72328
 Alpha virt. eigenvalues --    0.74176   0.75285   0.75851   0.76022   0.77771
 Alpha virt. eigenvalues --    0.78131   0.79114   0.80027   0.80142   0.80237
 Alpha virt. eigenvalues --    0.81109   0.81897   0.82330   0.82632   0.83540
 Alpha virt. eigenvalues --    0.84364   0.84864   0.85203   0.85623   0.85777
 Alpha virt. eigenvalues --    0.86601   0.87000   0.88038   0.88267   0.88404
 Alpha virt. eigenvalues --    0.90080   0.90242   0.91364   0.91509   0.93033
 Alpha virt. eigenvalues --    0.93124   0.93481   0.94014   0.95028   0.95833
 Alpha virt. eigenvalues --    0.96672   0.97971   0.98149   0.99086   0.99938
 Alpha virt. eigenvalues --    1.00137   1.02087   1.02986   1.03212   1.04645
 Alpha virt. eigenvalues --    1.05102   1.06137   1.06648   1.07190   1.08833
 Alpha virt. eigenvalues --    1.09746   1.10864   1.10974   1.12146   1.12256
 Alpha virt. eigenvalues --    1.12492   1.12793   1.14386   1.14973   1.16340
 Alpha virt. eigenvalues --    1.16944   1.18818   1.19964   1.20473   1.21578
 Alpha virt. eigenvalues --    1.22301   1.23210   1.23296   1.23997   1.24894
 Alpha virt. eigenvalues --    1.25396   1.25729   1.26725   1.27282   1.28941
 Alpha virt. eigenvalues --    1.29104   1.29612   1.31239   1.31658   1.32597
 Alpha virt. eigenvalues --    1.32658   1.35207   1.35648   1.35718   1.36903
 Alpha virt. eigenvalues --    1.37304   1.37500   1.39334   1.39368   1.41422
 Alpha virt. eigenvalues --    1.41450   1.41830   1.43234   1.46504   1.47325
 Alpha virt. eigenvalues --    1.48511   1.51679   2.18058   2.26065   2.29476
 Alpha virt. eigenvalues --    2.30867   2.33356   2.33826   2.36909   2.38130
 Alpha virt. eigenvalues --    2.42433   2.42900   2.44577   2.46784   2.52221
 Alpha virt. eigenvalues --    2.55104   2.56121   2.56402   2.58383   2.59835
 Alpha virt. eigenvalues --    2.63704   2.67371   2.71691   2.79048   2.82237
 Alpha virt. eigenvalues --    2.86883   2.88446   2.98204   2.99967   3.12349
 Alpha virt. eigenvalues --    3.15630   3.23530   3.37679   3.40340   3.49051
 Alpha virt. eigenvalues --    3.54129   3.55048   3.75586
          Condensed to atoms (all electrons):
               1          2          3          4          5          6
     1  Al  12.217497  -0.010639  -0.019626   0.001622  -0.001601   0.234243
     2  Al  -0.010639  12.428537   0.096029   0.119964  -0.006811   0.092698
     3  Al  -0.019626   0.096029  12.225987   0.091201   0.139955   0.001386
     4  Al   0.001622   0.119964   0.091201  12.406268   0.186594  -0.006834
     5  Al  -0.001601  -0.006811   0.139955   0.186594  12.206201  -0.002438
     6  Al   0.234243   0.092698   0.001386  -0.006834  -0.002438  12.223553
     7  Al   0.157202   0.013857   0.147377  -0.010198   0.190747   0.015584
     8  Al   0.234243   0.092698   0.260044  -0.006834  -0.002438   0.022899
     9  Al  -0.019626   0.096029   0.003711   0.091201   0.139955   0.260044
               7          8          9
     1  Al   0.157202   0.234243  -0.019626
     2  Al   0.013857   0.092698   0.096029
     3  Al   0.147377   0.260044   0.003711
     4  Al  -0.010198  -0.006834   0.091201
     5  Al   0.190747  -0.002438   0.139955
     6  Al   0.015584   0.022899   0.260044
     7  Al  12.309244   0.015584   0.147377
     8  Al   0.015584  12.223553   0.001386
     9  Al   0.147377   0.001386  12.225987
 Mulliken charges:
               1
     1  Al   0.206684
     2  Al   0.077637
     3  Al   0.053935
     4  Al   0.127017
     5  Al   0.149835
     6  Al   0.158864
     7  Al   0.013228
     8  Al   0.158864
     9  Al   0.053935
 Sum of Mulliken charges =   1.00000
 Mulliken charges with hydrogens summed into heavy atoms:
               1
     1  Al   0.206684
     2  Al   0.077637
     3  Al   0.053935
     4  Al   0.127017
     5  Al   0.149835
     6  Al   0.158864
     7  Al   0.013228
     8  Al   0.158864
     9  Al   0.053935
 Electronic spatial extent (au):  <R**2>=           2663.1255
 Charge=              1.0000 electrons
 Dipole moment (field-independent basis, Debye):
    X=              0.4102    Y=              0.2494    Z=              0.0000  Tot=              0.4801
 Quadrupole moment (field-independent basis, Debye-Ang):
   XX=            -97.9274   YY=            -84.8492   ZZ=            -93.6688
   XY=              1.4443   XZ=              0.0000   YZ=              0.0000
 Traceless Quadrupole moment (field-independent basis, Debye-Ang):
   XX=             -5.7789   YY=              7.2993   ZZ=             -1.5203
   XY=              1.4443   XZ=              0.0000   YZ=              0.0000
 Octapole moment (field-independent basis, Debye-Ang**2):
  XXX=              5.1149  YYY=              6.3410  ZZZ=              0.0000  XYY=             19.9829
  XXY=              2.4093  XXZ=              0.0000  XZZ=             -5.5220  YZZ=              1.8865
  YYZ=              0.0000  XYZ=              0.0000
 Hexadecapole moment (field-independent basis, Debye-Ang**3):
 XXXX=          -1116.7671 YYYY=          -2155.9677 ZZZZ=           -925.4440 XXXY=           -220.8714
 XXXZ=              0.0000 YYYX=           -128.8186 YYYZ=              0.0000 ZZZX=              0.0000
 ZZZY=              0.0000 XXYY=           -497.5454 XXZZ=           -385.4314 YYZZ=           -539.6697
 XXYZ=              0.0000 YYXZ=              0.0000 ZZXY=            -84.8905
 N-N= 9.836729460218D+02 E-N=-7.158847580259D+03  KE= 2.177230297242D+03
 Symmetry A'   KE= 1.592999213108D+03
 Symmetry A"   KE= 5.842310841333D+02

 Test job not archived.
 1\1\GINC-R1I0N14\SP\RCCSD(T)-FC\CC-pVTZ\Al9(1+)\VSC31064\03-Oct-2016\0
 \\# CCSD(T,conver=5)/cc-pVTZ test geom=allcheck guess=read\\Al9-c-s\\1
 ,1\Al,0,0.59314399,-3.23146002,0.\Al,0,-1.90179088,0.39889007,0.\Al,0,
 0.1042612,0.82838786,-1.74199689\Al,0,-0.82168278,2.90828103,0.\Al,0,1
 .67388319,2.13875394,0.\Al,0,-0.65538094,-1.65588185,1.63020385\Al,0,1
 .55696109,-0.55966306,0.\Al,0,-0.65538094,-1.65588185,-1.63020385\Al,0
 ,0.1042612,0.82838786,1.74199689\\Version=ES64L-G09RevD.01\State=1-A'\
 HF=-2177.0395549\MP2=-2177.8161786\MP3=-2177.753845\MP4D=-2177.8287352
 \MP4DQ=-2177.7667168\MP4SDQ=-2177.7797587\CCSD=-2177.7665873\CCSD(T)=-
 2177.8635983\RMSD=7.292e-09\PG=CS [SG(Al5),X(Al4)]\\@


 At the touch of love, everyone becomves a poet.
                                -- Plato
 Job cpu time:       0 days  4 hours 40 minutes 20.1 seconds.
 File lengths (MBytes):  RWF=   5467 Int=      0 D2E=      0 Chk=      5 Scr=      1
 Normal termination of Gaussian 09 at Mon Oct  3 10:49:02 2016.
