#INFO: **** input file is /home/ltkoanh/Al_B2LYP_6311_Gd_Cluster/Cluster/Al14-cation-doublet/input.py ****
import numpy
from pyscf import gto, scf, dft, mp, cc
from pyscf.mp import uobmp2_mom_conv, dfuobmp2_mom_conv, uhf_mom
from pyscf.mp import  mp2, ump2
from pyscf.tools import molden
import os
from functools import reduce


mol = gto.Mole()
geom = os.environ.get('geom_txt')
mol.atom = geom
mol.basis = os.environ.get('basis', 'cc-pvdz')
mol.unit = 'A'
mol.charge = int(os.environ.get('charge', 0))
mol.spin = int(os.environ.get('spin', 0))
mol.verbose = 4
mol.build()

#################### Ground state using density fitting
### Hartree-Fock
a  = scf.UHF(mol).density_fit()
a.kernel()

### Ground state OBMP2 calculation
ob = dfuobmp2_mom_conv.DFUOBMP2(a)
ob.second_order = True
ob.thresh = 10e-6
ob.css = 1
ob.cos = 1
e_obmp2g = ob.kernel()

### Ground state O2BMP2 calculation
ob = dfuobmp2_mom_conv.DFUOBMP2(a)
ob.second_order = True
ob.thresh = 10e-6
ob.css = 0                             
ob.cos = 1.2                             
e_o2bmp2g = ob.kernel()  

#################### Ground state NOT using density fitting
### Hartree-Fock
a  = scf.UHF(mol)
a.kernel()

### Ground state OBMP2 calculation
ob = uobmp2_mom_conv.UOBMP2(a)
ob.second_order = True
ob.thresh = 10e-6
ob.css = 1
ob.cos = 1
#e_obmp2g = ob.kernel()

### Ground state O2BMP2 calculation
ob = uobmp2_mom_conv.UOBMP2(a)
ob.second_order = True
ob.thresh = 10e-6
ob.css = 0
ob.cos = 1.2   ## the cos can be vary ...                        	 
#e_o2bmp2g = ob.kernel()


## Results from density-fitting approximate with non-using density fitting 
## check results between df and non-df with small molecules before running the important molecules
#INFO: ******************** input file end ********************


System: uname_result(system='Linux', node='comphys', release='3.10.0-1160.119.1.el7.x86_64', version='#1 SMP Tue Jun 4 14:43:51 UTC 2024', machine='x86_64', processor='x86_64')  Threads 8
Python 3.7.9 (default, Dec  4 2023, 13:00:18) 
[GCC 4.8.5 20150623 (Red Hat 4.8.5-44)]
numpy 1.21.6  scipy 1.7.3
Date: Tue May 27 18:39:58 2025
PySCF version 1.7.0
PySCF path  /share/installs/pyscf/pyscf
GIT HEAD      ref: refs/heads/ob-mp2
GIT ob-mp2 branch  f0fc63383ab6c719c0c91f5e07a6895c637b700d

[CONFIG] conf_file None
[INPUT] verbose = 4
[INPUT] num. atoms = 14
[INPUT] num. electrons = 181
[INPUT] charge = 1
[INPUT] spin (= nelec alpha-beta = 2S) = 1
[INPUT] symmetry False subgroup None
[INPUT] Mole.unit = A
[INPUT]  1 Al    -1.007256000000  -0.866995000000   2.505617000000 AA   -1.903437977325  -1.638383101367   4.734929903054 Bohr
[INPUT]  2 Al    -2.826028000000  -0.453676000000   0.035608000000 AA   -5.340418940352  -0.857323389288   0.067289367844 Bohr
[INPUT]  3 Al    -0.830976000000  -2.533193000000   0.472480000000 AA   -1.570317056087  -4.787040990665   0.892857799335 Bohr
[INPUT]  4 Al     1.492179000000  -1.428378000000   1.640281000000 AA    2.819809638827  -2.699243222354   3.099681857328 Bohr
[INPUT]  5 Al    -1.597558000000   0.821703000000  -2.239628000000 AA   -3.018947088108   1.552793625733  -4.232283540907 Bohr
[INPUT]  6 Al    -0.999818000000  -1.698215000000  -2.033172000000 AA   -1.889382194410  -3.209161250628  -3.842138244134 Bohr
[INPUT]  7 Al     1.479160000000  -1.940954000000  -1.007219000000 AA    2.795207294412  -3.667871480379  -1.903368057458 Bohr
[INPUT]  8 Al     1.121549000000   0.389022000000  -2.347810000000 AA    2.119420445280   0.735145036431  -4.436717892515 Bohr
[INPUT]  9 Al    -1.683706000000   1.524795000000   1.756596000000 AA   -3.181743214287   2.881444946106   3.319485351506 Bohr
[INPUT] 10 Al    -0.932921000000   2.692493000000  -0.493604000000 AA   -1.762965185855   5.088074362309  -0.932776373990 Bohr
[INPUT] 11 Al     1.676261000000   2.189588000000  -0.373484000000 AA    3.167674203290   4.137721645634  -0.705782471907 Bohr
[INPUT] 12 Al     3.193536000000   0.020865000000   0.004435000000 AA    6.034908408939   0.039429135589   0.008380935362 Bohr
[INPUT] 13 Al    -0.130555000000   0.067496000000  -0.012643000000 AA   -0.246713194193   0.127548954504  -0.023891807393 Bohr
[INPUT] 14 Al     1.046133000000   1.215448000000   2.092543000000 AA    1.976904859870   2.296863838650   3.954333173876 Bohr

nuclear repulsion = 2295.82709030929
number of shells = 70
number of NR pGTOs = 756
number of NR cGTOs = 126
basis = sto-6g
ecp = {}
CPU time:         1.39


******** <class 'pyscf.df.df_jk.density_fit.<locals>.DFHF'> ********
method = DFHF-UHF
initial guess = minao
damping factor = 0
level_shift factor = 0
DIIS = <class 'pyscf.scf.diis.CDIIS'>
diis_start_cycle = 1
diis_space = 8
SCF conv_tol = 1e-09
SCF conv_tol_grad = None
SCF max_cycles = 50
direct_scf = True
direct_scf_tol = 1e-13
chkfile to save SCF result = /home/ltkoanh/Al_B2LYP_6311_Gd_Cluster/Cluster/Al14-cation-doublet/tmp6veca9tv
max_memory 4000 MB (current use 60 MB)
number electrons alpha = 91  beta = 90
Set gradient conv threshold to 3.16228e-05
******** <class 'pyscf.df.df.DF'> ********
auxbasis = None
max_memory = 4000
_cderi_to_save = /home/ltkoanh/Al_B2LYP_6311_Gd_Cluster/Cluster/Al14-cation-doublet/tmpiz1m7mcp
Even tempered Gaussians are generated as DF auxbasis for  Al
init E= -3375.69964681666
  alpha nocc = 91  HOMO = -0.232403200545249  LUMO = -0.209804468941851
  beta  nocc = 90  HOMO = -0.302660951900565  LUMO = -0.232403200545247

WARN: system HOMO -0.232403200545247 >= system LUMO -0.232403200545247

cycle= 1 E= -3372.78652182768  delta_E= 2.91  |g|= 0.254  |ddm|= 4.15
  alpha nocc = 91  HOMO = -0.0815607888479  LUMO = 0.0877385103219627
  beta  nocc = 90  HOMO = -0.0792508520320717  LUMO = 0.0827071901238121
cycle= 2 E= -3372.81718860969  delta_E= -0.0307  |g|= 0.201  |ddm|= 0.786
  alpha nocc = 91  HOMO = -0.110587413267442  LUMO = 0.071036595150527
  beta  nocc = 90  HOMO = -0.120737453960816  LUMO = 0.0682889364532728
cycle= 3 E= -3372.85008379976  delta_E= -0.0329  |g|= 0.0567  |ddm|= 0.368
  alpha nocc = 91  HOMO = -0.117669590832339  LUMO = 0.0669085845115667
  beta  nocc = 90  HOMO = -0.124027986895266  LUMO = 0.0686886994940036
cycle= 4 E= -3372.85365132706  delta_E= -0.00357  |g|= 0.0408  |ddm|= 0.164
  alpha nocc = 91  HOMO = -0.122012420050708  LUMO = 0.0691832257483255
  beta  nocc = 90  HOMO = -0.122573766191526  LUMO = 0.0733573486652804
cycle= 5 E= -3372.85709966319  delta_E= -0.00345  |g|= 0.0145  |ddm|= 0.143
  alpha nocc = 91  HOMO = -0.12594736284506  LUMO = 0.0694997086800408
  beta  nocc = 90  HOMO = -0.121551543247913  LUMO = 0.0766884812787459
cycle= 6 E= -3372.85840742893  delta_E= -0.00131  |g|= 0.0108  |ddm|= 0.124
  alpha nocc = 91  HOMO = -0.126916371889959  LUMO = 0.0696378685748563
  beta  nocc = 90  HOMO = -0.121445334957111  LUMO = 0.077577468559193
cycle= 7 E= -3372.85876494779  delta_E= -0.000358  |g|= 0.00847  |ddm|= 0.0469
  alpha nocc = 91  HOMO = -0.128077237997283  LUMO = 0.0697345320607712
  beta  nocc = 90  HOMO = -0.121089882924087  LUMO = 0.0788171298548686
cycle= 8 E= -3372.85924664241  delta_E= -0.000482  |g|= 0.00599  |ddm|= 0.0715
  alpha nocc = 91  HOMO = -0.12873086543889  LUMO = 0.0697323170460166
  beta  nocc = 90  HOMO = -0.121170568540279  LUMO = 0.0794512848750094
cycle= 9 E= -3372.85954427936  delta_E= -0.000298  |g|= 0.00558  |ddm|= 0.0496
  alpha nocc = 91  HOMO = -0.12944927768221  LUMO = 0.0698197517663871
  beta  nocc = 90  HOMO = -0.121674019136765  LUMO = 0.0802936747015116
cycle= 10 E= -3372.86000691978  delta_E= -0.000463  |g|= 0.00535  |ddm|= 0.08
  alpha nocc = 91  HOMO = -0.129623179537786  LUMO = 0.0697684515384919
  beta  nocc = 90  HOMO = -0.121892988302602  LUMO = 0.0806692547474676
cycle= 11 E= -3372.86022836138  delta_E= -0.000221  |g|= 0.00537  |ddm|= 0.0382
  alpha nocc = 91  HOMO = -0.129731738189761  LUMO = 0.0697645323711636
  beta  nocc = 90  HOMO = -0.122013108400933  LUMO = 0.0808100844539015
cycle= 12 E= -3372.86031744875  delta_E= -8.91e-05  |g|= 0.00534  |ddm|= 0.0153
  alpha nocc = 91  HOMO = -0.129730835598176  LUMO = 0.0697648676414835
  beta  nocc = 90  HOMO = -0.122012227880768  LUMO = 0.0808089616080515
cycle= 13 E= -3372.86031663423  delta_E= 8.15e-07  |g|= 0.00534  |ddm|= 0.000139
  alpha nocc = 91  HOMO = -0.129704295375206  LUMO = 0.0697584679212821
  beta  nocc = 90  HOMO = -0.121992992791357  LUMO = 0.0807680260336737
cycle= 14 E= -3372.86029313939  delta_E= 2.35e-05  |g|= 0.00534  |ddm|= 0.00408
  alpha nocc = 91  HOMO = -0.129437667760205  LUMO = 0.0699196858158173
  beta  nocc = 90  HOMO = -0.121696039016019  LUMO = 0.080412440679877
cycle= 15 E= -3372.85999559605  delta_E= 0.000298  |g|= 0.00523  |ddm|= 0.0528
  alpha nocc = 91  HOMO = -0.128901097911458  LUMO = 0.0700146264921534
  beta  nocc = 90  HOMO = -0.121332775851947  LUMO = 0.080081320014294
cycle= 16 E= -3372.85962768479  delta_E= 0.000368  |g|= 0.00499  |ddm|= 0.0817
  alpha nocc = 91  HOMO = -0.128961101985759  LUMO = 0.0701538809767163
  beta  nocc = 90  HOMO = -0.121263035990596  LUMO = 0.0800844666078011
cycle= 17 E= -3372.85956752314  delta_E= 6.02e-05  |g|= 0.00489  |ddm|= 0.0377
  alpha nocc = 91  HOMO = -0.12908214879038  LUMO = 0.0701766344663256
  beta  nocc = 90  HOMO = -0.12128977636877  LUMO = 0.0801694987028226
cycle= 18 E= -3372.85962997509  delta_E= -6.25e-05  |g|= 0.00489  |ddm|= 0.0162
  alpha nocc = 91  HOMO = -0.129174426697003  LUMO = 0.0701647817099708
  beta  nocc = 90  HOMO = -0.121352565497074  LUMO = 0.0802450004204896
cycle= 19 E= -3372.85969028929  delta_E= -6.03e-05  |g|= 0.00489  |ddm|= 0.0114
  alpha nocc = 91  HOMO = -0.128965937962641  LUMO = 0.0702425119898693
  beta  nocc = 90  HOMO = -0.121174104585017  LUMO = 0.0800357071826214
cycle= 20 E= -3372.85952104142  delta_E= 0.000169  |g|= 0.00486  |ddm|= 0.0322
  alpha nocc = 91  HOMO = -0.128719354764076  LUMO = 0.0703216301741704
  beta  nocc = 90  HOMO = -0.120927105880012  LUMO = 0.0796511816799409
cycle= 21 E= -3372.85925075761  delta_E= 0.00027  |g|= 0.00478  |ddm|= 0.0534
  alpha nocc = 91  HOMO = -0.128463914508878  LUMO = 0.0704776970950194
  beta  nocc = 90  HOMO = -0.120637735092829  LUMO = 0.0793588192906723
cycle= 22 E= -3372.85901921953  delta_E= 0.000232  |g|= 0.00473  |ddm|= 0.0482
  alpha nocc = 91  HOMO = -0.128240836936194  LUMO = 0.0707012559141778
  beta  nocc = 90  HOMO = -0.120391886167902  LUMO = 0.0790940651998993
cycle= 23 E= -3372.85880588366  delta_E= 0.000213  |g|= 0.00469  |ddm|= 0.0458
  alpha nocc = 91  HOMO = -0.12810294915799  LUMO = 0.0705927987957815
  beta  nocc = 90  HOMO = -0.120113845931928  LUMO = 0.0787283164399887
cycle= 24 E= -3372.85863929892  delta_E= 0.000167  |g|= 0.00458  |ddm|= 0.038
  alpha nocc = 91  HOMO = -0.127868725843779  LUMO = 0.0708424194333778
  beta  nocc = 90  HOMO = -0.119783200693935  LUMO = 0.0784059382268664
cycle= 25 E= -3372.85841344242  delta_E= 0.000226  |g|= 0.00439  |ddm|= 0.0551
  alpha nocc = 91  HOMO = -0.127676006786112  LUMO = 0.0716231798551445
  beta  nocc = 90  HOMO = -0.119681520974977  LUMO = 0.0781559605257377
cycle= 26 E= -3372.85813684283  delta_E= 0.000277  |g|= 0.00411  |ddm|= 0.0827
  alpha nocc = 91  HOMO = -0.127155508541763  LUMO = 0.0734747099405646
  beta  nocc = 90  HOMO = -0.119304580806905  LUMO = 0.0778724551049505
cycle= 27 E= -3372.85768777076  delta_E= 0.000449  |g|= 0.00406  |ddm|= 0.174
  alpha nocc = 91  HOMO = -0.126981429589763  LUMO = 0.0741139689217909
  beta  nocc = 90  HOMO = -0.119239704094005  LUMO = 0.0776580097987513
cycle= 28 E= -3372.85754869258  delta_E= 0.000139  |g|= 0.00392  |ddm|= 0.0741
  alpha nocc = 91  HOMO = -0.126830191312423  LUMO = 0.0735991949041682
  beta  nocc = 90  HOMO = -0.118898614850162  LUMO = 0.0771894113111345
cycle= 29 E= -3372.85761188028  delta_E= -6.32e-05  |g|= 0.00357  |ddm|= 0.0246
  alpha nocc = 91  HOMO = -0.126862611988013  LUMO = 0.0741293445075663
  beta  nocc = 90  HOMO = -0.118850020003284  LUMO = 0.0771780070518613
cycle= 30 E= -3372.85765179506  delta_E= -3.99e-05  |g|= 0.00355  |ddm|= 0.0354
  alpha nocc = 91  HOMO = -0.126975861783498  LUMO = 0.0740353926745018
  beta  nocc = 90  HOMO = -0.118937484379897  LUMO = 0.077078722237343
cycle= 31 E= -3372.85774625156  delta_E= -9.45e-05  |g|= 0.00353  |ddm|= 0.0251
  alpha nocc = 91  HOMO = -0.126931553802391  LUMO = 0.0742322879006839
  beta  nocc = 90  HOMO = -0.118932824102347  LUMO = 0.0771156973860681
cycle= 32 E= -3372.85770080093  delta_E= 4.55e-05  |g|= 0.00355  |ddm|= 0.0164
  alpha nocc = 91  HOMO = -0.126914817222547  LUMO = 0.0743443622071996
  beta  nocc = 90  HOMO = -0.118947510373932  LUMO = 0.0772175743228027
cycle= 33 E= -3372.8576785294  delta_E= 2.23e-05  |g|= 0.0036  |ddm|= 0.00632
  alpha nocc = 91  HOMO = -0.126916914694332  LUMO = 0.0739602331599598
  beta  nocc = 90  HOMO = -0.118940312711904  LUMO = 0.0771734337439121
cycle= 34 E= -3372.85772521096  delta_E= -4.67e-05  |g|= 0.00354  |ddm|= 0.0223
  alpha nocc = 91  HOMO = -0.126931935183416  LUMO = 0.0737392751522165
  beta  nocc = 90  HOMO = -0.118938133574747  LUMO = 0.0771671842357763
cycle= 35 E= -3372.8577600955  delta_E= -3.49e-05  |g|= 0.00353  |ddm|= 0.016
  alpha nocc = 91  HOMO = -0.126814712010854  LUMO = 0.0738844946225206
  beta  nocc = 90  HOMO = -0.118882727905204  LUMO = 0.0770642823330973
cycle= 36 E= -3372.85771110418  delta_E= 4.9e-05  |g|= 0.00353  |ddm|= 0.025
  alpha nocc = 91  HOMO = -0.12676641444364  LUMO = 0.0739553873952933
  beta  nocc = 90  HOMO = -0.11884273330028  LUMO = 0.0770506511311877
cycle= 37 E= -3372.85769163656  delta_E= 1.95e-05  |g|= 0.00352  |ddm|= 0.00922
  alpha nocc = 91  HOMO = -0.126794494412094  LUMO = 0.0739210863121365
  beta  nocc = 90  HOMO = -0.118857537929715  LUMO = 0.0770425147714474
cycle= 38 E= -3372.85770976158  delta_E= -1.81e-05  |g|= 0.00355  |ddm|= 0.00647
  alpha nocc = 91  HOMO = -0.126724235616134  LUMO = 0.0742065544622151
  beta  nocc = 90  HOMO = -0.118812784567777  LUMO = 0.0768996235749563
cycle= 39 E= -3372.85766103574  delta_E= 4.87e-05  |g|= 0.00345  |ddm|= 0.0274
  alpha nocc = 91  HOMO = -0.126732148969359  LUMO = 0.0744096791808353
  beta  nocc = 90  HOMO = -0.118830381362494  LUMO = 0.0767545016297042
cycle= 40 E= -3372.85764600894  delta_E= 1.5e-05  |g|= 0.00342  |ddm|= 0.0197
  alpha nocc = 91  HOMO = -0.126739049251112  LUMO = 0.0750528372303913
  beta  nocc = 90  HOMO = -0.118792346105752  LUMO = 0.0765099322906973
cycle= 41 E= -3372.85762123401  delta_E= 2.48e-05  |g|= 0.00331  |ddm|= 0.0456
  alpha nocc = 91  HOMO = -0.126787083139125  LUMO = 0.0755012225101336
  beta  nocc = 90  HOMO = -0.118823591716636  LUMO = 0.0762304146925674
cycle= 42 E= -3372.85763339023  delta_E= -1.22e-05  |g|= 0.00329  |ddm|= 0.0366
  alpha nocc = 91  HOMO = -0.126788924466528  LUMO = 0.0757391645936372
  beta  nocc = 90  HOMO = -0.118849067128003  LUMO = 0.0761291721963326
cycle= 43 E= -3372.8576383975  delta_E= -5.01e-06  |g|= 0.00331  |ddm|= 0.0181
  alpha nocc = 91  HOMO = -0.126883608932069  LUMO = 0.0754883256477849
  beta  nocc = 90  HOMO = -0.11884815575129  LUMO = 0.076205786375577
cycle= 44 E= -3372.85764370947  delta_E= -5.31e-06  |g|= 0.00326  |ddm|= 0.0223
  alpha nocc = 91  HOMO = -0.12708541764474  LUMO = 0.0745085697940367
  beta  nocc = 90  HOMO = -0.118890287148439  LUMO = 0.0764807400019429
cycle= 45 E= -3372.85771706182  delta_E= -7.34e-05  |g|= 0.00311  |ddm|= 0.0868
  alpha nocc = 91  HOMO = -0.127205473798742  LUMO = 0.0744139963434749
  beta  nocc = 90  HOMO = -0.118834790800566  LUMO = 0.0765758224800021
cycle= 46 E= -3372.85777751546  delta_E= -6.05e-05  |g|= 0.00312  |ddm|= 0.0248
  alpha nocc = 91  HOMO = -0.127365074357457  LUMO = 0.0742053914086957
  beta  nocc = 90  HOMO = -0.118956961921366  LUMO = 0.0765123106705742
cycle= 47 E= -3372.85785380616  delta_E= -7.63e-05  |g|= 0.00305  |ddm|= 0.0279
  alpha nocc = 91  HOMO = -0.127461062510181  LUMO = 0.0741752756715626
  beta  nocc = 90  HOMO = -0.119009015482117  LUMO = 0.0764968994730535
cycle= 48 E= -3372.8578974463  delta_E= -4.36e-05  |g|= 0.00305  |ddm|= 0.0146
  alpha nocc = 91  HOMO = -0.127458015567726  LUMO = 0.0741128474494265
  beta  nocc = 90  HOMO = -0.119014115353808  LUMO = 0.0765629816033499
cycle= 49 E= -3372.85791163693  delta_E= -1.42e-05  |g|= 0.00306  |ddm|= 0.0068
  alpha nocc = 91  HOMO = -0.127425773472561  LUMO = 0.0741887800613999
  beta  nocc = 90  HOMO = -0.118983471797176  LUMO = 0.0765203829115862
cycle= 50 E= -3372.8578913958  delta_E= 2.02e-05  |g|= 0.00305  |ddm|= 0.00836
SCF not converged.
SCF energy = -3372.8578913958 after 50 cycles  <S^2> = 0.95647279  2S+1 = 2.1967911
shift = 0
thresh = 1e-05 
eri1 (1582, 8001)
eri1 (1582, 8001)
    CPU time for making amplitude: integral transform      1.60 sec, wall time      0.13 sec
shape (1582, 4410)
1st memory: 748.5 MiB
eri1 (1582, 8001)
eri1 (1582, 8001)
2nd memory: 543.1 MiB

========================
iter = 0  energy = -3373.783527 energy diff = 3373.783527
multiplicity <S^2> : Reference = 0.95647279 Response = 0.95627088 Projector = 0.95606897
eri1 (1582, 8001)
eri1 (1582, 8001)
    CPU time for making amplitude: integral transform      1.75 sec, wall time      0.14 sec
shape (1582, 4410)
1st memory: 743.4 MiB
eri1 (1582, 8001)
eri1 (1582, 8001)
2nd memory: 541.7 MiB

========================
iter = 1  energy = -3373.784244 energy diff = 0.000717
multiplicity <S^2> : Reference = 0.87534567 Response = 0.87540423 Projector = 0.87546279
eri1 (1582, 8001)
eri1 (1582, 8001)
    CPU time for making amplitude: integral transform      1.78 sec, wall time      0.15 sec
shape (1582, 4410)
1st memory: 780.9 MiB
eri1 (1582, 8001)
eri1 (1582, 8001)
2nd memory: 546.2 MiB

========================
iter = 2  energy = -3373.792867 energy diff = 0.008623
multiplicity <S^2> : Reference = 0.83981101 Response = 0.83982365 Projector = 0.8398363
eri1 (1582, 8001)
eri1 (1582, 8001)
    CPU time for making amplitude: integral transform      1.70 sec, wall time      0.14 sec
shape (1582, 4410)
1st memory: 785.4 MiB
eri1 (1582, 8001)
eri1 (1582, 8001)
2nd memory: 545.6 MiB

========================
iter = 3  energy = -3373.797170 energy diff = 0.004303
multiplicity <S^2> : Reference = 0.81254891 Response = 0.81257072 Projector = 0.81259252
eri1 (1582, 8001)
eri1 (1582, 8001)
    CPU time for making amplitude: integral transform      1.55 sec, wall time      0.12 sec
shape (1582, 4410)
1st memory: 825.9 MiB
eri1 (1582, 8001)
eri1 (1582, 8001)
2nd memory: 548.7 MiB

========================
iter = 4  energy = -3373.800138 energy diff = 0.002968
multiplicity <S^2> : Reference = 0.78533367 Response = 0.78533843 Projector = 0.78534319
eri1 (1582, 8001)
eri1 (1582, 8001)
    CPU time for making amplitude: integral transform      1.54 sec, wall time      0.12 sec
shape (1582, 4410)
1st memory: 769.8 MiB
eri1 (1582, 8001)
eri1 (1582, 8001)
2nd memory: 545.8 MiB

========================
iter = 5  energy = -3373.800807 energy diff = 0.000668
multiplicity <S^2> : Reference = 0.77837975 Response = 0.77840897 Projector = 0.77843819
eri1 (1582, 8001)
eri1 (1582, 8001)
    CPU time for making amplitude: integral transform      1.49 sec, wall time      0.11 sec
shape (1582, 4410)
1st memory: 824.9 MiB
eri1 (1582, 8001)
eri1 (1582, 8001)
2nd memory: 542.9 MiB

========================
iter = 6  energy = -3373.801039 energy diff = 0.000233
multiplicity <S^2> : Reference = 0.77438908 Response = 0.77441455 Projector = 0.77444002
eri1 (1582, 8001)
eri1 (1582, 8001)
    CPU time for making amplitude: integral transform      1.49 sec, wall time      0.11 sec
shape (1582, 4410)
1st memory: 769.3 MiB
eri1 (1582, 8001)
eri1 (1582, 8001)
2nd memory: 547.4 MiB

========================
iter = 7  energy = -3373.801218 energy diff = 0.000179
multiplicity <S^2> : Reference = 0.77140692 Response = 0.77139515 Projector = 0.77138338
eri1 (1582, 8001)
eri1 (1582, 8001)
    CPU time for making amplitude: integral transform      1.60 sec, wall time      0.12 sec
shape (1582, 4410)
1st memory: 827.1 MiB
eri1 (1582, 8001)
eri1 (1582, 8001)
2nd memory: 551.2 MiB

========================
iter = 8  energy = -3373.801327 energy diff = 0.000108
multiplicity <S^2> : Reference = 0.77018953 Response = 0.7702317 Projector = 0.77027386
eri1 (1582, 8001)
eri1 (1582, 8001)
    CPU time for making amplitude: integral transform      1.51 sec, wall time      0.11 sec
shape (1582, 4410)
1st memory: 769.2 MiB
eri1 (1582, 8001)
eri1 (1582, 8001)
2nd memory: 549.4 MiB

========================
iter = 9  energy = -3373.801349 energy diff = 0.000022
multiplicity <S^2> : Reference = 0.77113078 Response = 0.77113268 Projector = 0.77113459
eri1 (1582, 8001)
eri1 (1582, 8001)
    CPU time for making amplitude: integral transform      1.53 sec, wall time      0.12 sec
shape (1582, 4410)
1st memory: 828.9 MiB
eri1 (1582, 8001)
eri1 (1582, 8001)
2nd memory: 549.4 MiB

========================
iter = 10  energy = -3373.801317 energy diff = 0.000032
multiplicity <S^2> : Reference = 0.77273741 Response = 0.77274345 Projector = 0.7727495
eri1 (1582, 8001)
eri1 (1582, 8001)
    CPU time for making amplitude: integral transform      1.53 sec, wall time      0.12 sec
shape (1582, 4410)
1st memory: 769.4 MiB
eri1 (1582, 8001)
eri1 (1582, 8001)
2nd memory: 550.4 MiB

========================
iter = 11  energy = -3373.801307 energy diff = 0.000010
multiplicity <S^2> : Reference = 0.77346424 Response = 0.77347226 Projector = 0.77348028

UOB-MP2 has converged
UOB-MP2 energy =  -3373.801307012494
shift = 0
thresh = 1e-05 
eri1 (1582, 8001)
eri1 (1582, 8001)
    CPU time for making amplitude: integral transform      1.87 sec, wall time      0.16 sec
shape (1582, 4410)
1st memory: 737.9 MiB
eri1 (1582, 8001)
eri1 (1582, 8001)
2nd memory: 544.0 MiB

========================
iter = 0  energy = -3373.462999 energy diff = 3373.462999
multiplicity <S^2> : Reference = 0.95647279 Response = 0.95627088 Projector = 0.95606897
eri1 (1582, 8001)
eri1 (1582, 8001)
    CPU time for making amplitude: integral transform      1.59 sec, wall time      0.12 sec
shape (1582, 4410)
1st memory: 742.9 MiB
eri1 (1582, 8001)
eri1 (1582, 8001)
2nd memory: 544.8 MiB

========================
iter = 1  energy = -3373.496064 energy diff = 0.033066
multiplicity <S^2> : Reference = 0.88237493 Response = 0.88241876 Projector = 0.88246259
eri1 (1582, 8001)
eri1 (1582, 8001)
    CPU time for making amplitude: integral transform      1.65 sec, wall time      0.13 sec
shape (1582, 4410)
1st memory: 784.0 MiB
eri1 (1582, 8001)
eri1 (1582, 8001)
2nd memory: 544.2 MiB

========================
iter = 2  energy = -3373.500810 energy diff = 0.004746
multiplicity <S^2> : Reference = 0.84564575 Response = 0.84567991 Projector = 0.84571406
eri1 (1582, 8001)
eri1 (1582, 8001)
    CPU time for making amplitude: integral transform      1.42 sec, wall time      0.10 sec
shape (1582, 4410)
1st memory: 782.9 MiB
eri1 (1582, 8001)
eri1 (1582, 8001)
2nd memory: 546.7 MiB

========================
iter = 3  energy = -3373.503003 energy diff = 0.002192
multiplicity <S^2> : Reference = 0.81895439 Response = 0.81899489 Projector = 0.81903538
eri1 (1582, 8001)
eri1 (1582, 8001)
    CPU time for making amplitude: integral transform      1.51 sec, wall time      0.11 sec
shape (1582, 4410)
1st memory: 826.2 MiB
eri1 (1582, 8001)
eri1 (1582, 8001)
2nd memory: 546.7 MiB

========================
iter = 4  energy = -3373.504888 energy diff = 0.001885
multiplicity <S^2> : Reference = 0.7909476 Response = 0.79093751 Projector = 0.79092741
eri1 (1582, 8001)
eri1 (1582, 8001)
    CPU time for making amplitude: integral transform      1.43 sec, wall time      0.10 sec
shape (1582, 4410)
1st memory: 769.2 MiB
eri1 (1582, 8001)
eri1 (1582, 8001)
2nd memory: 547.6 MiB

========================
iter = 5  energy = -3373.505267 energy diff = 0.000379
multiplicity <S^2> : Reference = 0.78368373 Response = 0.78368319 Projector = 0.78368265
eri1 (1582, 8001)
eri1 (1582, 8001)
    CPU time for making amplitude: integral transform      1.63 sec, wall time      0.13 sec
shape (1582, 4410)
1st memory: 827.1 MiB
eri1 (1582, 8001)
eri1 (1582, 8001)
2nd memory: 547.5 MiB

========================
iter = 6  energy = -3373.505551 energy diff = 0.000284
multiplicity <S^2> : Reference = 0.77817011 Response = 0.77818724 Projector = 0.77820437
eri1 (1582, 8001)
eri1 (1582, 8001)
    CPU time for making amplitude: integral transform      1.64 sec, wall time      0.13 sec
shape (1582, 4410)
1st memory: 769.6 MiB
eri1 (1582, 8001)
eri1 (1582, 8001)
2nd memory: 549.3 MiB

========================
iter = 7  energy = -3373.505688 energy diff = 0.000137
multiplicity <S^2> : Reference = 0.77629593 Response = 0.77635781 Projector = 0.77641968
eri1 (1582, 8001)
eri1 (1582, 8001)
    CPU time for making amplitude: integral transform      1.51 sec, wall time      0.11 sec
shape (1582, 4410)
1st memory: 828.8 MiB
eri1 (1582, 8001)
eri1 (1582, 8001)
2nd memory: 549.3 MiB

========================
iter = 8  energy = -3373.505770 energy diff = 0.000081
multiplicity <S^2> : Reference = 0.77704721 Response = 0.77704672 Projector = 0.77704624
eri1 (1582, 8001)
eri1 (1582, 8001)
    CPU time for making amplitude: integral transform      1.46 sec, wall time      0.11 sec
shape (1582, 4410)
1st memory: 769.8 MiB
eri1 (1582, 8001)
eri1 (1582, 8001)
2nd memory: 549.2 MiB

========================
iter = 9  energy = -3373.505760 energy diff = 0.000010
multiplicity <S^2> : Reference = 0.7798915 Response = 0.77989971 Projector = 0.77990792
eri1 (1582, 8001)
eri1 (1582, 8001)
    CPU time for making amplitude: integral transform      1.52 sec, wall time      0.11 sec
shape (1582, 4410)
1st memory: 829.0 MiB
eri1 (1582, 8001)
eri1 (1582, 8001)
2nd memory: 550.3 MiB

========================
iter = 10  energy = -3373.505730 energy diff = 0.000029
multiplicity <S^2> : Reference = 0.78212461 Response = 0.78213161 Projector = 0.78213862
eri1 (1582, 8001)
eri1 (1582, 8001)
    CPU time for making amplitude: integral transform      1.57 sec, wall time      0.12 sec
shape (1582, 4410)
1st memory: 769.8 MiB
eri1 (1582, 8001)
eri1 (1582, 8001)
2nd memory: 550.2 MiB

========================
iter = 11  energy = -3373.505724 energy diff = 0.000006
multiplicity <S^2> : Reference = 0.78260962 Response = 0.78259538 Projector = 0.78258114

UOB-MP2 has converged
UOB-MP2 energy =  -3373.5057242032367


******** <class 'pyscf.scf.uhf.UHF'> ********
method = UHF
initial guess = minao
damping factor = 0
level_shift factor = 0
DIIS = <class 'pyscf.scf.diis.CDIIS'>
diis_start_cycle = 1
diis_space = 8
SCF conv_tol = 1e-09
SCF conv_tol_grad = None
SCF max_cycles = 50
direct_scf = True
direct_scf_tol = 1e-13
chkfile to save SCF result = /home/ltkoanh/Al_B2LYP_6311_Gd_Cluster/Cluster/Al14-cation-doublet/tmppbkl75t5
max_memory 4000 MB (current use 246 MB)
number electrons alpha = 91  beta = 90
Set gradient conv threshold to 3.16228e-05
init E= -3375.70182447451
  alpha nocc = 91  HOMO = -0.232584959569681  LUMO = -0.209988006919221
  beta  nocc = 90  HOMO = -0.302898369266876  LUMO = -0.232584959569681

WARN: system HOMO -0.232584959569681 >= system LUMO -0.232584959569681

cycle= 1 E= -3372.79051290824  delta_E= 2.91  |g|= 0.254  |ddm|= 4.15
  alpha nocc = 91  HOMO = -0.0815685184800978  LUMO = 0.0876510044531376
  beta  nocc = 90  HOMO = -0.079239860417808  LUMO = 0.0826159941732278
cycle= 2 E= -3372.82126584258  delta_E= -0.0308  |g|= 0.202  |ddm|= 0.788
  alpha nocc = 91  HOMO = -0.110726272890276  LUMO = 0.0708770739130204
  beta  nocc = 90  HOMO = -0.120830772262445  LUMO = 0.0681469450293515
cycle= 3 E= -3372.85425013348  delta_E= -0.033  |g|= 0.0565  |ddm|= 0.369
  alpha nocc = 91  HOMO = -0.117784160586722  LUMO = 0.0667847497395523
  beta  nocc = 90  HOMO = -0.124101582276108  LUMO = 0.068586166698591
cycle= 4 E= -3372.85779206409  delta_E= -0.00354  |g|= 0.0409  |ddm|= 0.163
  alpha nocc = 91  HOMO = -0.12211537266886  LUMO = 0.069060592760002
  beta  nocc = 90  HOMO = -0.122652155760766  LUMO = 0.0732473281856273
cycle= 5 E= -3372.86123569797  delta_E= -0.00344  |g|= 0.0145  |ddm|= 0.143
  alpha nocc = 91  HOMO = -0.126061331345766  LUMO = 0.0693766838396289
  beta  nocc = 90  HOMO = -0.121632183975094  LUMO = 0.0765787106394883
cycle= 6 E= -3372.86254309468  delta_E= -0.00131  |g|= 0.0108  |ddm|= 0.124
  alpha nocc = 91  HOMO = -0.127027348940388  LUMO = 0.0695160681153763
  beta  nocc = 90  HOMO = -0.121525782039496  LUMO = 0.077468191514071
cycle= 7 E= -3372.86289984969  delta_E= -0.000357  |g|= 0.00848  |ddm|= 0.0469
  alpha nocc = 91  HOMO = -0.128188001998063  LUMO = 0.0696120534754974
  beta  nocc = 90  HOMO = -0.121169738553181  LUMO = 0.0787049267202329
cycle= 8 E= -3372.86338081366  delta_E= -0.000481  |g|= 0.006  |ddm|= 0.0714
  alpha nocc = 91  HOMO = -0.128844011484833  LUMO = 0.0696121023719145
  beta  nocc = 90  HOMO = -0.121248227539394  LUMO = 0.0793397070559236
cycle= 9 E= -3372.86367906604  delta_E= -0.000298  |g|= 0.00558  |ddm|= 0.0496
  alpha nocc = 91  HOMO = -0.129559076360291  LUMO = 0.0697009396510198
  beta  nocc = 90  HOMO = -0.121747791844394  LUMO = 0.0801795956053031
cycle= 10 E= -3372.86414146114  delta_E= -0.000462  |g|= 0.00536  |ddm|= 0.0799
  alpha nocc = 91  HOMO = -0.129731384588568  LUMO = 0.069651292267973
  beta  nocc = 90  HOMO = -0.121965617754891  LUMO = 0.0805540579927734
cycle= 11 E= -3372.86436284598  delta_E= -0.000221  |g|= 0.00538  |ddm|= 0.0381
  alpha nocc = 91  HOMO = -0.129836638803119  LUMO = 0.069647483670482
  beta  nocc = 90  HOMO = -0.122082864832884  LUMO = 0.0806890959760953
cycle= 12 E= -3372.86444901819  delta_E= -8.62e-05  |g|= 0.00535  |ddm|= 0.0147
  alpha nocc = 91  HOMO = -0.129833227144784  LUMO = 0.0696490282155472
  beta  nocc = 90  HOMO = -0.122078626523528  LUMO = 0.0806815605429782
cycle= 13 E= -3372.86444383382  delta_E= 5.18e-06  |g|= 0.00535  |ddm|= 0.000884
  alpha nocc = 91  HOMO = -0.129637825968523  LUMO = 0.069714846553422
  beta  nocc = 90  HOMO = -0.121847202352178  LUMO = 0.0803747983507645
cycle= 14 E= -3372.86421510469  delta_E= 0.000229  |g|= 0.00532  |ddm|= 0.0398
  alpha nocc = 91  HOMO = -0.129358573147363  LUMO = 0.0700175216568055
  beta  nocc = 90  HOMO = -0.121458508959653  LUMO = 0.0799924434506035
cycle= 15 E= -3372.86383132937  delta_E= 0.000384  |g|= 0.00514  |ddm|= 0.0714
  alpha nocc = 91  HOMO = -0.128945883848569  LUMO = 0.0700342558969467
  beta  nocc = 90  HOMO = -0.121204312763432  LUMO = 0.0796914725630204
cycle= 16 E= -3372.86353031098  delta_E= 0.000301  |g|= 0.00489  |ddm|= 0.0786
  alpha nocc = 91  HOMO = -0.128999382441606  LUMO = 0.0700908667618282
  beta  nocc = 90  HOMO = -0.12108857806366  LUMO = 0.0798058369350515
cycle= 17 E= -3372.86357501089  delta_E= -4.47e-05  |g|= 0.00484  |ddm|= 0.0267
  alpha nocc = 91  HOMO = -0.129156061984634  LUMO = 0.0700645118231051
  beta  nocc = 90  HOMO = -0.121205358008818  LUMO = 0.0799123073310719
cycle= 18 E= -3372.86367060525  delta_E= -9.56e-05  |g|= 0.00485  |ddm|= 0.0184
  alpha nocc = 91  HOMO = -0.129127140308463  LUMO = 0.0700709604702445
  beta  nocc = 90  HOMO = -0.121177631681664  LUMO = 0.0798817732088345
cycle= 19 E= -3372.86364445715  delta_E= 2.61e-05  |g|= 0.00485  |ddm|= 0.00491
  alpha nocc = 91  HOMO = -0.128809546606118  LUMO = 0.0701727427537097
  beta  nocc = 90  HOMO = -0.120917864374342  LUMO = 0.0795102359756918
cycle= 20 E= -3372.86332542735  delta_E= 0.000319  |g|= 0.00472  |ddm|= 0.0616
  alpha nocc = 91  HOMO = -0.128022856489713  LUMO = 0.0711745437329099
  beta  nocc = 90  HOMO = -0.12007060169236  LUMO = 0.078924283213118
cycle= 21 E= -3372.8624642394  delta_E= 0.000861  |g|= 0.00435  |ddm|= 0.189
  alpha nocc = 91  HOMO = -0.12745644712983  LUMO = 0.0731761341545962
  beta  nocc = 90  HOMO = -0.11963681965652  LUMO = 0.0784870382849347
cycle= 22 E= -3372.86161312337  delta_E= 0.000851  |g|= 0.00424  |ddm|= 0.242
  alpha nocc = 91  HOMO = -0.12729690828543  LUMO = 0.0727238224393473
  beta  nocc = 90  HOMO = -0.119339074755984  LUMO = 0.0782411625880863
cycle= 23 E= -3372.86162269598  delta_E= -9.57e-06  |g|= 0.00374  |ddm|= 0.0164
  alpha nocc = 91  HOMO = -0.126878384720937  LUMO = 0.0738501528031841
  beta  nocc = 90  HOMO = -0.119048758859222  LUMO = 0.0780242860355958
cycle= 24 E= -3372.86128460115  delta_E= 0.000338  |g|= 0.00407  |ddm|= 0.128
  alpha nocc = 91  HOMO = -0.126598930533062  LUMO = 0.0741648705915129
  beta  nocc = 90  HOMO = -0.118817896706434  LUMO = 0.0777250394200008
cycle= 25 E= -3372.8611950089  delta_E= 8.96e-05  |g|= 0.00363  |ddm|= 0.0638
  alpha nocc = 91  HOMO = -0.12635815140827  LUMO = 0.0742610019027816
  beta  nocc = 90  HOMO = -0.118618109813952  LUMO = 0.0774516687571533
cycle= 26 E= -3372.86117646727  delta_E= 1.85e-05  |g|= 0.00344  |ddm|= 0.0373
  alpha nocc = 91  HOMO = -0.126224064660605  LUMO = 0.0748756481323034
  beta  nocc = 90  HOMO = -0.118825837980599  LUMO = 0.0775284343851235
cycle= 27 E= -3372.86114243799  delta_E= 3.4e-05  |g|= 0.00372  |ddm|= 0.045
  alpha nocc = 91  HOMO = -0.126215421743951  LUMO = 0.0747879787502591
  beta  nocc = 90  HOMO = -0.118728442931499  LUMO = 0.0773355041616657
cycle= 28 E= -3372.86117520163  delta_E= -3.28e-05  |g|= 0.00354  |ddm|= 0.0112
  alpha nocc = 91  HOMO = -0.126234642549131  LUMO = 0.0745726114709842
  beta  nocc = 90  HOMO = -0.118552201894307  LUMO = 0.0771828434304998
cycle= 29 E= -3372.86125424482  delta_E= -7.9e-05  |g|= 0.0034  |ddm|= 0.0251
  alpha nocc = 91  HOMO = -0.126480849999835  LUMO = 0.0739703263217425
  beta  nocc = 90  HOMO = -0.118543136960901  LUMO = 0.0770141977586068
cycle= 30 E= -3372.86146821817  delta_E= -0.000214  |g|= 0.00321  |ddm|= 0.0777
  alpha nocc = 91  HOMO = -0.126819912303113  LUMO = 0.0742631178824189
  beta  nocc = 90  HOMO = -0.1187746019395  LUMO = 0.0770199069811112
cycle= 31 E= -3372.86157270004  delta_E= -0.000104  |g|= 0.00321  |ddm|= 0.0335
  alpha nocc = 91  HOMO = -0.126766446342352  LUMO = 0.0737718821894841
  beta  nocc = 90  HOMO = -0.1187118347415  LUMO = 0.0769913088505966
cycle= 32 E= -3372.86161766771  delta_E= -4.5e-05  |g|= 0.00321  |ddm|= 0.0274
  alpha nocc = 91  HOMO = -0.126677555081729  LUMO = 0.0741190184315466
  beta  nocc = 90  HOMO = -0.118658928126991  LUMO = 0.0768723305500677
cycle= 33 E= -3372.86155022676  delta_E= 6.74e-05  |g|= 0.0032  |ddm|= 0.0366
  alpha nocc = 91  HOMO = -0.126630768809466  LUMO = 0.0744422151054471
  beta  nocc = 90  HOMO = -0.11864777279523  LUMO = 0.0767664704213869
cycle= 34 E= -3372.86153510324  delta_E= 1.51e-05  |g|= 0.00322  |ddm|= 0.0285
  alpha nocc = 91  HOMO = -0.12662706871158  LUMO = 0.0745051188835661
  beta  nocc = 90  HOMO = -0.118640455829055  LUMO = 0.0767613523427721
cycle= 35 E= -3372.86152784048  delta_E= 7.26e-06  |g|= 0.00322  |ddm|= 0.00475
  alpha nocc = 91  HOMO = -0.126492603130617  LUMO = 0.0749176916868718
  beta  nocc = 90  HOMO = -0.118630259299703  LUMO = 0.0766811736442371
cycle= 36 E= -3372.86143971682  delta_E= 8.81e-05  |g|= 0.00319  |ddm|= 0.0421
  alpha nocc = 91  HOMO = -0.126252070738905  LUMO = 0.0756110289046748
  beta  nocc = 90  HOMO = -0.118550405908817  LUMO = 0.0765632739383352
cycle= 37 E= -3372.86133637634  delta_E= 0.000103  |g|= 0.00313  |ddm|= 0.0616
  alpha nocc = 91  HOMO = -0.126029367838798  LUMO = 0.0760127656769554
  beta  nocc = 90  HOMO = -0.118592780209586  LUMO = 0.0764558943945178
cycle= 38 E= -3372.86124244719  delta_E= 9.39e-05  |g|= 0.00318  |ddm|= 0.0521
  alpha nocc = 91  HOMO = -0.125867166311668  LUMO = 0.0764039208773322
  beta  nocc = 90  HOMO = -0.118594492817293  LUMO = 0.0763149474333157
cycle= 39 E= -3372.86120440202  delta_E= 3.8e-05  |g|= 0.00313  |ddm|= 0.0383
  alpha nocc = 91  HOMO = -0.125715115813401  LUMO = 0.0767883749342326
  beta  nocc = 90  HOMO = -0.1185803116176  LUMO = 0.0762110555894625
cycle= 40 E= -3372.8611657694  delta_E= 3.86e-05  |g|= 0.00313  |ddm|= 0.0348
  alpha nocc = 91  HOMO = -0.125668772268326  LUMO = 0.0762595865231921
  beta  nocc = 90  HOMO = -0.118463249633236  LUMO = 0.0759321985506897
cycle= 41 E= -3372.86124466187  delta_E= -7.89e-05  |g|= 0.00305  |ddm|= 0.033
  alpha nocc = 91  HOMO = -0.125903633495125  LUMO = 0.076409424973718
  beta  nocc = 90  HOMO = -0.118546001628691  LUMO = 0.0761641696248202
cycle= 42 E= -3372.86130671604  delta_E= -6.21e-05  |g|= 0.00302  |ddm|= 0.0294
  alpha nocc = 91  HOMO = -0.126124121351684  LUMO = 0.0763379172638571
  beta  nocc = 90  HOMO = -0.118702298660518  LUMO = 0.075941178304127
cycle= 43 E= -3372.86146038805  delta_E= -0.000154  |g|= 0.0028  |ddm|= 0.0652
  alpha nocc = 91  HOMO = -0.126708294925043  LUMO = 0.0756811952368988
  beta  nocc = 90  HOMO = -0.11890834160763  LUMO = 0.0761238268460914
cycle= 44 E= -3372.86169680523  delta_E= -0.000236  |g|= 0.00285  |ddm|= 0.109
  alpha nocc = 91  HOMO = -0.126713130848701  LUMO = 0.0756462030326184
  beta  nocc = 90  HOMO = -0.118905558101032  LUMO = 0.076123748341645
cycle= 45 E= -3372.86170199263  delta_E= -5.19e-06  |g|= 0.00285  |ddm|= 0.00343
  alpha nocc = 91  HOMO = -0.126796519586707  LUMO = 0.0755733356080597
  beta  nocc = 90  HOMO = -0.11894462874765  LUMO = 0.0761910448201284
cycle= 46 E= -3372.86173232985  delta_E= -3.03e-05  |g|= 0.00289  |ddm|= 0.0146
  alpha nocc = 91  HOMO = -0.126617512852539  LUMO = 0.0759658929638883
  beta  nocc = 90  HOMO = -0.118920199405421  LUMO = 0.0759549985806576
cycle= 47 E= -3372.86167211738  delta_E= 6.02e-05  |g|= 0.00283  |ddm|= 0.0417
  alpha nocc = 91  HOMO = -0.126210703056962  LUMO = 0.0794218478479882
  beta  nocc = 90  HOMO = -0.119435277841598  LUMO = 0.0757370048052022
cycle= 48 E= -3372.86133545262  delta_E= 0.000337  |g|= 0.0031  |ddm|= 0.239
  alpha nocc = 91  HOMO = -0.126098928079984  LUMO = 0.0808261585814272
  beta  nocc = 90  HOMO = -0.119846464061643  LUMO = 0.0757463979277465
cycle= 49 E= -3372.86116000764  delta_E= 0.000175  |g|= 0.00355  |ddm|= 0.0981
  alpha nocc = 91  HOMO = -0.126660501159911  LUMO = 0.0816524246457463
  beta  nocc = 90  HOMO = -0.120302398232679  LUMO = 0.0762818698252701
cycle= 50 E= -3372.8611314402  delta_E= 2.86e-05  |g|= 0.00458  |ddm|= 0.0149
SCF not converged.
SCF energy = -3372.8611314402 after 50 cycles  <S^2> = 1.3559945  2S+1 = 2.5345568
