#INFO: **** input file is /home/ltkoanh/Al_B2LYP_6311_Gd_Cluster/Cluster/Al17-cation-singlet/input.py ****
import numpy
from pyscf import gto, scf, dft, mp, cc
from pyscf.mp import uobmp2_mom_conv, dfuobmp2_mom_conv, uhf_mom
from pyscf.mp import  mp2, ump2
from pyscf.tools import molden
import os
from functools import reduce


mol = gto.Mole()
geom = os.environ.get('geom_txt')
mol.atom = geom
mol.basis = os.environ.get('basis', 'cc-pvdz')
mol.unit = 'A'
mol.charge = int(os.environ.get('charge', 0))
mol.spin = int(os.environ.get('spin', 0))
mol.verbose = 4
mol.build()

#################### Ground state using density fitting
### Hartree-Fock
a  = scf.UHF(mol).density_fit()
a.kernel()

### Ground state OBMP2 calculation
ob = dfuobmp2_mom_conv.DFUOBMP2(a)
ob.second_order = True
ob.thresh = 10e-6
ob.css = 1
ob.cos = 1
e_obmp2g = ob.kernel()

### Ground state O2BMP2 calculation
ob = dfuobmp2_mom_conv.DFUOBMP2(a)
ob.second_order = True
ob.thresh = 10e-6
ob.css = 0                             
ob.cos = 1.2                             
e_o2bmp2g = ob.kernel()  

#################### Ground state NOT using density fitting
### Hartree-Fock
a  = scf.UHF(mol)
a.kernel()

### Ground state OBMP2 calculation
ob = uobmp2_mom_conv.UOBMP2(a)
ob.second_order = True
ob.thresh = 10e-6
ob.css = 1
ob.cos = 1
#e_obmp2g = ob.kernel()

### Ground state O2BMP2 calculation
ob = uobmp2_mom_conv.UOBMP2(a)
ob.second_order = True
ob.thresh = 10e-6
ob.css = 0
ob.cos = 1.2   ## the cos can be vary ...                        	 
#e_o2bmp2g = ob.kernel()


## Results from density-fitting approximate with non-using density fitting 
## check results between df and non-df with small molecules before running the important molecules
#INFO: ******************** input file end ********************


System: uname_result(system='Linux', node='comphys', release='3.10.0-1160.119.1.el7.x86_64', version='#1 SMP Tue Jun 4 14:43:51 UTC 2024', machine='x86_64', processor='x86_64')  Threads 8
Python 3.7.9 (default, Dec  4 2023, 13:00:18) 
[GCC 4.8.5 20150623 (Red Hat 4.8.5-44)]
numpy 1.21.6  scipy 1.7.3
Date: Mon May 19 19:34:34 2025
PySCF version 1.7.0
PySCF path  /share/installs/pyscf/pyscf
GIT HEAD      ref: refs/heads/ob-mp2
GIT ob-mp2 branch  f0fc63383ab6c719c0c91f5e07a6895c637b700d

[CONFIG] conf_file None
[INPUT] verbose = 4
[INPUT] num. atoms = 17
[INPUT] num. electrons = 152
[INPUT] charge = 1
[INPUT] spin (= nelec alpha-beta = 2S) = 0
[INPUT] symmetry False subgroup None
[INPUT] Mole.unit = A
[INPUT]  1 H      1.407901000000   2.311769000000   0.000000000000 AA    2.660547300501   4.368610273260   0.000000000000 Bohr
[INPUT]  2 He     2.137579000000   0.000000000000   1.627588000000 AA    4.039438879622   0.000000000000   3.075695563629 Bohr
[INPUT]  3 Li    -1.407901000000   2.311769000000   0.000000000000 AA   -2.660547300501   4.368610273260   0.000000000000 Bohr
[INPUT]  4 Be     1.407901000000  -2.311769000000   0.000000000000 AA    2.660547300501  -4.368610273260   0.000000000000 Bohr
[INPUT]  5 B      0.000000000000  -1.454285000000   2.280013000000 AA    0.000000000000  -2.748200357063   4.308600130448 Bohr
[INPUT]  6 C      0.000000000000   1.454285000000  -2.280013000000 AA    0.000000000000   2.748200357063  -4.308600130448 Bohr
[INPUT]  7 N      0.000000000000   1.454285000000   2.280013000000 AA    0.000000000000   2.748200357063   4.308600130448 Bohr
[INPUT]  8 O      2.137579000000   0.000000000000  -1.627588000000 AA    4.039438879622   0.000000000000  -3.075695563629 Bohr
[INPUT]  9 F     -2.137579000000   0.000000000000  -1.627588000000 AA   -4.039438879622   0.000000000000  -3.075695563629 Bohr
[INPUT] 10 Ne    -1.407901000000  -2.311769000000   0.000000000000 AA   -2.660547300501  -4.368610273260   0.000000000000 Bohr
[INPUT] 11 Na     0.000000000000  -1.454285000000  -2.280013000000 AA    0.000000000000  -2.748200357063  -4.308600130448 Bohr
[INPUT] 12 Mg    -2.137579000000   0.000000000000   1.627588000000 AA   -4.039438879622   0.000000000000   3.075695563629 Bohr
[INPUT] 13 Al     3.996382000000   1.265411000000   0.000000000000 AA    7.552067469142   2.391280225012   0.000000000000 Bohr
[INPUT] 14 Si    -3.996382000000  -1.265411000000   0.000000000000 AA   -7.552067469142  -2.391280225012   0.000000000000 Bohr
[INPUT] 15 P      3.996382000000  -1.265411000000   0.000000000000 AA    7.552067469142  -2.391280225012   0.000000000000 Bohr
[INPUT] 16 S      0.000000000000   0.000000000000   0.000000000000 AA    0.000000000000   0.000000000000   0.000000000000 Bohr
[INPUT] 17 Cl    -3.996382000000   1.265411000000   0.000000000000 AA   -7.552067469142   2.391280225012   0.000000000000 Bohr

nuclear repulsion = 1478.30830942208
number of shells = 61
number of NR pGTOs = 630
number of NR cGTOs = 105
basis = sto-6g
ecp = {}
CPU time:         1.38


******** <class 'pyscf.df.df_jk.density_fit.<locals>.DFHF'> ********
method = DFHF-UHF
initial guess = minao
damping factor = 0
level_shift factor = 0
DIIS = <class 'pyscf.scf.diis.CDIIS'>
diis_start_cycle = 1
diis_space = 8
SCF conv_tol = 1e-09
SCF conv_tol_grad = None
SCF max_cycles = 50
direct_scf = True
direct_scf_tol = 1e-13
chkfile to save SCF result = /home/ltkoanh/Al_B2LYP_6311_Gd_Cluster/Cluster/Al17-cation-singlet/tmpap08p1yh
max_memory 4000 MB (current use 60 MB)
number electrons alpha = 76  beta = 76
Set gradient conv threshold to 3.16228e-05
******** <class 'pyscf.df.df.DF'> ********
auxbasis = None
max_memory = 4000
_cderi_to_save = /home/ltkoanh/Al_B2LYP_6311_Gd_Cluster/Cluster/Al17-cation-singlet/tmpg_ysfow5
Even tempered Gaussians are generated as DF auxbasis for  Si Cl C F Al Na Mg S He P Ne H N B Li Be O
init E= -2518.08561335234
  alpha nocc = 76  HOMO = -0.514451743339629  LUMO = -0.451179123131574
  beta  nocc = 76  HOMO = -0.497647237635405  LUMO = -0.435874610634191
cycle= 1 E= -2517.99591368463  delta_E= 0.0897  |g|= 1.27  |ddm|= 3.49
  alpha nocc = 76  HOMO = 0.0564533154881692  LUMO = 0.0637412878731466
  beta  nocc = 76  HOMO = 0.055274148508135  LUMO = 0.0644375089675202
cycle= 2 E= -2492.02971755487  delta_E=   26  |g|= 3.09  |ddm|= 7.87
  alpha nocc = 76  HOMO = -0.0916471715926387  LUMO = -0.079142828208104
  beta  nocc = 76  HOMO = -0.0932422224683746  LUMO = -0.0798021054993442
cycle= 3 E= -2516.7152287046  delta_E= -24.7  |g|= 1.65  |ddm|= 5.74
  alpha nocc = 76  HOMO = -0.0888600144372196  LUMO = -0.0787103453672284
  beta  nocc = 76  HOMO = -0.0922924621570906  LUMO = -0.0815237918333087
cycle= 4 E= -2519.67594246992  delta_E= -2.96  |g|= 1.66  |ddm|=  3.9
  alpha nocc = 76  HOMO = -0.0745836674660938  LUMO = -0.0581227374576745
  beta  nocc = 76  HOMO = -0.0712589547927649  LUMO = -0.0593996681640097
cycle= 5 E= -2520.43650075008  delta_E= -0.761  |g|= 1.21  |ddm|= 3.17
  alpha nocc = 76  HOMO = -0.121327763006977  LUMO = -0.113826806285668
  beta  nocc = 76  HOMO = -0.11422361958695  LUMO = -0.110573160606571
cycle= 6 E= -2520.17184889985  delta_E= 0.265  |g|= 1.49  |ddm|= 3.35
  alpha nocc = 76  HOMO = -0.1340562585558  LUMO = -0.106907943722249
  beta  nocc = 76  HOMO = -0.137142192810347  LUMO = -0.109799382945157
cycle= 7 E= -2522.07363130641  delta_E= -1.9  |g|= 0.65  |ddm|= 2.64
  alpha nocc = 76  HOMO = -0.152282169546857  LUMO = -0.0631444485737234
  beta  nocc = 76  HOMO = -0.157283627302961  LUMO = -0.0597429313113746
cycle= 8 E= -2521.40747947691  delta_E= 0.666  |g|= 1.01  |ddm|=    1
  alpha nocc = 76  HOMO = -0.15066662924491  LUMO = -0.0643158825033179
  beta  nocc = 76  HOMO = -0.145170000482437  LUMO = -0.0612006064696157
cycle= 9 E= -2521.29988478742  delta_E= 0.108  |g|= 1.06  |ddm|= 0.268
  alpha nocc = 76  HOMO = -0.190026189470251  LUMO = -0.109296240947273
  beta  nocc = 76  HOMO = -0.195883633886836  LUMO = -0.120529594669459
cycle= 10 E= -2521.95825434456  delta_E= -0.658  |g|= 0.766  |ddm|= 1.24
  alpha nocc = 76  HOMO = -0.185306686522788  LUMO = -0.0714948486677185
  beta  nocc = 76  HOMO = -0.195941304975313  LUMO = -0.0689746502454202
cycle= 11 E= -2522.57595739285  delta_E= -0.618  |g|= 0.245  |ddm|= 1.02
  alpha nocc = 76  HOMO = -0.208575194830687  LUMO = -0.0835713974930343
  beta  nocc = 76  HOMO = -0.202387649861555  LUMO = -0.0602699153335298
cycle= 12 E= -2522.75552671513  delta_E= -0.18  |g|= 0.191  |ddm|= 0.748
  alpha nocc = 76  HOMO = -0.207660634638936  LUMO = -0.0704201182295176
  beta  nocc = 76  HOMO = -0.200731106386094  LUMO = -0.0414612047149902
cycle= 13 E= -2522.84337954112  delta_E= -0.0879  |g|= 0.165  |ddm|= 0.416
  alpha nocc = 76  HOMO = -0.198227975432277  LUMO = -0.06760167901175
  beta  nocc = 76  HOMO = -0.19322660573049  LUMO = -0.0319765030090396
cycle= 14 E= -2522.95413166499  delta_E= -0.111  |g|= 0.151  |ddm|= 0.585
  alpha nocc = 76  HOMO = -0.195119073407164  LUMO = -0.0513461071884811
  beta  nocc = 76  HOMO = -0.186390967661832  LUMO = -0.0137743813308085
cycle= 15 E= -2523.05462524117  delta_E= -0.1  |g|= 0.158  |ddm|= 0.597
  alpha nocc = 76  HOMO = -0.196817721713892  LUMO = -0.0523825028340366
  beta  nocc = 76  HOMO = -0.189007013870205  LUMO = -0.0165199322312836
cycle= 16 E= -2523.0440802305  delta_E= 0.0105  |g|= 0.155  |ddm|= 0.0875
  alpha nocc = 76  HOMO = -0.201761833984068  LUMO = -0.038186753555258
  beta  nocc = 76  HOMO = -0.198237998832617  LUMO = -0.0256566391347495
cycle= 17 E= -2523.00742030395  delta_E= 0.0367  |g|= 0.128  |ddm|= 0.533
  alpha nocc = 76  HOMO = -0.20689335277484  LUMO = -0.0109168503895131
  beta  nocc = 76  HOMO = -0.219162401267722  LUMO = -0.02062871378415
cycle= 18 E= -2523.04448830829  delta_E= -0.0371  |g|= 0.0915  |ddm|= 0.641
  alpha nocc = 76  HOMO = -0.156922248166101  LUMO = -0.011127820061306
  beta  nocc = 76  HOMO = -0.205430714168882  LUMO = -0.0156506730685603
cycle= 19 E= -2523.09207554004  delta_E= -0.0476  |g|= 0.0779  |ddm|= 0.494
  alpha nocc = 76  HOMO = -0.149850535481237  LUMO = -0.0203716277422523
  beta  nocc = 76  HOMO = -0.214001393444885  LUMO = -0.0231067218926182
cycle= 20 E= -2523.12375308038  delta_E= -0.0317  |g|= 0.0791  |ddm|= 0.386
  alpha nocc = 76  HOMO = -0.147957237153913  LUMO = -0.0188273495985457
  beta  nocc = 76  HOMO = -0.215203985355885  LUMO = -0.020895916809067
cycle= 21 E= -2523.13100534894  delta_E= -0.00725  |g|= 0.0783  |ddm|= 0.0843
  alpha nocc = 76  HOMO = -0.137027168140009  LUMO = -0.0213451400018645
  beta  nocc = 76  HOMO = -0.210175363791111  LUMO = -0.0238252278763349
cycle= 22 E= -2523.14562032598  delta_E= -0.0146  |g|= 0.077  |ddm|= 0.24
  alpha nocc = 76  HOMO = -0.134810697178089  LUMO = -0.020198905491974
  beta  nocc = 76  HOMO = -0.208524826410808  LUMO = -0.0209649757053516
cycle= 23 E= -2523.15455043833  delta_E= -0.00893  |g|= 0.074  |ddm|= 0.215
  alpha nocc = 76  HOMO = -0.128922300172025  LUMO = -0.0173461344472512
  beta  nocc = 76  HOMO = -0.208938780029715  LUMO = -0.0125095983409849
cycle= 24 E= -2523.16153647232  delta_E= -0.00699  |g|= 0.0705  |ddm|= 0.322
  alpha nocc = 76  HOMO = -0.120598180454843  LUMO = -0.0112783938911591
  beta  nocc = 76  HOMO = -0.209369640998088  LUMO = 0.000112481389778457
cycle= 25 E= -2523.16748261202  delta_E= -0.00595  |g|= 0.0639  |ddm|= 0.166
  alpha nocc = 76  HOMO = -0.118891509598316  LUMO = -0.00156983842217908
  beta  nocc = 76  HOMO = -0.222158619421085  LUMO = 0.0100620224768465
cycle= 26 E= -2523.18427049698  delta_E= -0.0168  |g|= 0.0616  |ddm|= 0.293
  alpha nocc = 76  HOMO = -0.108137417344326  LUMO = 0.00432741347782113
  beta  nocc = 76  HOMO = -0.228828591606308  LUMO = 0.0169837818884815
cycle= 27 E= -2523.19773811051  delta_E= -0.0135  |g|= 0.0601  |ddm|= 0.265
  alpha nocc = 76  HOMO = -0.102883934750034  LUMO = 0.00931280077192909
  beta  nocc = 76  HOMO = -0.230780424426223  LUMO = 0.0190183882019419
cycle= 28 E= -2523.21263567593  delta_E= -0.0149  |g|= 0.0566  |ddm|= 0.234
  alpha nocc = 76  HOMO = -0.0973834650527135  LUMO = 0.011986616120071
  beta  nocc = 76  HOMO = -0.227986401454368  LUMO = 0.0168508594478682
cycle= 29 E= -2523.22860374131  delta_E= -0.016  |g|= 0.0585  |ddm|= 0.276
  alpha nocc = 76  HOMO = -0.0995321852909953  LUMO = 0.0110114504180048
  beta  nocc = 76  HOMO = -0.226614148522038  LUMO = 0.0180810866705462
cycle= 30 E= -2523.22588263179  delta_E= 0.00272  |g|= 0.0573  |ddm|= 0.0701
  alpha nocc = 76  HOMO = -0.110265552476383  LUMO = -0.00232218950510085
  beta  nocc = 76  HOMO = -0.22651868245024  LUMO = 0.0236999779396349
cycle= 31 E= -2523.20537982077  delta_E= 0.0205  |g|= 0.0563  |ddm|= 0.523
  alpha nocc = 76  HOMO = -0.112982951059942  LUMO = -0.00579195575826068
  beta  nocc = 76  HOMO = -0.225369579018691  LUMO = 0.0235637435968149
cycle= 32 E= -2523.20178373906  delta_E= 0.0036  |g|= 0.0569  |ddm|= 0.119
  alpha nocc = 76  HOMO = -0.120898342732719  LUMO = -0.0171483905361513
  beta  nocc = 76  HOMO = -0.223376590192222  LUMO = 0.0229264895798288
cycle= 33 E= -2523.19289782352  delta_E= 0.00889  |g|= 0.0634  |ddm|= 0.389
  alpha nocc = 76  HOMO = -0.122544501189525  LUMO = -0.0180534191385793
  beta  nocc = 76  HOMO = -0.222864803170488  LUMO = 0.022294646714807
cycle= 34 E= -2523.19092271908  delta_E= 0.00198  |g|= 0.061  |ddm|= 0.0434
  alpha nocc = 76  HOMO = -0.116027175238905  LUMO = -0.0113962700509029
  beta  nocc = 76  HOMO = -0.223501412207059  LUMO = 0.0233046475300884
cycle= 35 E= -2523.19486106395  delta_E= -0.00394  |g|= 0.057  |ddm|= 0.26
  alpha nocc = 76  HOMO = -0.114827618279994  LUMO = -0.00848083987385935
  beta  nocc = 76  HOMO = -0.223985585218305  LUMO = 0.0236867943867797
cycle= 36 E= -2523.19740475819  delta_E= -0.00254  |g|= 0.0564  |ddm|= 0.0944
  alpha nocc = 76  HOMO = -0.116137512148476  LUMO = -0.00711573079986396
  beta  nocc = 76  HOMO = -0.222105661093312  LUMO = 0.0228887692889757
cycle= 37 E= -2523.19491912278  delta_E= 0.00249  |g|= 0.0567  |ddm|= 0.158
  alpha nocc = 76  HOMO = -0.118545515279565  LUMO = -0.00788323919461765
  beta  nocc = 76  HOMO = -0.221524628049426  LUMO = 0.0233451879418889
cycle= 38 E= -2523.19397486941  delta_E= 0.000944  |g|= 0.058  |ddm|= 0.0739
  alpha nocc = 76  HOMO = -0.113047090645504  LUMO = -0.00543124208874554
  beta  nocc = 76  HOMO = -0.22181730415185  LUMO = 0.02135403594584
cycle= 39 E= -2523.19713177122  delta_E= -0.00316  |g|= 0.0584  |ddm|= 0.0951
  alpha nocc = 76  HOMO = -0.139739330556009  LUMO = -0.0208058177913783
  beta  nocc = 76  HOMO = -0.2247451818981  LUMO = 0.0259155141994823
cycle= 40 E= -2523.18401212641  delta_E= 0.0131  |g|= 0.0489  |ddm|= 0.404
  alpha nocc = 76  HOMO = -0.172215505363121  LUMO = -0.026619817608812
  beta  nocc = 76  HOMO = -0.23039775719053  LUMO = 0.020604706226448
cycle= 41 E= -2523.17880218656  delta_E= 0.00521  |g|= 0.0462  |ddm|= 0.644
  alpha nocc = 76  HOMO = -0.17121966729641  LUMO = -0.0276440751606072
  beta  nocc = 76  HOMO = -0.227874613976257  LUMO = 0.0210623128444135
cycle= 42 E= -2523.18445719273  delta_E= -0.00566  |g|= 0.0396  |ddm|= 0.153
  alpha nocc = 76  HOMO = -0.180324619055747  LUMO = -0.0320130379053247
  beta  nocc = 76  HOMO = -0.227712551124777  LUMO = 0.0204015064053563
cycle= 43 E= -2523.18848224478  delta_E= -0.00403  |g|= 0.0405  |ddm|= 0.166
  alpha nocc = 76  HOMO = -0.178305689645816  LUMO = -0.0355792042205496
  beta  nocc = 76  HOMO = -0.227828028467464  LUMO = 0.0194644806401662
cycle= 44 E= -2523.1909265112  delta_E= -0.00244  |g|= 0.0412  |ddm|= 0.111
  alpha nocc = 76  HOMO = -0.181195811240935  LUMO = -0.0364558740916923
  beta  nocc = 76  HOMO = -0.226862529468597  LUMO = 0.0187382561663902
cycle= 45 E= -2523.18972294472  delta_E= 0.0012  |g|= 0.0369  |ddm|= 0.135
  alpha nocc = 76  HOMO = -0.179731313767849  LUMO = -0.0339019881816
  beta  nocc = 76  HOMO = -0.227702654788575  LUMO = 0.0191212790186322
cycle= 46 E= -2523.19355652498  delta_E= -0.00383  |g|= 0.0419  |ddm|= 0.157
  alpha nocc = 76  HOMO = -0.171429665044915  LUMO = -0.0302606519315996
  beta  nocc = 76  HOMO = -0.228431838189946  LUMO = 0.0221457903294826
cycle= 47 E= -2523.1833919728  delta_E= 0.0102  |g|= 0.0351  |ddm|= 0.268
  alpha nocc = 76  HOMO = -0.16291368047139  LUMO = -0.0275229536869806
  beta  nocc = 76  HOMO = -0.22440310788671  LUMO = 0.0241931979227252
cycle= 48 E= -2523.1841492712  delta_E= -0.000757  |g|= 0.0278  |ddm|= 0.198
  alpha nocc = 76  HOMO = -0.159883465500149  LUMO = -0.0304981915943287
  beta  nocc = 76  HOMO = -0.222898421774393  LUMO = 0.0247959623318105
cycle= 49 E= -2523.18628854046  delta_E= -0.00214  |g|= 0.0243  |ddm|= 0.157
  alpha nocc = 76  HOMO = -0.16124940054189  LUMO = -0.0303393717896345
  beta  nocc = 76  HOMO = -0.221733294119266  LUMO = 0.0252203659709055
cycle= 50 E= -2523.19026136016  delta_E= -0.00397  |g|= 0.0237  |ddm|= 0.161
SCF not converged.
SCF energy = -2523.19026136016 after 50 cycles  <S^2> = 5.9754913  2S+1 = 4.9901869
shift = 0
thresh = 1e-05 
eri1 (1503, 5565)
eri1 (1503, 5565)
    CPU time for making amplitude: integral transform      1.25 sec, wall time      0.08 sec
shape (1503, 3045)
1st memory: 514.4 MiB
eri1 (1503, 5565)
eri1 (1503, 5565)
2nd memory: 405.2 MiB

========================
iter = 0  energy = -2523.502965 energy diff = 2523.502965
multiplicity <S^2> : Reference = 5.9754913 Response = 5.9760567 Projector = 5.9766221
eri1 (1503, 5565)
eri1 (1503, 5565)
    CPU time for making amplitude: integral transform      1.18 sec, wall time      0.08 sec
shape (1503, 3045)
1st memory: 531.1 MiB
eri1 (1503, 5565)
eri1 (1503, 5565)
2nd memory: 407.2 MiB

========================
iter = 1  energy = -2523.522345 energy diff = 0.019380
multiplicity <S^2> : Reference = 5.9084048 Response = 5.9086925 Projector = 5.9089801
eri1 (1503, 5565)
eri1 (1503, 5565)
    CPU time for making amplitude: integral transform      1.17 sec, wall time      0.08 sec
shape (1503, 3045)
1st memory: 547.0 MiB
eri1 (1503, 5565)
eri1 (1503, 5565)
2nd memory: 397.4 MiB

========================
iter = 2  energy = -2523.534675 energy diff = 0.012330
multiplicity <S^2> : Reference = 5.8045577 Response = 5.8043951 Projector = 5.8042324
eri1 (1503, 5565)
eri1 (1503, 5565)
    CPU time for making amplitude: integral transform      0.95 sec, wall time      0.06 sec
shape (1503, 3045)
1st memory: 529.6 MiB
eri1 (1503, 5565)
eri1 (1503, 5565)
2nd memory: 396.4 MiB

========================
iter = 3  energy = -2523.545335 energy diff = 0.010661
multiplicity <S^2> : Reference = 5.7327967 Response = 5.7327394 Projector = 5.7326822
eri1 (1503, 5565)
eri1 (1503, 5565)
    CPU time for making amplitude: integral transform      1.23 sec, wall time      0.08 sec
shape (1503, 3045)
1st memory: 547.0 MiB
eri1 (1503, 5565)
eri1 (1503, 5565)
2nd memory: 419.1 MiB

========================
iter = 4  energy = -2523.551609 energy diff = 0.006274
multiplicity <S^2> : Reference = 5.7101903 Response = 5.7100534 Projector = 5.7099165
eri1 (1503, 5565)
eri1 (1503, 5565)
    CPU time for making amplitude: integral transform      0.99 sec, wall time      0.07 sec
shape (1503, 3045)
1st memory: 530.8 MiB
eri1 (1503, 5565)
eri1 (1503, 5565)
2nd memory: 418.1 MiB

========================
iter = 5  energy = -2523.549998 energy diff = 0.001611
multiplicity <S^2> : Reference = 5.7035123 Response = 5.7034757 Projector = 5.7034392
eri1 (1503, 5565)
eri1 (1503, 5565)
    CPU time for making amplitude: integral transform      1.35 sec, wall time      0.09 sec
shape (1503, 3045)
1st memory: 546.6 MiB
eri1 (1503, 5565)
eri1 (1503, 5565)
2nd memory: 419.0 MiB

========================
iter = 6  energy = -2523.549858 energy diff = 0.000140
multiplicity <S^2> : Reference = 5.6241327 Response = 5.6241128 Projector = 5.6240929
eri1 (1503, 5565)
eri1 (1503, 5565)
    CPU time for making amplitude: integral transform      1.32 sec, wall time      0.09 sec
shape (1503, 3045)
1st memory: 529.8 MiB
eri1 (1503, 5565)
eri1 (1503, 5565)
2nd memory: 396.0 MiB

========================
iter = 7  energy = -2523.556496 energy diff = 0.006638
multiplicity <S^2> : Reference = 5.551081 Response = 5.5515783 Projector = 5.5520755
eri1 (1503, 5565)
eri1 (1503, 5565)
    CPU time for making amplitude: integral transform      1.30 sec, wall time      0.09 sec
shape (1503, 3045)
1st memory: 546.5 MiB
eri1 (1503, 5565)
eri1 (1503, 5565)
2nd memory: 421.5 MiB

========================
iter = 8  energy = -2523.566664 energy diff = 0.010167
multiplicity <S^2> : Reference = 5.5054732 Response = 5.5052127 Projector = 5.5049522
eri1 (1503, 5565)
eri1 (1503, 5565)
    CPU time for making amplitude: integral transform      0.98 sec, wall time      0.07 sec
shape (1503, 3045)
1st memory: 529.3 MiB
eri1 (1503, 5565)
eri1 (1503, 5565)
2nd memory: 395.6 MiB

========================
iter = 9  energy = -2523.572126 energy diff = 0.005463
multiplicity <S^2> : Reference = 5.5304735 Response = 5.5302369 Projector = 5.5300002
eri1 (1503, 5565)
eri1 (1503, 5565)
    CPU time for making amplitude: integral transform      1.22 sec, wall time      0.08 sec
shape (1503, 3045)
1st memory: 546.5 MiB
eri1 (1503, 5565)
eri1 (1503, 5565)
2nd memory: 396.8 MiB

========================
iter = 10  energy = -2523.574595 energy diff = 0.002469
multiplicity <S^2> : Reference = 5.5375331 Response = 5.5373986 Projector = 5.5372641
eri1 (1503, 5565)
eri1 (1503, 5565)
    CPU time for making amplitude: integral transform      1.07 sec, wall time      0.07 sec
shape (1503, 3045)
1st memory: 530.3 MiB
eri1 (1503, 5565)
eri1 (1503, 5565)
2nd memory: 418.6 MiB

========================
iter = 11  energy = -2523.574487 energy diff = 0.000108
multiplicity <S^2> : Reference = 5.5341515 Response = 5.534062 Projector = 5.5339726
eri1 (1503, 5565)
eri1 (1503, 5565)
    CPU time for making amplitude: integral transform      1.24 sec, wall time      0.08 sec
shape (1503, 3045)
1st memory: 546.2 MiB
eri1 (1503, 5565)
eri1 (1503, 5565)
2nd memory: 418.2 MiB

========================
iter = 12  energy = -2523.574352 energy diff = 0.000135
multiplicity <S^2> : Reference = 5.5318168 Response = 5.5317339 Projector = 5.531651
eri1 (1503, 5565)
eri1 (1503, 5565)
    CPU time for making amplitude: integral transform      0.99 sec, wall time      0.07 sec
shape (1503, 3045)
1st memory: 530.5 MiB
eri1 (1503, 5565)
eri1 (1503, 5565)
2nd memory: 418.0 MiB

========================
iter = 13  energy = -2523.577099 energy diff = 0.002748
multiplicity <S^2> : Reference = 5.5404666 Response = 5.5401745 Projector = 5.5398825
eri1 (1503, 5565)
eri1 (1503, 5565)
    CPU time for making amplitude: integral transform      1.24 sec, wall time      0.08 sec
shape (1503, 3045)
1st memory: 546.8 MiB
eri1 (1503, 5565)
eri1 (1503, 5565)
2nd memory: 418.8 MiB

========================
iter = 14  energy = -2523.578164 energy diff = 0.001065
multiplicity <S^2> : Reference = 5.5680088 Response = 5.5677186 Projector = 5.5674283
eri1 (1503, 5565)
eri1 (1503, 5565)
    CPU time for making amplitude: integral transform      1.00 sec, wall time      0.07 sec
shape (1503, 3045)
1st memory: 530.5 MiB
eri1 (1503, 5565)
eri1 (1503, 5565)
2nd memory: 417.7 MiB

========================
iter = 15  energy = -2523.580403 energy diff = 0.002239
multiplicity <S^2> : Reference = 5.6258578 Response = 5.6256784 Projector = 5.6254989
eri1 (1503, 5565)
eri1 (1503, 5565)
    CPU time for making amplitude: integral transform      1.28 sec, wall time      0.09 sec
shape (1503, 3045)
1st memory: 546.6 MiB
eri1 (1503, 5565)
eri1 (1503, 5565)
2nd memory: 421.5 MiB

========================
iter = 16  energy = -2523.580617 energy diff = 0.000213
multiplicity <S^2> : Reference = 5.6593938 Response = 5.6594989 Projector = 5.659604
eri1 (1503, 5565)
eri1 (1503, 5565)
    CPU time for making amplitude: integral transform      1.04 sec, wall time      0.07 sec
shape (1503, 3045)
1st memory: 529.9 MiB
eri1 (1503, 5565)
eri1 (1503, 5565)
2nd memory: 420.8 MiB

========================
iter = 17  energy = -2523.581006 energy diff = 0.000389
multiplicity <S^2> : Reference = 5.6955362 Response = 5.6955458 Projector = 5.6955554
eri1 (1503, 5565)
eri1 (1503, 5565)
    CPU time for making amplitude: integral transform      1.26 sec, wall time      0.08 sec
shape (1503, 3045)
1st memory: 546.7 MiB
eri1 (1503, 5565)
eri1 (1503, 5565)
2nd memory: 421.5 MiB

========================
iter = 18  energy = -2523.581076 energy diff = 0.000071
multiplicity <S^2> : Reference = 5.7094096 Response = 5.7094351 Projector = 5.7094606
eri1 (1503, 5565)
eri1 (1503, 5565)
    CPU time for making amplitude: integral transform      0.95 sec, wall time      0.06 sec
shape (1503, 3045)
1st memory: 530.4 MiB
eri1 (1503, 5565)
eri1 (1503, 5565)
2nd memory: 420.4 MiB

========================
iter = 19  energy = -2523.581035 energy diff = 0.000042
multiplicity <S^2> : Reference = 5.7030463 Response = 5.7028907 Projector = 5.7027351
eri1 (1503, 5565)
eri1 (1503, 5565)
    CPU time for making amplitude: integral transform      1.22 sec, wall time      0.08 sec
shape (1503, 3045)
1st memory: 546.3 MiB
eri1 (1503, 5565)
eri1 (1503, 5565)
2nd memory: 396.9 MiB

========================
iter = 20  energy = -2523.581028 energy diff = 0.000007
multiplicity <S^2> : Reference = 5.7018274 Response = 5.7014961 Projector = 5.7011648

UOB-MP2 has converged
UOB-MP2 energy =  -2523.581027634404
shift = 0
thresh = 1e-05 
eri1 (1503, 5565)
eri1 (1503, 5565)
    CPU time for making amplitude: integral transform      1.14 sec, wall time      0.08 sec
shape (1503, 3045)
1st memory: 515.9 MiB
eri1 (1503, 5565)
eri1 (1503, 5565)
2nd memory: 406.4 MiB

========================
iter = 0  energy = -2523.406109 energy diff = 2523.406109
multiplicity <S^2> : Reference = 5.9754913 Response = 5.9760567 Projector = 5.9766221
eri1 (1503, 5565)
eri1 (1503, 5565)
    CPU time for making amplitude: integral transform      1.19 sec, wall time      0.08 sec
shape (1503, 3045)
1st memory: 525.7 MiB
eri1 (1503, 5565)
eri1 (1503, 5565)
2nd memory: 407.3 MiB

========================
iter = 1  energy = -2523.422704 energy diff = 0.016596
multiplicity <S^2> : Reference = 5.851317 Response = 5.8510961 Projector = 5.8508752
eri1 (1503, 5565)
eri1 (1503, 5565)
    CPU time for making amplitude: integral transform      1.14 sec, wall time      0.08 sec
shape (1503, 3045)
1st memory: 516.4 MiB
eri1 (1503, 5565)
eri1 (1503, 5565)
2nd memory: 407.9 MiB

========================
iter = 2  energy = -2523.431956 energy diff = 0.009252
multiplicity <S^2> : Reference = 5.7463788 Response = 5.7461599 Projector = 5.7459411
eri1 (1503, 5565)
eri1 (1503, 5565)
    CPU time for making amplitude: integral transform      1.35 sec, wall time      0.09 sec
shape (1503, 3045)
1st memory: 525.7 MiB
eri1 (1503, 5565)
eri1 (1503, 5565)
2nd memory: 408.5 MiB

========================
iter = 3  energy = -2523.438511 energy diff = 0.006556
multiplicity <S^2> : Reference = 5.661726 Response = 5.6612929 Projector = 5.6608598
eri1 (1503, 5565)
eri1 (1503, 5565)
    CPU time for making amplitude: integral transform      1.20 sec, wall time      0.08 sec
shape (1503, 3045)
1st memory: 517.2 MiB
eri1 (1503, 5565)
eri1 (1503, 5565)
2nd memory: 408.2 MiB

========================
iter = 4  energy = -2523.443206 energy diff = 0.004694
multiplicity <S^2> : Reference = 5.6319138 Response = 5.6316674 Projector = 5.6314209
eri1 (1503, 5565)
eri1 (1503, 5565)
    CPU time for making amplitude: integral transform      1.20 sec, wall time      0.08 sec
shape (1503, 3045)
1st memory: 525.6 MiB
eri1 (1503, 5565)
eri1 (1503, 5565)
2nd memory: 409.0 MiB

========================
iter = 5  energy = -2523.443297 energy diff = 0.000092
multiplicity <S^2> : Reference = 5.6327654 Response = 5.6325206 Projector = 5.6322758
eri1 (1503, 5565)
eri1 (1503, 5565)
    CPU time for making amplitude: integral transform      0.95 sec, wall time      0.06 sec
shape (1503, 3045)
1st memory: 519.0 MiB
eri1 (1503, 5565)
eri1 (1503, 5565)
2nd memory: 409.5 MiB

========================
iter = 6  energy = -2523.443070 energy diff = 0.000227
multiplicity <S^2> : Reference = 5.622811 Response = 5.6226939 Projector = 5.6225767
eri1 (1503, 5565)
eri1 (1503, 5565)
    CPU time for making amplitude: integral transform      1.17 sec, wall time      0.08 sec
shape (1503, 3045)
1st memory: 525.5 MiB
eri1 (1503, 5565)
eri1 (1503, 5565)
2nd memory: 409.5 MiB

========================
iter = 7  energy = -2523.446711 energy diff = 0.003641
multiplicity <S^2> : Reference = 5.5423892 Response = 5.5425124 Projector = 5.5426357
eri1 (1503, 5565)
eri1 (1503, 5565)
    CPU time for making amplitude: integral transform      1.08 sec, wall time      0.07 sec
shape (1503, 3045)
1st memory: 519.5 MiB
eri1 (1503, 5565)
eri1 (1503, 5565)
2nd memory: 410.0 MiB

========================
iter = 8  energy = -2523.452701 energy diff = 0.005990
multiplicity <S^2> : Reference = 5.5089783 Response = 5.5088516 Projector = 5.5087249
eri1 (1503, 5565)
eri1 (1503, 5565)
    CPU time for making amplitude: integral transform      1.26 sec, wall time      0.08 sec
shape (1503, 3045)
1st memory: 525.8 MiB
eri1 (1503, 5565)
eri1 (1503, 5565)
2nd memory: 410.5 MiB

========================
iter = 9  energy = -2523.460758 energy diff = 0.008057
multiplicity <S^2> : Reference = 5.5422035 Response = 5.5417661 Projector = 5.5413287
eri1 (1503, 5565)
eri1 (1503, 5565)
    CPU time for making amplitude: integral transform      1.04 sec, wall time      0.07 sec
shape (1503, 3045)
1st memory: 520.0 MiB
eri1 (1503, 5565)
eri1 (1503, 5565)
2nd memory: 411.7 MiB

========================
iter = 10  energy = -2523.461207 energy diff = 0.000448
multiplicity <S^2> : Reference = 5.5674332 Response = 5.5672886 Projector = 5.567144
eri1 (1503, 5565)
eri1 (1503, 5565)
    CPU time for making amplitude: integral transform      1.39 sec, wall time      0.10 sec
shape (1503, 3045)
1st memory: 527.3 MiB
eri1 (1503, 5565)
eri1 (1503, 5565)
2nd memory: 416.2 MiB

========================
iter = 11  energy = -2523.463859 energy diff = 0.002652
multiplicity <S^2> : Reference = 5.6007644 Response = 5.6007 Projector = 5.6006357
eri1 (1503, 5565)
eri1 (1503, 5565)
    CPU time for making amplitude: integral transform      1.03 sec, wall time      0.07 sec
shape (1503, 3045)
1st memory: 523.0 MiB
eri1 (1503, 5565)
eri1 (1503, 5565)
2nd memory: 416.2 MiB

========================
iter = 12  energy = -2523.464213 energy diff = 0.000354
multiplicity <S^2> : Reference = 5.6049818 Response = 5.6048909 Projector = 5.6048
eri1 (1503, 5565)
eri1 (1503, 5565)
    CPU time for making amplitude: integral transform      1.20 sec, wall time      0.08 sec
shape (1503, 3045)
1st memory: 527.6 MiB
eri1 (1503, 5565)
eri1 (1503, 5565)
2nd memory: 413.5 MiB

========================
iter = 13  energy = -2523.461976 energy diff = 0.002237
multiplicity <S^2> : Reference = 5.5832275 Response = 5.5835624 Projector = 5.5838972
eri1 (1503, 5565)
eri1 (1503, 5565)
    CPU time for making amplitude: integral transform      1.16 sec, wall time      0.08 sec
shape (1503, 3045)
1st memory: 523.1 MiB
eri1 (1503, 5565)
eri1 (1503, 5565)
2nd memory: 404.1 MiB

========================
iter = 14  energy = -2523.465844 energy diff = 0.003868
multiplicity <S^2> : Reference = 5.6298121 Response = 5.6300188 Projector = 5.6302255
eri1 (1503, 5565)
eri1 (1503, 5565)
    CPU time for making amplitude: integral transform      0.89 sec, wall time      0.06 sec
shape (1503, 3045)
1st memory: 538.1 MiB
eri1 (1503, 5565)
eri1 (1503, 5565)
2nd memory: 413.6 MiB

========================
iter = 15  energy = -2523.468321 energy diff = 0.002476
multiplicity <S^2> : Reference = 5.6752127 Response = 5.6751554 Projector = 5.6750981
eri1 (1503, 5565)
eri1 (1503, 5565)
    CPU time for making amplitude: integral transform      1.28 sec, wall time      0.09 sec
shape (1503, 3045)
1st memory: 554.6 MiB
eri1 (1503, 5565)
eri1 (1503, 5565)
2nd memory: 405.0 MiB

========================
iter = 16  energy = -2523.471963 energy diff = 0.003643
multiplicity <S^2> : Reference = 5.7676106 Response = 5.7670766 Projector = 5.7665426
eri1 (1503, 5565)
eri1 (1503, 5565)
    CPU time for making amplitude: integral transform      1.05 sec, wall time      0.07 sec
shape (1503, 3045)
1st memory: 524.3 MiB
eri1 (1503, 5565)
eri1 (1503, 5565)
2nd memory: 414.3 MiB

========================
iter = 17  energy = -2523.472996 energy diff = 0.001033
multiplicity <S^2> : Reference = 5.7993316 Response = 5.7992854 Projector = 5.7992392
eri1 (1503, 5565)
eri1 (1503, 5565)
    CPU time for making amplitude: integral transform      1.19 sec, wall time      0.08 sec
shape (1503, 3045)
1st memory: 529.8 MiB
eri1 (1503, 5565)
eri1 (1503, 5565)
2nd memory: 415.6 MiB

========================
iter = 18  energy = -2523.471711 energy diff = 0.001285
multiplicity <S^2> : Reference = 5.7571332 Response = 5.7568568 Projector = 5.7565804
eri1 (1503, 5565)
eri1 (1503, 5565)
    CPU time for making amplitude: integral transform      0.98 sec, wall time      0.07 sec
shape (1503, 3045)
1st memory: 525.1 MiB
eri1 (1503, 5565)
eri1 (1503, 5565)
2nd memory: 414.7 MiB

========================
iter = 19  energy = -2523.469880 energy diff = 0.001831
multiplicity <S^2> : Reference = 5.6917988 Response = 5.6915457 Projector = 5.6912926
eri1 (1503, 5565)
eri1 (1503, 5565)
    CPU time for making amplitude: integral transform      1.25 sec, wall time      0.08 sec
shape (1503, 3045)
1st memory: 530.6 MiB
eri1 (1503, 5565)
eri1 (1503, 5565)
2nd memory: 416.1 MiB

========================
iter = 20  energy = -2523.465540 energy diff = 0.004340
multiplicity <S^2> : Reference = 5.58556 Response = 5.5856352 Projector = 5.5857104
eri1 (1503, 5565)
eri1 (1503, 5565)
    CPU time for making amplitude: integral transform      1.05 sec, wall time      0.07 sec
shape (1503, 3045)
1st memory: 525.8 MiB
eri1 (1503, 5565)
eri1 (1503, 5565)
2nd memory: 416.3 MiB

========================
iter = 21  energy = -2523.465305 energy diff = 0.000235
multiplicity <S^2> : Reference = 5.5815602 Response = 5.5816288 Projector = 5.5816974
eri1 (1503, 5565)
eri1 (1503, 5565)
    CPU time for making amplitude: integral transform      1.21 sec, wall time      0.08 sec
shape (1503, 3045)
1st memory: 530.5 MiB
eri1 (1503, 5565)
eri1 (1503, 5565)
2nd memory: 416.0 MiB

========================
iter = 22  energy = -2523.464717 energy diff = 0.000588
multiplicity <S^2> : Reference = 5.5658802 Response = 5.5657459 Projector = 5.5656116
eri1 (1503, 5565)
eri1 (1503, 5565)
    CPU time for making amplitude: integral transform      1.11 sec, wall time      0.07 sec
shape (1503, 3045)
1st memory: 557.1 MiB
eri1 (1503, 5565)
eri1 (1503, 5565)
2nd memory: 407.5 MiB

========================
iter = 23  energy = -2523.459550 energy diff = 0.005167
multiplicity <S^2> : Reference = 5.5435074 Response = 5.5435195 Projector = 5.5435315
eri1 (1503, 5565)
eri1 (1503, 5565)
    CPU time for making amplitude: integral transform      0.96 sec, wall time      0.06 sec
shape (1503, 3045)
1st memory: 596.3 MiB
eri1 (1503, 5565)
eri1 (1503, 5565)
2nd memory: 407.1 MiB

========================
iter = 24  energy = -2523.459719 energy diff = 0.000170
multiplicity <S^2> : Reference = 5.540625 Response = 5.5407884 Projector = 5.5409518
eri1 (1503, 5565)
eri1 (1503, 5565)
    CPU time for making amplitude: integral transform      0.98 sec, wall time      0.07 sec
shape (1503, 3045)
1st memory: 562.4 MiB
eri1 (1503, 5565)
eri1 (1503, 5565)
2nd memory: 407.1 MiB

========================
iter = 25  energy = -2523.458286 energy diff = 0.001433
multiplicity <S^2> : Reference = 5.5539855 Response = 5.5538069 Projector = 5.5536283
eri1 (1503, 5565)
eri1 (1503, 5565)
    CPU time for making amplitude: integral transform      0.99 sec, wall time      0.07 sec
shape (1503, 3045)
1st memory: 597.8 MiB
eri1 (1503, 5565)
eri1 (1503, 5565)
2nd memory: 429.1 MiB

========================
iter = 26  energy = -2523.458211 energy diff = 0.000076
multiplicity <S^2> : Reference = 5.5686522 Response = 5.5688313 Projector = 5.5690103
eri1 (1503, 5565)
eri1 (1503, 5565)
    CPU time for making amplitude: integral transform      1.16 sec, wall time      0.08 sec
shape (1503, 3045)
1st memory: 556.8 MiB
eri1 (1503, 5565)
eri1 (1503, 5565)
2nd memory: 429.1 MiB

========================
iter = 27  energy = -2523.458980 energy diff = 0.000770
multiplicity <S^2> : Reference = 5.5749034 Response = 5.574901 Projector = 5.5748985
eri1 (1503, 5565)
eri1 (1503, 5565)
    CPU time for making amplitude: integral transform      1.11 sec, wall time      0.07 sec
shape (1503, 3045)
1st memory: 593.1 MiB
eri1 (1503, 5565)
eri1 (1503, 5565)
2nd memory: 428.2 MiB

========================
iter = 28  energy = -2523.459112 energy diff = 0.000132
multiplicity <S^2> : Reference = 5.5781988 Response = 5.5778519 Projector = 5.5775051
eri1 (1503, 5565)
eri1 (1503, 5565)
    CPU time for making amplitude: integral transform      1.08 sec, wall time      0.07 sec
shape (1503, 3045)
1st memory: 556.9 MiB
eri1 (1503, 5565)
eri1 (1503, 5565)
2nd memory: 407.1 MiB

========================
iter = 29  energy = -2523.458482 energy diff = 0.000630
multiplicity <S^2> : Reference = 5.5789835 Response = 5.5790926 Projector = 5.5792018
eri1 (1503, 5565)
eri1 (1503, 5565)
    CPU time for making amplitude: integral transform      0.97 sec, wall time      0.07 sec
shape (1503, 3045)
1st memory: 600.0 MiB
eri1 (1503, 5565)
eri1 (1503, 5565)
2nd memory: 407.1 MiB

========================
iter = 30  energy = -2523.458688 energy diff = 0.000206
multiplicity <S^2> : Reference = 5.5831234 Response = 5.583149 Projector = 5.5831747
eri1 (1503, 5565)
eri1 (1503, 5565)
    CPU time for making amplitude: integral transform      1.11 sec, wall time      0.07 sec
shape (1503, 3045)
1st memory: 563.2 MiB
eri1 (1503, 5565)
eri1 (1503, 5565)
2nd memory: 406.3 MiB

========================
iter = 31  energy = -2523.458974 energy diff = 0.000286
multiplicity <S^2> : Reference = 5.6103877 Response = 5.6102708 Projector = 5.610154
eri1 (1503, 5565)
eri1 (1503, 5565)
    CPU time for making amplitude: integral transform      1.07 sec, wall time      0.07 sec
shape (1503, 3045)
1st memory: 601.6 MiB
eri1 (1503, 5565)
eri1 (1503, 5565)
2nd memory: 407.1 MiB

========================
iter = 32  energy = -2523.456916 energy diff = 0.002058
multiplicity <S^2> : Reference = 5.6958323 Response = 5.6962125 Projector = 5.6965928
eri1 (1503, 5565)
eri1 (1503, 5565)
    CPU time for making amplitude: integral transform      0.98 sec, wall time      0.07 sec
shape (1503, 3045)
1st memory: 565.0 MiB
eri1 (1503, 5565)
eri1 (1503, 5565)
2nd memory: 406.8 MiB

========================
iter = 33  energy = -2523.460303 energy diff = 0.003387
multiplicity <S^2> : Reference = 5.6772435 Response = 5.6776175 Projector = 5.6779915
eri1 (1503, 5565)
eri1 (1503, 5565)
    CPU time for making amplitude: integral transform      1.02 sec, wall time      0.07 sec
shape (1503, 3045)
1st memory: 601.6 MiB
eri1 (1503, 5565)
eri1 (1503, 5565)
2nd memory: 429.0 MiB

========================
iter = 34  energy = -2523.461212 energy diff = 0.000909
multiplicity <S^2> : Reference = 5.6946117 Response = 5.694588 Projector = 5.6945642
eri1 (1503, 5565)
eri1 (1503, 5565)
    CPU time for making amplitude: integral transform      1.13 sec, wall time      0.08 sec
shape (1503, 3045)
1st memory: 556.7 MiB
eri1 (1503, 5565)
eri1 (1503, 5565)
2nd memory: 429.0 MiB

========================
iter = 35  energy = -2523.462698 energy diff = 0.001486
multiplicity <S^2> : Reference = 5.691582 Response = 5.6913515 Projector = 5.6911211
eri1 (1503, 5565)
eri1 (1503, 5565)
    CPU time for making amplitude: integral transform      1.02 sec, wall time      0.07 sec
shape (1503, 3045)
1st memory: 593.7 MiB
eri1 (1503, 5565)
eri1 (1503, 5565)
2nd memory: 429.0 MiB

========================
iter = 36  energy = -2523.462624 energy diff = 0.000074
multiplicity <S^2> : Reference = 5.6911926 Response = 5.6911212 Projector = 5.6910498
eri1 (1503, 5565)
eri1 (1503, 5565)
    CPU time for making amplitude: integral transform      1.15 sec, wall time      0.08 sec
shape (1503, 3045)
1st memory: 556.6 MiB
eri1 (1503, 5565)
eri1 (1503, 5565)
2nd memory: 429.0 MiB

========================
iter = 37  energy = -2523.462606 energy diff = 0.000018
multiplicity <S^2> : Reference = 5.6911503 Response = 5.6910841 Projector = 5.691018
eri1 (1503, 5565)
eri1 (1503, 5565)
    CPU time for making amplitude: integral transform      1.00 sec, wall time      0.07 sec
shape (1503, 3045)
1st memory: 593.7 MiB
eri1 (1503, 5565)
eri1 (1503, 5565)
2nd memory: 429.0 MiB

========================
iter = 38  energy = -2523.462516 energy diff = 0.000090
multiplicity <S^2> : Reference = 5.6916662 Response = 5.6914338 Projector = 5.6912014
eri1 (1503, 5565)
eri1 (1503, 5565)
    CPU time for making amplitude: integral transform      1.15 sec, wall time      0.08 sec
shape (1503, 3045)
1st memory: 556.5 MiB
eri1 (1503, 5565)
eri1 (1503, 5565)
2nd memory: 431.0 MiB

========================
iter = 39  energy = -2523.462504 energy diff = 0.000013
multiplicity <S^2> : Reference = 5.6917659 Response = 5.6914804 Projector = 5.6911948
eri1 (1503, 5565)
eri1 (1503, 5565)
    CPU time for making amplitude: integral transform      1.04 sec, wall time      0.07 sec
shape (1503, 3045)
1st memory: 602.6 MiB
eri1 (1503, 5565)
eri1 (1503, 5565)
2nd memory: 431.7 MiB

========================
iter = 40  energy = -2523.462490 energy diff = 0.000014
multiplicity <S^2> : Reference = 5.6919288 Response = 5.69175 Projector = 5.6915712
eri1 (1503, 5565)
eri1 (1503, 5565)
    CPU time for making amplitude: integral transform      0.96 sec, wall time      0.06 sec
shape (1503, 3045)
1st memory: 566.5 MiB
eri1 (1503, 5565)
eri1 (1503, 5565)
2nd memory: 431.7 MiB

========================
iter = 41  energy = -2523.462499 energy diff = 0.000010
multiplicity <S^2> : Reference = 5.6919134 Response = 5.6917347 Projector = 5.6915561

UOB-MP2 has converged
UOB-MP2 energy =  -2523.46249940591


******** <class 'pyscf.scf.uhf.UHF'> ********
method = UHF
initial guess = minao
damping factor = 0
level_shift factor = 0
DIIS = <class 'pyscf.scf.diis.CDIIS'>
diis_start_cycle = 1
diis_space = 8
SCF conv_tol = 1e-09
SCF conv_tol_grad = None
SCF max_cycles = 50
direct_scf = True
direct_scf_tol = 1e-13
chkfile to save SCF result = /home/ltkoanh/Al_B2LYP_6311_Gd_Cluster/Cluster/Al17-cation-singlet/tmptf40l8jp
max_memory 4000 MB (current use 249 MB)
number electrons alpha = 76  beta = 76
Set gradient conv threshold to 3.16228e-05
init E= -2518.08834730678
  alpha nocc = 76  HOMO = -0.514604970992319  LUMO = -0.451324036789124
  beta  nocc = 76  HOMO = -0.49782157339303  LUMO = -0.436013852626484
cycle= 1 E= -2517.99836573471  delta_E= 0.09  |g|= 1.27  |ddm|= 3.49
  alpha nocc = 76  HOMO = 0.0564212254812125  LUMO = 0.0636080031604522
  beta  nocc = 76  HOMO = 0.0552495760309218  LUMO = 0.0642995942138123
cycle= 2 E= -2491.99953926621  delta_E=   26  |g|= 3.09  |ddm|= 7.87
  alpha nocc = 76  HOMO = -0.0914763033618564  LUMO = -0.078481197308337
  beta  nocc = 76  HOMO = -0.0931307916354649  LUMO = -0.0790269937154195
cycle= 3 E= -2516.64947485421  delta_E= -24.6  |g|= 1.66  |ddm|= 5.73
  alpha nocc = 76  HOMO = -0.0874429553576316  LUMO = -0.0780905827074098
  beta  nocc = 76  HOMO = -0.0919890340074664  LUMO = -0.0800704429307551
cycle= 4 E= -2519.85756775793  delta_E= -3.21  |g|= 1.62  |ddm|= 3.86
  alpha nocc = 76  HOMO = -0.0759547235423217  LUMO = -0.0599576801745015
  beta  nocc = 76  HOMO = -0.0720039418726826  LUMO = -0.0606064880515894
cycle= 5 E= -2520.2972641321  delta_E= -0.44  |g|= 1.22  |ddm|= 3.17
  alpha nocc = 76  HOMO = -0.120728280769816  LUMO = -0.114374870849014
  beta  nocc = 76  HOMO = -0.11296238443469  LUMO = -0.11072982838568
cycle= 6 E= -2520.19179413539  delta_E= 0.105  |g|= 1.49  |ddm|= 3.36
  alpha nocc = 76  HOMO = -0.133102961375272  LUMO = -0.108498750881669
  beta  nocc = 76  HOMO = -0.133377395876572  LUMO = -0.113197861764167
cycle= 7 E= -2522.12743888239  delta_E= -1.94  |g|= 0.605  |ddm|= 2.57
  alpha nocc = 76  HOMO = -0.154639483254108  LUMO = -0.0676376472086273
  beta  nocc = 76  HOMO = -0.159067348777898  LUMO = -0.0645394780907093
cycle= 8 E= -2521.55129930559  delta_E= 0.576  |g|= 0.976  |ddm|= 0.985
  alpha nocc = 76  HOMO = -0.154364832699469  LUMO = -0.069402979936657
  beta  nocc = 76  HOMO = -0.151699258348847  LUMO = -0.0687147229749104
cycle= 9 E= -2521.49769082746  delta_E= 0.0536  |g|= 1.01  |ddm|= 0.247
  alpha nocc = 76  HOMO = -0.198996579155287  LUMO = -0.128036328792928
  beta  nocc = 76  HOMO = -0.206378909162163  LUMO = -0.142232574473757
cycle= 10 E= -2522.15368658161  delta_E= -0.656  |g|= 0.634  |ddm|= 1.35
  alpha nocc = 76  HOMO = -0.191015487462345  LUMO = -0.0716050310353816
  beta  nocc = 76  HOMO = -0.189279961152391  LUMO = -0.050354091155957
cycle= 11 E= -2522.60851530622  delta_E= -0.455  |g|= 0.19  |ddm|= 1.06
  alpha nocc = 76  HOMO = -0.205938865084022  LUMO = -0.0792392565567062
  beta  nocc = 76  HOMO = -0.199476690229042  LUMO = -0.0432629688243579
cycle= 12 E= -2522.73926062505  delta_E= -0.131  |g|= 0.185  |ddm|= 0.594
  alpha nocc = 76  HOMO = -0.205405397286799  LUMO = -0.0751960051911933
  beta  nocc = 76  HOMO = -0.19961000151344  LUMO = -0.0270137775003566
cycle= 13 E= -2522.81770036553  delta_E= -0.0784  |g|= 0.183  |ddm|= 0.356
  alpha nocc = 76  HOMO = -0.20198913035683  LUMO = -0.0746004800332385
  beta  nocc = 76  HOMO = -0.201109119004123  LUMO = -0.0224364726262073
cycle= 14 E= -2522.85769738395  delta_E= -0.04  |g|= 0.184  |ddm|= 0.195
  alpha nocc = 76  HOMO = -0.198250412310563  LUMO = -0.0770908488845526
  beta  nocc = 76  HOMO = -0.199670017900703  LUMO = -0.0205670877805934
cycle= 15 E= -2522.88331040078  delta_E= -0.0256  |g|= 0.189  |ddm|= 0.165
  alpha nocc = 76  HOMO = -0.220476022575217  LUMO = -0.0734780815722257
  beta  nocc = 76  HOMO = -0.201510389569327  LUMO = -0.0226623604940218
cycle= 16 E= -2522.84876114295  delta_E= 0.0345  |g|= 0.168  |ddm|= 0.47
  alpha nocc = 76  HOMO = -0.211017666170404  LUMO = -0.0538450532316229
  beta  nocc = 76  HOMO = -0.194559708505715  LUMO = -0.0268422521567456
cycle= 17 E= -2522.87701857504  delta_E= -0.0283  |g|= 0.156  |ddm|= 0.582
  alpha nocc = 76  HOMO = -0.21048750854194  LUMO = -0.0574001249905806
  beta  nocc = 76  HOMO = -0.196574906350444  LUMO = -0.0340419189514028
cycle= 18 E= -2522.93099517393  delta_E= -0.054  |g|= 0.141  |ddm|= 0.465
  alpha nocc = 76  HOMO = -0.214996056748891  LUMO = -0.0444718560841936
  beta  nocc = 76  HOMO = -0.166832634968796  LUMO = -0.03264141309934
cycle= 19 E= -2522.98066525032  delta_E= -0.0497  |g|= 0.124  |ddm|= 0.468
  alpha nocc = 76  HOMO = -0.222359535726443  LUMO = -0.0157876928996687
  beta  nocc = 76  HOMO = -0.155684244904358  LUMO = -0.0225527881002127
cycle= 20 E= -2523.05573270058  delta_E= -0.0751  |g|= 0.101  |ddm|= 0.766
  alpha nocc = 76  HOMO = -0.219023780313328  LUMO = -0.0067114320980342
  beta  nocc = 76  HOMO = -0.145614325003148  LUMO = -0.0110550305001407
cycle= 21 E= -2523.08420845812  delta_E= -0.0285  |g|= 0.108  |ddm|= 0.348
  alpha nocc = 76  HOMO = -0.219631589507922  LUMO = -0.00755474657212844
  beta  nocc = 76  HOMO = -0.142419141234135  LUMO = -0.0151066562414784
cycle= 22 E= -2523.07091749276  delta_E= 0.0133  |g|= 0.108  |ddm|= 0.119
  alpha nocc = 76  HOMO = -0.218195511274459  LUMO = -0.0106659638825649
  beta  nocc = 76  HOMO = -0.159574776440938  LUMO = -0.00122786801717699
cycle= 23 E= -2523.0736478619  delta_E= -0.00273  |g|= 0.102  |ddm|= 0.157
  alpha nocc = 76  HOMO = -0.222787587778455  LUMO = -0.0229451658378012
  beta  nocc = 76  HOMO = -0.186785869200169  LUMO = -0.00925768596692167
cycle= 24 E= -2523.03489241337  delta_E= 0.0388  |g|= 0.0843  |ddm|= 0.753
  alpha nocc = 76  HOMO = -0.225222731172706  LUMO = -0.0220084225907466
  beta  nocc = 76  HOMO = -0.190066719943176  LUMO = -0.0157300027416057
cycle= 25 E= -2523.04705875173  delta_E= -0.0122  |g|= 0.061  |ddm|= 0.272
  alpha nocc = 76  HOMO = -0.226106830683958  LUMO = -0.013990034832436
  beta  nocc = 76  HOMO = -0.181762089250475  LUMO = -0.0105458646735988
cycle= 26 E= -2523.06780287684  delta_E= -0.0207  |g|= 0.0551  |ddm|= 0.385
  alpha nocc = 76  HOMO = -0.224637698922266  LUMO = -0.00676813023176227
  beta  nocc = 76  HOMO = -0.180491486043742  LUMO = -0.00276983469686308
cycle= 27 E= -2523.0788336212  delta_E= -0.011  |g|= 0.0582  |ddm|= 0.265
  alpha nocc = 76  HOMO = -0.226013513081292  LUMO = -0.00448990773911732
  beta  nocc = 76  HOMO = -0.179476413983029  LUMO = -0.000597151227639125
cycle= 28 E= -2523.08244480487  delta_E= -0.00361  |g|= 0.057  |ddm|= 0.0701
  alpha nocc = 76  HOMO = -0.225008160513734  LUMO = -0.00988184968725989
  beta  nocc = 76  HOMO = -0.186597498649165  LUMO = -0.0077860177654854
cycle= 29 E= -2523.08170105061  delta_E= 0.000744  |g|= 0.0559  |ddm|= 0.112
  alpha nocc = 76  HOMO = -0.224438285133783  LUMO = -0.011621897013105
  beta  nocc = 76  HOMO = -0.187000541205938  LUMO = -0.00925588690916329
cycle= 30 E= -2523.0791930654  delta_E= 0.00251  |g|= 0.0555  |ddm|= 0.0703
  alpha nocc = 76  HOMO = -0.225255594202903  LUMO = -0.00923158541067167
  beta  nocc = 76  HOMO = -0.185295310546736  LUMO = -0.00821589359400865
cycle= 31 E= -2523.08094381847  delta_E= -0.00175  |g|= 0.0567  |ddm|= 0.0389
  alpha nocc = 76  HOMO = -0.225148240008003  LUMO = -0.00898746602332594
  beta  nocc = 76  HOMO = -0.178458729226684  LUMO = -0.00383979209575846
cycle= 32 E= -2523.08889093834  delta_E= -0.00795  |g|= 0.0562  |ddm|= 0.186
  alpha nocc = 76  HOMO = -0.226355063733953  LUMO = -0.0106847718905665
  beta  nocc = 76  HOMO = -0.18377263053086  LUMO = -0.00719872213852069
cycle= 33 E= -2523.08103923517  delta_E= 0.00785  |g|= 0.0495  |ddm|= 0.199
  alpha nocc = 76  HOMO = -0.205859779956576  LUMO = 0.00253644189995383
  beta  nocc = 76  HOMO = -0.183057833708338  LUMO = -0.000648268088055849
cycle= 34 E= -2523.08828198871  delta_E= -0.00724  |g|= 0.053  |ddm|= 0.447
  alpha nocc = 76  HOMO = -0.202686116144958  LUMO = -0.00348159071483283
  beta  nocc = 76  HOMO = -0.184603843233501  LUMO = -0.00474808468613361
cycle= 35 E= -2523.0907758256  delta_E= -0.00249  |g|= 0.0472  |ddm|= 0.128
  alpha nocc = 76  HOMO = -0.202971512724816  LUMO = -0.00274010681236411
  beta  nocc = 76  HOMO = -0.184204910932253  LUMO = -0.00406613475144308
cycle= 36 E= -2523.09117016863  delta_E= -0.000394  |g|= 0.0472  |ddm|= 0.0365
  alpha nocc = 76  HOMO = -0.203052882720596  LUMO = -0.00273881317114333
  beta  nocc = 76  HOMO = -0.184612699337305  LUMO = -0.00423828725130453
cycle= 37 E= -2523.09070419518  delta_E= 0.000466  |g|= 0.0472  |ddm|= 0.012
  alpha nocc = 76  HOMO = -0.203233358483394  LUMO = -0.00249855614527686
  beta  nocc = 76  HOMO = -0.184160825756369  LUMO = -0.00445953716729033
cycle= 38 E= -2523.09136729932  delta_E= -0.000663  |g|= 0.0467  |ddm|= 0.0245
  alpha nocc = 76  HOMO = -0.203668603276968  LUMO = 0.000557737423527888
  beta  nocc = 76  HOMO = -0.184729354370042  LUMO = -0.00408287174719021
cycle= 39 E= -2523.09543018011  delta_E= -0.00406  |g|= 0.048  |ddm|= 0.116
  alpha nocc = 76  HOMO = -0.209620576119538  LUMO = 0.00187012682829439
  beta  nocc = 76  HOMO = -0.182598303479365  LUMO = -0.0011204112688962
cycle= 40 E= -2523.09212584253  delta_E= 0.0033  |g|= 0.0473  |ddm|= 0.135
  alpha nocc = 76  HOMO = -0.218538987349154  LUMO = -0.000135130510239044
  beta  nocc = 76  HOMO = -0.174949065934235  LUMO = 0.00284902163635427
cycle= 41 E= -2523.09337196423  delta_E= -0.00125  |g|= 0.0446  |ddm|= 0.242
  alpha nocc = 76  HOMO = -0.215059571065971  LUMO = 0.00126516262794702
  beta  nocc = 76  HOMO = -0.176058865770776  LUMO = 0.00320439247678736
cycle= 42 E= -2523.09374110222  delta_E= -0.000369  |g|= 0.0443  |ddm|= 0.0632
  alpha nocc = 76  HOMO = -0.213267836180706  LUMO = 0.00153959650518088
  beta  nocc = 76  HOMO = -0.17644278627448  LUMO = 0.00269509518004755
cycle= 43 E= -2523.09446015257  delta_E= -0.000719  |g|= 0.0445  |ddm|= 0.0282
  alpha nocc = 76  HOMO = -0.21957117733585  LUMO = 0.00247685207378727
  beta  nocc = 76  HOMO = -0.179230082268086  LUMO = -0.000545440788516795
cycle= 44 E= -2523.09079890157  delta_E= 0.00366  |g|= 0.0398  |ddm|= 0.0891
  alpha nocc = 76  HOMO = -0.226818628941963  LUMO = 0.00338790890926087
  beta  nocc = 76  HOMO = -0.181627224875035  LUMO = -0.00210199523980593
cycle= 45 E= -2523.08568066379  delta_E= 0.00512  |g|= 0.0279  |ddm|= 0.241
  alpha nocc = 76  HOMO = -0.225974730483606  LUMO = 0.00495873758204337
  beta  nocc = 76  HOMO = -0.190952987003973  LUMO = -0.00286156939853759
cycle= 46 E= -2523.08740618734  delta_E= -0.00173  |g|= 0.018  |ddm|= 0.288
  alpha nocc = 76  HOMO = -0.225491081401529  LUMO = 0.00586244772516611
  beta  nocc = 76  HOMO = -0.182601877932187  LUMO = -0.00281366164405863
cycle= 47 E= -2523.08969879598  delta_E= -0.00229  |g|= 0.0153  |ddm|= 0.148
  alpha nocc = 76  HOMO = -0.226102343514416  LUMO = 0.00637377365119188
  beta  nocc = 76  HOMO = -0.184847031431486  LUMO = 0.00118447740435857
cycle= 48 E= -2523.09132795175  delta_E= -0.00163  |g|= 0.0146  |ddm|= 0.104
  alpha nocc = 76  HOMO = -0.226085208888379  LUMO = 0.00662286740509548
  beta  nocc = 76  HOMO = -0.18269990375974  LUMO = 0.00085748170530473
cycle= 49 E= -2523.09234099547  delta_E= -0.00101  |g|= 0.0146  |ddm|= 0.0659
  alpha nocc = 76  HOMO = -0.226481470992454  LUMO = 0.00616360497227634
  beta  nocc = 76  HOMO = -0.181130932669008  LUMO = 0.00264917850941002
cycle= 50 E= -2523.09321298048  delta_E= -0.000872  |g|= 0.0141  |ddm|= 0.0579
SCF not converged.
SCF energy = -2523.09321298048 after 50 cycles  <S^2> = 5.4566821  2S+1 = 4.7777325
