#INFO: **** input file is /home/ltkoanh/Al_B2LYP_6311_Gd_Cluster/Cluster/Al10-cation-doublet/input.py ****
import numpy
from pyscf import gto, scf, dft, mp, cc
from pyscf.mp import uobmp2_mom_conv, dfuobmp2_mom_conv, uhf_mom
from pyscf.mp import  mp2, ump2
from pyscf.tools import molden
import os
from functools import reduce


mol = gto.Mole()
geom = os.environ.get('geom_txt')
mol.atom = geom
mol.basis = os.environ.get('basis', 'cc-pvdz')
mol.unit = 'A'
mol.charge = int(os.environ.get('charge', 0))
mol.spin = int(os.environ.get('spin', 0))
mol.verbose = 4
mol.build()

#################### Ground state using density fitting
### Hartree-Fock
a  = scf.UHF(mol).density_fit()
a.kernel()

### Ground state OBMP2 calculation
ob = dfuobmp2_mom_conv.DFUOBMP2(a)
ob.second_order = True
ob.thresh = 10e-6
ob.css = 1
ob.cos = 1
e_obmp2g = ob.kernel()

### Ground state O2BMP2 calculation
ob = dfuobmp2_mom_conv.DFUOBMP2(a)
ob.second_order = True
ob.thresh = 10e-6
ob.css = 0                             
ob.cos = 1.2                             
e_o2bmp2g = ob.kernel()  

#################### Ground state NOT using density fitting
### Hartree-Fock
a  = scf.UHF(mol)
a.kernel()

### Ground state OBMP2 calculation
ob = uobmp2_mom_conv.UOBMP2(a)
ob.second_order = True
ob.thresh = 10e-6
ob.css = 1
ob.cos = 1
#e_obmp2g = ob.kernel()

### Ground state O2BMP2 calculation
ob = uobmp2_mom_conv.UOBMP2(a)
ob.second_order = True
ob.thresh = 10e-6
ob.css = 0
ob.cos = 1.2   ## the cos can be vary ...                        	 
#e_o2bmp2g = ob.kernel()


## Results from density-fitting approximate with non-using density fitting 
## check results between df and non-df with small molecules before running the important molecules
#INFO: ******************** input file end ********************


System: uname_result(system='Linux', node='comphys', release='3.10.0-1160.119.1.el7.x86_64', version='#1 SMP Tue Jun 4 14:43:51 UTC 2024', machine='x86_64', processor='x86_64')  Threads 8
Python 3.7.9 (default, Dec  4 2023, 13:00:18) 
[GCC 4.8.5 20150623 (Red Hat 4.8.5-44)]
numpy 1.21.6  scipy 1.7.3
Date: Tue May 27 16:58:28 2025
PySCF version 1.7.0
PySCF path  /share/installs/pyscf/pyscf
GIT HEAD      ref: refs/heads/ob-mp2
GIT ob-mp2 branch  f0fc63383ab6c719c0c91f5e07a6895c637b700d

[CONFIG] conf_file None
[INPUT] verbose = 4
[INPUT] num. atoms = 10
[INPUT] num. electrons = 129
[INPUT] charge = 1
[INPUT] spin (= nelec alpha-beta = 2S) = 1
[INPUT] symmetry False subgroup None
[INPUT] Mole.unit = A
[INPUT]  1 Al     2.324482000000  -1.720294000000   0.000000000000 AA    4.392634361481  -3.250884513733   0.000000000000 Bohr
[INPUT]  2 Al    -2.393766000000  -2.161399000000   0.000000000000 AA   -4.523562146296  -4.084452155909   0.000000000000 Bohr
[INPUT]  3 Al     0.099588000000  -2.984875000000   0.000000000000 AA    0.188194045293  -5.640596266061   0.000000000000 Bohr
[INPUT]  4 Al     0.205185000000  -0.687890000000   1.511744000000 AA    0.387743454869  -1.299923703827   2.856782130454 Bohr
[INPUT]  5 Al     0.205185000000  -0.687890000000  -1.511744000000 AA    0.387743454869  -1.299923703827  -2.856782130454 Bohr
[INPUT]  6 Al     0.205185000000   1.850008000000   1.609656000000 AA    0.387743454869   3.496008448254   3.041808994763 Bohr
[INPUT]  7 Al     2.237536000000   0.979775000000   0.000000000000 AA    4.228330233855   1.851506413696   0.000000000000 Bohr
[INPUT]  8 Al    -1.793948000000   0.445966000000   0.000000000000 AA   -3.390070401711   0.842753600868   0.000000000000 Bohr
[INPUT]  9 Al     0.205185000000   1.850008000000  -1.609656000000 AA    0.387743454869   3.496008448254  -3.041808994763 Bohr
[INPUT] 10 Al    -1.294633000000   3.116591000000   0.000000000000 AA   -2.446501801824   5.889503432284   0.000000000000 Bohr

nuclear repulsion = 1181.80323498723
number of shells = 50
number of NR pGTOs = 540
number of NR cGTOs = 90
basis = sto-6g
ecp = {}
CPU time:         1.56


******** <class 'pyscf.df.df_jk.density_fit.<locals>.DFHF'> ********
method = DFHF-UHF
initial guess = minao
damping factor = 0
level_shift factor = 0
DIIS = <class 'pyscf.scf.diis.CDIIS'>
diis_start_cycle = 1
diis_space = 8
SCF conv_tol = 1e-09
SCF conv_tol_grad = None
SCF max_cycles = 50
direct_scf = True
direct_scf_tol = 1e-13
chkfile to save SCF result = /home/ltkoanh/Al_B2LYP_6311_Gd_Cluster/Cluster/Al10-cation-doublet/tmplp0jkset
max_memory 4000 MB (current use 60 MB)
number electrons alpha = 65  beta = 64
Set gradient conv threshold to 3.16228e-05
******** <class 'pyscf.df.df.DF'> ********
auxbasis = None
max_memory = 4000
_cderi_to_save = /home/ltkoanh/Al_B2LYP_6311_Gd_Cluster/Cluster/Al10-cation-doublet/tmpbkmzwgop
Even tempered Gaussians are generated as DF auxbasis for  Al
init E= -2410.21974730124
  alpha nocc = 65  HOMO = -0.190944427361339  LUMO = -0.155176078220449
  beta  nocc = 64  HOMO = -0.218387628910989  LUMO = -0.19094442736134

WARN: system HOMO -0.19094442736134 >= system LUMO -0.19094442736134

cycle= 1 E= -2409.02091355204  delta_E=  1.2  |g|= 0.184  |ddm|= 3.43
  alpha nocc = 65  HOMO = -0.0845390331460919  LUMO = 0.0801125469852011
  beta  nocc = 64  HOMO = -0.0766453145420841  LUMO = 0.05614929546994
cycle= 2 E= -2409.0557261068  delta_E= -0.0348  |g|= 0.144  |ddm|= 0.722
  alpha nocc = 65  HOMO = -0.114244741054666  LUMO = 0.0676851117180209
  beta  nocc = 64  HOMO = -0.10837969658275  LUMO = 0.0617270347174282
cycle= 3 E= -2409.07689150039  delta_E= -0.0212  |g|= 0.0506  |ddm|= 0.303
  alpha nocc = 65  HOMO = -0.114376853247188  LUMO = 0.0692657852516074
  beta  nocc = 64  HOMO = -0.11075790788113  LUMO = 0.0644668601092555
cycle= 4 E= -2409.08208507861  delta_E= -0.00519  |g|= 0.0422  |ddm|= 0.186
  alpha nocc = 65  HOMO = -0.113641572559597  LUMO = 0.070306179765379
  beta  nocc = 64  HOMO = -0.114001077001637  LUMO = 0.0707586271005503
cycle= 5 E= -2409.08760291158  delta_E= -0.00552  |g|= 0.0243  |ddm|= 0.189
  alpha nocc = 65  HOMO = -0.113148015209196  LUMO = 0.0735471226452346
  beta  nocc = 64  HOMO = -0.116565040705926  LUMO = 0.0738636434672882
cycle= 6 E= -2409.09147901912  delta_E= -0.00388  |g|= 0.017  |ddm|= 0.186
  alpha nocc = 65  HOMO = -0.113033434694324  LUMO = 0.0745105234728331
  beta  nocc = 64  HOMO = -0.119635701263531  LUMO = 0.0759518727680432
cycle= 7 E= -2409.09453042413  delta_E= -0.00305  |g|= 0.0166  |ddm|= 0.172
  alpha nocc = 65  HOMO = -0.113093402004392  LUMO = 0.0747014089333754
  beta  nocc = 64  HOMO = -0.119827533595518  LUMO = 0.075902928164593
cycle= 8 E= -2409.09500735558  delta_E= -0.000477  |g|= 0.0171  |ddm|= 0.0259
  alpha nocc = 65  HOMO = -0.114294219458086  LUMO = 0.0730174656001041
  beta  nocc = 64  HOMO = -0.118645798666846  LUMO = 0.0764069510500395
cycle= 9 E= -2409.09219531968  delta_E= 0.00281  |g|= 0.012  |ddm|= 0.235
  alpha nocc = 65  HOMO = -0.114506296757743  LUMO = 0.0735042971528414
  beta  nocc = 64  HOMO = -0.117054422444125  LUMO = 0.0766697006051522
cycle= 10 E= -2409.09221386886  delta_E= -1.85e-05  |g|= 0.00913  |ddm|= 0.107
  alpha nocc = 65  HOMO = -0.113254284685  LUMO = 0.0731649846983738
  beta  nocc = 64  HOMO = -0.115297938757079  LUMO = 0.0751642409782197
cycle= 11 E= -2409.09282334228  delta_E= -0.000609  |g|= 0.00659  |ddm|= 0.0921
  alpha nocc = 65  HOMO = -0.113480189529963  LUMO = 0.0730128759395838
  beta  nocc = 64  HOMO = -0.115380857385974  LUMO = 0.0752089261952597
cycle= 12 E= -2409.09320416416  delta_E= -0.000381  |g|= 0.00551  |ddm|= 0.0798
  alpha nocc = 65  HOMO = -0.114108360251852  LUMO = 0.0730508647121037
  beta  nocc = 64  HOMO = -0.116028181071149  LUMO = 0.0752684791790949
cycle= 13 E= -2409.09346461553  delta_E= -0.00026  |g|= 0.00483  |ddm|= 0.0535
  alpha nocc = 65  HOMO = -0.113823545618466  LUMO = 0.0729575038440196
  beta  nocc = 64  HOMO = -0.115585016094344  LUMO = 0.0749315606669601
cycle= 14 E= -2409.09372648723  delta_E= -0.000262  |g|= 0.0047  |ddm|= 0.0503
  alpha nocc = 65  HOMO = -0.113928666317498  LUMO = 0.073075606968147
  beta  nocc = 64  HOMO = -0.11554577836495  LUMO = 0.0747175482310623
cycle= 15 E= -2409.09387508787  delta_E= -0.000149  |g|= 0.00474  |ddm|= 0.0286
  alpha nocc = 65  HOMO = -0.113903139247544  LUMO = 0.0729280400046017
  beta  nocc = 64  HOMO = -0.115547955401391  LUMO = 0.0747872357040478
cycle= 16 E= -2409.0937880774  delta_E= 8.7e-05  |g|= 0.00466  |ddm|= 0.017
  alpha nocc = 65  HOMO = -0.114404022679127  LUMO = 0.0731052078025764
  beta  nocc = 64  HOMO = -0.11539006525362  LUMO = 0.0751648012986531
cycle= 17 E= -2409.09355637311  delta_E= 0.000232  |g|= 0.0041  |ddm|= 0.0652
  alpha nocc = 65  HOMO = -0.114444725501939  LUMO = 0.0721999333068893
  beta  nocc = 64  HOMO = -0.115125761054956  LUMO = 0.0754095357098472
cycle= 18 E= -2409.09344196017  delta_E= 0.000114  |g|= 0.00354  |ddm|= 0.0793
  alpha nocc = 65  HOMO = -0.114357417971258  LUMO = 0.0719400630338733
  beta  nocc = 64  HOMO = -0.114738707883243  LUMO = 0.075301650218223
cycle= 19 E= -2409.09347195364  delta_E= -3e-05  |g|= 0.00338  |ddm|= 0.0368
  alpha nocc = 65  HOMO = -0.114342548202071  LUMO = 0.0717224601447847
  beta  nocc = 64  HOMO = -0.114602864388514  LUMO = 0.0752783866150701
cycle= 20 E= -2409.09354445424  delta_E= -7.25e-05  |g|= 0.00323  |ddm|= 0.0288
  alpha nocc = 65  HOMO = -0.114330618459384  LUMO = 0.0715220073754211
  beta  nocc = 64  HOMO = -0.114466788945981  LUMO = 0.0750672827540762
cycle= 21 E= -2409.09365926809  delta_E= -0.000115  |g|= 0.0032  |ddm|= 0.0354
  alpha nocc = 65  HOMO = -0.11441676315685  LUMO = 0.071439866662294
  beta  nocc = 64  HOMO = -0.114422081648692  LUMO = 0.0749140533643303
cycle= 22 E= -2409.09373655255  delta_E= -7.73e-05  |g|= 0.00323  |ddm|= 0.0228
  alpha nocc = 65  HOMO = -0.114397884419377  LUMO = 0.0714686132164121
  beta  nocc = 64  HOMO = -0.114504238186196  LUMO = 0.0749827806258973
cycle= 23 E= -2409.09369832445  delta_E= 3.82e-05  |g|= 0.00319  |ddm|= 0.0118
  alpha nocc = 65  HOMO = -0.114460405462507  LUMO = 0.0715349609092981
  beta  nocc = 64  HOMO = -0.114600995302218  LUMO = 0.0750629171601048
cycle= 24 E= -2409.09367246101  delta_E= 2.59e-05  |g|= 0.0031  |ddm|= 0.019
  alpha nocc = 65  HOMO = -0.114508878004496  LUMO = 0.071253877891184
  beta  nocc = 64  HOMO = -0.114585413143097  LUMO = 0.0748928984013969
cycle= 25 E= -2409.09374631798  delta_E= -7.39e-05  |g|= 0.00306  |ddm|= 0.0278
  alpha nocc = 65  HOMO = -0.114477797694943  LUMO = 0.0711650109961687
  beta  nocc = 64  HOMO = -0.11457636178791  LUMO = 0.074823239628058
cycle= 26 E= -2409.09379248565  delta_E= -4.62e-05  |g|= 0.00305  |ddm|= 0.015
  alpha nocc = 65  HOMO = -0.114502617451836  LUMO = 0.0711211371959416
  beta  nocc = 64  HOMO = -0.114570385846467  LUMO = 0.0748010378253117
cycle= 27 E= -2409.09381357602  delta_E= -2.11e-05  |g|= 0.00305  |ddm|= 0.00726
  alpha nocc = 65  HOMO = -0.114449431491289  LUMO = 0.0712119603017678
  beta  nocc = 64  HOMO = -0.114613157115557  LUMO = 0.074840382859572
cycle= 28 E= -2409.09378857115  delta_E= 2.5e-05  |g|= 0.00303  |ddm|= 0.0118
  alpha nocc = 65  HOMO = -0.114434348653553  LUMO = 0.0712204607146902
  beta  nocc = 64  HOMO = -0.114633816501487  LUMO = 0.0747788383935192
cycle= 29 E= -2409.0938049934  delta_E= -1.64e-05  |g|= 0.00301  |ddm|= 0.00813
  alpha nocc = 65  HOMO = -0.114361609630228  LUMO = 0.0711783290477816
  beta  nocc = 64  HOMO = -0.114647525420695  LUMO = 0.0746057231803428
cycle= 30 E= -2409.0939139668  delta_E= -0.000109  |g|= 0.00296  |ddm|= 0.0373
  alpha nocc = 65  HOMO = -0.114183180320895  LUMO = 0.0712335046390343
  beta  nocc = 64  HOMO = -0.114697798369226  LUMO = 0.0743454646181447
cycle= 31 E= -2409.0940987179  delta_E= -0.000185  |g|= 0.00287  |ddm|= 0.0622
  alpha nocc = 65  HOMO = -0.114117945781495  LUMO = 0.0712827609762953
  beta  nocc = 64  HOMO = -0.114912751034124  LUMO = 0.0740401691303662
cycle= 32 E= -2409.09429650716  delta_E= -0.000198  |g|= 0.00275  |ddm|= 0.0676
  alpha nocc = 65  HOMO = -0.114071306162033  LUMO = 0.0710533400037776
  beta  nocc = 64  HOMO = -0.114647515233813  LUMO = 0.0736572910623899
cycle= 33 E= -2409.09438312432  delta_E= -8.66e-05  |g|= 0.00277  |ddm|= 0.0304
  alpha nocc = 65  HOMO = -0.114055475240311  LUMO = 0.0710718808102369
  beta  nocc = 64  HOMO = -0.114650437998412  LUMO = 0.0736337425051431
cycle= 34 E= -2409.09439769826  delta_E= -1.46e-05  |g|= 0.00278  |ddm|= 0.00511
  alpha nocc = 65  HOMO = -0.114029130902599  LUMO = 0.0710947143454397
  beta  nocc = 64  HOMO = -0.114632395145078  LUMO = 0.0736646032150236
cycle= 35 E= -2409.094388833  delta_E= 8.87e-06  |g|= 0.00277  |ddm|= 0.0043
  alpha nocc = 65  HOMO = -0.114004972289444  LUMO = 0.071204451669648
  beta  nocc = 64  HOMO = -0.114730974399886  LUMO = 0.0736009195584187
cycle= 36 E= -2409.094425346  delta_E= -3.65e-05  |g|= 0.00268  |ddm|= 0.0178
  alpha nocc = 65  HOMO = -0.114024891128176  LUMO = 0.0712228801380776
  beta  nocc = 64  HOMO = -0.114593400987398  LUMO = 0.0732413964524413
cycle= 37 E= -2409.09448262126  delta_E= -5.73e-05  |g|= 0.00262  |ddm|= 0.0272
  alpha nocc = 65  HOMO = -0.114024236991771  LUMO = 0.0714405795131827
  beta  nocc = 64  HOMO = -0.114570506204855  LUMO = 0.0729282018615231
cycle= 38 E= -2409.09459885602  delta_E= -0.000116  |g|= 0.00242  |ddm|= 0.0504
  alpha nocc = 65  HOMO = -0.114137190671384  LUMO = 0.0718723206147842
  beta  nocc = 64  HOMO = -0.114782334625886  LUMO = 0.0722542157087561
cycle= 39 E= -2409.09477651462  delta_E= -0.000178  |g|= 0.00211  |ddm|= 0.0868
  alpha nocc = 65  HOMO = -0.114393086101757  LUMO = 0.0719867114208821
  beta  nocc = 64  HOMO = -0.114805040500262  LUMO = 0.0716585927380195
cycle= 40 E= -2409.09490419122  delta_E= -0.000128  |g|= 0.00176  |ddm|= 0.0741
  alpha nocc = 65  HOMO = -0.114472697303732  LUMO = 0.0721226055771881
  beta  nocc = 64  HOMO = -0.114745970690005  LUMO = 0.0713847013661135
cycle= 41 E= -2409.09497541053  delta_E= -7.12e-05  |g|= 0.00159  |ddm|= 0.047
  alpha nocc = 65  HOMO = -0.114648113572275  LUMO = 0.072128710943059
  beta  nocc = 64  HOMO = -0.114499512512968  LUMO = 0.0710439555509295
cycle= 42 E= -2409.09502258023  delta_E= -4.72e-05  |g|= 0.00152  |ddm|= 0.0318
  alpha nocc = 65  HOMO = -0.114746553297393  LUMO = 0.0721790978169416
  beta  nocc = 64  HOMO = -0.114537808283837  LUMO = 0.0709921908030283
cycle= 43 E= -2409.09504740439  delta_E= -2.48e-05  |g|= 0.00153  |ddm|= 0.017
  alpha nocc = 65  HOMO = -0.114748980092639  LUMO = 0.0722038770780428
  beta  nocc = 64  HOMO = -0.114497706695883  LUMO = 0.0709726418933601
cycle= 44 E= -2409.09504813828  delta_E= -7.34e-07  |g|= 0.00153  |ddm|= 0.00204
  alpha nocc = 65  HOMO = -0.114709313313914  LUMO = 0.0721144476735122
  beta  nocc = 64  HOMO = -0.114483225432051  LUMO = 0.071052202995824
cycle= 45 E= -2409.09503995484  delta_E= 8.18e-06  |g|= 0.00155  |ddm|= 0.00841
  alpha nocc = 65  HOMO = -0.114694697884744  LUMO = 0.0720487218131487
  beta  nocc = 64  HOMO = -0.114391023901427  LUMO = 0.0710368078669273
cycle= 46 E= -2409.09503283576  delta_E= 7.12e-06  |g|= 0.00156  |ddm|= 0.00606
  alpha nocc = 65  HOMO = -0.114693098987161  LUMO = 0.0720984625687142
  beta  nocc = 64  HOMO = -0.114434005151517  LUMO = 0.0710408084957156
cycle= 47 E= -2409.09503389903  delta_E= -1.06e-06  |g|= 0.00156  |ddm|= 0.00225
  alpha nocc = 65  HOMO = -0.1147015800988  LUMO = 0.0721691546662327
  beta  nocc = 64  HOMO = -0.114487606649631  LUMO = 0.0709983698758293
cycle= 48 E= -2409.09503854424  delta_E= -4.65e-06  |g|= 0.00156  |ddm|= 0.00597
  alpha nocc = 65  HOMO = -0.11469752527294  LUMO = 0.0721435310567408
  beta  nocc = 64  HOMO = -0.114462100745414  LUMO = 0.0710019967136356
cycle= 49 E= -2409.0950369093  delta_E= 1.63e-06  |g|= 0.00156  |ddm|= 0.00203
  alpha nocc = 65  HOMO = -0.114699779205851  LUMO = 0.0721473733249143
  beta  nocc = 64  HOMO = -0.1144788656052  LUMO = 0.0710104101976377
cycle= 50 E= -2409.09503593844  delta_E= 9.71e-07  |g|= 0.00155  |ddm|= 0.000966
SCF not converged.
SCF energy = -2409.09503593844 after 50 cycles  <S^2> = 1.1115398  2S+1 = 2.3337007
shift = 0
thresh = 1e-05 
eri1 (1130, 4095)
eri1 (1130, 4095)
    CPU time for making amplitude: integral transform      0.49 sec, wall time      0.03 sec
shape (1130, 2250)
1st memory: 331.5 MiB
eri1 (1130, 4095)
eri1 (1130, 4095)
2nd memory: 280.3 MiB

========================
iter = 0  energy = -2409.649774 energy diff = 2409.649774
multiplicity <S^2> : Reference = 1.1115398 Response = 1.1098977 Projector = 1.1082556
eri1 (1130, 4095)
eri1 (1130, 4095)
    CPU time for making amplitude: integral transform      0.62 sec, wall time      0.04 sec
shape (1130, 2250)
1st memory: 385.3 MiB
eri1 (1130, 4095)
eri1 (1130, 4095)
2nd memory: 280.3 MiB

========================
iter = 1  energy = -2409.668725 energy diff = 0.018950
multiplicity <S^2> : Reference = 1.0018605 Response = 1.0018415 Projector = 1.0018225
eri1 (1130, 4095)
eri1 (1130, 4095)
    CPU time for making amplitude: integral transform      0.68 sec, wall time      0.05 sec
shape (1130, 2250)
1st memory: 385.1 MiB
eri1 (1130, 4095)
eri1 (1130, 4095)
2nd memory: 280.3 MiB

========================
iter = 2  energy = -2409.679938 energy diff = 0.011213
multiplicity <S^2> : Reference = 0.94250487 Response = 0.94248144 Projector = 0.94245801
eri1 (1130, 4095)
eri1 (1130, 4095)
    CPU time for making amplitude: integral transform      0.54 sec, wall time      0.04 sec
shape (1130, 2250)
1st memory: 384.7 MiB
eri1 (1130, 4095)
eri1 (1130, 4095)
2nd memory: 280.3 MiB

========================
iter = 3  energy = -2409.691302 energy diff = 0.011364
multiplicity <S^2> : Reference = 0.86514902 Response = 0.8651692 Projector = 0.86518938
eri1 (1130, 4095)
eri1 (1130, 4095)
    CPU time for making amplitude: integral transform      0.65 sec, wall time      0.04 sec
shape (1130, 2250)
1st memory: 384.5 MiB
eri1 (1130, 4095)
eri1 (1130, 4095)
2nd memory: 279.6 MiB

========================
iter = 4  energy = -2409.696632 energy diff = 0.005330
multiplicity <S^2> : Reference = 0.82332317 Response = 0.82327409 Projector = 0.82322501
eri1 (1130, 4095)
eri1 (1130, 4095)
    CPU time for making amplitude: integral transform      0.72 sec, wall time      0.05 sec
shape (1130, 2250)
1st memory: 384.4 MiB
eri1 (1130, 4095)
eri1 (1130, 4095)
2nd memory: 279.6 MiB

========================
iter = 5  energy = -2409.699770 energy diff = 0.003138
multiplicity <S^2> : Reference = 0.79665532 Response = 0.79663883 Projector = 0.79662235
eri1 (1130, 4095)
eri1 (1130, 4095)
    CPU time for making amplitude: integral transform      0.53 sec, wall time      0.04 sec
shape (1130, 2250)
1st memory: 385.2 MiB
eri1 (1130, 4095)
eri1 (1130, 4095)
2nd memory: 280.3 MiB

========================
iter = 6  energy = -2409.701117 energy diff = 0.001348
multiplicity <S^2> : Reference = 0.78414787 Response = 0.78418386 Projector = 0.78421984
eri1 (1130, 4095)
eri1 (1130, 4095)
    CPU time for making amplitude: integral transform      0.56 sec, wall time      0.04 sec
shape (1130, 2250)
1st memory: 384.6 MiB
eri1 (1130, 4095)
eri1 (1130, 4095)
2nd memory: 280.3 MiB

========================
iter = 7  energy = -2409.701556 energy diff = 0.000439
multiplicity <S^2> : Reference = 0.78056348 Response = 0.78059501 Projector = 0.78062654
eri1 (1130, 4095)
eri1 (1130, 4095)
    CPU time for making amplitude: integral transform      0.60 sec, wall time      0.04 sec
shape (1130, 2250)
1st memory: 384.3 MiB
eri1 (1130, 4095)
eri1 (1130, 4095)
2nd memory: 279.3 MiB

========================
iter = 8  energy = -2409.701909 energy diff = 0.000353
multiplicity <S^2> : Reference = 0.77902175 Response = 0.77905036 Projector = 0.77907897
eri1 (1130, 4095)
eri1 (1130, 4095)
    CPU time for making amplitude: integral transform      0.60 sec, wall time      0.04 sec
shape (1130, 2250)
1st memory: 384.2 MiB
eri1 (1130, 4095)
eri1 (1130, 4095)
2nd memory: 279.3 MiB

========================
iter = 9  energy = -2409.701958 energy diff = 0.000049
multiplicity <S^2> : Reference = 0.7797402 Response = 0.77980245 Projector = 0.7798647
eri1 (1130, 4095)
eri1 (1130, 4095)
    CPU time for making amplitude: integral transform      0.60 sec, wall time      0.04 sec
shape (1130, 2250)
1st memory: 384.7 MiB
eri1 (1130, 4095)
eri1 (1130, 4095)
2nd memory: 279.7 MiB

========================
iter = 10  energy = -2409.701977 energy diff = 0.000019
multiplicity <S^2> : Reference = 0.7808002 Response = 0.78083098 Projector = 0.78086175
eri1 (1130, 4095)
eri1 (1130, 4095)
    CPU time for making amplitude: integral transform      0.50 sec, wall time      0.03 sec
shape (1130, 2250)
1st memory: 384.5 MiB
eri1 (1130, 4095)
eri1 (1130, 4095)
2nd memory: 281.0 MiB

========================
iter = 11  energy = -2409.701970 energy diff = 0.000007
multiplicity <S^2> : Reference = 0.78140734 Response = 0.78144136 Projector = 0.78147538

UOB-MP2 has converged
UOB-MP2 energy =  -2409.7019702211683
shift = 0
thresh = 1e-05 
eri1 (1130, 4095)
eri1 (1130, 4095)
    CPU time for making amplitude: integral transform      0.69 sec, wall time      0.05 sec
shape (1130, 2250)
1st memory: 386.0 MiB
eri1 (1130, 4095)
eri1 (1130, 4095)
2nd memory: 281.0 MiB

========================
iter = 0  energy = -2409.470886 energy diff = 2409.470886
multiplicity <S^2> : Reference = 1.1115398 Response = 1.1098977 Projector = 1.1082556
eri1 (1130, 4095)
eri1 (1130, 4095)
    CPU time for making amplitude: integral transform      0.57 sec, wall time      0.04 sec
shape (1130, 2250)
1st memory: 386.0 MiB
eri1 (1130, 4095)
eri1 (1130, 4095)
2nd memory: 281.0 MiB

========================
iter = 1  energy = -2409.496681 energy diff = 0.025795
multiplicity <S^2> : Reference = 1.0142859 Response = 1.0142816 Projector = 1.0142773
eri1 (1130, 4095)
eri1 (1130, 4095)
    CPU time for making amplitude: integral transform      0.60 sec, wall time      0.04 sec
shape (1130, 2250)
1st memory: 385.2 MiB
eri1 (1130, 4095)
eri1 (1130, 4095)
2nd memory: 281.0 MiB

========================
iter = 2  energy = -2409.502920 energy diff = 0.006239
multiplicity <S^2> : Reference = 0.95739968 Response = 0.95734279 Projector = 0.9572859
eri1 (1130, 4095)
eri1 (1130, 4095)
    CPU time for making amplitude: integral transform      0.52 sec, wall time      0.03 sec
shape (1130, 2250)
1st memory: 385.4 MiB
eri1 (1130, 4095)
eri1 (1130, 4095)
2nd memory: 281.0 MiB

========================
iter = 3  energy = -2409.508588 energy diff = 0.005668
multiplicity <S^2> : Reference = 0.89118166 Response = 0.89117312 Projector = 0.89116457
eri1 (1130, 4095)
eri1 (1130, 4095)
    CPU time for making amplitude: integral transform      0.53 sec, wall time      0.04 sec
shape (1130, 2250)
1st memory: 385.8 MiB
eri1 (1130, 4095)
eri1 (1130, 4095)
2nd memory: 281.0 MiB

========================
iter = 4  energy = -2409.512124 energy diff = 0.003536
multiplicity <S^2> : Reference = 0.8429074 Response = 0.84286942 Projector = 0.84283144
eri1 (1130, 4095)
eri1 (1130, 4095)
    CPU time for making amplitude: integral transform      0.57 sec, wall time      0.04 sec
shape (1130, 2250)
1st memory: 385.3 MiB
eri1 (1130, 4095)
eri1 (1130, 4095)
2nd memory: 281.0 MiB

========================
iter = 5  energy = -2409.513972 energy diff = 0.001848
multiplicity <S^2> : Reference = 0.81450706 Response = 0.81452265 Projector = 0.81453824
eri1 (1130, 4095)
eri1 (1130, 4095)
    CPU time for making amplitude: integral transform      0.51 sec, wall time      0.03 sec
shape (1130, 2250)
1st memory: 385.2 MiB
eri1 (1130, 4095)
eri1 (1130, 4095)
2nd memory: 280.3 MiB

========================
iter = 6  energy = -2409.515169 energy diff = 0.001197
multiplicity <S^2> : Reference = 0.79544165 Response = 0.79545593 Projector = 0.79547022
eri1 (1130, 4095)
eri1 (1130, 4095)
    CPU time for making amplitude: integral transform      0.54 sec, wall time      0.04 sec
shape (1130, 2250)
1st memory: 385.3 MiB
eri1 (1130, 4095)
eri1 (1130, 4095)
2nd memory: 280.5 MiB

========================
iter = 7  energy = -2409.515588 energy diff = 0.000419
multiplicity <S^2> : Reference = 0.78987795 Response = 0.78979386 Projector = 0.78970978
eri1 (1130, 4095)
eri1 (1130, 4095)
    CPU time for making amplitude: integral transform      0.51 sec, wall time      0.03 sec
shape (1130, 2250)
1st memory: 385.6 MiB
eri1 (1130, 4095)
eri1 (1130, 4095)
2nd memory: 281.0 MiB

========================
iter = 8  energy = -2409.515830 energy diff = 0.000242
multiplicity <S^2> : Reference = 0.78770053 Response = 0.78768819 Projector = 0.78767585
eri1 (1130, 4095)
eri1 (1130, 4095)
    CPU time for making amplitude: integral transform      0.62 sec, wall time      0.04 sec
shape (1130, 2250)
1st memory: 385.0 MiB
eri1 (1130, 4095)
eri1 (1130, 4095)
2nd memory: 280.2 MiB

========================
iter = 9  energy = -2409.515906 energy diff = 0.000075
multiplicity <S^2> : Reference = 0.78868973 Response = 0.78866259 Projector = 0.78863545
eri1 (1130, 4095)
eri1 (1130, 4095)
    CPU time for making amplitude: integral transform      0.65 sec, wall time      0.04 sec
shape (1130, 2250)
1st memory: 384.7 MiB
eri1 (1130, 4095)
eri1 (1130, 4095)
2nd memory: 279.8 MiB

========================
iter = 10  energy = -2409.515949 energy diff = 0.000043
multiplicity <S^2> : Reference = 0.78984736 Response = 0.78983128 Projector = 0.7898152
eri1 (1130, 4095)
eri1 (1130, 4095)
    CPU time for making amplitude: integral transform      0.49 sec, wall time      0.03 sec
shape (1130, 2250)
1st memory: 385.1 MiB
eri1 (1130, 4095)
eri1 (1130, 4095)
2nd memory: 281.0 MiB

========================
iter = 11  energy = -2409.515948 energy diff = 0.000001
multiplicity <S^2> : Reference = 0.79087912 Response = 0.79090151 Projector = 0.79092391

UOB-MP2 has converged
UOB-MP2 energy =  -2409.51594799342


******** <class 'pyscf.scf.uhf.UHF'> ********
method = UHF
initial guess = minao
damping factor = 0
level_shift factor = 0
DIIS = <class 'pyscf.scf.diis.CDIIS'>
diis_start_cycle = 1
diis_space = 8
SCF conv_tol = 1e-09
SCF conv_tol_grad = None
SCF max_cycles = 50
direct_scf = True
direct_scf_tol = 1e-13
chkfile to save SCF result = /home/ltkoanh/Al_B2LYP_6311_Gd_Cluster/Cluster/Al10-cation-doublet/tmpvo_km5n_
max_memory 4000 MB (current use 281 MB)
number electrons alpha = 65  beta = 64
Set gradient conv threshold to 3.16228e-05
init E= -2410.22134077113
  alpha nocc = 65  HOMO = -0.191149629748766  LUMO = -0.155379582402049
  beta  nocc = 64  HOMO = -0.21861010739395  LUMO = -0.191149629748766

WARN: system HOMO -0.191149629748766 >= system LUMO -0.191149629748766

cycle= 1 E= -2409.02325396761  delta_E=  1.2  |g|= 0.184  |ddm|= 3.43
  alpha nocc = 65  HOMO = -0.0847279330620486  LUMO = 0.0799274935764491
  beta  nocc = 64  HOMO = -0.0767847433580938  LUMO = 0.0559708626560951
cycle= 2 E= -2409.05807267963  delta_E= -0.0348  |g|= 0.144  |ddm|= 0.723
  alpha nocc = 65  HOMO = -0.114462708249083  LUMO = 0.0675068751570679
  beta  nocc = 64  HOMO = -0.108546789799721  LUMO = 0.0615434268731628
cycle= 3 E= -2409.07925864231  delta_E= -0.0212  |g|= 0.0504  |ddm|= 0.303
  alpha nocc = 65  HOMO = -0.114576060610927  LUMO = 0.0690780044666125
  beta  nocc = 64  HOMO = -0.110914142791612  LUMO = 0.0642788055175979
cycle= 4 E= -2409.08443932234  delta_E= -0.00518  |g|= 0.0422  |ddm|= 0.186
  alpha nocc = 65  HOMO = -0.113850409189124  LUMO = 0.0701079008064957
  beta  nocc = 64  HOMO = -0.114159374391977  LUMO = 0.0705347948729755
cycle= 5 E= -2409.08993865839  delta_E= -0.0055  |g|= 0.0243  |ddm|= 0.188
  alpha nocc = 65  HOMO = -0.113344752768983  LUMO = 0.0733508159435753
  beta  nocc = 64  HOMO = -0.116721062115009  LUMO = 0.073620256482678
cycle= 6 E= -2409.09380887277  delta_E= -0.00387  |g|= 0.017  |ddm|= 0.186
  alpha nocc = 65  HOMO = -0.113226755657788  LUMO = 0.0743125666646763
  beta  nocc = 64  HOMO = -0.11979433582459  LUMO = 0.0756929667932519
cycle= 7 E= -2409.09685748761  delta_E= -0.00305  |g|= 0.0166  |ddm|= 0.172
  alpha nocc = 65  HOMO = -0.113284152373969  LUMO = 0.0745039410571511
  beta  nocc = 64  HOMO = -0.119984118752196  LUMO = 0.075647735036813
cycle= 8 E= -2409.09732844087  delta_E= -0.000471  |g|= 0.017  |ddm|= 0.0257
  alpha nocc = 65  HOMO = -0.11462628992978  LUMO = 0.0728058360077691
  beta  nocc = 64  HOMO = -0.118777799442893  LUMO = 0.0762226637117116
cycle= 9 E= -2409.0944639231  delta_E= 0.00286  |g|= 0.0116  |ddm|= 0.245
  alpha nocc = 65  HOMO = -0.114517095810661  LUMO = 0.0733349626421267
  beta  nocc = 64  HOMO = -0.116949860228607  LUMO = 0.0763115393762224
cycle= 10 E= -2409.09458661264  delta_E= -0.000123  |g|= 0.00903  |ddm|= 0.101
  alpha nocc = 65  HOMO = -0.113484069190552  LUMO = 0.0729576997867199
  beta  nocc = 64  HOMO = -0.115444025182222  LUMO = 0.0748564120173933
cycle= 11 E= -2409.09515969426  delta_E= -0.000573  |g|= 0.00658  |ddm|= 0.0889
  alpha nocc = 65  HOMO = -0.113695930312561  LUMO = 0.0728209464440233
  beta  nocc = 64  HOMO = -0.115528546099922  LUMO = 0.0749467825107086
cycle= 12 E= -2409.09552715523  delta_E= -0.000367  |g|= 0.00547  |ddm|= 0.0777
  alpha nocc = 65  HOMO = -0.11429590190137  LUMO = 0.0728561376562902
  beta  nocc = 64  HOMO = -0.116149408743571  LUMO = 0.0749963084535951
cycle= 13 E= -2409.0957849466  delta_E= -0.000258  |g|= 0.00482  |ddm|= 0.053
  alpha nocc = 65  HOMO = -0.114020863867171  LUMO = 0.0727657157267628
  beta  nocc = 64  HOMO = -0.115716218880999  LUMO = 0.0746631250338679
cycle= 14 E= -2409.09604264454  delta_E= -0.000258  |g|= 0.00471  |ddm|= 0.0495
  alpha nocc = 65  HOMO = -0.114113549017853  LUMO = 0.0728754358434683
  beta  nocc = 64  HOMO = -0.11568015984703  LUMO = 0.0744730632405875
cycle= 15 E= -2409.09617533907  delta_E= -0.000133  |g|= 0.00475  |ddm|= 0.0254
  alpha nocc = 65  HOMO = -0.114085818478814  LUMO = 0.0726988650524416
  beta  nocc = 64  HOMO = -0.115681099732098  LUMO = 0.0745534795162052
cycle= 16 E= -2409.09607069959  delta_E= 0.000105  |g|= 0.00465  |ddm|= 0.0206
  alpha nocc = 65  HOMO = -0.114654939487807  LUMO = 0.072876199710094
  beta  nocc = 64  HOMO = -0.115533148466257  LUMO = 0.0749354872052977
cycle= 17 E= -2409.09583965358  delta_E= 0.000231  |g|= 0.00407  |ddm|= 0.0669
  alpha nocc = 65  HOMO = -0.11456316761228  LUMO = 0.072053383201669
  beta  nocc = 64  HOMO = -0.115167921854042  LUMO = 0.0751243139476972
cycle= 18 E= -2409.09574523258  delta_E= 9.44e-05  |g|= 0.00353  |ddm|= 0.0746
  alpha nocc = 65  HOMO = -0.114628137506936  LUMO = 0.0716496940662964
  beta  nocc = 64  HOMO = -0.11488301124521  LUMO = 0.0750600928260347
cycle= 19 E= -2409.09577823818  delta_E= -3.3e-05  |g|= 0.00331  |ddm|= 0.0404
  alpha nocc = 65  HOMO = -0.114553042630423  LUMO = 0.0714927726685182
  beta  nocc = 64  HOMO = -0.114678228909936  LUMO = 0.0749836788690247
cycle= 20 E= -2409.09586485266  delta_E= -8.66e-05  |g|= 0.00324  |ddm|= 0.0306
  alpha nocc = 65  HOMO = -0.114575408181213  LUMO = 0.0713552783855082
  beta  nocc = 64  HOMO = -0.114576833382509  LUMO = 0.074806200034186
cycle= 21 E= -2409.09594757229  delta_E= -8.27e-05  |g|= 0.00324  |ddm|= 0.0246
  alpha nocc = 65  HOMO = -0.114615515094035  LUMO = 0.071320187089049
  beta  nocc = 64  HOMO = -0.114568304541619  LUMO = 0.0747557536868295
cycle= 22 E= -2409.09597382282  delta_E= -2.63e-05  |g|= 0.00326  |ddm|= 0.0078
  alpha nocc = 65  HOMO = -0.114626777909949  LUMO = 0.071321286632634
  beta  nocc = 64  HOMO = -0.114645653261016  LUMO = 0.0747999963954647
cycle= 23 E= -2409.0959482958  delta_E= 2.55e-05  |g|= 0.00323  |ddm|= 0.00933
  alpha nocc = 65  HOMO = -0.114635222931427  LUMO = 0.0713220341491894
  beta  nocc = 64  HOMO = -0.114689796541493  LUMO = 0.0748324902245757
cycle= 24 E= -2409.09594519945  delta_E= 3.1e-06  |g|= 0.00316  |ddm|= 0.0171
  alpha nocc = 65  HOMO = -0.114776194875193  LUMO = 0.0710790985740666
  beta  nocc = 64  HOMO = -0.114701589162313  LUMO = 0.0746943944507614
cycle= 25 E= -2409.09600487668  delta_E= -5.97e-05  |g|= 0.00314  |ddm|= 0.027
  alpha nocc = 65  HOMO = -0.114707093509985  LUMO = 0.0710616058378993
  beta  nocc = 64  HOMO = -0.114697173594082  LUMO = 0.0746585518804224
cycle= 26 E= -2409.09601624136  delta_E= -1.14e-05  |g|= 0.00314  |ddm|= 0.00586
  alpha nocc = 65  HOMO = -0.114736807199636  LUMO = 0.0710332147288608
  beta  nocc = 64  HOMO = -0.11469376686879  LUMO = 0.0746501699767203
cycle= 27 E= -2409.09602687607  delta_E= -1.06e-05  |g|= 0.00314  |ddm|= 0.00416
  alpha nocc = 65  HOMO = -0.114714379020364  LUMO = 0.0710544393162018
  beta  nocc = 64  HOMO = -0.114701202635277  LUMO = 0.0746542091867445
cycle= 28 E= -2409.09601867011  delta_E= 8.21e-06  |g|= 0.00314  |ddm|= 0.00398
  alpha nocc = 65  HOMO = -0.114715537674444  LUMO = 0.0711947180576459
  beta  nocc = 64  HOMO = -0.114766587037718  LUMO = 0.074799089658222
cycle= 29 E= -2409.09595594726  delta_E= 6.27e-05  |g|= 0.00311  |ddm|= 0.0197
  alpha nocc = 65  HOMO = -0.114722087191449  LUMO = 0.0712651437813939
  beta  nocc = 64  HOMO = -0.114800146538456  LUMO = 0.0749248061138072
cycle= 30 E= -2409.09588501591  delta_E= 7.09e-05  |g|= 0.00309  |ddm|= 0.0228
  alpha nocc = 65  HOMO = -0.114727777124382  LUMO = 0.0715520197573859
  beta  nocc = 64  HOMO = -0.114897919273951  LUMO = 0.0753313781500584
cycle= 31 E= -2409.09573241152  delta_E= 0.000153  |g|= 0.00303  |ddm|= 0.0502
  alpha nocc = 65  HOMO = -0.114742658389866  LUMO = 0.0713147600793167
  beta  nocc = 64  HOMO = -0.114725553482696  LUMO = 0.0753152707699032
cycle= 32 E= -2409.09573104588  delta_E= 1.37e-06  |g|= 0.00303  |ddm|= 0.0142
  alpha nocc = 65  HOMO = -0.114743165032889  LUMO = 0.0713361815575318
  beta  nocc = 64  HOMO = -0.114730134158654  LUMO = 0.0753259837985523
cycle= 33 E= -2409.09572604241  delta_E= 5e-06  |g|= 0.00303  |ddm|= 0.00237
  alpha nocc = 65  HOMO = -0.114749895593953  LUMO = 0.0713067957614725
  beta  nocc = 64  HOMO = -0.114741393706989  LUMO = 0.0753079505604617
cycle= 34 E= -2409.09573756145  delta_E= -1.15e-05  |g|= 0.00302  |ddm|= 0.00419
  alpha nocc = 65  HOMO = -0.114762518754974  LUMO = 0.0713334759138091
  beta  nocc = 64  HOMO = -0.114785132576676  LUMO = 0.0753384858190347
cycle= 35 E= -2409.09575297567  delta_E= -1.54e-05  |g|= 0.00301  |ddm|= 0.0113
  alpha nocc = 65  HOMO = -0.114783288528717  LUMO = 0.0711455543576493
  beta  nocc = 64  HOMO = -0.114727800718307  LUMO = 0.0752413028855685
cycle= 36 E= -2409.09582413216  delta_E= -7.12e-05  |g|= 0.003  |ddm|= 0.0234
  alpha nocc = 65  HOMO = -0.114789359167044  LUMO = 0.0711055899283601
  beta  nocc = 64  HOMO = -0.114722737018788  LUMO = 0.0752025685169142
cycle= 37 E= -2409.09584789723  delta_E= -2.38e-05  |g|= 0.003  |ddm|= 0.00769
  alpha nocc = 65  HOMO = -0.114782655054093  LUMO = 0.0711103897329042
  beta  nocc = 64  HOMO = -0.114720221200731  LUMO = 0.0752058344993192
cycle= 38 E= -2409.09585670802  delta_E= -8.81e-06  |g|= 0.003  |ddm|= 0.00437
  alpha nocc = 65  HOMO = -0.114776659430561  LUMO = 0.0710222817268936
  beta  nocc = 64  HOMO = -0.114699549094241  LUMO = 0.0750690064533293
cycle= 39 E= -2409.09592880581  delta_E= -7.21e-05  |g|= 0.00301  |ddm|= 0.0226
  alpha nocc = 65  HOMO = -0.114780315002813  LUMO = 0.0710110637549423
  beta  nocc = 64  HOMO = -0.114692611526978  LUMO = 0.0750728150528313
cycle= 40 E= -2409.09593127381  delta_E= -2.47e-06  |g|= 0.00301  |ddm|= 0.00208
  alpha nocc = 65  HOMO = -0.114795239964703  LUMO = 0.0710033482079909
  beta  nocc = 64  HOMO = -0.114684702833438  LUMO = 0.0750996465162233
cycle= 41 E= -2409.09592191037  delta_E= 9.36e-06  |g|= 0.00301  |ddm|= 0.00463
  alpha nocc = 65  HOMO = -0.114741759405837  LUMO = 0.071151790475985
  beta  nocc = 64  HOMO = -0.114736403693892  LUMO = 0.0752333280693108
cycle= 42 E= -2409.09584335547  delta_E= 7.86e-05  |g|= 0.00299  |ddm|= 0.0251
  alpha nocc = 65  HOMO = -0.114690023317233  LUMO = 0.0711463176344224
  beta  nocc = 64  HOMO = -0.11473232211385  LUMO = 0.0751447597510627
cycle= 43 E= -2409.09587838669  delta_E= -3.5e-05  |g|= 0.00298  |ddm|= 0.0125
  alpha nocc = 65  HOMO = -0.114503771346697  LUMO = 0.0711014326378316
  beta  nocc = 64  HOMO = -0.114900233313305  LUMO = 0.0745099675798572
cycle= 44 E= -2409.09624903656  delta_E= -0.000371  |g|= 0.00289  |ddm|= 0.121
  alpha nocc = 65  HOMO = -0.114336537411624  LUMO = 0.071430681246097
  beta  nocc = 64  HOMO = -0.115360204860797  LUMO = 0.0734549691522111
cycle= 45 E= -2409.09672226209  delta_E= -0.000473  |g|= 0.00262  |ddm|= 0.17
  alpha nocc = 65  HOMO = -0.114291554909999  LUMO = 0.0711111182190732
  beta  nocc = 64  HOMO = -0.114961601286074  LUMO = 0.072714899980357
cycle= 46 E= -2409.09691330576  delta_E= -0.000191  |g|= 0.00239  |ddm|= 0.0778
  alpha nocc = 65  HOMO = -0.114387369969775  LUMO = 0.0703855139039262
  beta  nocc = 64  HOMO = -0.114111283904085  LUMO = 0.0717845348912429
cycle= 47 E= -2409.09701971656  delta_E= -0.000106  |g|= 0.00229  |ddm|= 0.0495
  alpha nocc = 65  HOMO = -0.114317725483573  LUMO = 0.072984330204448
  beta  nocc = 64  HOMO = -0.116722943773964  LUMO = 0.0719897815459016
cycle= 48 E= -2409.09729320384  delta_E= -0.000273  |g|= 0.0024  |ddm|= 0.169
  alpha nocc = 65  HOMO = -0.114472532028938  LUMO = 0.0726178910059167
  beta  nocc = 64  HOMO = -0.116338700663779  LUMO = 0.0717878875399596
cycle= 49 E= -2409.09734385345  delta_E= -5.06e-05  |g|= 0.00222  |ddm|= 0.0252
  alpha nocc = 65  HOMO = -0.114415742449847  LUMO = 0.0715158163632964
  beta  nocc = 64  HOMO = -0.11501731536308  LUMO = 0.0714920958734547
cycle= 50 E= -2409.09726846916  delta_E= 7.54e-05  |g|= 0.00201  |ddm|= 0.0598
SCF not converged.
SCF energy = -2409.09726846916 after 50 cycles  <S^2> = 1.0986472  2S+1 = 2.3226254
