#INFO: **** input file is /home/ltkoanh/Al_B2LYP_6311_Gd_Cluster/Cluster/Al4-cation-doublet/input.py ****
import numpy
from pyscf import gto, scf, dft, mp, cc
from pyscf.mp import uobmp2_mom_conv, dfuobmp2_mom_conv, uhf_mom
from pyscf.mp import  mp2, ump2
from pyscf.tools import molden
import os
from functools import reduce


mol = gto.Mole()
geom = os.environ.get('geom_txt')
mol.atom = geom
mol.basis = os.environ.get('basis', 'cc-pvdz')
mol.unit = 'A'
mol.charge = int(os.environ.get('charge', 0))
mol.spin = int(os.environ.get('spin', 0))
mol.verbose = 4
mol.build()

#################### Ground state using density fitting
### Hartree-Fock
a  = scf.UHF(mol).density_fit()
a.kernel()

### Ground state OBMP2 calculation
ob = dfuobmp2_mom_conv.DFUOBMP2(a)
ob.second_order = True
ob.thresh = 10e-6
ob.css = 1
ob.cos = 1
e_obmp2g = ob.kernel()

### Ground state O2BMP2 calculation
ob = dfuobmp2_mom_conv.DFUOBMP2(a)
ob.second_order = True
ob.thresh = 10e-6
ob.css = 0                             
ob.cos = 1.2                             
e_o2bmp2g = ob.kernel()  

#################### Ground state NOT using density fitting
### Hartree-Fock
a  = scf.UHF(mol)
a.kernel()

### Ground state OBMP2 calculation
ob = uobmp2_mom_conv.UOBMP2(a)
ob.second_order = True
ob.thresh = 10e-6
ob.css = 1
ob.cos = 1
#e_obmp2g = ob.kernel()

### Ground state O2BMP2 calculation
ob = uobmp2_mom_conv.UOBMP2(a)
ob.second_order = True
ob.thresh = 10e-6
ob.css = 0
ob.cos = 1.2   ## the cos can be vary ...                        	 
#e_o2bmp2g = ob.kernel()


## Results from density-fitting approximate with non-using density fitting 
## check results between df and non-df with small molecules before running the important molecules
#INFO: ******************** input file end ********************


System: uname_result(system='Linux', node='comphys', release='3.10.0-1160.119.1.el7.x86_64', version='#1 SMP Tue Jun 4 14:43:51 UTC 2024', machine='x86_64', processor='x86_64')  Threads 8
Python 3.7.9 (default, Dec  4 2023, 13:00:18) 
[GCC 4.8.5 20150623 (Red Hat 4.8.5-44)]
numpy 1.21.6  scipy 1.7.3
Date: Sun May 25 19:09:06 2025
PySCF version 1.7.0
PySCF path  /share/installs/pyscf/pyscf
GIT HEAD      ref: refs/heads/ob-mp2
GIT ob-mp2 branch  f0fc63383ab6c719c0c91f5e07a6895c637b700d

[CONFIG] conf_file None
[INPUT] verbose = 4
[INPUT] num. atoms = 4
[INPUT] num. electrons = 9
[INPUT] charge = 1
[INPUT] spin (= nelec alpha-beta = 2S) = 1
[INPUT] symmetry False subgroup None
[INPUT] Mole.unit = A
[INPUT]  1 H      0.000000000000   0.000000000000   2.290311000000 AA    0.000000000000   0.000000000000   4.328060530079 Bohr
[INPUT]  2 He     0.000000000000   1.324613000000   0.000000000000 AA    0.000000000000   2.503155791039   0.000000000000 Bohr
[INPUT]  3 Li     0.000000000000   0.000000000000  -2.290311000000 AA    0.000000000000   0.000000000000  -4.328060530079 Bohr
[INPUT]  4 Be     0.000000000000  -1.324613000000   0.000000000000 AA    0.000000000000  -2.503155791039   0.000000000000 Bohr

nuclear repulsion = 6.74476031316559
number of shells = 8
number of NR pGTOs = 72
number of NR cGTOs = 12
basis = sto-6g
ecp = {}
CPU time:         1.41


******** <class 'pyscf.df.df_jk.density_fit.<locals>.DFHF'> ********
method = DFHF-UHF
initial guess = minao
damping factor = 0
level_shift factor = 0
DIIS = <class 'pyscf.scf.diis.CDIIS'>
diis_start_cycle = 1
diis_space = 8
SCF conv_tol = 1e-09
SCF conv_tol_grad = None
SCF max_cycles = 50
direct_scf = True
direct_scf_tol = 1e-13
chkfile to save SCF result = /home/ltkoanh/Al_B2LYP_6311_Gd_Cluster/Cluster/Al4-cation-doublet/tmpgjr8zjxm
max_memory 4000 MB (current use 60 MB)
number electrons alpha = 5  beta = 4
Set gradient conv threshold to 3.16228e-05
******** <class 'pyscf.df.df.DF'> ********
auxbasis = None
max_memory = 4000
_cderi_to_save = /home/ltkoanh/Al_B2LYP_6311_Gd_Cluster/Cluster/Al4-cation-doublet/tmp_px7sehc
Even tempered Gaussians are generated as DF auxbasis for  He Be Li H
init E= -25.0715073883444
  alpha nocc = 5  HOMO = -0.107665461900281  LUMO = -0.00236715489836319
  beta  nocc = 4  HOMO = -0.330011451744935  LUMO = -0.107665461900281

WARN: system HOMO -0.107665461900281 >= system LUMO -0.107665461900281

cycle= 1 E= -25.0528556322283  delta_E= 0.0187  |g|= 0.0982  |ddm|= 1.06
  alpha nocc = 5  HOMO = -0.480423824362985  LUMO = -0.140628318225395
  beta  nocc = 4  HOMO = -0.476104116685815  LUMO = -0.134854403192797
cycle= 2 E= -25.08210235197  delta_E= -0.0292  |g|= 0.0449  |ddm|= 0.294
  alpha nocc = 5  HOMO = -0.481037678007545  LUMO = -0.116625585427178
  beta  nocc = 4  HOMO = -0.489883248217531  LUMO = -0.128113725973585
cycle= 3 E= -25.0883009403078  delta_E= -0.0062  |g|= 0.00801  |ddm|= 0.192
  alpha nocc = 5  HOMO = -0.482601208850329  LUMO = -0.121528002846753
  beta  nocc = 4  HOMO = -0.486207203850939  LUMO = -0.129120782470255
cycle= 4 E= -25.0885821110311  delta_E= -0.000281  |g|= 0.00666  |ddm|= 0.0286
  alpha nocc = 5  HOMO = -0.484482425933583  LUMO = -0.119844686513973
  beta  nocc = 4  HOMO = -0.488035414309289  LUMO = -0.130296198712777
cycle= 5 E= -25.0889780162062  delta_E= -0.000396  |g|= 0.00638  |ddm|= 0.0426
  alpha nocc = 5  HOMO = -0.485676369650474  LUMO = -0.119732509814839
  beta  nocc = 4  HOMO = -0.488215393780374  LUMO = -0.130746481432677
cycle= 6 E= -25.0892562275  delta_E= -0.000278  |g|= 0.00629  |ddm|= 0.0302
  alpha nocc = 5  HOMO = -0.49165006178898  LUMO = -0.118051002638493
  beta  nocc = 4  HOMO = -0.491950089341172  LUMO = -0.131780751114732
cycle= 7 E= -25.0902753307266  delta_E= -0.00102  |g|= 0.00537  |ddm|= 0.12
  alpha nocc = 5  HOMO = -0.484756699661271  LUMO = -0.120484523450051
  beta  nocc = 4  HOMO = -0.48221000921993  LUMO = -0.135436119902114
cycle= 8 E= -25.0903021580555  delta_E= -2.68e-05  |g|= 0.00597  |ddm|= 0.0371
  alpha nocc = 5  HOMO = -0.487109344544382  LUMO = -0.119861788042071
  beta  nocc = 4  HOMO = -0.484154987445276  LUMO = -0.135415903626858
cycle= 9 E= -25.090614319059  delta_E= -0.000312  |g|= 0.00544  |ddm|= 0.0439
  alpha nocc = 5  HOMO = -0.509203353170418  LUMO = -0.117337777537155
  beta  nocc = 4  HOMO = -0.505361369249263  LUMO = -0.131307935908486
cycle= 10 E= -25.0910805291913  delta_E= -0.000466  |g|= 0.00388  |ddm|= 0.234
  alpha nocc = 5  HOMO = -0.497756324066676  LUMO = -0.118053051231791
  beta  nocc = 4  HOMO = -0.492357136671176  LUMO = -0.134401786800467
cycle= 11 E= -25.091175577939  delta_E= -9.5e-05  |g|= 0.00209  |ddm|= 0.136
  alpha nocc = 5  HOMO = -0.49863714858841  LUMO = -0.117964658433115
  beta  nocc = 4  HOMO = -0.492973635373935  LUMO = -0.134636195090019
cycle= 12 E= -25.0912248570641  delta_E= -4.93e-05  |g|= 0.00161  |ddm|= 0.0251
  alpha nocc = 5  HOMO = -0.502922116878127  LUMO = -0.117595060618352
  beta  nocc = 4  HOMO = -0.497140226907607  LUMO = -0.133614577149815
cycle= 13 E= -25.0912682630643  delta_E= -4.34e-05  |g|= 0.000259  |ddm|= 0.0434
  alpha nocc = 5  HOMO = -0.502167170291745  LUMO = -0.117652319426838
  beta  nocc = 4  HOMO = -0.496326178572469  LUMO = -0.133836712022099
cycle= 14 E= -25.0912690362067  delta_E= -7.73e-07  |g|= 9.35e-05  |ddm|= 0.00703
  alpha nocc = 5  HOMO = -0.502343604764378  LUMO = -0.11764085172511
  beta  nocc = 4  HOMO = -0.496505553042409  LUMO = -0.133791026020358
cycle= 15 E= -25.0912691610504  delta_E= -1.25e-07  |g|= 1.21e-05  |ddm|= 0.0017
  alpha nocc = 5  HOMO = -0.50236855150149  LUMO = -0.117638478368977
  beta  nocc = 4  HOMO = -0.496530155765048  LUMO = -0.133786146116134
cycle= 16 E= -25.0912691634653  delta_E= -2.41e-09  |g|= 1.17e-06  |ddm|= 0.000264
  alpha nocc = 5  HOMO = -0.502370097756971  LUMO = -0.117638260773007
  beta  nocc = 4  HOMO = -0.49653133275513  LUMO = -0.133785788365426
cycle= 17 E= -25.0912691634843  delta_E= -1.9e-11  |g|= 3.65e-07  |ddm|= 1.89e-05
  alpha nocc = 5  HOMO = -0.502370449511834  LUMO = -0.1176381989043
  beta  nocc = 4  HOMO = -0.496531992767755  LUMO = -0.133785567412262
Extra cycle  E= -25.0912691634849  delta_E= -5.47e-13  |g|= 3.05e-07  |ddm|= 1.16e-06
converged SCF energy = -25.0912691634849  <S^2> = 1.0289756  2S+1 = 2.2618361
shift = 0
thresh = 1e-05 
eri1 (187, 78)
eri1 (187, 78)
    CPU time for making amplitude: integral transform      0.01 sec, wall time      0.00 sec
shape (187, 84)
1st memory: 96.0 MiB
eri1 (187, 78)
eri1 (187, 78)
2nd memory: 96.0 MiB

========================
iter = 0  energy = -25.105286 energy diff = 25.105286
multiplicity <S^2> : Reference = 1.0289756 Response = 1.0290801 Projector = 1.0291847
eri1 (187, 78)
eri1 (187, 78)
    CPU time for making amplitude: integral transform      0.02 sec, wall time      0.00 sec
shape (187, 84)
1st memory: 96.0 MiB
eri1 (187, 78)
eri1 (187, 78)
2nd memory: 96.0 MiB

========================
iter = 1  energy = -25.106052 energy diff = 0.000766
multiplicity <S^2> : Reference = 0.99475706 Response = 0.99482246 Projector = 0.99488787
eri1 (187, 78)
eri1 (187, 78)
    CPU time for making amplitude: integral transform      0.01 sec, wall time      0.00 sec
shape (187, 84)
1st memory: 96.0 MiB
eri1 (187, 78)
eri1 (187, 78)
2nd memory: 96.0 MiB

========================
iter = 2  energy = -25.106562 energy diff = 0.000511
multiplicity <S^2> : Reference = 0.96838841 Response = 0.96852472 Projector = 0.96866104
eri1 (187, 78)
eri1 (187, 78)
    CPU time for making amplitude: integral transform      0.01 sec, wall time      0.00 sec
shape (187, 84)
1st memory: 96.0 MiB
eri1 (187, 78)
eri1 (187, 78)
2nd memory: 96.0 MiB

========================
iter = 3  energy = -25.107214 energy diff = 0.000652
multiplicity <S^2> : Reference = 0.93106514 Response = 0.93105188 Projector = 0.93103862
eri1 (187, 78)
eri1 (187, 78)
    CPU time for making amplitude: integral transform      0.01 sec, wall time      0.00 sec
shape (187, 84)
1st memory: 96.0 MiB
eri1 (187, 78)
eri1 (187, 78)
2nd memory: 96.0 MiB

========================
iter = 4  energy = -25.107730 energy diff = 0.000516
multiplicity <S^2> : Reference = 0.8986881 Response = 0.8987163 Projector = 0.8987445
eri1 (187, 78)
eri1 (187, 78)
    CPU time for making amplitude: integral transform      0.01 sec, wall time      0.00 sec
shape (187, 84)
1st memory: 96.0 MiB
eri1 (187, 78)
eri1 (187, 78)
2nd memory: 96.0 MiB

========================
iter = 5  energy = -25.108582 energy diff = 0.000852
multiplicity <S^2> : Reference = 0.83382759 Response = 0.83349346 Projector = 0.83315932
eri1 (187, 78)
eri1 (187, 78)
    CPU time for making amplitude: integral transform      0.01 sec, wall time      0.00 sec
shape (187, 84)
1st memory: 96.0 MiB
eri1 (187, 78)
eri1 (187, 78)
2nd memory: 96.0 MiB

========================
iter = 6  energy = -25.108587 energy diff = 0.000006
multiplicity <S^2> : Reference = 0.83398272 Response = 0.83419187 Projector = 0.83440101

UOB-MP2 has converged
UOB-MP2 energy =  -25.108587456652426
shift = 0
thresh = 1e-05 
eri1 (187, 78)
eri1 (187, 78)
    CPU time for making amplitude: integral transform      0.02 sec, wall time      0.00 sec
shape (187, 84)
1st memory: 96.0 MiB
eri1 (187, 78)
eri1 (187, 78)
2nd memory: 96.0 MiB

========================
iter = 0  energy = -25.104633 energy diff = 25.104633
multiplicity <S^2> : Reference = 1.0289756 Response = 1.0290801 Projector = 1.0291847
eri1 (187, 78)
eri1 (187, 78)
    CPU time for making amplitude: integral transform      0.02 sec, wall time      0.00 sec
shape (187, 84)
1st memory: 96.0 MiB
eri1 (187, 78)
eri1 (187, 78)
2nd memory: 96.0 MiB

========================
iter = 1  energy = -25.105731 energy diff = 0.001098
multiplicity <S^2> : Reference = 0.98815483 Response = 0.98831668 Projector = 0.98847853
eri1 (187, 78)
eri1 (187, 78)
    CPU time for making amplitude: integral transform      0.01 sec, wall time      0.00 sec
shape (187, 84)
1st memory: 96.0 MiB
eri1 (187, 78)
eri1 (187, 78)
2nd memory: 96.0 MiB

========================
iter = 2  energy = -25.106311 energy diff = 0.000581
multiplicity <S^2> : Reference = 0.95695816 Response = 0.95695581 Projector = 0.95695345
eri1 (187, 78)
eri1 (187, 78)
    CPU time for making amplitude: integral transform      0.01 sec, wall time      0.00 sec
shape (187, 84)
1st memory: 96.0 MiB
eri1 (187, 78)
eri1 (187, 78)
2nd memory: 96.0 MiB

========================
iter = 3  energy = -25.107048 energy diff = 0.000737
multiplicity <S^2> : Reference = 0.9120989 Response = 0.91172946 Projector = 0.91136003
eri1 (187, 78)
eri1 (187, 78)
    CPU time for making amplitude: integral transform      0.01 sec, wall time      0.00 sec
shape (187, 84)
1st memory: 96.0 MiB
eri1 (187, 78)
eri1 (187, 78)
2nd memory: 96.0 MiB

========================
iter = 4  energy = -25.107424 energy diff = 0.000375
multiplicity <S^2> : Reference = 0.88689987 Response = 0.88655874 Projector = 0.88621761
eri1 (187, 78)
eri1 (187, 78)
    CPU time for making amplitude: integral transform      0.01 sec, wall time      0.00 sec
shape (187, 84)
1st memory: 96.0 MiB
eri1 (187, 78)
eri1 (187, 78)
2nd memory: 96.0 MiB

========================
iter = 5  energy = -25.108495 energy diff = 0.001071
multiplicity <S^2> : Reference = 0.79348331 Response = 0.79363595 Projector = 0.79378858
eri1 (187, 78)
eri1 (187, 78)
    CPU time for making amplitude: integral transform      0.01 sec, wall time      0.00 sec
shape (187, 84)
1st memory: 96.0 MiB
eri1 (187, 78)
eri1 (187, 78)
2nd memory: 96.0 MiB

========================
iter = 6  energy = -25.108445 energy diff = 0.000049
multiplicity <S^2> : Reference = 0.79946803 Response = 0.79942745 Projector = 0.79938688
eri1 (187, 78)
eri1 (187, 78)
    CPU time for making amplitude: integral transform      0.01 sec, wall time      0.00 sec
shape (187, 84)
1st memory: 96.0 MiB
eri1 (187, 78)
eri1 (187, 78)
2nd memory: 96.0 MiB

========================
iter = 7  energy = -25.108491 energy diff = 0.000046
multiplicity <S^2> : Reference = 0.79238152 Response = 0.79238974 Projector = 0.79239796
eri1 (187, 78)
eri1 (187, 78)
    CPU time for making amplitude: integral transform      0.01 sec, wall time      0.00 sec
shape (187, 84)
1st memory: 96.0 MiB
eri1 (187, 78)
eri1 (187, 78)
2nd memory: 96.0 MiB

========================
iter = 8  energy = -25.108541 energy diff = 0.000050
multiplicity <S^2> : Reference = 0.78202441 Response = 0.78194139 Projector = 0.78185838
eri1 (187, 78)
eri1 (187, 78)
    CPU time for making amplitude: integral transform      0.01 sec, wall time      0.00 sec
shape (187, 84)
1st memory: 96.5 MiB
eri1 (187, 78)
eri1 (187, 78)
2nd memory: 96.5 MiB

========================
iter = 9  energy = -25.108545 energy diff = 0.000004
multiplicity <S^2> : Reference = 0.78039838 Response = 0.78014456 Projector = 0.77989074

UOB-MP2 has converged
UOB-MP2 energy =  -25.108544636337758


******** <class 'pyscf.scf.uhf.UHF'> ********
method = UHF
initial guess = minao
damping factor = 0
level_shift factor = 0
DIIS = <class 'pyscf.scf.diis.CDIIS'>
diis_start_cycle = 1
diis_space = 8
SCF conv_tol = 1e-09
SCF conv_tol_grad = None
SCF max_cycles = 50
direct_scf = True
direct_scf_tol = 1e-13
chkfile to save SCF result = /home/ltkoanh/Al_B2LYP_6311_Gd_Cluster/Cluster/Al4-cation-doublet/tmplfqfwvq9
max_memory 4000 MB (current use 96 MB)
number electrons alpha = 5  beta = 4
Set gradient conv threshold to 3.16228e-05
init E= -25.0718393970021
  alpha nocc = 5  HOMO = -0.107772185224085  LUMO = -0.00243891781104791
  beta  nocc = 4  HOMO = -0.330131848691781  LUMO = -0.107772185224085

WARN: system HOMO -0.107772185224085 >= system LUMO -0.107772185224085

cycle= 1 E= -25.0530872935245  delta_E= 0.0188  |g|= 0.0982  |ddm|= 1.06
  alpha nocc = 5  HOMO = -0.48056180421547  LUMO = -0.140726055167061
  beta  nocc = 4  HOMO = -0.476188617757471  LUMO = -0.13488989085914
cycle= 2 E= -25.0823519217086  delta_E= -0.0293  |g|= 0.0448  |ddm|= 0.294
  alpha nocc = 5  HOMO = -0.481147521921262  LUMO = -0.116715779125985
  beta  nocc = 4  HOMO = -0.489989187533525  LUMO = -0.12815187032418
cycle= 3 E= -25.0885335606279  delta_E= -0.00618  |g|= 0.00794  |ddm|= 0.192
  alpha nocc = 5  HOMO = -0.482698173402313  LUMO = -0.121616584045088
  beta  nocc = 4  HOMO = -0.486292426511843  LUMO = -0.129152883503757
cycle= 4 E= -25.0888090665367  delta_E= -0.000276  |g|= 0.00659  |ddm|= 0.0283
  alpha nocc = 5  HOMO = -0.484541864994847  LUMO = -0.11993519607895
  beta  nocc = 4  HOMO = -0.488092964394876  LUMO = -0.130313993394534
cycle= 5 E= -25.0891954467036  delta_E= -0.000386  |g|= 0.00632  |ddm|= 0.042
  alpha nocc = 5  HOMO = -0.485586145891091  LUMO = -0.119831735855964
  beta  nocc = 4  HOMO = -0.488236257671069  LUMO = -0.130718860139067
cycle= 6 E= -25.0894399352277  delta_E= -0.000244  |g|= 0.00625  |ddm|= 0.0267
  alpha nocc = 5  HOMO = -0.490815495449874  LUMO = -0.11826922145706
  beta  nocc = 4  HOMO = -0.491412092751422  LUMO = -0.131742224625199
cycle= 7 E= -25.0903723775264  delta_E= -0.000932  |g|= 0.00553  |ddm|= 0.108
  alpha nocc = 5  HOMO = -0.485246094675152  LUMO = -0.120413992484584
  beta  nocc = 4  HOMO = -0.482774464995355  LUMO = -0.135341228812305
cycle= 8 E= -25.0905873269101  delta_E= -0.000215  |g|= 0.00585  |ddm|= 0.0478
  alpha nocc = 5  HOMO = -0.487658743462433  LUMO = -0.119793894216859
  beta  nocc = 4  HOMO = -0.484805281058821  LUMO = -0.135265377351631
cycle= 9 E= -25.0908852466869  delta_E= -0.000298  |g|= 0.00527  |ddm|= 0.0431
  alpha nocc = 5  HOMO = -0.51043100364603  LUMO = -0.117310417657896
  beta  nocc = 4  HOMO = -0.50660690714026  LUMO = -0.131080674488742
cycle= 10 E= -25.0912523645069  delta_E= -0.000367  |g|= 0.00428  |ddm|= 0.231
  alpha nocc = 5  HOMO = -0.497425419882578  LUMO = -0.118119500747829
  beta  nocc = 4  HOMO = -0.492008081139922  LUMO = -0.134529320160877
cycle= 11 E= -25.0913707380411  delta_E= -0.000118  |g|= 0.00224  |ddm|= 0.146
  alpha nocc = 5  HOMO = -0.49874500436563  LUMO = -0.117990299514608
  beta  nocc = 4  HOMO = -0.493069786220425  LUMO = -0.134664892947921
cycle= 12 E= -25.0914358070292  delta_E= -6.51e-05  |g|= 0.00159  |ddm|= 0.0292
  alpha nocc = 5  HOMO = -0.502955650229561  LUMO = -0.117620260208014
  beta  nocc = 4  HOMO = -0.49716717871224  LUMO = -0.133651755462704
cycle= 13 E= -25.091477993394  delta_E= -4.22e-05  |g|= 0.000245  |ddm|= 0.0425
  alpha nocc = 5  HOMO = -0.502240528115394  LUMO = -0.117681217562348
  beta  nocc = 4  HOMO = -0.496399624712958  LUMO = -0.133865555216737
cycle= 14 E= -25.0914786891768  delta_E= -6.96e-07  |g|= 8.23e-05  |ddm|= 0.00647
  alpha nocc = 5  HOMO = -0.502401777756982  LUMO = -0.117669752033011
  beta  nocc = 4  HOMO = -0.496563361954853  LUMO = -0.133823589565912
cycle= 15 E= -25.0914787861879  delta_E= -9.7e-08  |g|= 9.29e-06  |ddm|= 0.00153
  alpha nocc = 5  HOMO = -0.502420147420819  LUMO = -0.11766777237124
  beta  nocc = 4  HOMO = -0.496580926103492  LUMO = -0.133820597310628
cycle= 16 E= -25.0914787876776  delta_E= -1.49e-09  |g|= 1.06e-06  |ddm|= 0.00021
  alpha nocc = 5  HOMO = -0.502421618062563  LUMO = -0.117667615663967
  beta  nocc = 4  HOMO = -0.496582139866856  LUMO = -0.133820213105576
cycle= 17 E= -25.0914787876934  delta_E= -1.59e-11  |g|= 2.61e-07  |ddm|= 1.8e-05
  alpha nocc = 5  HOMO = -0.502421867501051  LUMO = -0.117667569283256
  beta  nocc = 4  HOMO = -0.496582632647205  LUMO = -0.133820051775542
Extra cycle  E= -25.0914787876937  delta_E= -2.7e-13  |g|= 2.16e-07  |ddm|= 8.26e-07
converged SCF energy = -25.0914787876937  <S^2> = 1.0281879  2S+1 = 2.2611395
