#INFO: **** input file is /home/ltkoanh/Al_B2LYP_6311_Gd_Cluster/Cluster/Al17-anion-singlet/input.py ****
import numpy
from pyscf import gto, scf, dft, mp, cc
from pyscf.mp import uobmp2_mom_conv, dfuobmp2_mom_conv, uhf_mom
from pyscf.mp import  mp2, ump2
from pyscf.tools import molden
import os
from functools import reduce


mol = gto.Mole()
geom = os.environ.get('geom_txt')
mol.atom = geom
mol.basis = os.environ.get('basis', 'cc-pvdz')
mol.unit = 'A'
mol.charge = int(os.environ.get('charge', 0))
mol.spin = int(os.environ.get('spin', 0))
mol.verbose = 4
mol.build()

#################### Ground state using density fitting
### Hartree-Fock
a  = scf.UHF(mol).density_fit()
a.kernel()

### Ground state OBMP2 calculation
ob = dfuobmp2_mom_conv.DFUOBMP2(a)
ob.second_order = True
ob.thresh = 10e-6
ob.css = 1
ob.cos = 1
e_obmp2g = ob.kernel()

### Ground state O2BMP2 calculation
ob = dfuobmp2_mom_conv.DFUOBMP2(a)
ob.second_order = True
ob.thresh = 10e-6
ob.css = 0                             
ob.cos = 1.2                             
e_o2bmp2g = ob.kernel()  

#################### Ground state NOT using density fitting
### Hartree-Fock
a  = scf.UHF(mol)
a.kernel()

### Ground state OBMP2 calculation
ob = uobmp2_mom_conv.UOBMP2(a)
ob.second_order = True
ob.thresh = 10e-6
ob.css = 1
ob.cos = 1
#e_obmp2g = ob.kernel()

### Ground state O2BMP2 calculation
ob = uobmp2_mom_conv.UOBMP2(a)
ob.second_order = True
ob.thresh = 10e-6
ob.css = 0
ob.cos = 1.2   ## the cos can be vary ...                        	 
#e_o2bmp2g = ob.kernel()


## Results from density-fitting approximate with non-using density fitting 
## check results between df and non-df with small molecules before running the important molecules
#INFO: ******************** input file end ********************


System: uname_result(system='Linux', node='comphys', release='3.10.0-1160.119.1.el7.x86_64', version='#1 SMP Tue Jun 4 14:43:51 UTC 2024', machine='x86_64', processor='x86_64')  Threads 8
Python 3.7.9 (default, Dec  4 2023, 13:00:18) 
[GCC 4.8.5 20150623 (Red Hat 4.8.5-44)]
numpy 1.21.6  scipy 1.7.3
Date: Sun May 25 18:55:56 2025
PySCF version 1.7.0
PySCF path  /share/installs/pyscf/pyscf
GIT HEAD      ref: refs/heads/ob-mp2
GIT ob-mp2 branch  f0fc63383ab6c719c0c91f5e07a6895c637b700d

[CONFIG] conf_file None
[INPUT] verbose = 4
[INPUT] num. atoms = 17
[INPUT] num. electrons = 154
[INPUT] charge = -1
[INPUT] spin (= nelec alpha-beta = 2S) = 0
[INPUT] symmetry False subgroup None
[INPUT] Mole.unit = A
[INPUT]  1 H      1.398260000000   2.281013000000   0.000000000000 AA    2.642328450934   4.310489856573   0.000000000000 Bohr
[INPUT]  2 He     2.233881000000   0.000000000000   1.499186000000 AA    4.221423284870   0.000000000000   2.833050949782 Bohr
[INPUT]  3 Li    -1.398260000000   2.281013000000   0.000000000000 AA   -2.642328450934   4.310489856573   0.000000000000 Bohr
[INPUT]  4 Be     1.398260000000  -2.281013000000   0.000000000000 AA    2.642328450934  -4.310489856573   0.000000000000 Bohr
[INPUT]  5 B      0.000000000000  -1.412118000000   2.250941000000 AA    0.000000000000  -2.668516275569   4.253662012555 Bohr
[INPUT]  6 C      0.000000000000   1.412118000000  -2.250941000000 AA    0.000000000000   2.668516275569  -4.253662012555 Bohr
[INPUT]  7 N      0.000000000000   1.412118000000   2.250941000000 AA    0.000000000000   2.668516275569   4.253662012555 Bohr
[INPUT]  8 O      2.233881000000   0.000000000000  -1.499186000000 AA    4.221423284870   0.000000000000  -2.833050949782 Bohr
[INPUT]  9 F     -2.233881000000   0.000000000000  -1.499186000000 AA   -4.221423284870   0.000000000000  -2.833050949782 Bohr
[INPUT] 10 Ne    -1.398260000000  -2.281013000000   0.000000000000 AA   -2.642328450934  -4.310489856573   0.000000000000 Bohr
[INPUT] 11 Na     0.000000000000  -1.412118000000  -2.250941000000 AA    0.000000000000  -2.668516275569  -4.253662012555 Bohr
[INPUT] 12 Mg    -2.233881000000   0.000000000000   1.499186000000 AA   -4.221423284870   0.000000000000   2.833050949782 Bohr
[INPUT] 13 Al     4.212672000000   1.395293000000   0.000000000000 AA    7.960796332624   2.636721633523   0.000000000000 Bohr
[INPUT] 14 Si    -4.212672000000  -1.395293000000   0.000000000000 AA   -7.960796332624  -2.636721633523   0.000000000000 Bohr
[INPUT] 15 P      4.212672000000  -1.395293000000   0.000000000000 AA    7.960796332624  -2.636721633523   0.000000000000 Bohr
[INPUT] 16 S      0.000000000000   0.000000000000   0.000000000000 AA    0.000000000000   0.000000000000   0.000000000000 Bohr
[INPUT] 17 Cl    -4.212672000000   1.395293000000   0.000000000000 AA   -7.960796332624   2.636721633523   0.000000000000 Bohr

nuclear repulsion = 1445.33347364515
number of shells = 61
number of NR pGTOs = 630
number of NR cGTOs = 105
basis = sto-6g
ecp = {}
CPU time:         1.52


******** <class 'pyscf.df.df_jk.density_fit.<locals>.DFHF'> ********
method = DFHF-UHF
initial guess = minao
damping factor = 0
level_shift factor = 0
DIIS = <class 'pyscf.scf.diis.CDIIS'>
diis_start_cycle = 1
diis_space = 8
SCF conv_tol = 1e-09
SCF conv_tol_grad = None
SCF max_cycles = 50
direct_scf = True
direct_scf_tol = 1e-13
chkfile to save SCF result = /home/ltkoanh/Al_B2LYP_6311_Gd_Cluster/Cluster/Al17-anion-singlet/tmp5xs1plp2
max_memory 4000 MB (current use 60 MB)
number electrons alpha = 77  beta = 77
Set gradient conv threshold to 3.16228e-05
******** <class 'pyscf.df.df.DF'> ********
auxbasis = None
max_memory = 4000
_cderi_to_save = /home/ltkoanh/Al_B2LYP_6311_Gd_Cluster/Cluster/Al17-anion-singlet/tmpyd9pjgs4
Even tempered Gaussians are generated as DF auxbasis for  O Cl Be F Si P B H Ne Mg N S Al C He Na Li
init E= -2517.90785178465
  alpha nocc = 77  HOMO = -0.437031953558323  LUMO = -0.415303001157301
  beta  nocc = 77  HOMO = -0.424871627511028  LUMO = -0.403299350615974
cycle= 1 E= -2517.53688518532  delta_E= 0.371  |g|= 1.33  |ddm|= 3.55
  alpha nocc = 77  HOMO = 0.444613911311508  LUMO = 0.447598321833511
  beta  nocc = 77  HOMO = 0.443081264042756  LUMO = 0.447871354111729
cycle= 2 E= -2488.73460345273  delta_E= 28.8  |g|= 3.21  |ddm|= 7.99
  alpha nocc = 77  HOMO = 0.249478475037457  LUMO = 0.260028145092412
  beta  nocc = 77  HOMO = 0.247993085163295  LUMO = 0.254909228638394
cycle= 3 E= -2517.00395482996  delta_E= -28.3  |g|=  1.4  |ddm|= 5.88

WARN: alpha nocc = 77  HOMO 0.20326895650583 >= LUMO 0.203380171155054

  beta  nocc = 77  HOMO = 0.192625906788189  LUMO = 0.201151760681084

WARN: system HOMO 0.192625906788189 >= system LUMO 0.201151760681084

cycle= 4 E= -2517.74571150058  delta_E= -0.742  |g|= 1.74  |ddm|= 4.16
  alpha nocc = 77  HOMO = 0.184289919702622  LUMO = 0.20370925897381
  beta  nocc = 77  HOMO = 0.188189177203018  LUMO = 0.220084728064814
cycle= 5 E= -2520.91953114411  delta_E= -3.17  |g|= 1.01  |ddm|= 2.79
  alpha nocc = 77  HOMO = 0.182489757216294  LUMO = 0.188717380704425
  beta  nocc = 77  HOMO = 0.18565801218569  LUMO = 0.194786085378621
cycle= 6 E= -2522.11068928694  delta_E= -1.19  |g|= 0.596  |ddm|= 2.47
  alpha nocc = 77  HOMO = 0.190691525966193  LUMO = 0.225322387280008
  beta  nocc = 77  HOMO = 0.192976610738775  LUMO = 0.228005843203681
cycle= 7 E= -2522.47041476403  delta_E= -0.36  |g|= 0.322  |ddm|= 1.16
  alpha nocc = 77  HOMO = 0.12914098611747  LUMO = 0.266420849559314
  beta  nocc = 77  HOMO = 0.118455930031562  LUMO = 0.267646719106116
cycle= 8 E= -2522.52465602642  delta_E= -0.0542  |g|= 0.339  |ddm|= 0.689
  alpha nocc = 77  HOMO = 0.1293600643809  LUMO = 0.275866184364648
  beta  nocc = 77  HOMO = 0.126016372150731  LUMO = 0.276919641620466
cycle= 9 E= -2522.58545093534  delta_E= -0.0608  |g|= 0.299  |ddm|= 0.307
  alpha nocc = 77  HOMO = 0.130125941209667  LUMO = 0.264632809699526
  beta  nocc = 77  HOMO = 0.146602371200281  LUMO = 0.28591892554466
cycle= 10 E= -2522.7377178022  delta_E= -0.152  |g|= 0.19  |ddm|= 0.722
  alpha nocc = 77  HOMO = 0.113781181638358  LUMO = 0.265057292028446
  beta  nocc = 77  HOMO = 0.140682678323645  LUMO = 0.300119522557511
cycle= 11 E= -2522.83799404193  delta_E= -0.1  |g|= 0.115  |ddm|= 0.637
  alpha nocc = 77  HOMO = 0.109630428130718  LUMO = 0.268378372505031
  beta  nocc = 77  HOMO = 0.122446004682964  LUMO = 0.30511864789963
cycle= 12 E= -2522.89163083201  delta_E= -0.0536  |g|= 0.0981  |ddm|= 0.465
  alpha nocc = 77  HOMO = 0.113561049558231  LUMO = 0.276749915300995
  beta  nocc = 77  HOMO = 0.117723755951981  LUMO = 0.310691768712789
cycle= 13 E= -2522.92420932411  delta_E= -0.0326  |g|= 0.0987  |ddm|= 0.306
  alpha nocc = 77  HOMO = 0.112077739046258  LUMO = 0.277677658506785
  beta  nocc = 77  HOMO = 0.114422910228344  LUMO = 0.310227607262889
cycle= 14 E= -2522.93023772396  delta_E= -0.00603  |g|= 0.096  |ddm|= 0.0792
  alpha nocc = 77  HOMO = 0.113559666600956  LUMO = 0.257427609030133
  beta  nocc = 77  HOMO = 0.12137695031516  LUMO = 0.308079092879198
cycle= 15 E= -2522.89971975984  delta_E= 0.0305  |g|= 0.0921  |ddm|= 0.331
  alpha nocc = 77  HOMO = 0.113656794668784  LUMO = 0.258627702549061
  beta  nocc = 77  HOMO = 0.1225261567118  LUMO = 0.308008745248121
cycle= 16 E= -2522.89807293036  delta_E= 0.00165  |g|= 0.091  |ddm|= 0.0544
  alpha nocc = 77  HOMO = 0.113025511170686  LUMO = 0.259023042469828
  beta  nocc = 77  HOMO = 0.119977644889711  LUMO = 0.309424210628184
cycle= 17 E= -2522.89130539894  delta_E= 0.00677  |g|= 0.0868  |ddm|= 0.168
  alpha nocc = 77  HOMO = 0.119942606775112  LUMO = 0.262985273094244
  beta  nocc = 77  HOMO = 0.116221948777041  LUMO = 0.314288823192033
cycle= 18 E= -2522.87904791276  delta_E= 0.0123  |g|= 0.073  |ddm|= 0.617
  alpha nocc = 77  HOMO = 0.119422926379564  LUMO = 0.267805173242886
  beta  nocc = 77  HOMO = 0.111586687486747  LUMO = 0.318214247278512
cycle= 19 E= -2522.88712592678  delta_E= -0.00808  |g|= 0.0729  |ddm|= 0.197
  alpha nocc = 77  HOMO = 0.115208462412254  LUMO = 0.278399619694414
  beta  nocc = 77  HOMO = 0.110490375589876  LUMO = 0.323502150793133
cycle= 20 E= -2522.89602137805  delta_E= -0.0089  |g|= 0.0735  |ddm|= 0.153
  alpha nocc = 77  HOMO = 0.110697573775479  LUMO = 0.28327815472906
  beta  nocc = 77  HOMO = 0.102690262539909  LUMO = 0.328705015040742
cycle= 21 E= -2522.91264637028  delta_E= -0.0166  |g|= 0.0763  |ddm|= 0.201
  alpha nocc = 77  HOMO = 0.111046211633379  LUMO = 0.280324979041623
  beta  nocc = 77  HOMO = 0.108722450774729  LUMO = 0.323343916893282
cycle= 22 E= -2522.89361420388  delta_E= 0.019  |g|= 0.0713  |ddm|= 0.242
  alpha nocc = 77  HOMO = 0.112999206587422  LUMO = 0.286334073491164
  beta  nocc = 77  HOMO = 0.123060520820684  LUMO = 0.317878708345795
cycle= 23 E= -2522.87154943908  delta_E= 0.0221  |g|= 0.0653  |ddm|= 0.544
  alpha nocc = 77  HOMO = 0.111895786529772  LUMO = 0.285637123781973
  beta  nocc = 77  HOMO = 0.115998089000194  LUMO = 0.321513695549319
cycle= 24 E= -2522.87086085308  delta_E= 0.000689  |g|= 0.0607  |ddm|= 0.155
  alpha nocc = 77  HOMO = 0.108159449931605  LUMO = 0.288905232858561
  beta  nocc = 77  HOMO = 0.112307322798011  LUMO = 0.328168309546409
cycle= 25 E= -2522.8823532744  delta_E= -0.0115  |g|= 0.0682  |ddm|= 0.552
  alpha nocc = 77  HOMO = 0.105169153035838  LUMO = 0.2888393554659
  beta  nocc = 77  HOMO = 0.11973288143973  LUMO = 0.328246505373741
cycle= 26 E= -2522.87261304715  delta_E= 0.00974  |g|= 0.0944  |ddm|= 0.256
  alpha nocc = 77  HOMO = 0.102808085837654  LUMO = 0.29689144844878
  beta  nocc = 77  HOMO = 0.118545279419268  LUMO = 0.331719440667487
cycle= 27 E= -2522.88182963766  delta_E= -0.00922  |g|=  0.1  |ddm|= 0.284
  alpha nocc = 77  HOMO = 0.103216717597623  LUMO = 0.297378407092901
  beta  nocc = 77  HOMO = 0.11351529083796  LUMO = 0.331511661604118
cycle= 28 E= -2522.88362924184  delta_E= -0.0018  |g|= 0.0984  |ddm|= 0.0668
  alpha nocc = 77  HOMO = 0.103870493451105  LUMO = 0.297274754722484
  beta  nocc = 77  HOMO = 0.112430952680933  LUMO = 0.330507765352884
cycle= 29 E= -2522.88703401761  delta_E= -0.0034  |g|= 0.083  |ddm|= 0.109
  alpha nocc = 77  HOMO = 0.101354650034102  LUMO = 0.303268030330997
  beta  nocc = 77  HOMO = 0.0978836417941892  LUMO = 0.331803988155026
cycle= 30 E= -2522.90584424367  delta_E= -0.0188  |g|= 0.0486  |ddm|= 0.344
  alpha nocc = 77  HOMO = 0.0986280612377929  LUMO = 0.310024234730233
  beta  nocc = 77  HOMO = 0.102937778013017  LUMO = 0.335217378308773
cycle= 31 E= -2522.91838644259  delta_E= -0.0125  |g|= 0.0467  |ddm|= 0.31
  alpha nocc = 77  HOMO = 0.0981923213170488  LUMO = 0.310753195216431
  beta  nocc = 77  HOMO = 0.101405380052496  LUMO = 0.335643617070775
cycle= 32 E= -2522.92431746026  delta_E= -0.00593  |g|= 0.0482  |ddm|= 0.135
  alpha nocc = 77  HOMO = 0.095460581344993  LUMO = 0.313045482154702
  beta  nocc = 77  HOMO = 0.109977939564901  LUMO = 0.33754835657859
cycle= 33 E= -2522.92423433595  delta_E= 8.31e-05  |g|= 0.0467  |ddm|= 0.144
  alpha nocc = 77  HOMO = 0.0949276537673531  LUMO = 0.31024273540874
  beta  nocc = 77  HOMO = 0.102113591926411  LUMO = 0.340193836354416
cycle= 34 E= -2522.91538445136  delta_E= 0.00885  |g|= 0.041  |ddm|= 0.384
  alpha nocc = 77  HOMO = 0.0959453367920876  LUMO = 0.309516355661605
  beta  nocc = 77  HOMO = 0.110224991385825  LUMO = 0.340791677413254
cycle= 35 E= -2522.9205365253  delta_E= -0.00515  |g|= 0.0384  |ddm|= 0.253
  alpha nocc = 77  HOMO = 0.0992829062833865  LUMO = 0.308430976443012
  beta  nocc = 77  HOMO = 0.106901691830398  LUMO = 0.338448557373215
cycle= 36 E= -2522.92940758022  delta_E= -0.00887  |g|= 0.0363  |ddm|= 0.275
  alpha nocc = 77  HOMO = 0.0961790691741349  LUMO = 0.31021177452456
  beta  nocc = 77  HOMO = 0.10173625820936  LUMO = 0.339913096687864
cycle= 37 E= -2522.93406796825  delta_E= -0.00466  |g|= 0.0345  |ddm|= 0.17
  alpha nocc = 77  HOMO = 0.0980373149480947  LUMO = 0.309040752905688
  beta  nocc = 77  HOMO = 0.0844534843855935  LUMO = 0.336752964665643
cycle= 38 E= -2522.94405310622  delta_E= -0.00999  |g|= 0.0323  |ddm|= 0.346
  alpha nocc = 77  HOMO = 0.0946376516203739  LUMO = 0.312902233750538
  beta  nocc = 77  HOMO = 0.07611095059355  LUMO = 0.335540153318813
cycle= 39 E= -2522.95129818757  delta_E= -0.00725  |g|= 0.0294  |ddm|= 0.241
  alpha nocc = 77  HOMO = 0.0925150998777547  LUMO = 0.316425405630812
  beta  nocc = 77  HOMO = 0.0685605515327627  LUMO = 0.332300776643362
cycle= 40 E= -2522.95883150018  delta_E= -0.00753  |g|= 0.0277  |ddm|= 0.275
  alpha nocc = 77  HOMO = 0.0923667433467748  LUMO = 0.31544783988655
  beta  nocc = 77  HOMO = 0.0714020729361352  LUMO = 0.333140883418942
cycle= 41 E= -2522.95929650835  delta_E= -0.000465  |g|= 0.0287  |ddm|= 0.0396
  alpha nocc = 77  HOMO = 0.0929528975355069  LUMO = 0.313923502433962
  beta  nocc = 77  HOMO = 0.0660277049344925  LUMO = 0.332508998724305
cycle= 42 E= -2522.95634977398  delta_E= 0.00295  |g|= 0.0275  |ddm|= 0.124
  alpha nocc = 77  HOMO = 0.0916792690584197  LUMO = 0.316147608917567
  beta  nocc = 77  HOMO = 0.0594800706748158  LUMO = 0.332834516568568
cycle= 43 E= -2522.9565050346  delta_E= -0.000155  |g|= 0.0243  |ddm|= 0.14
  alpha nocc = 77  HOMO = 0.0906820274673827  LUMO = 0.315791370175915
  beta  nocc = 77  HOMO = 0.057331153487057  LUMO = 0.334119668941344
cycle= 44 E= -2522.95744784567  delta_E= -0.000943  |g|= 0.0246  |ddm|= 0.0915
  alpha nocc = 77  HOMO = 0.0922210696359044  LUMO = 0.314407470426512
  beta  nocc = 77  HOMO = 0.0580271939531838  LUMO = 0.334092999455503
cycle= 45 E= -2522.9569030374  delta_E= 0.000545  |g|= 0.0221  |ddm|= 0.105
  alpha nocc = 77  HOMO = 0.0903995614726657  LUMO = 0.316538830024424
  beta  nocc = 77  HOMO = 0.0495213637687408  LUMO = 0.334093895964465
cycle= 46 E= -2522.96183253378  delta_E= -0.00493  |g|= 0.0203  |ddm|= 0.298
  alpha nocc = 77  HOMO = 0.0906693755491648  LUMO = 0.316336120471134
  beta  nocc = 77  HOMO = 0.0502847689899675  LUMO = 0.3338455502687
cycle= 47 E= -2522.96191171892  delta_E= -7.92e-05  |g|= 0.0203  |ddm|= 0.0197
  alpha nocc = 77  HOMO = 0.0907220185791033  LUMO = 0.316003724277245
  beta  nocc = 77  HOMO = 0.0510317650699519  LUMO = 0.334103759013494
cycle= 48 E= -2522.96128020243  delta_E= 0.000632  |g|= 0.0201  |ddm|= 0.0307
  alpha nocc = 77  HOMO = 0.0912837967085574  LUMO = 0.315425320682696
  beta  nocc = 77  HOMO = 0.0518275108251714  LUMO = 0.334794656598457
cycle= 49 E= -2522.96015573716  delta_E= 0.00112  |g|= 0.0192  |ddm|= 0.0673
  alpha nocc = 77  HOMO = 0.0923567153511644  LUMO = 0.315590999833917
  beta  nocc = 77  HOMO = 0.0527276392599389  LUMO = 0.334039483126384
cycle= 50 E= -2522.96030304957  delta_E= -0.000147  |g|= 0.0194  |ddm|= 0.064
SCF not converged.
SCF energy = -2522.96030304957 after 50 cycles  <S^2> = 4.1999571  2S+1 = 4.2189843
shift = 0
thresh = 1e-05 
eri1 (1503, 5565)
eri1 (1503, 5565)
    CPU time for making amplitude: integral transform      1.19 sec, wall time      0.08 sec
shape (1503, 2940)
1st memory: 508.5 MiB
eri1 (1503, 5565)
eri1 (1503, 5565)
2nd memory: 367.0 MiB

========================
iter = 0  energy = -2523.289192 energy diff = 2523.289192
multiplicity <S^2> : Reference = 4.1999571 Response = 4.200316 Projector = 4.2006749
eri1 (1503, 5565)
eri1 (1503, 5565)
    CPU time for making amplitude: integral transform      1.06 sec, wall time      0.07 sec
shape (1503, 2940)
1st memory: 525.3 MiB
eri1 (1503, 5565)
eri1 (1503, 5565)
2nd memory: 398.5 MiB

========================
iter = 1  energy = -2523.315682 energy diff = 0.026491
multiplicity <S^2> : Reference = 4.1099926 Response = 4.1101076 Projector = 4.1102226
eri1 (1503, 5565)
eri1 (1503, 5565)
    CPU time for making amplitude: integral transform      1.14 sec, wall time      0.08 sec
shape (1503, 2940)
1st memory: 540.8 MiB
eri1 (1503, 5565)
eri1 (1503, 5565)
2nd memory: 388.7 MiB

========================
iter = 2  energy = -2523.323591 energy diff = 0.007909
multiplicity <S^2> : Reference = 4.038467 Response = 4.0385511 Projector = 4.0386353
eri1 (1503, 5565)
eri1 (1503, 5565)
    CPU time for making amplitude: integral transform      1.05 sec, wall time      0.07 sec
shape (1503, 2940)
1st memory: 525.1 MiB
eri1 (1503, 5565)
eri1 (1503, 5565)
2nd memory: 409.1 MiB

========================
iter = 3  energy = -2523.333310 energy diff = 0.009719
multiplicity <S^2> : Reference = 4.0010891 Response = 4.0011222 Projector = 4.0011552
eri1 (1503, 5565)
eri1 (1503, 5565)
    CPU time for making amplitude: integral transform      1.32 sec, wall time      0.09 sec
shape (1503, 2940)
1st memory: 540.4 MiB
eri1 (1503, 5565)
eri1 (1503, 5565)
2nd memory: 409.8 MiB

========================
iter = 4  energy = -2523.343288 energy diff = 0.009977
multiplicity <S^2> : Reference = 3.9359473 Response = 3.9359167 Projector = 3.9358861
eri1 (1503, 5565)
eri1 (1503, 5565)
    CPU time for making amplitude: integral transform      1.19 sec, wall time      0.08 sec
shape (1503, 2940)
1st memory: 524.1 MiB
eri1 (1503, 5565)
eri1 (1503, 5565)
2nd memory: 409.2 MiB

========================
iter = 5  energy = -2523.349690 energy diff = 0.006403
multiplicity <S^2> : Reference = 3.8977984 Response = 3.8980423 Projector = 3.8982863
eri1 (1503, 5565)
eri1 (1503, 5565)
    CPU time for making amplitude: integral transform      1.11 sec, wall time      0.07 sec
shape (1503, 2940)
1st memory: 541.1 MiB
eri1 (1503, 5565)
eri1 (1503, 5565)
2nd memory: 409.8 MiB

========================
iter = 6  energy = -2523.354254 energy diff = 0.004564
multiplicity <S^2> : Reference = 3.9134102 Response = 3.9135451 Projector = 3.91368
eri1 (1503, 5565)
eri1 (1503, 5565)
    CPU time for making amplitude: integral transform      0.95 sec, wall time      0.06 sec
shape (1503, 2940)
1st memory: 525.0 MiB
eri1 (1503, 5565)
eri1 (1503, 5565)
2nd memory: 412.0 MiB

========================
iter = 7  energy = -2523.357527 energy diff = 0.003273
multiplicity <S^2> : Reference = 3.9766573 Response = 3.9764921 Projector = 3.976327
eri1 (1503, 5565)
eri1 (1503, 5565)
    CPU time for making amplitude: integral transform      1.18 sec, wall time      0.08 sec
shape (1503, 2940)
1st memory: 540.9 MiB
eri1 (1503, 5565)
eri1 (1503, 5565)
2nd memory: 409.8 MiB

========================
iter = 8  energy = -2523.359280 energy diff = 0.001753
multiplicity <S^2> : Reference = 4.0449326 Response = 4.044971 Projector = 4.0450093
eri1 (1503, 5565)
eri1 (1503, 5565)
    CPU time for making amplitude: integral transform      0.99 sec, wall time      0.07 sec
shape (1503, 2940)
1st memory: 525.1 MiB
eri1 (1503, 5565)
eri1 (1503, 5565)
2nd memory: 411.7 MiB

========================
iter = 9  energy = -2523.358820 energy diff = 0.000459
multiplicity <S^2> : Reference = 4.0092496 Response = 4.0094024 Projector = 4.0095552
eri1 (1503, 5565)
eri1 (1503, 5565)
    CPU time for making amplitude: integral transform      1.17 sec, wall time      0.08 sec
shape (1503, 2940)
1st memory: 540.5 MiB
eri1 (1503, 5565)
eri1 (1503, 5565)
2nd memory: 409.1 MiB

========================
iter = 10  energy = -2523.358119 energy diff = 0.000701
multiplicity <S^2> : Reference = 3.935074 Response = 3.9348476 Projector = 3.9346212
eri1 (1503, 5565)
eri1 (1503, 5565)
    CPU time for making amplitude: integral transform      0.95 sec, wall time      0.06 sec
shape (1503, 2940)
1st memory: 524.9 MiB
eri1 (1503, 5565)
eri1 (1503, 5565)
2nd memory: 408.7 MiB

========================
iter = 11  energy = -2523.359211 energy diff = 0.001092
multiplicity <S^2> : Reference = 3.8157274 Response = 3.8160424 Projector = 3.8163574
eri1 (1503, 5565)
eri1 (1503, 5565)
    CPU time for making amplitude: integral transform      1.10 sec, wall time      0.07 sec
shape (1503, 2940)
1st memory: 540.3 MiB
eri1 (1503, 5565)
eri1 (1503, 5565)
2nd memory: 409.6 MiB

========================
iter = 12  energy = -2523.360556 energy diff = 0.001345
multiplicity <S^2> : Reference = 3.7658984 Response = 3.7660883 Projector = 3.7662782
eri1 (1503, 5565)
eri1 (1503, 5565)
    CPU time for making amplitude: integral transform      1.07 sec, wall time      0.07 sec
shape (1503, 2940)
1st memory: 524.0 MiB
eri1 (1503, 5565)
eri1 (1503, 5565)
2nd memory: 408.9 MiB

========================
iter = 13  energy = -2523.361639 energy diff = 0.001083
multiplicity <S^2> : Reference = 3.6906569 Response = 3.6906861 Projector = 3.6907152
eri1 (1503, 5565)
eri1 (1503, 5565)
    CPU time for making amplitude: integral transform      1.42 sec, wall time      0.10 sec
shape (1503, 2940)
1st memory: 541.0 MiB
eri1 (1503, 5565)
eri1 (1503, 5565)
2nd memory: 409.8 MiB

========================
iter = 14  energy = -2523.361698 energy diff = 0.000058
multiplicity <S^2> : Reference = 3.6910533 Response = 3.6911562 Projector = 3.6912592
eri1 (1503, 5565)
eri1 (1503, 5565)
    CPU time for making amplitude: integral transform      1.21 sec, wall time      0.08 sec
shape (1503, 2940)
1st memory: 524.7 MiB
eri1 (1503, 5565)
eri1 (1503, 5565)
2nd memory: 411.5 MiB

========================
iter = 15  energy = -2523.361711 energy diff = 0.000014
multiplicity <S^2> : Reference = 3.6910971 Response = 3.6912784 Projector = 3.6914597
eri1 (1503, 5565)
eri1 (1503, 5565)
    CPU time for making amplitude: integral transform      1.19 sec, wall time      0.08 sec
shape (1503, 2940)
1st memory: 540.4 MiB
eri1 (1503, 5565)
eri1 (1503, 5565)
2nd memory: 412.5 MiB

========================
iter = 16  energy = -2523.361745 energy diff = 0.000034
multiplicity <S^2> : Reference = 3.6911983 Response = 3.6913806 Projector = 3.691563
eri1 (1503, 5565)
eri1 (1503, 5565)
    CPU time for making amplitude: integral transform      0.96 sec, wall time      0.06 sec
shape (1503, 2940)
1st memory: 524.0 MiB
eri1 (1503, 5565)
eri1 (1503, 5565)
2nd memory: 411.6 MiB

========================
iter = 17  energy = -2523.361408 energy diff = 0.000338
multiplicity <S^2> : Reference = 3.8657691 Response = 3.8658242 Projector = 3.8658794
eri1 (1503, 5565)
eri1 (1503, 5565)
    CPU time for making amplitude: integral transform      1.26 sec, wall time      0.08 sec
shape (1503, 2940)
1st memory: 541.3 MiB
eri1 (1503, 5565)
eri1 (1503, 5565)
2nd memory: 412.2 MiB

========================
iter = 18  energy = -2523.361462 energy diff = 0.000054
multiplicity <S^2> : Reference = 3.8647662 Response = 3.8648216 Projector = 3.864877
eri1 (1503, 5565)
eri1 (1503, 5565)
    CPU time for making amplitude: integral transform      1.05 sec, wall time      0.07 sec
shape (1503, 2940)
1st memory: 524.6 MiB
eri1 (1503, 5565)
eri1 (1503, 5565)
2nd memory: 388.0 MiB

========================
iter = 19  energy = -2523.365819 energy diff = 0.004357
multiplicity <S^2> : Reference = 3.7988535 Response = 3.7984042 Projector = 3.7979549
eri1 (1503, 5565)
eri1 (1503, 5565)
    CPU time for making amplitude: integral transform      1.21 sec, wall time      0.08 sec
shape (1503, 2940)
1st memory: 541.2 MiB
eri1 (1503, 5565)
eri1 (1503, 5565)
2nd memory: 412.3 MiB

========================
iter = 20  energy = -2523.369064 energy diff = 0.003245
multiplicity <S^2> : Reference = 3.7725967 Response = 3.7724706 Projector = 3.7723445
eri1 (1503, 5565)
eri1 (1503, 5565)
    CPU time for making amplitude: integral transform      0.96 sec, wall time      0.06 sec
shape (1503, 2940)
1st memory: 525.0 MiB
eri1 (1503, 5565)
eri1 (1503, 5565)
2nd memory: 387.5 MiB

========================
iter = 21  energy = -2523.372076 energy diff = 0.003012
multiplicity <S^2> : Reference = 3.7532617 Response = 3.7532196 Projector = 3.7531774
eri1 (1503, 5565)
eri1 (1503, 5565)
    CPU time for making amplitude: integral transform      1.15 sec, wall time      0.08 sec
shape (1503, 2940)
1st memory: 540.4 MiB
eri1 (1503, 5565)
eri1 (1503, 5565)
2nd memory: 388.2 MiB

========================
iter = 22  energy = -2523.373197 energy diff = 0.001121
multiplicity <S^2> : Reference = 3.764383 Response = 3.7644532 Projector = 3.7645234
eri1 (1503, 5565)
eri1 (1503, 5565)
    CPU time for making amplitude: integral transform      0.92 sec, wall time      0.06 sec
shape (1503, 2940)
1st memory: 525.0 MiB
eri1 (1503, 5565)
eri1 (1503, 5565)
2nd memory: 388.3 MiB

========================
iter = 23  energy = -2523.373293 energy diff = 0.000096
multiplicity <S^2> : Reference = 3.7712783 Response = 3.7713797 Projector = 3.7714811
eri1 (1503, 5565)
eri1 (1503, 5565)
    CPU time for making amplitude: integral transform      1.42 sec, wall time      0.10 sec
shape (1503, 2940)
1st memory: 540.6 MiB
eri1 (1503, 5565)
eri1 (1503, 5565)
2nd memory: 387.6 MiB

========================
iter = 24  energy = -2523.373265 energy diff = 0.000028
multiplicity <S^2> : Reference = 3.766787 Response = 3.7668118 Projector = 3.7668366
eri1 (1503, 5565)
eri1 (1503, 5565)
    CPU time for making amplitude: integral transform      0.99 sec, wall time      0.07 sec
shape (1503, 2940)
1st memory: 524.5 MiB
eri1 (1503, 5565)
eri1 (1503, 5565)
2nd memory: 411.8 MiB

========================
iter = 25  energy = -2523.373287 energy diff = 0.000022
multiplicity <S^2> : Reference = 3.7665701 Response = 3.7666426 Projector = 3.7667152
eri1 (1503, 5565)
eri1 (1503, 5565)
    CPU time for making amplitude: integral transform      1.24 sec, wall time      0.08 sec
shape (1503, 2940)
1st memory: 540.7 MiB
eri1 (1503, 5565)
eri1 (1503, 5565)
2nd memory: 387.7 MiB

========================
iter = 26  energy = -2523.373225 energy diff = 0.000062
multiplicity <S^2> : Reference = 3.7653606 Response = 3.7654043 Projector = 3.765448
eri1 (1503, 5565)
eri1 (1503, 5565)
    CPU time for making amplitude: integral transform      0.91 sec, wall time      0.06 sec
shape (1503, 2940)
1st memory: 524.1 MiB
eri1 (1503, 5565)
eri1 (1503, 5565)
2nd memory: 411.4 MiB

========================
iter = 27  energy = -2523.373263 energy diff = 0.000038
multiplicity <S^2> : Reference = 3.7642531 Response = 3.7643771 Projector = 3.7645012
eri1 (1503, 5565)
eri1 (1503, 5565)
    CPU time for making amplitude: integral transform      1.11 sec, wall time      0.07 sec
shape (1503, 2940)
1st memory: 540.9 MiB
eri1 (1503, 5565)
eri1 (1503, 5565)
2nd memory: 388.4 MiB

========================
iter = 28  energy = -2523.373286 energy diff = 0.000024
multiplicity <S^2> : Reference = 3.7570496 Response = 3.7570447 Projector = 3.7570397
eri1 (1503, 5565)
eri1 (1503, 5565)
    CPU time for making amplitude: integral transform      1.03 sec, wall time      0.07 sec
shape (1503, 2940)
1st memory: 523.8 MiB
eri1 (1503, 5565)
eri1 (1503, 5565)
2nd memory: 387.7 MiB

========================
iter = 29  energy = -2523.373140 energy diff = 0.000146
multiplicity <S^2> : Reference = 3.7445597 Response = 3.7443673 Projector = 3.7441749
eri1 (1503, 5565)
eri1 (1503, 5565)
    CPU time for making amplitude: integral transform      1.25 sec, wall time      0.08 sec
shape (1503, 2940)
1st memory: 540.8 MiB
eri1 (1503, 5565)
eri1 (1503, 5565)
2nd memory: 412.4 MiB

========================
iter = 30  energy = -2523.368895 energy diff = 0.004246
multiplicity <S^2> : Reference = 3.7687535 Response = 3.7688738 Projector = 3.7689942
eri1 (1503, 5565)
eri1 (1503, 5565)
    CPU time for making amplitude: integral transform      1.10 sec, wall time      0.07 sec
shape (1503, 2940)
1st memory: 525.0 MiB
eri1 (1503, 5565)
eri1 (1503, 5565)
2nd memory: 412.5 MiB

========================
iter = 31  energy = -2523.367461 energy diff = 0.001434
multiplicity <S^2> : Reference = 3.7807024 Response = 3.7806229 Projector = 3.7805435
eri1 (1503, 5565)
eri1 (1503, 5565)
    CPU time for making amplitude: integral transform      1.15 sec, wall time      0.08 sec
shape (1503, 2940)
1st memory: 541.3 MiB
eri1 (1503, 5565)
eri1 (1503, 5565)
2nd memory: 412.2 MiB

========================
iter = 32  energy = -2523.366719 energy diff = 0.000742
multiplicity <S^2> : Reference = 3.7833437 Response = 3.7831927 Projector = 3.7830418
eri1 (1503, 5565)
eri1 (1503, 5565)
    CPU time for making amplitude: integral transform      0.94 sec, wall time      0.06 sec
shape (1503, 2940)
1st memory: 524.3 MiB
eri1 (1503, 5565)
eri1 (1503, 5565)
2nd memory: 412.5 MiB

========================
iter = 33  energy = -2523.368158 energy diff = 0.001439
multiplicity <S^2> : Reference = 3.7722326 Response = 3.7720839 Projector = 3.7719352
eri1 (1503, 5565)
eri1 (1503, 5565)
    CPU time for making amplitude: integral transform      1.34 sec, wall time      0.09 sec
shape (1503, 2940)
