#INFO: **** input file is /home/ltkoanh/Al_B2LYP_6311_Gd_Cluster/Cluster/Al17-anion-singlet/input.py ****
import numpy
from pyscf import gto, scf, dft, mp, cc
from pyscf.mp import uobmp2_mom_conv, dfuobmp2_mom_conv, uhf_mom
from pyscf.mp import  mp2, ump2
from pyscf.tools import molden
import os
from functools import reduce


mol = gto.Mole()
geom = os.environ.get('geom_txt')
mol.atom = geom
mol.basis = os.environ.get('basis', 'cc-pvdz')
mol.unit = 'A'
mol.charge = int(os.environ.get('charge', 0))
mol.spin = int(os.environ.get('spin', 0))
mol.verbose = 4
mol.build()

#################### Ground state using density fitting
### Hartree-Fock
a  = scf.UHF(mol).density_fit()
a.kernel()

### Ground state OBMP2 calculation
ob = dfuobmp2_mom_conv.DFUOBMP2(a)
ob.second_order = True
ob.thresh = 10e-6
ob.css = 1
ob.cos = 1
e_obmp2g = ob.kernel()

### Ground state O2BMP2 calculation
ob = dfuobmp2_mom_conv.DFUOBMP2(a)
ob.second_order = True
ob.thresh = 10e-6
ob.css = 0                             
ob.cos = 1.2                             
e_o2bmp2g = ob.kernel()  

#################### Ground state NOT using density fitting
### Hartree-Fock
a  = scf.UHF(mol)
a.kernel()

### Ground state OBMP2 calculation
ob = uobmp2_mom_conv.UOBMP2(a)
ob.second_order = True
ob.thresh = 10e-6
ob.css = 1
ob.cos = 1
#e_obmp2g = ob.kernel()

### Ground state O2BMP2 calculation
ob = uobmp2_mom_conv.UOBMP2(a)
ob.second_order = True
ob.thresh = 10e-6
ob.css = 0
ob.cos = 1.2   ## the cos can be vary ...                        	 
#e_o2bmp2g = ob.kernel()


## Results from density-fitting approximate with non-using density fitting 
## check results between df and non-df with small molecules before running the important molecules
#INFO: ******************** input file end ********************


System: uname_result(system='Linux', node='comphys', release='3.10.0-1160.119.1.el7.x86_64', version='#1 SMP Tue Jun 4 14:43:51 UTC 2024', machine='x86_64', processor='x86_64')  Threads 8
Python 3.7.9 (default, Dec  4 2023, 13:00:18) 
[GCC 4.8.5 20150623 (Red Hat 4.8.5-44)]
numpy 1.21.6  scipy 1.7.3
Date: Tue May 27 20:52:07 2025
PySCF version 1.7.0
PySCF path  /share/installs/pyscf/pyscf
GIT HEAD      ref: refs/heads/ob-mp2
GIT ob-mp2 branch  f0fc63383ab6c719c0c91f5e07a6895c637b700d

[CONFIG] conf_file None
[INPUT] verbose = 4
[INPUT] num. atoms = 17
[INPUT] num. electrons = 222
[INPUT] charge = -1
[INPUT] spin (= nelec alpha-beta = 2S) = 0
[INPUT] symmetry False subgroup None
[INPUT] Mole.unit = A
[INPUT]  1 Al     1.398260000000   2.281013000000   0.000000000000 AA    2.642328450934   4.310489856573   0.000000000000 Bohr
[INPUT]  2 Al     2.233881000000   0.000000000000   1.499186000000 AA    4.221423284870   0.000000000000   2.833050949782 Bohr
[INPUT]  3 Al    -1.398260000000   2.281013000000   0.000000000000 AA   -2.642328450934   4.310489856573   0.000000000000 Bohr
[INPUT]  4 Al     1.398260000000  -2.281013000000   0.000000000000 AA    2.642328450934  -4.310489856573   0.000000000000 Bohr
[INPUT]  5 Al     0.000000000000  -1.412118000000   2.250941000000 AA    0.000000000000  -2.668516275569   4.253662012555 Bohr
[INPUT]  6 Al     0.000000000000   1.412118000000  -2.250941000000 AA    0.000000000000   2.668516275569  -4.253662012555 Bohr
[INPUT]  7 Al     0.000000000000   1.412118000000   2.250941000000 AA    0.000000000000   2.668516275569   4.253662012555 Bohr
[INPUT]  8 Al     2.233881000000   0.000000000000  -1.499186000000 AA    4.221423284870   0.000000000000  -2.833050949782 Bohr
[INPUT]  9 Al    -2.233881000000   0.000000000000  -1.499186000000 AA   -4.221423284870   0.000000000000  -2.833050949782 Bohr
[INPUT] 10 Al    -1.398260000000  -2.281013000000   0.000000000000 AA   -2.642328450934  -4.310489856573   0.000000000000 Bohr
[INPUT] 11 Al     0.000000000000  -1.412118000000  -2.250941000000 AA    0.000000000000  -2.668516275569  -4.253662012555 Bohr
[INPUT] 12 Al    -2.233881000000   0.000000000000   1.499186000000 AA   -4.221423284870   0.000000000000   2.833050949782 Bohr
[INPUT] 13 Al     4.212672000000   1.395293000000   0.000000000000 AA    7.960796332624   2.636721633523   0.000000000000 Bohr
[INPUT] 14 Al    -4.212672000000  -1.395293000000   0.000000000000 AA   -7.960796332624  -2.636721633523   0.000000000000 Bohr
[INPUT] 15 Al     4.212672000000  -1.395293000000   0.000000000000 AA    7.960796332624  -2.636721633523   0.000000000000 Bohr
[INPUT] 16 Al     0.000000000000   0.000000000000   0.000000000000 AA    0.000000000000   0.000000000000   0.000000000000 Bohr
[INPUT] 17 Al    -4.212672000000   1.395293000000   0.000000000000 AA   -7.960796332624   2.636721633523   0.000000000000 Bohr

nuclear repulsion = 3182.73218965836
number of shells = 85
number of NR pGTOs = 918
number of NR cGTOs = 153
basis = sto-6g
ecp = {}
CPU time:         1.47


******** <class 'pyscf.df.df_jk.density_fit.<locals>.DFHF'> ********
method = DFHF-UHF
initial guess = minao
damping factor = 0
level_shift factor = 0
DIIS = <class 'pyscf.scf.diis.CDIIS'>
diis_start_cycle = 1
diis_space = 8
SCF conv_tol = 1e-09
SCF conv_tol_grad = None
SCF max_cycles = 50
direct_scf = True
direct_scf_tol = 1e-13
chkfile to save SCF result = /home/ltkoanh/Al_B2LYP_6311_Gd_Cluster/Cluster/Al17-anion-singlet/tmpuzgs974g
max_memory 4000 MB (current use 60 MB)
number electrons alpha = 111  beta = 111
Set gradient conv threshold to 3.16228e-05
******** <class 'pyscf.df.df.DF'> ********
auxbasis = None
max_memory = 4000
_cderi_to_save = /home/ltkoanh/Al_B2LYP_6311_Gd_Cluster/Cluster/Al17-anion-singlet/tmphk6d4q54
Even tempered Gaussians are generated as DF auxbasis for  Al
init E= -4092.45228734585
  alpha nocc = 111  HOMO = -0.883698123829231  LUMO = -0.858144416646006
  beta  nocc = 111  HOMO = -0.869015838308123  LUMO = -0.841898787507522
cycle= 1 E= -4092.72573172584  delta_E= -0.273  |g|= 1.69  |ddm|= 5.24
  alpha nocc = 111  HOMO = 0.473627809001739  LUMO = 0.502303809411952
  beta  nocc = 111  HOMO = 0.472798577305743  LUMO = 0.502352759762737
cycle= 2 E= -4083.86924258789  delta_E= 8.86  |g|= 3.12  |ddm|= 6.73
  alpha nocc = 111  HOMO = 0.356979702182852  LUMO = 0.420937295814715
  beta  nocc = 111  HOMO = 0.3548158536087  LUMO = 0.413367777479686
cycle= 3 E= -4095.17377221077  delta_E= -11.3  |g|= 0.45  |ddm|= 5.25
  alpha nocc = 111  HOMO = 0.207638506635112  LUMO = 0.350539686134085
  beta  nocc = 111  HOMO = 0.209632210088867  LUMO = 0.354076080073448
cycle= 4 E= -4095.34460695411  delta_E= -0.171  |g|= 0.151  |ddm|= 1.09
  alpha nocc = 111  HOMO = 0.167401023518863  LUMO = 0.365881457124162
  beta  nocc = 111  HOMO = 0.168987997023161  LUMO = 0.36125714958332
cycle= 5 E= -4095.37282728049  delta_E= -0.0282  |g|= 0.0507  |ddm|= 0.323
  alpha nocc = 111  HOMO = 0.15870300147143  LUMO = 0.358592877030829
  beta  nocc = 111  HOMO = 0.159159187148339  LUMO = 0.356189536190756
cycle= 6 E= -4095.37753995053  delta_E= -0.00471  |g|= 0.0136  |ddm|= 0.18
  alpha nocc = 111  HOMO = 0.156417676205782  LUMO = 0.359301833492056
  beta  nocc = 111  HOMO = 0.156640655341185  LUMO = 0.357799066024483
cycle= 7 E= -4095.37809578278  delta_E= -0.000556  |g|= 0.00589  |ddm|= 0.0677
  alpha nocc = 111  HOMO = 0.156405590626568  LUMO = 0.358794019340588
  beta  nocc = 111  HOMO = 0.156582031207483  LUMO = 0.357913569469586
cycle= 8 E= -4095.37830077775  delta_E= -0.000205  |g|= 0.00321  |ddm|= 0.0457
  alpha nocc = 111  HOMO = 0.156013385770492  LUMO = 0.358427715012172
  beta  nocc = 111  HOMO = 0.156137767451242  LUMO = 0.358197219488881
cycle= 9 E= -4095.37840075842  delta_E= -0.0001  |g|= 0.00159  |ddm|= 0.0447
  alpha nocc = 111  HOMO = 0.155995167482731  LUMO = 0.358191949822801
  beta  nocc = 111  HOMO = 0.156155902050754  LUMO = 0.358101689443698
cycle= 10 E= -4095.37841520167  delta_E= -1.44e-05  |g|= 0.000898  |ddm|= 0.0151
  alpha nocc = 111  HOMO = 0.156070550774583  LUMO = 0.358109786765671
  beta  nocc = 111  HOMO = 0.156273579807416  LUMO = 0.358072775229254
cycle= 11 E= -4095.37842002993  delta_E= -4.83e-06  |g|= 0.000316  |ddm|= 0.0107
  alpha nocc = 111  HOMO = 0.156060987648749  LUMO = 0.358138790549878
  beta  nocc = 111  HOMO = 0.156245071692645  LUMO = 0.358111268397407
cycle= 12 E= -4095.37842087721  delta_E= -8.47e-07  |g|= 0.000212  |ddm|= 0.0034
  alpha nocc = 111  HOMO = 0.156082384701648  LUMO = 0.358128279007603
  beta  nocc = 111  HOMO = 0.156242494262917  LUMO = 0.358086631184008
cycle= 13 E= -4095.37842147416  delta_E= -5.97e-07  |g|= 0.000148  |ddm|= 0.0034
  alpha nocc = 111  HOMO = 0.156108808744914  LUMO = 0.358131030493722
  beta  nocc = 111  HOMO = 0.156211918101932  LUMO = 0.358110470066484
cycle= 14 E= -4095.37842186793  delta_E= -3.94e-07  |g|= 9.94e-05  |ddm|= 0.00342
  alpha nocc = 111  HOMO = 0.156127887156007  LUMO = 0.358119507919641
  beta  nocc = 111  HOMO = 0.156192057528801  LUMO = 0.358108814507186
cycle= 15 E= -4095.37842203514  delta_E= -1.67e-07  |g|= 6.7e-05  |ddm|= 0.00235
  alpha nocc = 111  HOMO = 0.156143839628171  LUMO = 0.358115912452397
  beta  nocc = 111  HOMO = 0.156177905082326  LUMO = 0.358113966621734
cycle= 16 E= -4095.37842209968  delta_E= -6.45e-08  |g|= 4.21e-05  |ddm|= 0.00158
  alpha nocc = 111  HOMO = 0.156154220403654  LUMO = 0.358113971851751
  beta  nocc = 111  HOMO = 0.15616856184381  LUMO = 0.358115417570882
cycle= 17 E= -4095.37842212253  delta_E= -2.29e-08  |g|= 2.24e-05  |ddm|= 0.000993
  alpha nocc = 111  HOMO = 0.156158219468811  LUMO = 0.35811501371121
  beta  nocc = 111  HOMO = 0.15616321815366  LUMO = 0.358115434118588
cycle= 18 E= -4095.37842212783  delta_E= -5.3e-09  |g|= 9.92e-06  |ddm|= 0.000475
  alpha nocc = 111  HOMO = 0.156159608626464  LUMO = 0.358114961847187
  beta  nocc = 111  HOMO = 0.156161643294736  LUMO = 0.358115014386221
cycle= 19 E= -4095.37842212849  delta_E= -6.58e-10  |g|= 1.19e-05  |ddm|= 0.000149
  alpha nocc = 111  HOMO = 0.156159926913143  LUMO = 0.358115006074688
  beta  nocc = 111  HOMO = 0.156161628942577  LUMO = 0.358114997345244
Extra cycle  E= -4095.37842212813  delta_E= 3.65e-10  |g|= 2.48e-05  |ddm|= 6.16e-05
converged SCF energy = -4095.37842212813  <S^2> = 2.569891e-09  2S+1 = 1
shift = 0
thresh = 1e-05 
eri1 (1921, 11781)
eri1 (1921, 11781)
    CPU time for making amplitude: integral transform      2.43 sec, wall time      0.23 sec
shape (1921, 6426)
1st memory: 1229.3 MiB
eri1 (1921, 11781)
eri1 (1921, 11781)
2nd memory: 845.2 MiB

========================
iter = 0  energy = -4096.498828 energy diff = 4096.498828
multiplicity <S^2> : Reference = 2.5698768e-09 Response = 2.5695029e-09 Projector = 2.5691291e-09
eri1 (1921, 11781)
eri1 (1921, 11781)
    CPU time for making amplitude: integral transform      2.40 sec, wall time      0.22 sec
shape (1921, 6426)
1st memory: 1220.0 MiB
eri1 (1921, 11781)
eri1 (1921, 11781)
2nd memory: 848.3 MiB

========================
iter = 1  energy = -4096.498494 energy diff = 0.000335
multiplicity <S^2> : Reference = 1.6929675e-09 Response = 1.6929994e-09 Projector = 1.6930313e-09
eri1 (1921, 11781)
eri1 (1921, 11781)
    CPU time for making amplitude: integral transform      2.53 sec, wall time      0.24 sec
shape (1921, 6426)
1st memory: 1220.0 MiB
eri1 (1921, 11781)
eri1 (1921, 11781)
2nd memory: 848.3 MiB

========================
iter = 2  energy = -4096.507377 energy diff = 0.008883
multiplicity <S^2> : Reference = 1.1582699e-09 Response = 1.1584604e-09 Projector = 1.1586508e-09
eri1 (1921, 11781)
eri1 (1921, 11781)
    CPU time for making amplitude: integral transform      2.44 sec, wall time      0.23 sec
shape (1921, 6426)
1st memory: 1221.1 MiB
eri1 (1921, 11781)
eri1 (1921, 11781)
2nd memory: 849.4 MiB

========================
iter = 3  energy = -4096.511370 energy diff = 0.003994
multiplicity <S^2> : Reference = 7.0370731e-10 Response = 7.0368128e-10 Projector = 7.0365524e-10
eri1 (1921, 11781)
eri1 (1921, 11781)
    CPU time for making amplitude: integral transform      2.77 sec, wall time      0.27 sec
shape (1921, 6426)
1st memory: 1222.7 MiB
eri1 (1921, 11781)
eri1 (1921, 11781)
2nd memory: 852.9 MiB

========================
iter = 4  energy = -4096.512950 energy diff = 0.001579
multiplicity <S^2> : Reference = 3.7633185e-10 Response = 3.7635067e-10 Projector = 3.7636948e-10
eri1 (1921, 11781)
eri1 (1921, 11781)
    CPU time for making amplitude: integral transform      2.45 sec, wall time      0.23 sec
shape (1921, 6426)
1st memory: 1224.4 MiB
eri1 (1921, 11781)
eri1 (1921, 11781)
2nd memory: 852.7 MiB

========================
iter = 5  energy = -4096.513738 energy diff = 0.000788
multiplicity <S^2> : Reference = 1.8991386e-10 Response = 1.8991579e-10 Projector = 1.8991772e-10
eri1 (1921, 11781)
eri1 (1921, 11781)
    CPU time for making amplitude: integral transform      2.41 sec, wall time      0.23 sec
shape (1921, 6426)
1st memory: 1225.2 MiB
eri1 (1921, 11781)
eri1 (1921, 11781)
2nd memory: 849.3 MiB

========================
iter = 6  energy = -4096.514047 energy diff = 0.000310
multiplicity <S^2> : Reference = 7.1594286e-11 Response = 7.1588614e-11 Projector = 7.1582941e-11
eri1 (1921, 11781)
eri1 (1921, 11781)
    CPU time for making amplitude: integral transform      2.43 sec, wall time      0.23 sec
shape (1921, 6426)
1st memory: 1226.5 MiB
eri1 (1921, 11781)
eri1 (1921, 11781)
2nd memory: 853.2 MiB

========================
iter = 7  energy = -4096.514122 energy diff = 0.000075
multiplicity <S^2> : Reference = 2.7483793e-11 Response = 2.7481729e-11 Projector = 2.7479664e-11
eri1 (1921, 11781)
eri1 (1921, 11781)
    CPU time for making amplitude: integral transform      3.13 sec, wall time      0.32 sec
shape (1921, 6426)
1st memory: 1227.4 MiB
eri1 (1921, 11781)
eri1 (1921, 11781)
2nd memory: 855.7 MiB

========================
iter = 8  energy = -4096.514136 energy diff = 0.000014
multiplicity <S^2> : Reference = 1.1112888e-11 Response = 1.1112738e-11 Projector = 1.1112587e-11
eri1 (1921, 11781)
eri1 (1921, 11781)
    CPU time for making amplitude: integral transform      2.66 sec, wall time      0.26 sec
shape (1921, 6426)
1st memory: 1228.2 MiB
eri1 (1921, 11781)
eri1 (1921, 11781)
2nd memory: 854.9 MiB

========================
iter = 9  energy = -4096.514136 energy diff = 0.000001
multiplicity <S^2> : Reference = 4.2206239e-12 Response = 4.2205486e-12 Projector = 4.2204733e-12

UOB-MP2 has converged
UOB-MP2 energy =  -4096.514136425616
shift = 0
thresh = 1e-05 
eri1 (1921, 11781)
eri1 (1921, 11781)
    CPU time for making amplitude: integral transform      2.67 sec, wall time      0.26 sec
shape (1921, 6426)
1st memory: 1221.7 MiB
eri1 (1921, 11781)
eri1 (1921, 11781)
2nd memory: 848.4 MiB

========================
iter = 0  energy = -4096.115897 energy diff = 4096.115897
multiplicity <S^2> : Reference = 2.5698768e-09 Response = 2.5695029e-09 Projector = 2.5691291e-09
eri1 (1921, 11781)
eri1 (1921, 11781)
    CPU time for making amplitude: integral transform      2.52 sec, wall time      0.24 sec
shape (1921, 6426)
1st memory: 1221.7 MiB
eri1 (1921, 11781)
eri1 (1921, 11781)
2nd memory: 849.9 MiB

========================
iter = 1  energy = -4096.151807 energy diff = 0.035910
multiplicity <S^2> : Reference = 1.641979e-09 Response = 1.641775e-09 Projector = 1.6415709e-09
eri1 (1921, 11781)
eri1 (1921, 11781)
    CPU time for making amplitude: integral transform      2.58 sec, wall time      0.25 sec
shape (1921, 6426)
1st memory: 1223.2 MiB
eri1 (1921, 11781)
eri1 (1921, 11781)
2nd memory: 849.9 MiB

========================
iter = 2  energy = -4096.155814 energy diff = 0.004007
multiplicity <S^2> : Reference = 1.0915358e-09 Response = 1.0914899e-09 Projector = 1.0914441e-09
eri1 (1921, 11781)
eri1 (1921, 11781)
    CPU time for making amplitude: integral transform      2.44 sec, wall time      0.23 sec
shape (1921, 6426)
1st memory: 1223.2 MiB
eri1 (1921, 11781)
eri1 (1921, 11781)
2nd memory: 851.5 MiB

========================
iter = 3  energy = -4096.156970 energy diff = 0.001156
multiplicity <S^2> : Reference = 6.7208816e-10 Response = 6.7217119e-10 Projector = 6.7225422e-10
eri1 (1921, 11781)
eri1 (1921, 11781)
    CPU time for making amplitude: integral transform      2.66 sec, wall time      0.26 sec
shape (1921, 6426)
1st memory: 1224.1 MiB
eri1 (1921, 11781)
eri1 (1921, 11781)
2nd memory: 852.3 MiB

========================
iter = 4  energy = -4096.157539 energy diff = 0.000569
multiplicity <S^2> : Reference = 3.468017e-10 Response = 3.4679587e-10 Projector = 3.4679004e-10
eri1 (1921, 11781)
eri1 (1921, 11781)
    CPU time for making amplitude: integral transform      2.40 sec, wall time      0.22 sec
shape (1921, 6426)
1st memory: 1224.6 MiB
eri1 (1921, 11781)
eri1 (1921, 11781)
2nd memory: 852.9 MiB

========================
iter = 5  energy = -4096.157752 energy diff = 0.000213
multiplicity <S^2> : Reference = 1.8580693e-10 Response = 1.858051e-10 Projector = 1.8580327e-10
eri1 (1921, 11781)
eri1 (1921, 11781)
    CPU time for making amplitude: integral transform      2.42 sec, wall time      0.23 sec
shape (1921, 6426)
1st memory: 1226.2 MiB
eri1 (1921, 11781)
eri1 (1921, 11781)
2nd memory: 854.4 MiB

========================
iter = 6  energy = -4096.157836 energy diff = 0.000084
multiplicity <S^2> : Reference = 7.4791728e-11 Response = 7.4774751e-11 Projector = 7.4757775e-11
eri1 (1921, 11781)
eri1 (1921, 11781)
    CPU time for making amplitude: integral transform      2.61 sec, wall time      0.25 sec
shape (1921, 6426)
1st memory: 1226.9 MiB
eri1 (1921, 11781)
eri1 (1921, 11781)
2nd memory: 855.2 MiB

========================
iter = 7  energy = -4096.157853 energy diff = 0.000017
multiplicity <S^2> : Reference = 2.8109071e-11 Response = 2.8102531e-11 Projector = 2.8095991e-11
eri1 (1921, 11781)
eri1 (1921, 11781)
    CPU time for making amplitude: integral transform      2.87 sec, wall time      0.28 sec
shape (1921, 6426)
1st memory: 1227.3 MiB
eri1 (1921, 11781)
eri1 (1921, 11781)
2nd memory: 855.6 MiB

========================
iter = 8  energy = -4096.157859 energy diff = 0.000006
multiplicity <S^2> : Reference = 1.0430767e-11 Response = 1.0428632e-11 Projector = 1.0426498e-11

UOB-MP2 has converged
UOB-MP2 energy =  -4096.15785887709


******** <class 'pyscf.scf.uhf.UHF'> ********
method = UHF
initial guess = minao
damping factor = 0
level_shift factor = 0
DIIS = <class 'pyscf.scf.diis.CDIIS'>
diis_start_cycle = 1
diis_space = 8
SCF conv_tol = 1e-09
SCF conv_tol_grad = None
SCF max_cycles = 50
direct_scf = True
direct_scf_tol = 1e-13
chkfile to save SCF result = /home/ltkoanh/Al_B2LYP_6311_Gd_Cluster/Cluster/Al17-anion-singlet/tmpdlkty0yy
max_memory 4000 MB (current use 334 MB)
number electrons alpha = 111  beta = 111
Set gradient conv threshold to 3.16228e-05
init E= -4092.45527753784
  alpha nocc = 111  HOMO = -0.883946723443108  LUMO = -0.858362013670519
  beta  nocc = 111  HOMO = -0.869255820978798  LUMO = -0.84212729112626
cycle= 1 E= -4092.73123348494  delta_E= -0.276  |g|= 1.69  |ddm|= 5.24
  alpha nocc = 111  HOMO = 0.473415626139851  LUMO = 0.502064950594694
  beta  nocc = 111  HOMO = 0.47260020933575  LUMO = 0.502091111779795
cycle= 2 E= -4083.86624057671  delta_E= 8.86  |g|= 3.12  |ddm|= 6.73
  alpha nocc = 111  HOMO = 0.357090606654137  LUMO = 0.420906290461124
  beta  nocc = 111  HOMO = 0.354964562693662  LUMO = 0.413310371594358
cycle= 3 E= -4095.18077277205  delta_E= -11.3  |g|= 0.45  |ddm|= 5.25
  alpha nocc = 111  HOMO = 0.207381661750453  LUMO = 0.350402291154278
  beta  nocc = 111  HOMO = 0.209376457700449  LUMO = 0.353945957444223
cycle= 4 E= -4095.35176633052  delta_E= -0.171  |g|= 0.152  |ddm|= 1.09
  alpha nocc = 111  HOMO = 0.167167248185779  LUMO = 0.36584922240198
  beta  nocc = 111  HOMO = 0.16876862354719  LUMO = 0.361216210322769
cycle= 5 E= -4095.37999187639  delta_E= -0.0282  |g|= 0.0508  |ddm|= 0.323
  alpha nocc = 111  HOMO = 0.158461986986623  LUMO = 0.358560200921287
  beta  nocc = 111  HOMO = 0.158925014965765  LUMO = 0.356153165955134
cycle= 6 E= -4095.38471090598  delta_E= -0.00472  |g|= 0.0136  |ddm|= 0.18
  alpha nocc = 111  HOMO = 0.156182319763406  LUMO = 0.359269095075316
  beta  nocc = 111  HOMO = 0.156410225875903  LUMO = 0.357763129220664
cycle= 7 E= -4095.38526452163  delta_E= -0.000554  |g|= 0.00589  |ddm|= 0.0676
  alpha nocc = 111  HOMO = 0.156174394963953  LUMO = 0.358760610864162
  beta  nocc = 111  HOMO = 0.156354314317554  LUMO = 0.357877221794764
cycle= 8 E= -4095.38546816186  delta_E= -0.000204  |g|= 0.0032  |ddm|= 0.0456
  alpha nocc = 111  HOMO = 0.155787165908926  LUMO = 0.35839378349737
  beta  nocc = 111  HOMO = 0.155913250152345  LUMO = 0.358161399053833
cycle= 9 E= -4095.38556730396  delta_E= -9.91e-05  |g|= 0.00158  |ddm|= 0.0445
  alpha nocc = 111  HOMO = 0.155770370029101  LUMO = 0.358158752728651
  beta  nocc = 111  HOMO = 0.155932232558095  LUMO = 0.358066874614443
cycle= 10 E= -4095.38558157859  delta_E= -1.43e-05  |g|= 0.000897  |ddm|= 0.015
  alpha nocc = 111  HOMO = 0.155845665625161  LUMO = 0.35807671639302
  beta  nocc = 111  HOMO = 0.156049226480895  LUMO = 0.358038949038316
cycle= 11 E= -4095.38558636849  delta_E= -4.79e-06  |g|= 0.000317  |ddm|= 0.0106
  alpha nocc = 111  HOMO = 0.155836216858018  LUMO = 0.35810546641737
  beta  nocc = 111  HOMO = 0.156020622595501  LUMO = 0.358077744957617
cycle= 12 E= -4095.38558722463  delta_E= -8.56e-07  |g|= 0.000212  |ddm|= 0.00342
  alpha nocc = 111  HOMO = 0.155857613698309  LUMO = 0.358094836731271
  beta  nocc = 111  HOMO = 0.156017903569131  LUMO = 0.358053352431094
cycle= 13 E= -4095.38558782058  delta_E= -5.96e-07  |g|= 0.000147  |ddm|= 0.00341
  alpha nocc = 111  HOMO = 0.155883995011159  LUMO = 0.358097441538028
  beta  nocc = 111  HOMO = 0.15598765212988  LUMO = 0.358076994083414
cycle= 14 E= -4095.3855882067  delta_E= -3.86e-07  |g|= 9.94e-05  |ddm|= 0.00336
  alpha nocc = 111  HOMO = 0.155902809487842  LUMO = 0.358086171579778
  beta  nocc = 111  HOMO = 0.155967909121086  LUMO = 0.358075426747008
cycle= 15 E= -4095.38558837146  delta_E= -1.65e-07  |g|= 6.75e-05  |ddm|= 0.00231
  alpha nocc = 111  HOMO = 0.155918896540671  LUMO = 0.358082493902864
  beta  nocc = 111  HOMO = 0.155953565917509  LUMO = 0.358080500262877
cycle= 16 E= -4095.38558843723  delta_E= -6.58e-08  |g|= 4.25e-05  |ddm|= 0.00159
  alpha nocc = 111  HOMO = 0.155929530095482  LUMO = 0.358080568113139
  beta  nocc = 111  HOMO = 0.155944029123394  LUMO = 0.358081976822837
cycle= 17 E= -4095.38558846087  delta_E= -2.36e-08  |g|= 2.25e-05  |ddm|= 0.00101
  alpha nocc = 111  HOMO = 0.15593363638612  LUMO = 0.358081614202236
  beta  nocc = 111  HOMO = 0.155938549972763  LUMO = 0.358081991029706
cycle= 18 E= -4095.38558846636  delta_E= -5.49e-09  |g|= 8.95e-06  |ddm|= 0.000488
  alpha nocc = 111  HOMO = 0.155935527356477  LUMO = 0.3580813553937
  beta  nocc = 111  HOMO = 0.155936711957112  LUMO = 0.358081389992342
cycle= 19 E= -4095.3855884672  delta_E= -8.39e-10  |g|= 2.99e-06  |ddm|= 0.00019
  alpha nocc = 111  HOMO = 0.15593563538057  LUMO = 0.358081541491434
  beta  nocc = 111  HOMO = 0.15593660278604  LUMO = 0.358081545527491
Extra cycle  E= -4095.38558846721  delta_E= -9.09e-12  |g|= 3.58e-06  |ddm|= 1.51e-05
converged SCF energy = -4095.38558846721  <S^2> = 6.3428729e-10  2S+1 = 1
