#INFO: **** input file is /home/ltkoanh/Al_B2LYP_6311_Gd_Cluster/Cluster/Al12-neutral-singlet-2/input.py ****
import numpy
from pyscf import gto, scf, dft, mp, cc
from pyscf.mp import uobmp2_mom_conv, dfuobmp2_mom_conv, uhf_mom
from pyscf.mp import  mp2, ump2
from pyscf.tools import molden
import os
from functools import reduce


mol = gto.Mole()
geom = os.environ.get('geom_txt')
mol.atom = geom
mol.basis = os.environ.get('basis', 'cc-pvdz')
mol.unit = 'A'
mol.charge = int(os.environ.get('charge', 0))
mol.spin = int(os.environ.get('spin', 0))
mol.verbose = 4
mol.build()

#################### Ground state using density fitting
### Hartree-Fock
a  = scf.UHF(mol).density_fit()
a.kernel()

### Ground state OBMP2 calculation
ob = dfuobmp2_mom_conv.DFUOBMP2(a)
ob.second_order = True
ob.thresh = 10e-6
ob.css = 1
ob.cos = 1
e_obmp2g = ob.kernel()

### Ground state O2BMP2 calculation
ob = dfuobmp2_mom_conv.DFUOBMP2(a)
ob.second_order = True
ob.thresh = 10e-6
ob.css = 0                             
ob.cos = 1.2                             
e_o2bmp2g = ob.kernel()  

#################### Ground state NOT using density fitting
### Hartree-Fock
a  = scf.UHF(mol)
a.kernel()

### Ground state OBMP2 calculation
ob = uobmp2_mom_conv.UOBMP2(a)
ob.second_order = True
ob.thresh = 10e-6
ob.css = 1
ob.cos = 1
#e_obmp2g = ob.kernel()

### Ground state O2BMP2 calculation
ob = uobmp2_mom_conv.UOBMP2(a)
ob.second_order = True
ob.thresh = 10e-6
ob.css = 0
ob.cos = 1.2   ## the cos can be vary ...                        	 
#e_o2bmp2g = ob.kernel()


## Results from density-fitting approximate with non-using density fitting 
## check results between df and non-df with small molecules before running the important molecules
#INFO: ******************** input file end ********************


System: uname_result(system='Linux', node='comphys', release='3.10.0-1160.119.1.el7.x86_64', version='#1 SMP Tue Jun 4 14:43:51 UTC 2024', machine='x86_64', processor='x86_64')  Threads 8
Python 3.7.9 (default, Dec  4 2023, 13:00:18) 
[GCC 4.8.5 20150623 (Red Hat 4.8.5-44)]
numpy 1.21.6  scipy 1.7.3
Date: Mon May 19 17:30:49 2025
PySCF version 1.7.0
PySCF path  /share/installs/pyscf/pyscf
GIT HEAD      ref: refs/heads/ob-mp2
GIT ob-mp2 branch  f0fc63383ab6c719c0c91f5e07a6895c637b700d

[CONFIG] conf_file None
[INPUT] verbose = 4
[INPUT] num. atoms = 12
[INPUT] num. electrons = 78
[INPUT] charge = 0
[INPUT] spin (= nelec alpha-beta = 2S) = 0
[INPUT] symmetry False subgroup None
[INPUT] Mole.unit = A
[INPUT]  1 H     -2.505950000000  -0.825961000000   1.295285000000 AA   -4.735559181854  -1.560840079572   2.447733903257 Bohr
[INPUT]  2 He    -0.170286000000  -1.187940000000  -2.611489000000 AA   -0.321793902848  -2.244881252416  -4.934998987314 Bohr
[INPUT]  3 Li    -0.170286000000  -1.187940000000   2.611489000000 AA   -0.321793902848  -2.244881252416   4.934998987314 Bohr
[INPUT]  4 Be    -1.229494000000   1.471732000000   1.596256000000 AA   -2.323406931796   2.781170408758   3.016486664694 Bohr
[INPUT]  5 B      2.138287000000  -1.380312000000  -1.326618000000 AA    4.040776805718  -2.608411646451  -2.506944691918 Bohr
[INPUT]  6 C      2.138287000000  -1.380312000000   1.326618000000 AA    4.040776805718  -2.608411646451   2.506944691918 Bohr
[INPUT]  7 N      1.257217000000   1.105424000000   2.343482000000 AA    2.375795809147   2.088948611521   4.428539157848 Bohr
[INPUT]  8 O      1.046347000000   2.089606000000   0.000000000000 AA    1.977309261260   3.948783048248   0.000000000000 Bohr
[INPUT]  9 F     -2.505950000000  -0.825961000000  -1.295285000000 AA   -4.735559181854  -1.560840079572  -2.447733903257 Bohr
[INPUT] 10 Ne    -1.229494000000   1.471732000000  -1.596256000000 AA   -2.323406931796   2.781170408758  -3.016486664694 Bohr
[INPUT] 11 Na     1.257217000000   1.105424000000  -2.343482000000 AA    2.375795809147   2.088948611521  -4.428539157848 Bohr
[INPUT] 12 Mg    -0.025895000000  -0.455493000000   0.000000000000 AA   -0.048934457996  -0.860757021657   0.000000000000 Bohr

nuclear repulsion = 430.197785375512
number of shells = 36
number of NR pGTOs = 360
number of NR cGTOs = 60
basis = sto-6g
ecp = {}
CPU time:         1.56


******** <class 'pyscf.df.df_jk.density_fit.<locals>.DFHF'> ********
method = DFHF-UHF
initial guess = minao
damping factor = 0
level_shift factor = 0
DIIS = <class 'pyscf.scf.diis.CDIIS'>
diis_start_cycle = 1
diis_space = 8
SCF conv_tol = 1e-09
SCF conv_tol_grad = None
SCF max_cycles = 50
direct_scf = True
direct_scf_tol = 1e-13
chkfile to save SCF result = /home/ltkoanh/Al_B2LYP_6311_Gd_Cluster/Cluster/Al12-neutral-singlet-2/tmpavzacgvz
max_memory 4000 MB (current use 60 MB)
number electrons alpha = 39  beta = 39
Set gradient conv threshold to 3.16228e-05
******** <class 'pyscf.df.df.DF'> ********
auxbasis = None
max_memory = 4000
_cderi_to_save = /home/ltkoanh/Al_B2LYP_6311_Gd_Cluster/Cluster/Al12-neutral-singlet-2/tmpzrl62ch4
Even tempered Gaussians are generated as DF auxbasis for  B Li Mg H N He F Ne C O Be Na
