#INFO: **** input file is /home/ltkoanh/Al_B2LYP_6311_Gd_Cluster/Cluster/Al12-neutral-singlet-2/input.py ****
import numpy
from pyscf import gto, scf, dft, mp, cc
from pyscf.mp import uobmp2_mom_conv, dfuobmp2_mom_conv, uhf_mom
from pyscf.mp import  mp2, ump2
from pyscf.tools import molden
import os
from functools import reduce


mol = gto.Mole()
geom = os.environ.get('geom_txt')
mol.atom = geom
mol.basis = os.environ.get('basis', 'cc-pvdz')
mol.unit = 'A'
mol.charge = int(os.environ.get('charge', 0))
mol.spin = int(os.environ.get('spin', 0))
mol.verbose = 4
mol.build()

#################### Ground state using density fitting
### Hartree-Fock
a  = scf.UHF(mol).density_fit()
a.kernel()

### Ground state OBMP2 calculation
ob = dfuobmp2_mom_conv.DFUOBMP2(a)
ob.second_order = True
ob.thresh = 10e-6
ob.css = 1
ob.cos = 1
e_obmp2g = ob.kernel()

### Ground state O2BMP2 calculation
ob = dfuobmp2_mom_conv.DFUOBMP2(a)
ob.second_order = True
ob.thresh = 10e-6
ob.css = 0                             
ob.cos = 1.2                             
e_o2bmp2g = ob.kernel()  

#################### Ground state NOT using density fitting
### Hartree-Fock
a  = scf.UHF(mol)
a.kernel()

### Ground state OBMP2 calculation
ob = uobmp2_mom_conv.UOBMP2(a)
ob.second_order = True
ob.thresh = 10e-6
ob.css = 1
ob.cos = 1
#e_obmp2g = ob.kernel()

### Ground state O2BMP2 calculation
ob = uobmp2_mom_conv.UOBMP2(a)
ob.second_order = True
ob.thresh = 10e-6
ob.css = 0
ob.cos = 1.2   ## the cos can be vary ...                        	 
#e_o2bmp2g = ob.kernel()


## Results from density-fitting approximate with non-using density fitting 
## check results between df and non-df with small molecules before running the important molecules
#INFO: ******************** input file end ********************


System: uname_result(system='Linux', node='comphys', release='3.10.0-1160.119.1.el7.x86_64', version='#1 SMP Tue Jun 4 14:43:51 UTC 2024', machine='x86_64', processor='x86_64')  Threads 8
Python 3.7.9 (default, Dec  4 2023, 13:00:18) 
[GCC 4.8.5 20150623 (Red Hat 4.8.5-44)]
numpy 1.21.6  scipy 1.7.3
Date: Tue May 27 17:47:16 2025
PySCF version 1.7.0
PySCF path  /share/installs/pyscf/pyscf
GIT HEAD      ref: refs/heads/ob-mp2
GIT ob-mp2 branch  f0fc63383ab6c719c0c91f5e07a6895c637b700d

[CONFIG] conf_file None
[INPUT] verbose = 4
[INPUT] num. atoms = 12
[INPUT] num. electrons = 156
[INPUT] charge = 0
[INPUT] spin (= nelec alpha-beta = 2S) = 0
[INPUT] symmetry False subgroup None
[INPUT] Mole.unit = A
[INPUT]  1 Al    -2.505950000000  -0.825961000000   1.295285000000 AA   -4.735559181854  -1.560840079572   2.447733903257 Bohr
[INPUT]  2 Al    -0.170286000000  -1.187940000000  -2.611489000000 AA   -0.321793902848  -2.244881252416  -4.934998987314 Bohr
[INPUT]  3 Al    -0.170286000000  -1.187940000000   2.611489000000 AA   -0.321793902848  -2.244881252416   4.934998987314 Bohr
[INPUT]  4 Al    -1.229494000000   1.471732000000   1.596256000000 AA   -2.323406931796   2.781170408758   3.016486664694 Bohr
[INPUT]  5 Al     2.138287000000  -1.380312000000  -1.326618000000 AA    4.040776805718  -2.608411646451  -2.506944691918 Bohr
[INPUT]  6 Al     2.138287000000  -1.380312000000   1.326618000000 AA    4.040776805718  -2.608411646451   2.506944691918 Bohr
[INPUT]  7 Al     1.257217000000   1.105424000000   2.343482000000 AA    2.375795809147   2.088948611521   4.428539157848 Bohr
[INPUT]  8 Al     1.046347000000   2.089606000000   0.000000000000 AA    1.977309261260   3.948783048248   0.000000000000 Bohr
[INPUT]  9 Al    -2.505950000000  -0.825961000000  -1.295285000000 AA   -4.735559181854  -1.560840079572  -2.447733903257 Bohr
[INPUT] 10 Al    -1.229494000000   1.471732000000  -1.596256000000 AA   -2.323406931796   2.781170408758  -3.016486664694 Bohr
[INPUT] 11 Al     1.257217000000   1.105424000000  -2.343482000000 AA    2.375795809147   2.088948611521  -4.428539157848 Bohr
[INPUT] 12 Al    -0.025895000000  -0.455493000000   0.000000000000 AA   -0.048934457996  -0.860757021657   0.000000000000 Bohr

nuclear repulsion = 1685.27747139706
number of shells = 60
number of NR pGTOs = 648
number of NR cGTOs = 108
basis = sto-6g
ecp = {}
CPU time:         1.43


******** <class 'pyscf.df.df_jk.density_fit.<locals>.DFHF'> ********
method = DFHF-UHF
initial guess = minao
damping factor = 0
level_shift factor = 0
DIIS = <class 'pyscf.scf.diis.CDIIS'>
diis_start_cycle = 1
diis_space = 8
SCF conv_tol = 1e-09
SCF conv_tol_grad = None
SCF max_cycles = 50
direct_scf = True
direct_scf_tol = 1e-13
chkfile to save SCF result = /home/ltkoanh/Al_B2LYP_6311_Gd_Cluster/Cluster/Al12-neutral-singlet-2/tmp9uusarpv
max_memory 4000 MB (current use 60 MB)
number electrons alpha = 78  beta = 78
Set gradient conv threshold to 3.16228e-05
******** <class 'pyscf.df.df.DF'> ********
auxbasis = None
max_memory = 4000
_cderi_to_save = /home/ltkoanh/Al_B2LYP_6311_Gd_Cluster/Cluster/Al12-neutral-singlet-2/tmp_2gn6jxk
Even tempered Gaussians are generated as DF auxbasis for  Al
init E= -2888.96784309432
  alpha nocc = 78  HOMO = -0.693066390459843  LUMO = -0.598425442882841
  beta  nocc = 78  HOMO = -0.650390868907195  LUMO = -0.574279536657057
cycle= 1 E= -2890.00756339324  delta_E= -1.04  |g|= 1.01  |ddm|= 4.04
  alpha nocc = 78  HOMO = 0.249569233691623  LUMO = 0.32127182830908
  beta  nocc = 78  HOMO = 0.252143016464943  LUMO = 0.324173441055909
cycle= 2 E= -2890.33056254087  delta_E= -0.323  |g|= 0.812  |ddm|=  3.1
  alpha nocc = 78  HOMO = 0.066424091240169  LUMO = 0.255719245072691
  beta  nocc = 78  HOMO = 0.0623999457099754  LUMO = 0.256059230726119
cycle= 3 E= -2890.90070162695  delta_E= -0.57  |g|= 0.147  |ddm|= 1.44
  alpha nocc = 78  HOMO = 0.0465256227123697  LUMO = 0.245601775064364
  beta  nocc = 78  HOMO = 0.0437781678183578  LUMO = 0.245784683050223
cycle= 4 E= -2890.91364543751  delta_E= -0.0129  |g|= 0.102  |ddm|= 0.447
  alpha nocc = 78  HOMO = 0.0368855063467206  LUMO = 0.246887717207118
  beta  nocc = 78  HOMO = 0.0333054152493835  LUMO = 0.24807578206653
cycle= 5 E= -2890.9248758271  delta_E= -0.0112  |g|= 0.0232  |ddm|= 0.216
  alpha nocc = 78  HOMO = 0.0349356054954983  LUMO = 0.245792670058558
  beta  nocc = 78  HOMO = 0.0311791436679582  LUMO = 0.246910357929045
cycle= 6 E= -2890.92578746288  delta_E= -0.000912  |g|= 0.014  |ddm|= 0.0739
  alpha nocc = 78  HOMO = 0.0348188331952136  LUMO = 0.246140434897422
  beta  nocc = 78  HOMO = 0.0310174835082151  LUMO = 0.247428822798454
cycle= 7 E= -2890.92639885208  delta_E= -0.000611  |g|= 0.00648  |ddm|= 0.0677
  alpha nocc = 78  HOMO = 0.0346021406039459  LUMO = 0.245964160278565
  beta  nocc = 78  HOMO = 0.0309148223135005  LUMO = 0.247579321791707
cycle= 8 E= -2890.92661323237  delta_E= -0.000214  |g|= 0.00328  |ddm|= 0.0454
  alpha nocc = 78  HOMO = 0.0346127669507833  LUMO = 0.246091326191015
  beta  nocc = 78  HOMO = 0.0309884393225924  LUMO = 0.248116747365978
cycle= 9 E= -2890.92670450989  delta_E= -9.13e-05  |g|= 0.00186  |ddm|= 0.0369
  alpha nocc = 78  HOMO = 0.0345807624007119  LUMO = 0.245865540340843
  beta  nocc = 78  HOMO = 0.0309677222474987  LUMO = 0.248251207578201
cycle= 10 E= -2890.92673314886  delta_E= -2.86e-05  |g|= 0.00156  |ddm|= 0.0165
  alpha nocc = 78  HOMO = 0.0345670792795814  LUMO = 0.245713028274969
  beta  nocc = 78  HOMO = 0.0308872679029906  LUMO = 0.248400831596059
cycle= 11 E= -2890.92675239772  delta_E= -1.92e-05  |g|= 0.00152  |ddm|= 0.0115
  alpha nocc = 78  HOMO = 0.0345844987971022  LUMO = 0.245633149094188
  beta  nocc = 78  HOMO = 0.0308357831634067  LUMO = 0.248467586054719
cycle= 12 E= -2890.9267622471  delta_E= -9.85e-06  |g|= 0.00155  |ddm|= 0.00571
  alpha nocc = 78  HOMO = 0.0343787200781427  LUMO = 0.24598861173412
  beta  nocc = 78  HOMO = 0.0310379857852002  LUMO = 0.248094963609041
cycle= 13 E= -2890.92671626592  delta_E= 4.6e-05  |g|= 0.00136  |ddm|= 0.0291
  alpha nocc = 78  HOMO = 0.0341313226998439  LUMO = 0.246549162460979
  beta  nocc = 78  HOMO = 0.03153115330462  LUMO = 0.247671987259447
cycle= 14 E= -2890.92667251188  delta_E= 4.38e-05  |g|= 0.00112  |ddm|= 0.0406
  alpha nocc = 78  HOMO = 0.033802590364457  LUMO = 0.246804003368512
  beta  nocc = 78  HOMO = 0.0318101284594746  LUMO = 0.247350816908542
cycle= 15 E= -2890.92666068362  delta_E= 1.18e-05  |g|= 0.000864  |ddm|= 0.0261
  alpha nocc = 78  HOMO = 0.0336760590552003  LUMO = 0.246942508041526
  beta  nocc = 78  HOMO = 0.0320504880227061  LUMO = 0.247251240575712
cycle= 16 E= -2890.92666079161  delta_E= -1.08e-07  |g|= 0.000787  |ddm|= 0.0125
  alpha nocc = 78  HOMO = 0.0335399025388989  LUMO = 0.247037341686635
  beta  nocc = 78  HOMO = 0.0322426745132837  LUMO = 0.247150328010418
cycle= 17 E= -2890.926662992  delta_E= -2.2e-06  |g|= 0.00061  |ddm|= 0.0104
  alpha nocc = 78  HOMO = 0.0333357892582131  LUMO = 0.247116279413486
  beta  nocc = 78  HOMO = 0.0323963475406321  LUMO = 0.247091320961719
cycle= 18 E= -2890.92666718371  delta_E= -4.19e-06  |g|= 0.000496  |ddm|= 0.0105
  alpha nocc = 78  HOMO = 0.0332131222756671  LUMO = 0.247128536872915
  beta  nocc = 78  HOMO = 0.0325207507732098  LUMO = 0.247057255938703
cycle= 19 E= -2890.92667079559  delta_E= -3.61e-06  |g|= 0.000429  |ddm|= 0.0087
  alpha nocc = 78  HOMO = 0.0331363478848865  LUMO = 0.247149290512657
  beta  nocc = 78  HOMO = 0.0325719007352459  LUMO = 0.247013938389576
cycle= 20 E= -2890.92667269266  delta_E= -1.9e-06  |g|= 0.000375  |ddm|= 0.00532
  alpha nocc = 78  HOMO = 0.0330652271189782  LUMO = 0.247187641226337
  beta  nocc = 78  HOMO = 0.03265079998098  LUMO = 0.246987582752891
cycle= 21 E= -2890.92667475976  delta_E= -2.07e-06  |g|= 0.000325  |ddm|= 0.00636
  alpha nocc = 78  HOMO = 0.0329952458266572  LUMO = 0.247221448197353
  beta  nocc = 78  HOMO = 0.0327248881055991  LUMO = 0.246929697730655
cycle= 22 E= -2890.92667704437  delta_E= -2.28e-06  |g|= 0.000295  |ddm|= 0.00763
  alpha nocc = 78  HOMO = 0.0329774541225456  LUMO = 0.247243982195947
  beta  nocc = 78  HOMO = 0.0327671477425321  LUMO = 0.246914283555524
cycle= 23 E= -2890.92667833197  delta_E= -1.29e-06  |g|= 0.000287  |ddm|= 0.00429
  alpha nocc = 78  HOMO = 0.032955854260645  LUMO = 0.247246648809201
  beta  nocc = 78  HOMO = 0.0327764296437039  LUMO = 0.246906203572561
cycle= 24 E= -2890.92667915698  delta_E= -8.25e-07  |g|= 0.000286  |ddm|= 0.00268
  alpha nocc = 78  HOMO = 0.0329535570235222  LUMO = 0.24724690267476
  beta  nocc = 78  HOMO = 0.0327824689054209  LUMO = 0.246908373017403
cycle= 25 E= -2890.92667953194  delta_E= -3.75e-07  |g|= 0.000286  |ddm|= 0.0012
  alpha nocc = 78  HOMO = 0.0329535154918938  LUMO = 0.247247072612603
  beta  nocc = 78  HOMO = 0.0327825040079517  LUMO = 0.246908194350436
cycle= 26 E= -2890.92667952041  delta_E= 1.15e-08  |g|= 0.000286  |ddm|= 3.82e-05
  alpha nocc = 78  HOMO = 0.032956098766307  LUMO = 0.247257654039802
  beta  nocc = 78  HOMO = 0.0327859796949173  LUMO = 0.246894034007094
cycle= 27 E= -2890.9266788076  delta_E= 7.13e-07  |g|= 0.000283  |ddm|= 0.00245
  alpha nocc = 78  HOMO = 0.0329473283094388  LUMO = 0.247275171459567
  beta  nocc = 78  HOMO = 0.0327916858178436  LUMO = 0.246878192768107
cycle= 28 E= -2890.92667826874  delta_E= 5.39e-07  |g|= 0.00028  |ddm|= 0.00222
  alpha nocc = 78  HOMO = 0.032940965782973  LUMO = 0.247293148187504
  beta  nocc = 78  HOMO = 0.0328005251001711  LUMO = 0.246862966617466
cycle= 29 E= -2890.92667783097  delta_E= 4.38e-07  |g|= 0.000278  |ddm|= 0.00211
  alpha nocc = 78  HOMO = 0.032935328292137  LUMO = 0.247304668171313
  beta  nocc = 78  HOMO = 0.0328049117760267  LUMO = 0.246849353740717
cycle= 30 E= -2890.92667749332  delta_E= 3.38e-07  |g|= 0.000276  |ddm|= 0.00174
  alpha nocc = 78  HOMO = 0.0329300466719495  LUMO = 0.247314185685473
  beta  nocc = 78  HOMO = 0.0328107064193362  LUMO = 0.246841452595223
cycle= 31 E= -2890.92667740068  delta_E= 9.26e-08  |g|= 0.000276  |ddm|= 0.000977
  alpha nocc = 78  HOMO = 0.0329260071880184  LUMO = 0.247317679137379
  beta  nocc = 78  HOMO = 0.032815659727848  LUMO = 0.246838137146496
cycle= 32 E= -2890.92667750466  delta_E= -1.04e-07  |g|= 0.000276  |ddm|= 0.000404
  alpha nocc = 78  HOMO = 0.0329364343383118  LUMO = 0.247310535844145
  beta  nocc = 78  HOMO = 0.0328049368093875  LUMO = 0.246846195591347
cycle= 33 E= -2890.92667727477  delta_E= 2.3e-07  |g|= 0.000276  |ddm|= 0.000882
  alpha nocc = 78  HOMO = 0.0329461524044935  LUMO = 0.247300614995145
  beta  nocc = 78  HOMO = 0.0327907739081853  LUMO = 0.246853749762836
cycle= 34 E= -2890.9266771476  delta_E= 1.27e-07  |g|= 0.000274  |ddm|= 0.00071
  alpha nocc = 78  HOMO = 0.0329722594299072  LUMO = 0.247283668214561
  beta  nocc = 78  HOMO = 0.0327725710793035  LUMO = 0.246874316266295
cycle= 35 E= -2890.92667753474  delta_E= -3.87e-07  |g|= 0.000269  |ddm|= 0.00227
  alpha nocc = 78  HOMO = 0.0329774138930291  LUMO = 0.247271013341457
  beta  nocc = 78  HOMO = 0.0327642782623517  LUMO = 0.246888372710147
cycle= 36 E= -2890.92667802092  delta_E= -4.86e-07  |g|= 0.00027  |ddm|= 0.00197
  alpha nocc = 78  HOMO = 0.0329830493589165  LUMO = 0.247258526610177
  beta  nocc = 78  HOMO = 0.0327581007704117  LUMO = 0.246899655985266
cycle= 37 E= -2890.92667837461  delta_E= -3.54e-07  |g|= 0.000268  |ddm|= 0.00148
  alpha nocc = 78  HOMO = 0.0329834547472856  LUMO = 0.247260681922121
  beta  nocc = 78  HOMO = 0.0327577687021833  LUMO = 0.246896824967952
cycle= 38 E= -2890.92667822805  delta_E= 1.47e-07  |g|= 0.000268  |ddm|= 0.000529
  alpha nocc = 78  HOMO = 0.0329820045125333  LUMO = 0.247270226930042
  beta  nocc = 78  HOMO = 0.0327582626512743  LUMO = 0.246886047219532
cycle= 39 E= -2890.92667783648  delta_E= 3.92e-07  |g|= 0.000265  |ddm|= 0.00155
  alpha nocc = 78  HOMO = 0.0329827409461423  LUMO = 0.247280892364888
  beta  nocc = 78  HOMO = 0.0327652120859635  LUMO = 0.246874763065687
cycle= 40 E= -2890.92667748797  delta_E= 3.49e-07  |g|= 0.00026  |ddm|= 0.00169
  alpha nocc = 78  HOMO = 0.0329702031136669  LUMO = 0.247292260290475
  beta  nocc = 78  HOMO = 0.0327741541296129  LUMO = 0.246862320799298
cycle= 41 E= -2890.92667739302  delta_E= 9.5e-08  |g|= 0.000254  |ddm|= 0.00164
  alpha nocc = 78  HOMO = 0.032915049576013  LUMO = 0.24732615609535
  beta  nocc = 78  HOMO = 0.0328181479934601  LUMO = 0.246819318579745
cycle= 42 E= -2890.92667752024  delta_E= -1.27e-07  |g|= 0.000239  |ddm|= 0.00481
  alpha nocc = 78  HOMO = 0.0328749956900775  LUMO = 0.24736811846442
  beta  nocc = 78  HOMO = 0.0328785059470066  LUMO = 0.246788033585809
cycle= 43 E= -2890.92667756964  delta_E= -4.94e-08  |g|= 0.000224  |ddm|= 0.00424
  alpha nocc = 78  HOMO = 0.0328367836442634  LUMO = 0.247394784829075
  beta  nocc = 78  HOMO = 0.0329114912239678  LUMO = 0.246759102841406
cycle= 44 E= -2890.92667751642  delta_E= 5.32e-08  |g|= 0.00022  |ddm|= 0.00297
  alpha nocc = 78  HOMO = 0.0328226796268981  LUMO = 0.247409790855037
  beta  nocc = 78  HOMO = 0.0329272580107399  LUMO = 0.246742896713348
cycle= 45 E= -2890.92667740684  delta_E= 1.1e-07  |g|= 0.000219  |ddm|= 0.00193
  alpha nocc = 78  HOMO = 0.0328158751842978  LUMO = 0.247415122757865
  beta  nocc = 78  HOMO = 0.0329342100141233  LUMO = 0.246737173032535
cycle= 46 E= -2890.92667745269  delta_E= -4.58e-08  |g|= 0.000218  |ddm|= 0.000915
  alpha nocc = 78  HOMO = 0.0328150665323939  LUMO = 0.247417537077159
  beta  nocc = 78  HOMO = 0.0329350162161977  LUMO = 0.24673387906127
cycle= 47 E= -2890.92667741313  delta_E= 3.96e-08  |g|= 0.000217  |ddm|= 0.000513
  alpha nocc = 78  HOMO = 0.0328141085924352  LUMO = 0.247412117319659
  beta  nocc = 78  HOMO = 0.0329363186520974  LUMO = 0.246739390250667
cycle= 48 E= -2890.92667766998  delta_E= -2.57e-07  |g|= 0.000219  |ddm|= 0.00129
  alpha nocc = 78  HOMO = 0.0328195298139636  LUMO = 0.247424619586727
  beta  nocc = 78  HOMO = 0.0329335684164312  LUMO = 0.246726363292437
cycle= 49 E= -2890.9266769812  delta_E= 6.89e-07  |g|= 0.000215  |ddm|= 0.00343
  alpha nocc = 78  HOMO = 0.0328219827110372  LUMO = 0.24742544805091
  beta  nocc = 78  HOMO = 0.032921562213301  LUMO = 0.246723639975169
cycle= 50 E= -2890.92667645156  delta_E= 5.3e-07  |g|= 0.00021  |ddm|= 0.00262
SCF not converged.
SCF energy = -2890.92667645156 after 50 cycles  <S^2> = 0.00054284713  2S+1 = 1.0010851
shift = 0
thresh = 1e-05 
eri1 (1356, 5886)
eri1 (1356, 5886)
    CPU time for making amplitude: integral transform      1.12 sec, wall time      0.08 sec
shape (1356, 3240)
1st memory: 503.1 MiB
eri1 (1356, 5886)
eri1 (1356, 5886)
2nd memory: 386.0 MiB

========================
iter = 0  energy = -2891.681403 energy diff = 2891.681403
multiplicity <S^2> : Reference = 0.00054284713 Response = 0.00054252831 Projector = 0.00054220949
eri1 (1356, 5886)
eri1 (1356, 5886)
    CPU time for making amplitude: integral transform      1.26 sec, wall time      0.08 sec
shape (1356, 3240)
1st memory: 491.7 MiB
eri1 (1356, 5886)
eri1 (1356, 5886)
2nd memory: 369.1 MiB

========================
iter = 1  energy = -2891.688436 energy diff = 0.007033
multiplicity <S^2> : Reference = 0.00032874352 Response = 0.00032870461 Projector = 0.00032866569
eri1 (1356, 5886)
eri1 (1356, 5886)
    CPU time for making amplitude: integral transform      1.37 sec, wall time      0.10 sec
shape (1356, 3240)
1st memory: 497.5 MiB
eri1 (1356, 5886)
eri1 (1356, 5886)
2nd memory: 370.6 MiB

========================
iter = 2  energy = -2891.695552 energy diff = 0.007116
multiplicity <S^2> : Reference = 0.00022456039 Response = 0.00022456401 Projector = 0.00022456763
eri1 (1356, 5886)
eri1 (1356, 5886)
    CPU time for making amplitude: integral transform      1.28 sec, wall time      0.09 sec
shape (1356, 3240)
1st memory: 492.5 MiB
eri1 (1356, 5886)
eri1 (1356, 5886)
2nd memory: 370.6 MiB

========================
iter = 3  energy = -2891.699610 energy diff = 0.004058
multiplicity <S^2> : Reference = 0.00013409684 Response = 0.00013409495 Projector = 0.00013409306
eri1 (1356, 5886)
eri1 (1356, 5886)
    CPU time for making amplitude: integral transform      1.16 sec, wall time      0.08 sec
shape (1356, 3240)
1st memory: 498.7 MiB
eri1 (1356, 5886)
eri1 (1356, 5886)
2nd memory: 371.2 MiB

========================
iter = 4  energy = -2891.701699 energy diff = 0.002089
multiplicity <S^2> : Reference = 6.026215e-05 Response = 6.0262365e-05 Projector = 6.026258e-05
eri1 (1356, 5886)
eri1 (1356, 5886)
    CPU time for making amplitude: integral transform      1.00 sec, wall time      0.07 sec
shape (1356, 3240)
1st memory: 532.3 MiB
eri1 (1356, 5886)
eri1 (1356, 5886)
2nd memory: 405.3 MiB

========================
iter = 5  energy = -2891.702099 energy diff = 0.000400
multiplicity <S^2> : Reference = 3.5874672e-05 Response = 3.5877816e-05 Projector = 3.5880959e-05
eri1 (1356, 5886)
eri1 (1356, 5886)
    CPU time for making amplitude: integral transform      0.90 sec, wall time      0.06 sec
shape (1356, 3240)
1st memory: 559.2 MiB
eri1 (1356, 5886)
eri1 (1356, 5886)
2nd memory: 405.8 MiB

========================
iter = 6  energy = -2891.702201 energy diff = 0.000102
multiplicity <S^2> : Reference = 2.0105765e-05 Response = 2.0105569e-05 Projector = 2.0105373e-05
eri1 (1356, 5886)
eri1 (1356, 5886)
    CPU time for making amplitude: integral transform      1.14 sec, wall time      0.08 sec
shape (1356, 3240)
1st memory: 523.7 MiB
eri1 (1356, 5886)
eri1 (1356, 5886)
2nd memory: 404.9 MiB

========================
iter = 7  energy = -2891.702233 energy diff = 0.000032
multiplicity <S^2> : Reference = 1.2462449e-05 Response = 1.2463276e-05 Projector = 1.2464103e-05
eri1 (1356, 5886)
eri1 (1356, 5886)
    CPU time for making amplitude: integral transform      1.15 sec, wall time      0.08 sec
shape (1356, 3240)
1st memory: 567.1 MiB
eri1 (1356, 5886)
eri1 (1356, 5886)
2nd memory: 404.9 MiB

========================
iter = 8  energy = -2891.702245 energy diff = 0.000011
multiplicity <S^2> : Reference = 7.6934786e-06 Response = 7.6940032e-06 Projector = 7.6945279e-06
eri1 (1356, 5886)
eri1 (1356, 5886)
    CPU time for making amplitude: integral transform      0.97 sec, wall time      0.06 sec
shape (1356, 3240)
1st memory: 533.6 MiB
eri1 (1356, 5886)
eri1 (1356, 5886)
2nd memory: 404.4 MiB

========================
iter = 9  energy = -2891.702250 energy diff = 0.000005
multiplicity <S^2> : Reference = 4.9766392e-06 Response = 4.9761208e-06 Projector = 4.9756024e-06

UOB-MP2 has converged
UOB-MP2 energy =  -2891.7022496246514
shift = 0
thresh = 1e-05 
eri1 (1356, 5886)
eri1 (1356, 5886)
    CPU time for making amplitude: integral transform      1.12 sec, wall time      0.07 sec
shape (1356, 3240)
1st memory: 491.2 MiB
eri1 (1356, 5886)
eri1 (1356, 5886)
2nd memory: 368.3 MiB

========================
iter = 0  energy = -2891.429220 energy diff = 2891.429220
multiplicity <S^2> : Reference = 0.00054284713 Response = 0.00054252831 Projector = 0.00054220949
eri1 (1356, 5886)
eri1 (1356, 5886)
    CPU time for making amplitude: integral transform      1.50 sec, wall time      0.11 sec
shape (1356, 3240)
1st memory: 497.4 MiB
eri1 (1356, 5886)
eri1 (1356, 5886)
2nd memory: 369.6 MiB

========================
iter = 1  energy = -2891.456487 energy diff = 0.027267
multiplicity <S^2> : Reference = 0.00035274459 Response = 0.00035269542 Projector = 0.00035264625
eri1 (1356, 5886)
eri1 (1356, 5886)
    CPU time for making amplitude: integral transform      0.99 sec, wall time      0.07 sec
shape (1356, 3240)
1st memory: 492.0 MiB
eri1 (1356, 5886)
eri1 (1356, 5886)
2nd memory: 370.1 MiB

========================
iter = 2  energy = -2891.460238 energy diff = 0.003751
multiplicity <S^2> : Reference = 0.00024686072 Response = 0.00024685784 Projector = 0.00024685496
eri1 (1356, 5886)
eri1 (1356, 5886)
    CPU time for making amplitude: integral transform      1.52 sec, wall time      0.11 sec
shape (1356, 3240)
1st memory: 498.3 MiB
eri1 (1356, 5886)
eri1 (1356, 5886)
2nd memory: 370.8 MiB

========================
iter = 3  energy = -2891.461968 energy diff = 0.001729
multiplicity <S^2> : Reference = 0.00015584962 Response = 0.00015584405 Projector = 0.00015583848
eri1 (1356, 5886)
eri1 (1356, 5886)
    CPU time for making amplitude: integral transform      0.96 sec, wall time      0.06 sec
shape (1356, 3240)
1st memory: 532.4 MiB
eri1 (1356, 5886)
eri1 (1356, 5886)
2nd memory: 405.5 MiB

========================
iter = 4  energy = -2891.463017 energy diff = 0.001049
multiplicity <S^2> : Reference = 7.1413753e-05 Response = 7.1410292e-05 Projector = 7.1406832e-05
eri1 (1356, 5886)
eri1 (1356, 5886)
    CPU time for making amplitude: integral transform      1.01 sec, wall time      0.07 sec
shape (1356, 3240)
1st memory: 558.1 MiB
eri1 (1356, 5886)
eri1 (1356, 5886)
2nd memory: 405.6 MiB

========================
iter = 5  energy = -2891.463168 energy diff = 0.000151
multiplicity <S^2> : Reference = 3.945071e-05 Response = 3.9449929e-05 Projector = 3.9449148e-05
eri1 (1356, 5886)
eri1 (1356, 5886)
    CPU time for making amplitude: integral transform      1.10 sec, wall time      0.07 sec
shape (1356, 3240)
1st memory: 522.9 MiB
eri1 (1356, 5886)
eri1 (1356, 5886)
2nd memory: 404.1 MiB

========================
iter = 6  energy = -2891.463204 energy diff = 0.000036
multiplicity <S^2> : Reference = 2.3668115e-05 Response = 2.3667071e-05 Projector = 2.3666026e-05
eri1 (1356, 5886)
eri1 (1356, 5886)
    CPU time for making amplitude: integral transform      0.96 sec, wall time      0.06 sec
shape (1356, 3240)
1st memory: 533.6 MiB
eri1 (1356, 5886)
eri1 (1356, 5886)
2nd memory: 404.7 MiB

========================
iter = 7  energy = -2891.463218 energy diff = 0.000015
multiplicity <S^2> : Reference = 1.4091749e-05 Response = 1.4090354e-05 Projector = 1.4088959e-05
eri1 (1356, 5886)
eri1 (1356, 5886)
    CPU time for making amplitude: integral transform      1.23 sec, wall time      0.08 sec
shape (1356, 3240)
1st memory: 533.8 MiB
eri1 (1356, 5886)
eri1 (1356, 5886)
2nd memory: 405.5 MiB

========================
iter = 8  energy = -2891.463224 energy diff = 0.000005
multiplicity <S^2> : Reference = 8.8741559e-06 Response = 8.8739689e-06 Projector = 8.8737818e-06

UOB-MP2 has converged
UOB-MP2 energy =  -2891.463223745132


******** <class 'pyscf.scf.uhf.UHF'> ********
method = UHF
initial guess = minao
damping factor = 0
level_shift factor = 0
DIIS = <class 'pyscf.scf.diis.CDIIS'>
diis_start_cycle = 1
diis_space = 8
SCF conv_tol = 1e-09
SCF conv_tol_grad = None
SCF max_cycles = 50
direct_scf = True
direct_scf_tol = 1e-13
chkfile to save SCF result = /home/ltkoanh/Al_B2LYP_6311_Gd_Cluster/Cluster/Al12-neutral-singlet-2/tmp4v81t4gl
max_memory 4000 MB (current use 229 MB)
number electrons alpha = 78  beta = 78
Set gradient conv threshold to 3.16228e-05
init E= -2888.96996300213
  alpha nocc = 78  HOMO = -0.69328496529299  LUMO = -0.598645155370849
  beta  nocc = 78  HOMO = -0.65058890195011  LUMO = -0.574492310726241
cycle= 1 E= -2890.00988481695  delta_E= -1.04  |g|= 1.01  |ddm|= 4.04
  alpha nocc = 78  HOMO = 0.249559933044966  LUMO = 0.321036391206226
  beta  nocc = 78  HOMO = 0.252155300751681  LUMO = 0.323935874636031
cycle= 2 E= -2890.33269916565  delta_E= -0.323  |g|= 0.813  |ddm|=  3.1
  alpha nocc = 78  HOMO = 0.0663643055174957  LUMO = 0.255613112575847
  beta  nocc = 78  HOMO = 0.06234455494485  LUMO = 0.255956812720325
cycle= 3 E= -2890.90396689184  delta_E= -0.571  |g|= 0.147  |ddm|= 1.44
  alpha nocc = 78  HOMO = 0.0464564443473349  LUMO = 0.245436556836361
  beta  nocc = 78  HOMO = 0.0437136735239834  LUMO = 0.245606668437714
cycle= 4 E= -2890.91689772834  delta_E= -0.0129  |g|= 0.102  |ddm|= 0.447
  alpha nocc = 78  HOMO = 0.0367927398478172  LUMO = 0.246778190016613
  beta  nocc = 78  HOMO = 0.0332063150585917  LUMO = 0.24796263502209
cycle= 5 E= -2890.92814390352  delta_E= -0.0112  |g|= 0.0232  |ddm|= 0.217
  alpha nocc = 78  HOMO = 0.0348329782671921  LUMO = 0.245679137960696
  beta  nocc = 78  HOMO = 0.0310662946692212  LUMO = 0.246798603735728
cycle= 6 E= -2890.92905224035  delta_E= -0.000908  |g|= 0.014  |ddm|= 0.0738
  alpha nocc = 78  HOMO = 0.0347165813732255  LUMO = 0.246022910246156
  beta  nocc = 78  HOMO = 0.0309017133565961  LUMO = 0.247309114353361
cycle= 7 E= -2890.92966041404  delta_E= -0.000608  |g|= 0.00646  |ddm|= 0.0675
  alpha nocc = 78  HOMO = 0.0344967422725255  LUMO = 0.245850430558384
  beta  nocc = 78  HOMO = 0.0307927665403012  LUMO = 0.247471081850085
cycle= 8 E= -2890.92987357895  delta_E= -0.000213  |g|= 0.00328  |ddm|= 0.0452
  alpha nocc = 78  HOMO = 0.0345059034690831  LUMO = 0.245977037323492
  beta  nocc = 78  HOMO = 0.0308621956146557  LUMO = 0.24801140234284
cycle= 9 E= -2890.92996475633  delta_E= -9.12e-05  |g|= 0.00186  |ddm|= 0.0369
  alpha nocc = 78  HOMO = 0.0344735268699639  LUMO = 0.245750280710626
  beta  nocc = 78  HOMO = 0.0308397646947827  LUMO = 0.248147352206369
cycle= 10 E= -2890.92999356  delta_E= -2.88e-05  |g|= 0.00157  |ddm|= 0.0165
  alpha nocc = 78  HOMO = 0.0344596582355676  LUMO = 0.245597102586949
  beta  nocc = 78  HOMO = 0.0307581328316393  LUMO = 0.248298501836215
cycle= 11 E= -2890.93001301349  delta_E= -1.95e-05  |g|= 0.00153  |ddm|= 0.0116
  alpha nocc = 78  HOMO = 0.0344763556543439  LUMO = 0.245519379426364
  beta  nocc = 78  HOMO = 0.0307072440026125  LUMO = 0.248363179576068
cycle= 12 E= -2890.93002263852  delta_E= -9.63e-06  |g|= 0.00156  |ddm|= 0.00555
  alpha nocc = 78  HOMO = 0.0342621370101702  LUMO = 0.245880879550861
  beta  nocc = 78  HOMO = 0.0309109372373373  LUMO = 0.247983017642909
cycle= 13 E= -2890.92997563199  delta_E= 4.7e-05  |g|= 0.00137  |ddm|= 0.0296
  alpha nocc = 78  HOMO = 0.0340289930611418  LUMO = 0.246431113611015
  beta  nocc = 78  HOMO = 0.0313946124402083  LUMO = 0.247574676845962
cycle= 14 E= -2890.92993259101  delta_E= 4.3e-05  |g|= 0.00113  |ddm|= 0.0394
  alpha nocc = 78  HOMO = 0.0336894326301966  LUMO = 0.246704518199846
  beta  nocc = 78  HOMO = 0.0316943095925737  LUMO = 0.247241726259809
cycle= 15 E= -2890.92992000461  delta_E= 1.26e-05  |g|= 0.000864  |ddm|= 0.0275
  alpha nocc = 78  HOMO = 0.0335661914742696  LUMO = 0.24683494457869
  beta  nocc = 78  HOMO = 0.0319187381894543  LUMO = 0.247150252476546
cycle= 16 E= -2890.92992017506  delta_E= -1.7e-07  |g|= 0.000794  |ddm|= 0.0118
  alpha nocc = 78  HOMO = 0.0334281808993  LUMO = 0.246929061100285
  beta  nocc = 78  HOMO = 0.0321148876022201  LUMO = 0.247047159808153
cycle= 17 E= -2890.92992243385  delta_E= -2.26e-06  |g|= 0.000612  |ddm|= 0.0106
  alpha nocc = 78  HOMO = 0.0332258579784449  LUMO = 0.24700848565011
  beta  nocc = 78  HOMO = 0.032269904942846  LUMO = 0.246986257136007
cycle= 18 E= -2890.92992657378  delta_E= -4.14e-06  |g|= 0.000497  |ddm|= 0.0104
  alpha nocc = 78  HOMO = 0.033101684688731  LUMO = 0.247022931656963
  beta  nocc = 78  HOMO = 0.0323986660695485  LUMO = 0.246951593274662
cycle= 19 E= -2890.92993027238  delta_E= -3.7e-06  |g|= 0.000431  |ddm|= 0.00882
  alpha nocc = 78  HOMO = 0.0330281727941893  LUMO = 0.247042104292131
  beta  nocc = 78  HOMO = 0.0324455380128337  LUMO = 0.246910622177917
cycle= 20 E= -2890.92993206722  delta_E= -1.79e-06  |g|= 0.000379  |ddm|= 0.00499
  alpha nocc = 78  HOMO = 0.0329492945340119  LUMO = 0.247083626359114
  beta  nocc = 78  HOMO = 0.0325308599635376  LUMO = 0.246879594823896
cycle= 21 E= -2890.92993429054  delta_E= -2.22e-06  |g|= 0.000326  |ddm|= 0.0068
  alpha nocc = 78  HOMO = 0.0328793749597747  LUMO = 0.247116429760611
  beta  nocc = 78  HOMO = 0.0326042208546342  LUMO = 0.246823187745482
cycle= 22 E= -2890.92993653719  delta_E= -2.25e-06  |g|= 0.000297  |ddm|= 0.00743
  alpha nocc = 78  HOMO = 0.0328605982963463  LUMO = 0.247139564504278
  beta  nocc = 78  HOMO = 0.0326476738660867  LUMO = 0.24680763485501
cycle= 23 E= -2890.92993782886  delta_E= -1.29e-06  |g|= 0.000289  |ddm|= 0.00427
  alpha nocc = 78  HOMO = 0.0328383856605644  LUMO = 0.247142296824604
  beta  nocc = 78  HOMO = 0.0326583289138532  LUMO = 0.246799650593296
cycle= 24 E= -2890.92993869017  delta_E= -8.61e-07  |g|= 0.000288  |ddm|= 0.00277
  alpha nocc = 78  HOMO = 0.0328354262709685  LUMO = 0.247142816403847
  beta  nocc = 78  HOMO = 0.0326647266718827  LUMO = 0.246801571342071
cycle= 25 E= -2890.92993906564  delta_E= -3.75e-07  |g|= 0.000288  |ddm|= 0.00119
  alpha nocc = 78  HOMO = 0.0328351994617501  LUMO = 0.247142892826969
  beta  nocc = 78  HOMO = 0.0326649890329751  LUMO = 0.246801501256153
cycle= 26 E= -2890.92993907194  delta_E= -6.29e-09  |g|= 0.000288  |ddm|= 2.27e-05
  alpha nocc = 78  HOMO = 0.032851560843107  LUMO = 0.247138708055224
  beta  nocc = 78  HOMO = 0.0326538348722223  LUMO = 0.246803031472799
cycle= 27 E= -2890.92993873642  delta_E= 3.36e-07  |g|= 0.000287  |ddm|= 0.00121
  alpha nocc = 78  HOMO = 0.0328663234011711  LUMO = 0.24713213649062
  beta  nocc = 78  HOMO = 0.0326369269223592  LUMO = 0.246811095013832
cycle= 28 E= -2890.92993864067  delta_E= 9.58e-08  |g|= 0.000285  |ddm|= 0.000872
  alpha nocc = 78  HOMO = 0.032873063254067  LUMO = 0.247128866347743
  beta  nocc = 78  HOMO = 0.0326317190443806  LUMO = 0.246816252479314
cycle= 29 E= -2890.92993865644  delta_E= -1.58e-08  |g|= 0.000285  |ddm|= 0.000348
  alpha nocc = 78  HOMO = 0.032875096108056  LUMO = 0.247126280939628
  beta  nocc = 78  HOMO = 0.0326293500274331  LUMO = 0.246818834871809
cycle= 30 E= -2890.92993871667  delta_E= -6.02e-08  |g|= 0.000285  |ddm|= 0.000262
  alpha nocc = 78  HOMO = 0.0328713549504509  LUMO = 0.247130945914925
  beta  nocc = 78  HOMO = 0.0326329769062599  LUMO = 0.246813351924453
cycle= 31 E= -2890.92993862476  delta_E= 9.19e-08  |g|= 0.000285  |ddm|= 0.00044
  alpha nocc = 78  HOMO = 0.0328676915396009  LUMO = 0.247137965556935
  beta  nocc = 78  HOMO = 0.0326386014995391  LUMO = 0.246807374770312
cycle= 32 E= -2890.9299385997  delta_E= 2.51e-08  |g|= 0.000285  |ddm|= 0.000459
  alpha nocc = 78  HOMO = 0.0328649326681928  LUMO = 0.247138112068391
  beta  nocc = 78  HOMO = 0.0326392626223918  LUMO = 0.246806494884246
cycle= 33 E= -2890.92993870553  delta_E= -1.06e-07  |g|= 0.000285  |ddm|= 0.000344
  alpha nocc = 78  HOMO = 0.0328662395590697  LUMO = 0.247138363105636
  beta  nocc = 78  HOMO = 0.0326347868060521  LUMO = 0.24680391227108
cycle= 34 E= -2890.92993835336  delta_E= 3.52e-07  |g|= 0.000284  |ddm|= 0.00114
  alpha nocc = 78  HOMO = 0.0328764506228955  LUMO = 0.247143460921224
  beta  nocc = 78  HOMO = 0.0326232584997818  LUMO = 0.246800720981994
cycle= 35 E= -2890.92993748747  delta_E= 8.66e-07  |g|= 0.000279  |ddm|= 0.00294
  alpha nocc = 78  HOMO = 0.0328902173196889  LUMO = 0.247158084347949
  beta  nocc = 78  HOMO = 0.0326226541353488  LUMO = 0.246786754016247
cycle= 36 E= -2890.92993634049  delta_E= 1.15e-06  |g|= 0.000269  |ddm|= 0.00445
  alpha nocc = 78  HOMO = 0.0328989948577763  LUMO = 0.247166876904323
  beta  nocc = 78  HOMO = 0.0326071338331979  LUMO = 0.246782229117001
cycle= 37 E= -2890.92993551826  delta_E= 8.22e-07  |g|= 0.000258  |ddm|= 0.00427
  alpha nocc = 78  HOMO = 0.0329104979532413  LUMO = 0.247155010523348
  beta  nocc = 78  HOMO = 0.0326000829275874  LUMO = 0.24679615739719
cycle= 38 E= -2890.92993527205  delta_E= 2.46e-07  |g|= 0.000246  |ddm|= 0.00264
  alpha nocc = 78  HOMO = 0.0329407729824843  LUMO = 0.247099217077833
  beta  nocc = 78  HOMO = 0.0325674887822742  LUMO = 0.246847766618732
cycle= 39 E= -2890.92993553804  delta_E= -2.66e-07  |g|= 0.000227  |ddm|= 0.00426
  alpha nocc = 78  HOMO = 0.0329634607049209  LUMO = 0.247044818408196
  beta  nocc = 78  HOMO = 0.0325478992610485  LUMO = 0.246906214297493
cycle= 40 E= -2890.92993596782  delta_E= -4.3e-07  |g|= 0.00021  |ddm|= 0.00446
  alpha nocc = 78  HOMO = 0.0329684532761426  LUMO = 0.247019162821248
  beta  nocc = 78  HOMO = 0.032542246861497  LUMO = 0.246928639434338
cycle= 41 E= -2890.9299361915  delta_E= -2.24e-07  |g|= 0.000208  |ddm|= 0.00227
  alpha nocc = 78  HOMO = 0.0329718780916789  LUMO = 0.246988456791464
  beta  nocc = 78  HOMO = 0.0325353983793809  LUMO = 0.246952912906102
cycle= 42 E= -2890.92993634946  delta_E= -1.58e-07  |g|= 0.000191  |ddm|= 0.0033
  alpha nocc = 78  HOMO = 0.0329764843436962  LUMO = 0.246987794080745
  beta  nocc = 78  HOMO = 0.0325482184563824  LUMO = 0.246959043433588
cycle= 43 E= -2890.92993607215  delta_E= 2.77e-07  |g|= 0.000173  |ddm|= 0.00643
  alpha nocc = 78  HOMO = 0.0329692946878025  LUMO = 0.246987131028247
  beta  nocc = 78  HOMO = 0.0325481941730046  LUMO = 0.246954352004839
cycle= 44 E= -2890.92993603719  delta_E= 3.5e-08  |g|= 0.00017  |ddm|= 0.00121
  alpha nocc = 78  HOMO = 0.0329669711294372  LUMO = 0.246985799787644
  beta  nocc = 78  HOMO = 0.032552969095423  LUMO = 0.246957575650542
cycle= 45 E= -2890.92993611873  delta_E= -8.15e-08  |g|= 0.000171  |ddm|= 0.000667
  alpha nocc = 78  HOMO = 0.0329626477439733  LUMO = 0.246988165536357
  beta  nocc = 78  HOMO = 0.0325598286067675  LUMO = 0.246954457456533
cycle= 46 E= -2890.92993610352  delta_E= 1.52e-08  |g|= 0.000168  |ddm|= 0.000692
  alpha nocc = 78  HOMO = 0.0329536066778765  LUMO = 0.246986008365923
  beta  nocc = 78  HOMO = 0.0325650797702859  LUMO = 0.246958052986924
cycle= 47 E= -2890.92993620991  delta_E= -1.06e-07  |g|= 0.000166  |ddm|= 0.000854
  alpha nocc = 78  HOMO = 0.0329525359314868  LUMO = 0.246987118261318
  beta  nocc = 78  HOMO = 0.0325664124310185  LUMO = 0.246957097303448
cycle= 48 E= -2890.9299362078  delta_E= 2.1e-09  |g|= 0.000166  |ddm|= 0.000185
  alpha nocc = 78  HOMO = 0.032955308657071  LUMO = 0.246979672905371
  beta  nocc = 78  HOMO = 0.0325638068701449  LUMO = 0.246964977250136
cycle= 49 E= -2890.92993630898  delta_E= -1.01e-07  |g|= 0.000167  |ddm|= 0.000573
  alpha nocc = 78  HOMO = 0.0329512904058445  LUMO = 0.246987859818211
  beta  nocc = 78  HOMO = 0.0325677602933676  LUMO = 0.24695696059149
cycle= 50 E= -2890.92993620614  delta_E= 1.03e-07  |g|= 0.000166  |ddm|= 0.000595
SCF not converged.
SCF energy = -2890.92993620614 after 50 cycles  <S^2> = 0.00036050543  2S+1 = 1.0007208
