#INFO: **** input file is /home/ltkoanh/Al_B2LYP_6311_Gd_Cluster/Cluster/Al12-cation-doublet/input.py ****
import numpy
from pyscf import gto, scf, dft, mp, cc
from pyscf.mp import uobmp2_mom_conv, dfuobmp2_mom_conv, uhf_mom
from pyscf.mp import  mp2, ump2
from pyscf.tools import molden
import os
from functools import reduce


mol = gto.Mole()
geom = os.environ.get('geom_txt')
mol.atom = geom
mol.basis = os.environ.get('basis', 'cc-pvdz')
mol.unit = 'A'
mol.charge = int(os.environ.get('charge', 0))
mol.spin = int(os.environ.get('spin', 0))
mol.verbose = 4
mol.build()

#################### Ground state using density fitting
### Hartree-Fock
a  = scf.UHF(mol).density_fit()
a.kernel()

### Ground state OBMP2 calculation
ob = dfuobmp2_mom_conv.DFUOBMP2(a)
ob.second_order = True
ob.thresh = 10e-6
ob.css = 1
ob.cos = 1
e_obmp2g = ob.kernel()

### Ground state O2BMP2 calculation
ob = dfuobmp2_mom_conv.DFUOBMP2(a)
ob.second_order = True
ob.thresh = 10e-6
ob.css = 0                             
ob.cos = 1.2                             
e_o2bmp2g = ob.kernel()  

#################### Ground state NOT using density fitting
### Hartree-Fock
a  = scf.UHF(mol)
a.kernel()

### Ground state OBMP2 calculation
ob = uobmp2_mom_conv.UOBMP2(a)
ob.second_order = True
ob.thresh = 10e-6
ob.css = 1
ob.cos = 1
#e_obmp2g = ob.kernel()

### Ground state O2BMP2 calculation
ob = uobmp2_mom_conv.UOBMP2(a)
ob.second_order = True
ob.thresh = 10e-6
ob.css = 0
ob.cos = 1.2   ## the cos can be vary ...                        	 
#e_o2bmp2g = ob.kernel()


## Results from density-fitting approximate with non-using density fitting 
## check results between df and non-df with small molecules before running the important molecules
#INFO: ******************** input file end ********************


System: uname_result(system='Linux', node='comphys', release='3.10.0-1160.119.1.el7.x86_64', version='#1 SMP Tue Jun 4 14:43:51 UTC 2024', machine='x86_64', processor='x86_64')  Threads 8
Python 3.7.9 (default, Dec  4 2023, 13:00:18) 
[GCC 4.8.5 20150623 (Red Hat 4.8.5-44)]
numpy 1.21.6  scipy 1.7.3
Date: Tue May 27 17:37:20 2025
PySCF version 1.7.0
PySCF path  /share/installs/pyscf/pyscf
GIT HEAD      ref: refs/heads/ob-mp2
GIT ob-mp2 branch  f0fc63383ab6c719c0c91f5e07a6895c637b700d

[CONFIG] conf_file None
[INPUT] verbose = 4
[INPUT] num. atoms = 12
[INPUT] num. electrons = 155
[INPUT] charge = 1
[INPUT] spin (= nelec alpha-beta = 2S) = 1
[INPUT] symmetry False subgroup None
[INPUT] Mole.unit = A
[INPUT]  1 Al     1.682138000000   0.222000000000   2.190164000000 AA    3.178780123724   0.419519199653   4.138810127882 Bohr
[INPUT]  2 Al     3.067669000000   0.325046000000   0.000000000000 AA    5.797054250818   0.614247917885   0.000000000000 Bohr
[INPUT]  3 Al    -0.395303000000  -1.361044000000   2.216190000000 AA   -0.747014406219  -2.572000403483   4.187992140000 Bohr
[INPUT]  4 Al    -2.264398000000   0.496317000000   1.339750000000 AA   -4.279092057013   0.937903200966   2.531760575386 Bohr
[INPUT]  5 Al     1.682138000000   0.222000000000  -2.190164000000 AA    3.178780123724   0.419519199653  -4.138810127882 Bohr
[INPUT]  6 Al     1.135570000000  -1.600572000000   0.000000000000 AA    2.145916295272  -3.024642722647   0.000000000000 Bohr
[INPUT]  7 Al    -1.556226000000  -1.805613000000   0.000000000000 AA   -2.940840927927  -3.412114056954   0.000000000000 Bohr
[INPUT]  8 Al    -0.395303000000  -1.361044000000  -2.216190000000 AA   -0.747014406219  -2.572000403483  -4.187992140000 Bohr
[INPUT]  9 Al    -0.395303000000   1.736106000000   2.728810000000 AA   -0.747014406219   3.280764863214   5.156703545974 Bohr
[INPUT] 10 Al    -0.395303000000   1.736106000000  -2.728810000000 AA   -0.747014406219   3.280764863214  -5.156703545974 Bohr
[INPUT] 11 Al    -2.264398000000   0.496317000000  -1.339750000000 AA   -4.279092057013   0.937903200966  -2.531760575386 Bohr
[INPUT] 12 Al     0.098720000000   0.894382000000   0.000000000000 AA    0.186553763017   1.690137030741   0.000000000000 Bohr

nuclear repulsion = 1696.47774025342
number of shells = 60
number of NR pGTOs = 648
number of NR cGTOs = 108
basis = sto-6g
ecp = {}
CPU time:         1.70


******** <class 'pyscf.df.df_jk.density_fit.<locals>.DFHF'> ********
method = DFHF-UHF
initial guess = minao
damping factor = 0
level_shift factor = 0
DIIS = <class 'pyscf.scf.diis.CDIIS'>
diis_start_cycle = 1
diis_space = 8
SCF conv_tol = 1e-09
SCF conv_tol_grad = None
SCF max_cycles = 50
direct_scf = True
direct_scf_tol = 1e-13
chkfile to save SCF result = /home/ltkoanh/Al_B2LYP_6311_Gd_Cluster/Cluster/Al12-cation-doublet/tmpb_qd28nn
max_memory 4000 MB (current use 60 MB)
number electrons alpha = 78  beta = 77
Set gradient conv threshold to 3.16228e-05
******** <class 'pyscf.df.df.DF'> ********
auxbasis = None
max_memory = 4000
_cderi_to_save = /home/ltkoanh/Al_B2LYP_6311_Gd_Cluster/Cluster/Al12-cation-doublet/tmp8r20ga1p
Even tempered Gaussians are generated as DF auxbasis for  Al
init E= -2893.07666066447
  alpha nocc = 78  HOMO = -0.22571325636611  LUMO = -0.198919810343792
  beta  nocc = 77  HOMO = -0.256532218519274  LUMO = -0.225713256366113

WARN: system HOMO -0.225713256366113 >= system LUMO -0.225713256366113

cycle= 1 E= -2890.88886945759  delta_E= 2.19  |g|= 0.229  |ddm|= 3.83
  alpha nocc = 78  HOMO = -0.0734264071240611  LUMO = 0.0648803510241932
  beta  nocc = 77  HOMO = -0.0733568995483494  LUMO = 0.0656970177196251
cycle= 2 E= -2890.92843014024  delta_E= -0.0396  |g|= 0.174  |ddm|= 0.806
  alpha nocc = 78  HOMO = -0.118570706892824  LUMO = 0.0624946941766385
  beta  nocc = 77  HOMO = -0.106952038683413  LUMO = 0.0644054096795956
cycle= 3 E= -2890.9569062696  delta_E= -0.0285  |g|= 0.048  |ddm|= 0.344
  alpha nocc = 78  HOMO = -0.12428742201557  LUMO = 0.0584475672324101
  beta  nocc = 77  HOMO = -0.113178970469709  LUMO = 0.0597968070010131
cycle= 4 E= -2890.96093351134  delta_E= -0.00403  |g|= 0.0402  |ddm|= 0.174
  alpha nocc = 78  HOMO = -0.12307233833826  LUMO = 0.0632717319510934
  beta  nocc = 77  HOMO = -0.110544137760771  LUMO = 0.0637694643801891
cycle= 5 E= -2890.96474171935  delta_E= -0.00381  |g|= 0.0183  |ddm|= 0.152
  alpha nocc = 78  HOMO = -0.125195153596095  LUMO = 0.0638729970077262
  beta  nocc = 77  HOMO = -0.110601396566064  LUMO = 0.0640892393016581
cycle= 6 E= -2890.96668955947  delta_E= -0.00195  |g|= 0.0155  |ddm|= 0.12
  alpha nocc = 78  HOMO = -0.126224769099791  LUMO = 0.0640112860802527
  beta  nocc = 77  HOMO = -0.110665808649789  LUMO = 0.0640369839709773
cycle= 7 E= -2890.96810951643  delta_E= -0.00142  |g|= 0.0126  |ddm|= 0.0981
  alpha nocc = 78  HOMO = -0.127960411659557  LUMO = 0.0647483829987859
  beta  nocc = 77  HOMO = -0.111288358842965  LUMO = 0.0642521999239977
cycle= 8 E= -2890.97004363874  delta_E= -0.00193  |g|= 0.0111  |ddm|= 0.153
  alpha nocc = 78  HOMO = -0.129058436233387  LUMO = 0.0649360673445795
  beta  nocc = 77  HOMO = -0.112073154289697  LUMO = 0.0644958861702795
cycle= 9 E= -2890.97163261154  delta_E= -0.00159  |g|= 0.0104  |ddm|= 0.138
  alpha nocc = 78  HOMO = -0.129390811682641  LUMO = 0.0647348955420228
  beta  nocc = 77  HOMO = -0.112740333892379  LUMO = 0.0650435229192303
cycle= 10 E= -2890.97319840107  delta_E= -0.00157  |g|= 0.0103  |ddm|= 0.141
  alpha nocc = 78  HOMO = -0.129610657263088  LUMO = 0.0647441078998783
  beta  nocc = 77  HOMO = -0.11336709162315  LUMO = 0.0652466789578957
cycle= 11 E= -2890.97351807572  delta_E= -0.00032  |g|= 0.0104  |ddm|= 0.0294
  alpha nocc = 78  HOMO = -0.129801466876004  LUMO = 0.0648376238251894
  beta  nocc = 77  HOMO = -0.113332984979264  LUMO = 0.0650831858500424
cycle= 12 E= -2890.97331196918  delta_E= 0.000206  |g|= 0.0102  |ddm|= 0.0216
  alpha nocc = 78  HOMO = -0.131011558709265  LUMO = 0.0661404039762851
  beta  nocc = 77  HOMO = -0.112058793475637  LUMO = 0.0646977241046275
cycle= 13 E= -2890.97181306351  delta_E= 0.0015  |g|= 0.00878  |ddm|= 0.216
  alpha nocc = 78  HOMO = -0.12857786193021  LUMO = 0.0643972001775732
  beta  nocc = 77  HOMO = -0.11141431142333  LUMO = 0.0647855149335876
cycle= 14 E= -2890.97234021798  delta_E= -0.000527  |g|= 0.00764  |ddm|= 0.113
  alpha nocc = 78  HOMO = -0.128298833411659  LUMO = 0.0630736990551933
  beta  nocc = 77  HOMO = -0.11235525193438  LUMO = 0.0650883502985138
cycle= 15 E= -2890.97312294047  delta_E= -0.000783  |g|= 0.00668  |ddm|= 0.132
  alpha nocc = 78  HOMO = -0.129310471398053  LUMO = 0.0644468397802341
  beta  nocc = 77  HOMO = -0.113051634179942  LUMO = 0.0662586450160582
cycle= 16 E= -2890.97359167459  delta_E= -0.000469  |g|= 0.00597  |ddm|= 0.101
  alpha nocc = 78  HOMO = -0.12961347481267  LUMO = 0.0645863871878636
  beta  nocc = 77  HOMO = -0.11313894151717  LUMO = 0.0661980108944776
cycle= 17 E= -2890.97425817106  delta_E= -0.000666  |g|= 0.00511  |ddm|= 0.125
  alpha nocc = 78  HOMO = -0.127643654461984  LUMO = 0.0634990711766959
  beta  nocc = 77  HOMO = -0.112362830859373  LUMO = 0.0657827753143774
cycle= 18 E= -2890.97479551779  delta_E= -0.000537  |g|= 0.00459  |ddm|= 0.11
  alpha nocc = 78  HOMO = -0.126970672067296  LUMO = 0.0632849050262568
  beta  nocc = 77  HOMO = -0.113618617623444  LUMO = 0.0670221905021193
cycle= 19 E= -2890.97508560156  delta_E= -0.00029  |g|= 0.00446  |ddm|= 0.0618
  alpha nocc = 78  HOMO = -0.12641798843165  LUMO = 0.063307108177582
  beta  nocc = 77  HOMO = -0.113807105937104  LUMO = 0.0674302446817703
cycle= 20 E= -2890.97526266894  delta_E= -0.000177  |g|= 0.00445  |ddm|= 0.0373
  alpha nocc = 78  HOMO = -0.126407124466144  LUMO = 0.0632596073414867
  beta  nocc = 77  HOMO = -0.11364001524115  LUMO = 0.0672196937850077
cycle= 21 E= -2890.97531910217  delta_E= -5.64e-05  |g|= 0.00447  |ddm|= 0.0144
  alpha nocc = 78  HOMO = -0.126583961743544  LUMO = 0.063342315039234
  beta  nocc = 77  HOMO = -0.11346488830445  LUMO = 0.0670824124401465
cycle= 22 E= -2890.97526319024  delta_E= 5.59e-05  |g|= 0.00442  |ddm|= 0.0159
  alpha nocc = 78  HOMO = -0.126598293825397  LUMO = 0.0633965087594564
  beta  nocc = 77  HOMO = -0.113210175075608  LUMO = 0.0669172539795938
cycle= 23 E= -2890.97519996248  delta_E= 6.32e-05  |g|= 0.00441  |ddm|= 0.0208
  alpha nocc = 78  HOMO = -0.126627592716696  LUMO = 0.0633769895211751
  beta  nocc = 77  HOMO = -0.11320636481755  LUMO = 0.0669228043147615
cycle= 24 E= -2890.97519332289  delta_E= 6.64e-06  |g|= 0.00437  |ddm|= 0.0089
  alpha nocc = 78  HOMO = -0.126625563907904  LUMO = 0.0633812727024405
  beta  nocc = 77  HOMO = -0.113295950644528  LUMO = 0.0670623090166264
cycle= 25 E= -2890.97522347997  delta_E= -3.02e-05  |g|= 0.00435  |ddm|= 0.00871
  alpha nocc = 78  HOMO = -0.126644590196418  LUMO = 0.0633100159392646
  beta  nocc = 77  HOMO = -0.11346839418851  LUMO = 0.0672279087108231
cycle= 26 E= -2890.97529905708  delta_E= -7.56e-05  |g|= 0.00431  |ddm|= 0.0221
  alpha nocc = 78  HOMO = -0.126501790978346  LUMO = 0.0633812762287431
  beta  nocc = 77  HOMO = -0.113467833914554  LUMO = 0.0674286884327015
cycle= 27 E= -2890.97535251806  delta_E= -5.35e-05  |g|= 0.00428  |ddm|= 0.0199
  alpha nocc = 78  HOMO = -0.126159685572811  LUMO = 0.063307949664101
  beta  nocc = 77  HOMO = -0.113602370178042  LUMO = 0.0676444340490075
cycle= 28 E= -2890.97548181772  delta_E= -0.000129  |g|= 0.00429  |ddm|= 0.0287
  alpha nocc = 78  HOMO = -0.126412640855742  LUMO = 0.0633265123966436
  beta  nocc = 77  HOMO = -0.1135572294067  LUMO = 0.0675366798703547
cycle= 29 E= -2890.97539990685  delta_E= 8.19e-05  |g|= 0.00427  |ddm|= 0.0177
  alpha nocc = 78  HOMO = -0.127339083978505  LUMO = 0.0634741504788691
  beta  nocc = 77  HOMO = -0.113326059807806  LUMO = 0.0671144237409914
cycle= 30 E= -2890.97511983304  delta_E= 0.00028  |g|= 0.0042  |ddm|= 0.0624
  alpha nocc = 78  HOMO = -0.128648549165716  LUMO = 0.0637871104852553
  beta  nocc = 77  HOMO = -0.112903209195439  LUMO = 0.0665444350318616
cycle= 31 E= -2890.97481026913  delta_E= 0.00031  |g|= 0.00404  |ddm|= 0.079
  alpha nocc = 78  HOMO = -0.129776026731682  LUMO = 0.0639677577065747
  beta  nocc = 77  HOMO = -0.112547715625794  LUMO = 0.0660613999242348
cycle= 32 E= -2890.9746275201  delta_E= 0.000183  |g|= 0.00394  |ddm|= 0.0639
  alpha nocc = 78  HOMO = -0.130295590236944  LUMO = 0.0641317583721815
  beta  nocc = 77  HOMO = -0.112333027226933  LUMO = 0.0658271605807236
cycle= 33 E= -2890.97451212428  delta_E= 0.000115  |g|= 0.00388  |ddm|= 0.0352
  alpha nocc = 78  HOMO = -0.131280505081744  LUMO = 0.0642421345379322
  beta  nocc = 77  HOMO = -0.112011141270691  LUMO = 0.0653786903975789
cycle= 34 E= -2890.97438364411  delta_E= 0.000128  |g|= 0.00369  |ddm|= 0.0584
  alpha nocc = 78  HOMO = -0.132907336945511  LUMO = 0.0646256412481562
  beta  nocc = 77  HOMO = -0.111503244538959  LUMO = 0.0649701753204583
cycle= 35 E= -2890.97426478119  delta_E= 0.000119  |g|= 0.00354  |ddm|= 0.0937
  alpha nocc = 78  HOMO = -0.133137184953873  LUMO = 0.0641569386771534
  beta  nocc = 77  HOMO = -0.111335697253799  LUMO = 0.0646822345228714
cycle= 36 E= -2890.9742444623  delta_E= 2.03e-05  |g|= 0.00333  |ddm|= 0.0373
  alpha nocc = 78  HOMO = -0.135845396239668  LUMO = 0.0651712053206477
  beta  nocc = 77  HOMO = -0.111923030793729  LUMO = 0.0645057530333707
cycle= 37 E= -2890.97405597066  delta_E= 0.000188  |g|= 0.003  |ddm|= 0.117
  alpha nocc = 78  HOMO = -0.137362148653043  LUMO = 0.0653775184060278
  beta  nocc = 77  HOMO = -0.111410653389495  LUMO = 0.0639477652146134
cycle= 38 E= -2890.97399093048  delta_E= 6.5e-05  |g|= 0.00254  |ddm|= 0.0976
  alpha nocc = 78  HOMO = -0.138088130743542  LUMO = 0.0657811080183971
  beta  nocc = 77  HOMO = -0.111116464407863  LUMO = 0.0632824473506593
cycle= 39 E= -2890.97392027697  delta_E= 7.07e-05  |g|= 0.00229  |ddm|= 0.0948
  alpha nocc = 78  HOMO = -0.1383095303994  LUMO = 0.0663118864967783
  beta  nocc = 77  HOMO = -0.111094776522152  LUMO = 0.0629190536150345
cycle= 40 E= -2890.9738900735  delta_E= 3.02e-05  |g|= 0.0022  |ddm|= 0.0752
  alpha nocc = 78  HOMO = -0.138228589566414  LUMO = 0.0664306796947039
  beta  nocc = 77  HOMO = -0.110648109343257  LUMO = 0.0626723483701498
cycle= 41 E= -2890.97388759703  delta_E= 2.48e-06  |g|= 0.00205  |ddm|= 0.0349
  alpha nocc = 78  HOMO = -0.13825221879209  LUMO = 0.0667538668910746
  beta  nocc = 77  HOMO = -0.110551967810397  LUMO = 0.0623948050720106
cycle= 42 E= -2890.97387768957  delta_E= 9.91e-06  |g|= 0.00196  |ddm|= 0.0477
  alpha nocc = 78  HOMO = -0.138461360336301  LUMO = 0.067232066866104
  beta  nocc = 77  HOMO = -0.110816420894893  LUMO = 0.0622739627284912
cycle= 43 E= -2890.97386818468  delta_E= 9.5e-06  |g|= 0.00191  |ddm|= 0.0548
  alpha nocc = 78  HOMO = -0.138230754982273  LUMO = 0.0673589331775347
  beta  nocc = 77  HOMO = -0.110116409545391  LUMO = 0.0618573159507861
cycle= 44 E= -2890.97389302632  delta_E= -2.48e-05  |g|= 0.00191  |ddm|= 0.0211
  alpha nocc = 78  HOMO = -0.138282685767995  LUMO = 0.067438213465652
  beta  nocc = 77  HOMO = -0.110219982187252  LUMO = 0.0618632048530692
cycle= 45 E= -2890.97389276949  delta_E= 2.57e-07  |g|= 0.00192  |ddm|= 0.00788
  alpha nocc = 78  HOMO = -0.138244792798664  LUMO = 0.067091736620454
  beta  nocc = 77  HOMO = -0.11038865513363  LUMO = 0.0620607805830251
cycle= 46 E= -2890.97387132806  delta_E= 2.14e-05  |g|= 0.00182  |ddm|= 0.0345
  alpha nocc = 78  HOMO = -0.138045153317252  LUMO = 0.0660062113092649
  beta  nocc = 77  HOMO = -0.11096450917375  LUMO = 0.0629175679931069
cycle= 47 E= -2890.97385488406  delta_E= 1.64e-05  |g|= 0.00158  |ddm|= 0.142
  alpha nocc = 78  HOMO = -0.137885805333677  LUMO = 0.0657140325532291
  beta  nocc = 77  HOMO = -0.110591829068355  LUMO = 0.0629935006405008
cycle= 48 E= -2890.97386489041  delta_E= -1e-05  |g|= 0.00139  |ddm|= 0.0402
  alpha nocc = 78  HOMO = -0.13778950903239  LUMO = 0.0655030661610743
  beta  nocc = 77  HOMO = -0.110608525029036  LUMO = 0.0631295126300146
cycle= 49 E= -2890.97388252473  delta_E= -1.76e-05  |g|= 0.00129  |ddm|= 0.0414
  alpha nocc = 78  HOMO = -0.137794136731659  LUMO = 0.0654535468041096
  beta  nocc = 77  HOMO = -0.110722953536911  LUMO = 0.0632367282226612
cycle= 50 E= -2890.97389808041  delta_E= -1.56e-05  |g|= 0.00121  |ddm|= 0.0249
SCF not converged.
SCF energy = -2890.97389808041 after 50 cycles  <S^2> = 1.5233754  2S+1 = 2.6633628
shift = 0
thresh = 1e-05 
eri1 (1356, 5886)
eri1 (1356, 5886)
    CPU time for making amplitude: integral transform      1.14 sec, wall time      0.08 sec
shape (1356, 3240)
1st memory: 510.2 MiB
eri1 (1356, 5886)
eri1 (1356, 5886)
2nd memory: 375.9 MiB

========================
iter = 0  energy = -2891.675780 energy diff = 2891.675780
multiplicity <S^2> : Reference = 1.5233754 Response = 1.5233958 Projector = 1.5234162
eri1 (1356, 5886)
eri1 (1356, 5886)
    CPU time for making amplitude: integral transform      1.00 sec, wall time      0.07 sec
shape (1356, 3240)
1st memory: 501.4 MiB
eri1 (1356, 5886)
eri1 (1356, 5886)
2nd memory: 406.1 MiB

========================
iter = 1  energy = -2891.696305 energy diff = 0.020525
multiplicity <S^2> : Reference = 1.2828018 Response = 1.2827502 Projector = 1.2826986
eri1 (1356, 5886)
eri1 (1356, 5886)
    CPU time for making amplitude: integral transform      1.37 sec, wall time      0.10 sec
shape (1356, 3240)
1st memory: 507.5 MiB
eri1 (1356, 5886)
eri1 (1356, 5886)
2nd memory: 405.0 MiB

========================
iter = 2  energy = -2891.709274 energy diff = 0.012969
multiplicity <S^2> : Reference = 1.1500392 Response = 1.150067 Projector = 1.1500949
eri1 (1356, 5886)
eri1 (1356, 5886)
    CPU time for making amplitude: integral transform      1.32 sec, wall time      0.09 sec
shape (1356, 3240)
1st memory: 503.7 MiB
eri1 (1356, 5886)
eri1 (1356, 5886)
2nd memory: 406.9 MiB

========================
iter = 3  energy = -2891.720670 energy diff = 0.011396
multiplicity <S^2> : Reference = 1.0036763 Response = 1.0036714 Projector = 1.0036664
eri1 (1356, 5886)
eri1 (1356, 5886)
    CPU time for making amplitude: integral transform      1.24 sec, wall time      0.08 sec
shape (1356, 3240)
1st memory: 507.0 MiB
eri1 (1356, 5886)
eri1 (1356, 5886)
2nd memory: 406.8 MiB

========================
iter = 4  energy = -2891.728255 energy diff = 0.007585
multiplicity <S^2> : Reference = 0.88734293 Response = 0.88731456 Projector = 0.8872862
eri1 (1356, 5886)
eri1 (1356, 5886)
    CPU time for making amplitude: integral transform      1.00 sec, wall time      0.07 sec
shape (1356, 3240)
1st memory: 503.7 MiB
eri1 (1356, 5886)
eri1 (1356, 5886)
2nd memory: 402.5 MiB

========================
iter = 5  energy = -2891.731783 energy diff = 0.003528
multiplicity <S^2> : Reference = 0.83000034 Response = 0.83000308 Projector = 0.83000581
eri1 (1356, 5886)
eri1 (1356, 5886)
    CPU time for making amplitude: integral transform      1.20 sec, wall time      0.08 sec
shape (1356, 3240)
1st memory: 507.5 MiB
eri1 (1356, 5886)
eri1 (1356, 5886)
2nd memory: 401.1 MiB

========================
iter = 6  energy = -2891.733881 energy diff = 0.002098
multiplicity <S^2> : Reference = 0.79059508 Response = 0.79058421 Projector = 0.79057335
eri1 (1356, 5886)
eri1 (1356, 5886)
    CPU time for making amplitude: integral transform      1.04 sec, wall time      0.07 sec
shape (1356, 3240)
1st memory: 503.7 MiB
eri1 (1356, 5886)
eri1 (1356, 5886)
2nd memory: 409.5 MiB

========================
iter = 7  energy = -2891.734956 energy diff = 0.001075
multiplicity <S^2> : Reference = 0.77552257 Response = 0.77551975 Projector = 0.77551692
eri1 (1356, 5886)
eri1 (1356, 5886)
    CPU time for making amplitude: integral transform      1.53 sec, wall time      0.12 sec
shape (1356, 3240)
1st memory: 506.5 MiB
eri1 (1356, 5886)
eri1 (1356, 5886)
2nd memory: 406.3 MiB

========================
iter = 8  energy = -2891.735405 energy diff = 0.000449
multiplicity <S^2> : Reference = 0.77167488 Response = 0.77168553 Projector = 0.77169618
eri1 (1356, 5886)
eri1 (1356, 5886)
    CPU time for making amplitude: integral transform      1.01 sec, wall time      0.07 sec
shape (1356, 3240)
1st memory: 542.8 MiB
eri1 (1356, 5886)
eri1 (1356, 5886)
2nd memory: 403.6 MiB

========================
iter = 9  energy = -2891.735609 energy diff = 0.000203
multiplicity <S^2> : Reference = 0.77318698 Response = 0.77320121 Projector = 0.77321543
eri1 (1356, 5886)
eri1 (1356, 5886)
    CPU time for making amplitude: integral transform      1.26 sec, wall time      0.08 sec
shape (1356, 3240)
1st memory: 507.8 MiB
eri1 (1356, 5886)
eri1 (1356, 5886)
2nd memory: 407.9 MiB

========================
iter = 10  energy = -2891.735627 energy diff = 0.000019
multiplicity <S^2> : Reference = 0.7749547 Response = 0.77495966 Projector = 0.77496463
eri1 (1356, 5886)
eri1 (1356, 5886)
    CPU time for making amplitude: integral transform      0.95 sec, wall time      0.06 sec
shape (1356, 3240)
1st memory: 543.7 MiB
eri1 (1356, 5886)
eri1 (1356, 5886)
2nd memory: 416.7 MiB

========================
iter = 11  energy = -2891.735658 energy diff = 0.000031
multiplicity <S^2> : Reference = 0.77795602 Response = 0.7779675 Projector = 0.77797898
eri1 (1356, 5886)
eri1 (1356, 5886)
    CPU time for making amplitude: integral transform      1.00 sec, wall time      0.07 sec
shape (1356, 3240)
1st memory: 547.1 MiB
eri1 (1356, 5886)
eri1 (1356, 5886)
2nd memory: 416.3 MiB

========================
iter = 12  energy = -2891.735659 energy diff = 0.000001
multiplicity <S^2> : Reference = 0.78126031 Response = 0.78129057 Projector = 0.78132083

UOB-MP2 has converged
UOB-MP2 energy =  -2891.735659088433
shift = 0
thresh = 1e-05 
eri1 (1356, 5886)
eri1 (1356, 5886)
    CPU time for making amplitude: integral transform      1.33 sec, wall time      0.09 sec
shape (1356, 3240)
1st memory: 500.3 MiB
eri1 (1356, 5886)
eri1 (1356, 5886)
2nd memory: 402.0 MiB

========================
iter = 0  energy = -2891.440894 energy diff = 2891.440894
multiplicity <S^2> : Reference = 1.5233754 Response = 1.5233958 Projector = 1.5234162
eri1 (1356, 5886)
eri1 (1356, 5886)
    CPU time for making amplitude: integral transform      0.92 sec, wall time      0.06 sec
shape (1356, 3240)
1st memory: 537.6 MiB
eri1 (1356, 5886)
eri1 (1356, 5886)
2nd memory: 403.6 MiB

========================
iter = 1  energy = -2891.473462 energy diff = 0.032568
multiplicity <S^2> : Reference = 1.3013592 Response = 1.3012938 Projector = 1.3012285
eri1 (1356, 5886)
eri1 (1356, 5886)
    CPU time for making amplitude: integral transform      1.11 sec, wall time      0.07 sec
shape (1356, 3240)
1st memory: 540.3 MiB
eri1 (1356, 5886)
eri1 (1356, 5886)
2nd memory: 400.2 MiB

========================
iter = 2  energy = -2891.481415 energy diff = 0.007953
multiplicity <S^2> : Reference = 1.1682609 Response = 1.1682976 Projector = 1.1683344
eri1 (1356, 5886)
eri1 (1356, 5886)
    CPU time for making amplitude: integral transform      1.12 sec, wall time      0.07 sec
shape (1356, 3240)
1st memory: 518.4 MiB
eri1 (1356, 5886)
eri1 (1356, 5886)
2nd memory: 401.8 MiB

========================
iter = 3  energy = -2891.488234 energy diff = 0.006820
multiplicity <S^2> : Reference = 1.0280059 Response = 1.02799 Projector = 1.0279741
eri1 (1356, 5886)
eri1 (1356, 5886)
    CPU time for making amplitude: integral transform      0.97 sec, wall time      0.07 sec
shape (1356, 3240)
1st memory: 521.2 MiB
eri1 (1356, 5886)
eri1 (1356, 5886)
2nd memory: 401.9 MiB

========================
iter = 4  energy = -2891.493632 energy diff = 0.005397
multiplicity <S^2> : Reference = 0.90098082 Response = 0.90099324 Projector = 0.90100567
eri1 (1356, 5886)
eri1 (1356, 5886)
    CPU time for making amplitude: integral transform      1.04 sec, wall time      0.07 sec
shape (1356, 3240)
1st memory: 519.9 MiB
eri1 (1356, 5886)
eri1 (1356, 5886)
2nd memory: 407.8 MiB

========================
iter = 5  energy = -2891.496279 energy diff = 0.002647
multiplicity <S^2> : Reference = 0.83146741 Response = 0.83149882 Projector = 0.83153023
eri1 (1356, 5886)
eri1 (1356, 5886)
    CPU time for making amplitude: integral transform      0.95 sec, wall time      0.06 sec
shape (1356, 3240)
1st memory: 544.0 MiB
eri1 (1356, 5886)
eri1 (1356, 5886)
2nd memory: 407.8 MiB

========================
iter = 6  energy = -2891.497488 energy diff = 0.001209
multiplicity <S^2> : Reference = 0.79876864 Response = 0.79874381 Projector = 0.79871898
eri1 (1356, 5886)
eri1 (1356, 5886)
    CPU time for making amplitude: integral transform      0.84 sec, wall time      0.06 sec
shape (1356, 3240)
1st memory: 543.2 MiB
eri1 (1356, 5886)
eri1 (1356, 5886)
2nd memory: 406.6 MiB

========================
iter = 7  energy = -2891.498164 energy diff = 0.000676
multiplicity <S^2> : Reference = 0.78165899 Response = 0.7816592 Projector = 0.78165941
eri1 (1356, 5886)
eri1 (1356, 5886)
    CPU time for making amplitude: integral transform      0.96 sec, wall time      0.06 sec
shape (1356, 3240)
1st memory: 542.9 MiB
eri1 (1356, 5886)
eri1 (1356, 5886)
2nd memory: 408.7 MiB

========================
iter = 8  energy = -2891.498363 energy diff = 0.000199
multiplicity <S^2> : Reference = 0.77905248 Response = 0.77905352 Projector = 0.77905456
eri1 (1356, 5886)
eri1 (1356, 5886)
    CPU time for making amplitude: integral transform      0.95 sec, wall time      0.06 sec
shape (1356, 3240)
1st memory: 545.1 MiB
eri1 (1356, 5886)
eri1 (1356, 5886)
2nd memory: 403.0 MiB

========================
iter = 9  energy = -2891.498440 energy diff = 0.000077
multiplicity <S^2> : Reference = 0.78056235 Response = 0.78055178 Projector = 0.78054122
eri1 (1356, 5886)
eri1 (1356, 5886)
    CPU time for making amplitude: integral transform      0.99 sec, wall time      0.07 sec
shape (1356, 3240)
1st memory: 521.3 MiB
eri1 (1356, 5886)
eri1 (1356, 5886)
2nd memory: 408.9 MiB

========================
iter = 10  energy = -2891.498474 energy diff = 0.000034
multiplicity <S^2> : Reference = 0.78306986 Response = 0.78308513 Projector = 0.7831004
eri1 (1356, 5886)
eri1 (1356, 5886)
    CPU time for making amplitude: integral transform      1.01 sec, wall time      0.07 sec
shape (1356, 3240)
1st memory: 545.1 MiB
eri1 (1356, 5886)
eri1 (1356, 5886)
2nd memory: 410.1 MiB

========================
iter = 11  energy = -2891.498490 energy diff = 0.000016
multiplicity <S^2> : Reference = 0.7862438 Response = 0.78623871 Projector = 0.78623362
eri1 (1356, 5886)
eri1 (1356, 5886)
    CPU time for making amplitude: integral transform      1.29 sec, wall time      0.09 sec
shape (1356, 3240)
1st memory: 545.5 MiB
eri1 (1356, 5886)
eri1 (1356, 5886)
2nd memory: 409.3 MiB

========================
iter = 12  energy = -2891.498489 energy diff = 0.000001
multiplicity <S^2> : Reference = 0.79031891 Response = 0.79030879 Projector = 0.79029867

UOB-MP2 has converged
UOB-MP2 energy =  -2891.498488936634


******** <class 'pyscf.scf.uhf.UHF'> ********
method = UHF
initial guess = minao
damping factor = 0
level_shift factor = 0
DIIS = <class 'pyscf.scf.diis.CDIIS'>
diis_start_cycle = 1
diis_space = 8
SCF conv_tol = 1e-09
SCF conv_tol_grad = None
SCF max_cycles = 50
direct_scf = True
direct_scf_tol = 1e-13
chkfile to save SCF result = /home/ltkoanh/Al_B2LYP_6311_Gd_Cluster/Cluster/Al12-cation-doublet/tmpyi6sqgtc
max_memory 4000 MB (current use 327 MB)
number electrons alpha = 78  beta = 77
Set gradient conv threshold to 3.16228e-05
init E= -2893.07863265657
  alpha nocc = 78  HOMO = -0.225979728354612  LUMO = -0.199119137125588
  beta  nocc = 77  HOMO = -0.256765205824245  LUMO = -0.225979728354612

WARN: system HOMO -0.225979728354612 >= system LUMO -0.225979728354612

cycle= 1 E= -2890.89223317307  delta_E= 2.19  |g|= 0.229  |ddm|= 3.83
  alpha nocc = 78  HOMO = -0.0735130773904858  LUMO = 0.0646849848174744
  beta  nocc = 77  HOMO = -0.0734598406251932  LUMO = 0.0655221902699868
cycle= 2 E= -2890.93182632875  delta_E= -0.0396  |g|= 0.174  |ddm|= 0.807
  alpha nocc = 78  HOMO = -0.118713145257556  LUMO = 0.0622915864798455
  beta  nocc = 77  HOMO = -0.107092973129706  LUMO = 0.0642274606212797
cycle= 3 E= -2890.96039067671  delta_E= -0.0286  |g|= 0.048  |ddm|= 0.344
  alpha nocc = 78  HOMO = -0.124423002289441  LUMO = 0.0582463142484889
  beta  nocc = 77  HOMO = -0.113323513178824  LUMO = 0.0596173094180352
cycle= 4 E= -2890.96441399408  delta_E= -0.00402  |g|= 0.0402  |ddm|= 0.174
  alpha nocc = 78  HOMO = -0.123219575428084  LUMO = 0.0630670765311454
  beta  nocc = 77  HOMO = -0.110696759853725  LUMO = 0.0635913219790579
cycle= 5 E= -2890.96821962994  delta_E= -0.00381  |g|= 0.0183  |ddm|= 0.152
  alpha nocc = 78  HOMO = -0.125350656190973  LUMO = 0.0636630261423162
  beta  nocc = 77  HOMO = -0.110758378009176  LUMO = 0.063906767828095
cycle= 6 E= -2890.97016459614  delta_E= -0.00194  |g|= 0.0155  |ddm|= 0.12
  alpha nocc = 78  HOMO = -0.126383234893255  LUMO = 0.0637991816201318
  beta  nocc = 77  HOMO = -0.11082514670287  LUMO = 0.0638538911072873
cycle= 7 E= -2890.97158229392  delta_E= -0.00142  |g|= 0.0125  |ddm|= 0.098
  alpha nocc = 78  HOMO = -0.128127293316816  LUMO = 0.0645334376466479
  beta  nocc = 77  HOMO = -0.111453850260291  LUMO = 0.0640686722206556
cycle= 8 E= -2890.97351615227  delta_E= -0.00193  |g|= 0.0111  |ddm|= 0.153
  alpha nocc = 78  HOMO = -0.129229796086847  LUMO = 0.0647236448332268
  beta  nocc = 77  HOMO = -0.112246448678496  LUMO = 0.0643159271355236
cycle= 9 E= -2890.97510719322  delta_E= -0.00159  |g|= 0.0104  |ddm|= 0.139
  alpha nocc = 78  HOMO = -0.129557287822521  LUMO = 0.0645150168328372
  beta  nocc = 77  HOMO = -0.112912371259142  LUMO = 0.0648689377382016
cycle= 10 E= -2890.97667995799  delta_E= -0.00157  |g|= 0.0102  |ddm|= 0.142
  alpha nocc = 78  HOMO = -0.129782926841734  LUMO = 0.0645270559108336
  beta  nocc = 77  HOMO = -0.113564634295348  LUMO = 0.0650886363451161
cycle= 11 E= -2890.97702068935  delta_E= -0.000341  |g|= 0.0104  |ddm|= 0.0314
  alpha nocc = 78  HOMO = -0.129975517163689  LUMO = 0.0646231113895231
  beta  nocc = 77  HOMO = -0.113520810553745  LUMO = 0.0649191852745739
cycle= 12 E= -2890.97680695045  delta_E= 0.000214  |g|= 0.0102  |ddm|= 0.0224
  alpha nocc = 78  HOMO = -0.131140729704682  LUMO = 0.0658993780083001
  beta  nocc = 77  HOMO = -0.112213035604238  LUMO = 0.0645182808116694
cycle= 13 E= -2890.97532661189  delta_E= 0.00148  |g|= 0.00877  |ddm|= 0.212
  alpha nocc = 78  HOMO = -0.1287683662096  LUMO = 0.0641331497444272
  beta  nocc = 77  HOMO = -0.111649663861443  LUMO = 0.0646274475639206
cycle= 14 E= -2890.97584827655  delta_E= -0.000522  |g|= 0.00759  |ddm|= 0.114
  alpha nocc = 78  HOMO = -0.128528001209511  LUMO = 0.0629067664088138
  beta  nocc = 77  HOMO = -0.112592469505549  LUMO = 0.064986643363939
cycle= 15 E= -2890.97660828887  delta_E= -0.00076  |g|= 0.00664  |ddm|= 0.131
  alpha nocc = 78  HOMO = -0.129497113939353  LUMO = 0.0642755743552273
  beta  nocc = 77  HOMO = -0.113214527812991  LUMO = 0.0661157654217783
cycle= 16 E= -2890.97708225491  delta_E= -0.000474  |g|= 0.00596  |ddm|= 0.102
  alpha nocc = 78  HOMO = -0.129736631877866  LUMO = 0.0642734348032998
  beta  nocc = 77  HOMO = -0.113326999192263  LUMO = 0.0660030771736768
cycle= 17 E= -2890.97772600448  delta_E= -0.000644  |g|= 0.0051  |ddm|= 0.121
  alpha nocc = 78  HOMO = -0.127819771511207  LUMO = 0.0632808719434519
  beta  nocc = 77  HOMO = -0.11258903482132  LUMO = 0.0656713042802091
cycle= 18 E= -2890.97825798025  delta_E= -0.000532  |g|= 0.00459  |ddm|= 0.109
  alpha nocc = 78  HOMO = -0.127105676944032  LUMO = 0.0630343275813798
  beta  nocc = 77  HOMO = -0.113825719627072  LUMO = 0.0668973713694998
cycle= 19 E= -2890.97855063439  delta_E= -0.000293  |g|= 0.00446  |ddm|= 0.0624
  alpha nocc = 78  HOMO = -0.126560730654513  LUMO = 0.0630462869754696
  beta  nocc = 77  HOMO = -0.114005467481234  LUMO = 0.0672860669499882
cycle= 20 E= -2890.97872908875  delta_E= -0.000178  |g|= 0.00445  |ddm|= 0.0376
  alpha nocc = 78  HOMO = -0.126532579405845  LUMO = 0.0629988966152022
  beta  nocc = 77  HOMO = -0.113854543996877  LUMO = 0.0670999431171898
cycle= 21 E= -2890.97878749802  delta_E= -5.84e-05  |g|= 0.00447  |ddm|= 0.0143
  alpha nocc = 78  HOMO = -0.126734931904908  LUMO = 0.0630882677649636
  beta  nocc = 77  HOMO = -0.113666810125849  LUMO = 0.0669481231241094
cycle= 22 E= -2890.97872439675  delta_E= 6.31e-05  |g|= 0.00441  |ddm|= 0.0177
  alpha nocc = 78  HOMO = -0.126747421070366  LUMO = 0.0631476720242924
  beta  nocc = 77  HOMO = -0.113416768224931  LUMO = 0.0668029911674296
cycle= 23 E= -2890.97866385815  delta_E= 6.05e-05  |g|= 0.00439  |ddm|= 0.0216
  alpha nocc = 78  HOMO = -0.126737463548598  LUMO = 0.06312119753735
  beta  nocc = 77  HOMO = -0.11342784465761  LUMO = 0.0668404500971066
cycle= 24 E= -2890.97867362249  delta_E= -9.76e-06  |g|= 0.00435  |ddm|= 0.0107
  alpha nocc = 78  HOMO = -0.126723218167602  LUMO = 0.0631263831164249
  beta  nocc = 77  HOMO = -0.11349877971609  LUMO = 0.0669598166862858
cycle= 25 E= -2890.97870199943  delta_E= -2.84e-05  |g|= 0.00434  |ddm|= 0.00782
  alpha nocc = 78  HOMO = -0.126711406896919  LUMO = 0.0630587105672859
  beta  nocc = 77  HOMO = -0.113673702278815  LUMO = 0.0671270521530358
cycle= 26 E= -2890.97877693925  delta_E= -7.49e-05  |g|= 0.00431  |ddm|= 0.0204
  alpha nocc = 78  HOMO = -0.126577699564842  LUMO = 0.063122015905739
  beta  nocc = 77  HOMO = -0.113678911827438  LUMO = 0.0673041079782704
cycle= 27 E= -2890.97882380954  delta_E= -4.69e-05  |g|= 0.00429  |ddm|= 0.0175
  alpha nocc = 78  HOMO = -0.126262252639278  LUMO = 0.0630514951205558
  beta  nocc = 77  HOMO = -0.113810291854526  LUMO = 0.0675050394224446
cycle= 28 E= -2890.97893999395  delta_E= -0.000116  |g|= 0.00431  |ddm|= 0.0261
  alpha nocc = 78  HOMO = -0.126578886914258  LUMO = 0.0630884207828477
  beta  nocc = 77  HOMO = -0.113751728202643  LUMO = 0.0673762784213558
cycle= 29 E= -2890.97884154276  delta_E= 9.85e-05  |g|= 0.00428  |ddm|= 0.0215
  alpha nocc = 78  HOMO = -0.12716611247438  LUMO = 0.0631957429994875
  beta  nocc = 77  HOMO = -0.113566241874898  LUMO = 0.0670993207326969
cycle= 30 E= -2890.97866144466  delta_E= 0.00018  |g|= 0.00424  |ddm|= 0.0402
  alpha nocc = 78  HOMO = -0.127719929666213  LUMO = 0.0633497587245895
  beta  nocc = 77  HOMO = -0.113316929122823  LUMO = 0.0668655069225279
cycle= 31 E= -2890.9785284201  delta_E= 0.000133  |g|= 0.00417  |ddm|= 0.036
  alpha nocc = 78  HOMO = -0.128092680898896  LUMO = 0.0634337769954834
  beta  nocc = 77  HOMO = -0.113180478732826  LUMO = 0.06674626429059
cycle= 32 E= -2890.97848246065  delta_E= 4.6e-05  |g|= 0.00414  |ddm|= 0.0233
  alpha nocc = 78  HOMO = -0.128264319885155  LUMO = 0.0635005069375797
  beta  nocc = 77  HOMO = -0.113080639612288  LUMO = 0.0666801832121395
cycle= 33 E= -2890.97844797443  delta_E= 3.45e-05  |g|= 0.00412  |ddm|= 0.0116
  alpha nocc = 78  HOMO = -0.128492827270479  LUMO = 0.0635460085661562
  beta  nocc = 77  HOMO = -0.112992796029231  LUMO = 0.0665868932776481
cycle= 34 E= -2890.97843267519  delta_E= 1.53e-05  |g|= 0.00409  |ddm|= 0.0139
  alpha nocc = 78  HOMO = -0.129062310254191  LUMO = 0.0637306384888823
  beta  nocc = 77  HOMO = -0.112727722159621  LUMO = 0.0664894795614413
cycle= 35 E= -2890.97837250589  delta_E= 6.02e-05  |g|= 0.00404  |ddm|= 0.0384
  alpha nocc = 78  HOMO = -0.128933501194929  LUMO = 0.063453789102756
  beta  nocc = 77  HOMO = -0.112834453906999  LUMO = 0.066429665072224
cycle= 36 E= -2890.9784013412  delta_E= -2.88e-05  |g|= 0.00407  |ddm|= 0.0191
  alpha nocc = 78  HOMO = -0.130923520827683  LUMO = 0.0641388238743369
  beta  nocc = 77  HOMO = -0.112560732248311  LUMO = 0.0661198633537411
cycle= 37 E= -2890.97807449281  delta_E= 0.000327  |g|= 0.00374  |ddm|= 0.107
  alpha nocc = 78  HOMO = -0.131610903807818  LUMO = 0.0640769267461318
  beta  nocc = 77  HOMO = -0.11211654265624  LUMO = 0.0657890480873153
cycle= 38 E= -2890.97796835146  delta_E= 0.000106  |g|= 0.00346  |ddm|= 0.0691
  alpha nocc = 78  HOMO = -0.133597025372231  LUMO = 0.0646928892415598
  beta  nocc = 77  HOMO = -0.111935867983132  LUMO = 0.0653838955112694
cycle= 39 E= -2890.97767892544  delta_E= 0.000289  |g|= 0.00317  |ddm|= 0.125
  alpha nocc = 78  HOMO = -0.135620546635788  LUMO = 0.0653442875667804
  beta  nocc = 77  HOMO = -0.111814590772543  LUMO = 0.0648451438708955
cycle= 40 E= -2890.97748241577  delta_E= 0.000197  |g|= 0.00287  |ddm|= 0.124
  alpha nocc = 78  HOMO = -0.135862430393968  LUMO = 0.0653781431824896
  beta  nocc = 77  HOMO = -0.111370498453604  LUMO = 0.0645231302546311
cycle= 41 E= -2890.97746433816  delta_E= 1.81e-05  |g|= 0.00258  |ddm|= 0.0308
  alpha nocc = 78  HOMO = -0.136437938087749  LUMO = 0.0655241649345281
  beta  nocc = 77  HOMO = -0.111037826071059  LUMO = 0.0640495191170257
cycle= 42 E= -2890.97742979843  delta_E= 3.45e-05  |g|= 0.00235  |ddm|= 0.0454
  alpha nocc = 78  HOMO = -0.137675937047807  LUMO = 0.0662572404551699
  beta  nocc = 77  HOMO = -0.11132780818315  LUMO = 0.0641380174190047
cycle= 43 E= -2890.9773673919  delta_E= 6.24e-05  |g|= 0.00241  |ddm|= 0.0636
  alpha nocc = 78  HOMO = -0.137334619558988  LUMO = 0.0660316024122595
  beta  nocc = 77  HOMO = -0.11084472141428  LUMO = 0.0637960757477726
cycle= 44 E= -2890.97740327192  delta_E= -3.59e-05  |g|= 0.00226  |ddm|= 0.0159
  alpha nocc = 78  HOMO = -0.137767187789023  LUMO = 0.0663489798334122
  beta  nocc = 77  HOMO = -0.111096416255061  LUMO = 0.0639764389319754
cycle= 45 E= -2890.97739726258  delta_E= 6.01e-06  |g|= 0.0024  |ddm|= 0.0202
  alpha nocc = 78  HOMO = -0.137201266669714  LUMO = 0.0659732468239981
  beta  nocc = 77  HOMO = -0.110721457337047  LUMO = 0.0637006463222315
cycle= 46 E= -2890.97742945343  delta_E= -3.22e-05  |g|= 0.00229  |ddm|= 0.0268
  alpha nocc = 78  HOMO = -0.136726294129456  LUMO = 0.0657992375896932
  beta  nocc = 77  HOMO = -0.110607750843267  LUMO = 0.0637338301790967
cycle= 47 E= -2890.97746251789  delta_E= -3.31e-05  |g|= 0.00228  |ddm|= 0.0263
  alpha nocc = 78  HOMO = -0.136776881057038  LUMO = 0.0658264501912889
  beta  nocc = 77  HOMO = -0.110625240870849  LUMO = 0.0637419101050998
cycle= 48 E= -2890.97745622979  delta_E= 6.29e-06  |g|= 0.00229  |ddm|= 0.00376
  alpha nocc = 78  HOMO = -0.137001432134389  LUMO = 0.065897707740185
  beta  nocc = 77  HOMO = -0.110673506342897  LUMO = 0.063725097850825
cycle= 49 E= -2890.97742587563  delta_E= 3.04e-05  |g|= 0.00225  |ddm|= 0.0169
  alpha nocc = 78  HOMO = -0.136893186998831  LUMO = 0.065847693535536
  beta  nocc = 77  HOMO = -0.110671993384709  LUMO = 0.0637503436799137
cycle= 50 E= -2890.9774335348  delta_E= -7.66e-06  |g|= 0.00225  |ddm|= 0.0068
SCF not converged.
SCF energy = -2890.9774335348 after 50 cycles  <S^2> = 1.538312  2S+1 = 2.6745556
