#INFO: **** input file is /home/ltkoanh/Al_B2LYP_6311_Gd_Cluster/Cluster/Al12-cation-doublet/input.py ****
import numpy
from pyscf import gto, scf, dft, mp, cc
from pyscf.mp import uobmp2_mom_conv, dfuobmp2_mom_conv, uhf_mom
from pyscf.mp import  mp2, ump2
from pyscf.tools import molden
import os
from functools import reduce


mol = gto.Mole()
geom = os.environ.get('geom_txt')
mol.atom = geom
mol.basis = os.environ.get('basis', 'cc-pvdz')
mol.unit = 'A'
mol.charge = int(os.environ.get('charge', 0))
mol.spin = int(os.environ.get('spin', 0))
mol.verbose = 4
mol.build()

#################### Ground state using density fitting
### Hartree-Fock
a  = scf.UHF(mol).density_fit()
a.kernel()

### Ground state OBMP2 calculation
ob = dfuobmp2_mom_conv.DFUOBMP2(a)
ob.second_order = True
ob.thresh = 10e-6
ob.css = 1
ob.cos = 1
e_obmp2g = ob.kernel()

### Ground state O2BMP2 calculation
ob = dfuobmp2_mom_conv.DFUOBMP2(a)
ob.second_order = True
ob.thresh = 10e-6
ob.css = 0                             
ob.cos = 1.2                             
e_o2bmp2g = ob.kernel()  

#################### Ground state NOT using density fitting
### Hartree-Fock
a  = scf.UHF(mol)
a.kernel()

### Ground state OBMP2 calculation
ob = uobmp2_mom_conv.UOBMP2(a)
ob.second_order = True
ob.thresh = 10e-6
ob.css = 1
ob.cos = 1
#e_obmp2g = ob.kernel()

### Ground state O2BMP2 calculation
ob = uobmp2_mom_conv.UOBMP2(a)
ob.second_order = True
ob.thresh = 10e-6
ob.css = 0
ob.cos = 1.2   ## the cos can be vary ...                        	 
#e_o2bmp2g = ob.kernel()


## Results from density-fitting approximate with non-using density fitting 
## check results between df and non-df with small molecules before running the important molecules
#INFO: ******************** input file end ********************


System: uname_result(system='Linux', node='comphys', release='3.10.0-1160.119.1.el7.x86_64', version='#1 SMP Tue Jun 4 14:43:51 UTC 2024', machine='x86_64', processor='x86_64')  Threads 8
Python 3.7.9 (default, Dec  4 2023, 13:00:18) 
[GCC 4.8.5 20150623 (Red Hat 4.8.5-44)]
numpy 1.21.6  scipy 1.7.3
Date: Sun May 25 17:44:30 2025
PySCF version 1.7.0
PySCF path  /share/installs/pyscf/pyscf
GIT HEAD      ref: refs/heads/ob-mp2
GIT ob-mp2 branch  f0fc63383ab6c719c0c91f5e07a6895c637b700d

[CONFIG] conf_file None
[INPUT] verbose = 4
[INPUT] num. atoms = 12
[INPUT] num. electrons = 77
[INPUT] charge = 1
[INPUT] spin (= nelec alpha-beta = 2S) = 1
[INPUT] symmetry False subgroup None
[INPUT] Mole.unit = A
[INPUT]  1 H      1.682138000000   0.222000000000   2.190164000000 AA    3.178780123724   0.419519199653   4.138810127882 Bohr
[INPUT]  2 He     3.067669000000   0.325046000000   0.000000000000 AA    5.797054250818   0.614247917885   0.000000000000 Bohr
[INPUT]  3 Li    -0.395303000000  -1.361044000000   2.216190000000 AA   -0.747014406219  -2.572000403483   4.187992140000 Bohr
[INPUT]  4 Be    -2.264398000000   0.496317000000   1.339750000000 AA   -4.279092057013   0.937903200966   2.531760575386 Bohr
[INPUT]  5 B      1.682138000000   0.222000000000  -2.190164000000 AA    3.178780123724   0.419519199653  -4.138810127882 Bohr
[INPUT]  6 C      1.135570000000  -1.600572000000   0.000000000000 AA    2.145916295272  -3.024642722647   0.000000000000 Bohr
[INPUT]  7 N     -1.556226000000  -1.805613000000   0.000000000000 AA   -2.940840927927  -3.412114056954   0.000000000000 Bohr
[INPUT]  8 O     -0.395303000000  -1.361044000000  -2.216190000000 AA   -0.747014406219  -2.572000403483  -4.187992140000 Bohr
[INPUT]  9 F     -0.395303000000   1.736106000000   2.728810000000 AA   -0.747014406219   3.280764863214   5.156703545974 Bohr
[INPUT] 10 Ne    -0.395303000000   1.736106000000  -2.728810000000 AA   -0.747014406219   3.280764863214  -5.156703545974 Bohr
[INPUT] 11 Na    -2.264398000000   0.496317000000  -1.339750000000 AA   -4.279092057013   0.937903200966  -2.531760575386 Bohr
[INPUT] 12 Mg     0.098720000000   0.894382000000   0.000000000000 AA    0.186553763017   1.690137030741   0.000000000000 Bohr

nuclear repulsion = 428.086206557171
number of shells = 36
number of NR pGTOs = 360
number of NR cGTOs = 60
basis = sto-6g
ecp = {}
CPU time:         1.62


******** <class 'pyscf.df.df_jk.density_fit.<locals>.DFHF'> ********
method = DFHF-UHF
initial guess = minao
damping factor = 0
level_shift factor = 0
DIIS = <class 'pyscf.scf.diis.CDIIS'>
diis_start_cycle = 1
diis_space = 8
SCF conv_tol = 1e-09
SCF conv_tol_grad = None
SCF max_cycles = 50
direct_scf = True
direct_scf_tol = 1e-13
chkfile to save SCF result = /home/ltkoanh/Al_B2LYP_6311_Gd_Cluster/Cluster/Al12-cation-doublet/tmpbgm41q_s
max_memory 4000 MB (current use 60 MB)
number electrons alpha = 39  beta = 38
Set gradient conv threshold to 3.16228e-05
******** <class 'pyscf.df.df.DF'> ********
auxbasis = None
max_memory = 4000
_cderi_to_save = /home/ltkoanh/Al_B2LYP_6311_Gd_Cluster/Cluster/Al12-cation-doublet/tmpnszf6ai7
Even tempered Gaussians are generated as DF auxbasis for  N Li B Na Mg C H O Be He Ne F
init E= -798.550103173912
  alpha nocc = 39  HOMO = -0.284463202327572  LUMO = -0.250063766383275
  beta  nocc = 38  HOMO = -0.300946835333257  LUMO = -0.284463202327571

WARN: system HOMO -0.284463202327571 >= system LUMO -0.284463202327571

cycle= 1 E= -798.573244529219  delta_E= -0.0231  |g|= 0.777  |ddm|= 2.46
  alpha nocc = 39  HOMO = -0.114702571113289  LUMO = -0.0695915495357187
  beta  nocc = 38  HOMO = -0.101367560790252  LUMO = -0.0647696698987016
cycle= 2 E= -777.644856520205  delta_E= 20.9  |g|= 2.51  |ddm|= 5.42
  alpha nocc = 39  HOMO = -0.16069664600423  LUMO = -0.0552293074832213
  beta  nocc = 38  HOMO = -0.146073636509286  LUMO = -0.043311039883362
cycle= 3 E= -791.871943139451  delta_E= -14.2  |g|= 1.65  |ddm|= 3.71
  alpha nocc = 39  HOMO = -0.216799583194264  LUMO = -0.161852201015103
  beta  nocc = 38  HOMO = -0.206536638509609  LUMO = -0.153576482416512
cycle= 4 E= -799.434797681617  delta_E= -7.56  |g|= 0.568  |ddm|= 3.54
  alpha nocc = 39  HOMO = -0.171673458206002  LUMO = -0.15620552992206
  beta  nocc = 38  HOMO = -0.172595526109981  LUMO = -0.152800305028371
cycle= 5 E= -799.788698301325  delta_E= -0.354  |g|= 0.781  |ddm|= 2.02
  alpha nocc = 39  HOMO = -0.203331808887087  LUMO = -0.146747977518318
  beta  nocc = 38  HOMO = -0.201555951685898  LUMO = -0.135951670412863
cycle= 6 E= -798.310872944072  delta_E= 1.48  |g|= 1.57  |ddm|= 1.06
  alpha nocc = 39  HOMO = -0.231899848966925  LUMO = -0.149159231428149
  beta  nocc = 38  HOMO = -0.224867752062472  LUMO = -0.137561154309431
cycle= 7 E= -799.163243455059  delta_E= -0.852  |g|= 1.22  |ddm|= 0.529
  alpha nocc = 39  HOMO = -0.184592147317925  LUMO = -0.137841997981809
  beta  nocc = 38  HOMO = -0.184795032925189  LUMO = -0.126547669659308
cycle= 8 E= -798.35450924019  delta_E= 0.809  |g|= 1.54  |ddm|= 0.533
  alpha nocc = 39  HOMO = -0.182836841654146  LUMO = -0.13622597684525
  beta  nocc = 38  HOMO = -0.183083346969793  LUMO = -0.125879743988365
cycle= 9 E= -798.324992337536  delta_E= 0.0295  |g|= 1.56  |ddm|= 0.0591
  alpha nocc = 39  HOMO = -0.195712264421369  LUMO = -0.131548105838492
  beta  nocc = 38  HOMO = -0.195196254122477  LUMO = -0.121177093326105
cycle= 10 E= -798.598700676111  delta_E= -0.274  |g|= 1.44  |ddm|= 0.19
  alpha nocc = 39  HOMO = -0.197173803598126  LUMO = -0.129815744262675
  beta  nocc = 38  HOMO = -0.200914999206639  LUMO = -0.122514474115062
cycle= 11 E= -798.623924760982  delta_E= -0.0252  |g|= 1.52  |ddm|= 0.404
  alpha nocc = 39  HOMO = -0.233770465203904  LUMO = -0.110037399314831
  beta  nocc = 38  HOMO = -0.229340559267718  LUMO = -0.112409458148876
cycle= 12 E= -799.693075825082  delta_E= -1.07  |g|= 0.887  |ddm|= 0.712
  alpha nocc = 39  HOMO = -0.290189434675611  LUMO = -0.0739560895392409
  beta  nocc = 38  HOMO = -0.267266217124174  LUMO = -0.0930477267164871
cycle= 13 E= -800.249434314302  delta_E= -0.556  |g|= 0.261  |ddm|= 1.28
  alpha nocc = 39  HOMO = -0.296968081277664  LUMO = -0.0841815112943299
  beta  nocc = 38  HOMO = -0.280251595930349  LUMO = -0.0876576891615782
cycle= 14 E= -800.3705752242  delta_E= -0.121  |g|= 0.155  |ddm|= 0.621
  alpha nocc = 39  HOMO = -0.287309562003982  LUMO = -0.0822488567192851
  beta  nocc = 38  HOMO = -0.270853240393528  LUMO = -0.0914783114891988
cycle= 15 E= -800.425715316683  delta_E= -0.0551  |g|= 0.149  |ddm|= 0.329
  alpha nocc = 39  HOMO = -0.288836217334074  LUMO = -0.0747258326092352
  beta  nocc = 38  HOMO = -0.271975475558351  LUMO = -0.0895429394370638
cycle= 16 E= -800.476930999691  delta_E= -0.0512  |g|= 0.144  |ddm|= 0.275
  alpha nocc = 39  HOMO = -0.293270318253037  LUMO = -0.0712008797399115
  beta  nocc = 38  HOMO = -0.271764049175825  LUMO = -0.0882427848004174
cycle= 17 E= -800.525388969603  delta_E= -0.0485  |g|= 0.149  |ddm|= 0.292
  alpha nocc = 39  HOMO = -0.288233910297329  LUMO = -0.0836305858851552
  beta  nocc = 38  HOMO = -0.283655215461734  LUMO = -0.0896986500910789
cycle= 18 E= -800.453153254523  delta_E= 0.0722  |g|= 0.133  |ddm|= 0.653
  alpha nocc = 39  HOMO = -0.263626138516151  LUMO = -0.08013137328702
  beta  nocc = 38  HOMO = -0.265989479842772  LUMO = -0.0742413183659713
cycle= 19 E= -800.501066362932  delta_E= -0.0479  |g|= 0.098  |ddm|= 0.427
  alpha nocc = 39  HOMO = -0.247892037883268  LUMO = -0.0657505671315883
  beta  nocc = 38  HOMO = -0.243088998914144  LUMO = -0.0762461671602115
cycle= 20 E= -800.553608202792  delta_E= -0.0525  |g|= 0.0802  |ddm|= 0.532
  alpha nocc = 39  HOMO = -0.241054726127087  LUMO = -0.0639650108737952
  beta  nocc = 38  HOMO = -0.247990177712255  LUMO = -0.0729977381123297
cycle= 21 E= -800.566893821397  delta_E= -0.0133  |g|= 0.0914  |ddm|= 0.21
  alpha nocc = 39  HOMO = -0.252303016916256  LUMO = -0.0709989038317344
  beta  nocc = 38  HOMO = -0.25824275682968  LUMO = -0.0740270215794255
cycle= 22 E= -800.542019958114  delta_E= 0.0249  |g|= 0.087  |ddm|= 0.241
  alpha nocc = 39  HOMO = -0.297724024021672  LUMO = -0.0729844247578639
  beta  nocc = 38  HOMO = -0.25719751515492  LUMO = -0.0665494606474688
cycle= 23 E= -800.535061882056  delta_E= 0.00696  |g|= 0.0729  |ddm|= 0.336
  alpha nocc = 39  HOMO = -0.287723499037935  LUMO = -0.0708336618280396
  beta  nocc = 38  HOMO = -0.245481953700594  LUMO = -0.0643407479120974
cycle= 24 E= -800.552112357439  delta_E= -0.0171  |g|= 0.061  |ddm|= 0.237
  alpha nocc = 39  HOMO = -0.281069725222428  LUMO = -0.0671500985983066
  beta  nocc = 38  HOMO = -0.241375254203353  LUMO = -0.0627093121660815
cycle= 25 E= -800.55563209137  delta_E= -0.00352  |g|= 0.0499  |ddm|= 0.137
  alpha nocc = 39  HOMO = -0.281001814914694  LUMO = -0.062599920924039
  beta  nocc = 38  HOMO = -0.237754420602462  LUMO = -0.0682772151030737
cycle= 26 E= -800.564947853879  delta_E= -0.00932  |g|= 0.0559  |ddm|= 0.171
  alpha nocc = 39  HOMO = -0.276827310409433  LUMO = -0.0712754259314103
  beta  nocc = 38  HOMO = -0.240976362080697  LUMO = -0.0669134575206323
cycle= 27 E= -800.556799020793  delta_E= 0.00815  |g|= 0.0503  |ddm|= 0.266
  alpha nocc = 39  HOMO = -0.275025000681257  LUMO = -0.0702895481845897
  beta  nocc = 38  HOMO = -0.235186598482106  LUMO = -0.0667516450099155
cycle= 28 E= -800.555774015979  delta_E= 0.00103  |g|= 0.048  |ddm|= 0.101
  alpha nocc = 39  HOMO = -0.277705068393687  LUMO = -0.0704754594123709
  beta  nocc = 38  HOMO = -0.235695588056319  LUMO = -0.0678137616981115
cycle= 29 E= -800.555479729383  delta_E= 0.000294  |g|= 0.0458  |ddm|= 0.0798
  alpha nocc = 39  HOMO = -0.27885092071486  LUMO = -0.0701880756447867
  beta  nocc = 38  HOMO = -0.235345372793706  LUMO = -0.0675114802291786
cycle= 30 E= -800.556020858616  delta_E= -0.000541  |g|= 0.0462  |ddm|= 0.0144
  alpha nocc = 39  HOMO = -0.268805652716222  LUMO = -0.0652372522856048
  beta  nocc = 38  HOMO = -0.242177493743303  LUMO = -0.070728786963402
cycle= 31 E= -800.556290371648  delta_E= -0.00027  |g|= 0.0394  |ddm|= 0.232
  alpha nocc = 39  HOMO = -0.268736651562966  LUMO = -0.0623447157105722
  beta  nocc = 38  HOMO = -0.2399682697601  LUMO = -0.0720222581138737
cycle= 32 E= -800.560865753941  delta_E= -0.00458  |g|= 0.0405  |ddm|= 0.129
  alpha nocc = 39  HOMO = -0.2683081055446  LUMO = -0.0631308939564144
  beta  nocc = 38  HOMO = -0.240329393670458  LUMO = -0.0720270538704189
cycle= 33 E= -800.559368293045  delta_E= 0.0015  |g|= 0.0402  |ddm|= 0.0403
  alpha nocc = 39  HOMO = -0.267130712350575  LUMO = -0.062537832885476
  beta  nocc = 38  HOMO = -0.241312552352345  LUMO = -0.0710661878941131
cycle= 34 E= -800.560910376892  delta_E= -0.00154  |g|= 0.0411  |ddm|= 0.0461
  alpha nocc = 39  HOMO = -0.271376757361402  LUMO = -0.0632509809131832
  beta  nocc = 38  HOMO = -0.244137026594053  LUMO = -0.0716422114327293
cycle= 35 E= -800.556795690847  delta_E= 0.00411  |g|= 0.0365  |ddm|= 0.131
  alpha nocc = 39  HOMO = -0.271563840859178  LUMO = -0.0638435628419603
  beta  nocc = 38  HOMO = -0.241639529307342  LUMO = -0.069564353916168
cycle= 36 E= -800.557928802226  delta_E= -0.00113  |g|= 0.0363  |ddm|= 0.133
  alpha nocc = 39  HOMO = -0.272066543898782  LUMO = -0.0648374053113366
  beta  nocc = 38  HOMO = -0.241636857123909  LUMO = -0.0709606288612741
cycle= 37 E= -800.555587977468  delta_E= 0.00234  |g|= 0.0347  |ddm|= 0.0664
  alpha nocc = 39  HOMO = -0.273639825547193  LUMO = -0.0649736804411504
  beta  nocc = 38  HOMO = -0.240262627713697  LUMO = -0.0686686144033317
cycle= 38 E= -800.55561100517  delta_E= -2.3e-05  |g|= 0.0338  |ddm|= 0.0933
  alpha nocc = 39  HOMO = -0.272949333504343  LUMO = -0.0654718239026714
  beta  nocc = 38  HOMO = -0.240893659753807  LUMO = -0.068516683683029
cycle= 39 E= -800.555977392302  delta_E= -0.000366  |g|= 0.0346  |ddm|= 0.0313
  alpha nocc = 39  HOMO = -0.275441649860522  LUMO = -0.0660599691325787
  beta  nocc = 38  HOMO = -0.242194523592408  LUMO = -0.0701796792120353
cycle= 40 E= -800.552528272428  delta_E= 0.00345  |g|= 0.0311  |ddm|= 0.104
  alpha nocc = 39  HOMO = -0.278047189306205  LUMO = -0.0644779254359743
  beta  nocc = 38  HOMO = -0.23758279017769  LUMO = -0.0683608269264173
cycle= 41 E= -800.556608456701  delta_E= -0.00408  |g|= 0.032  |ddm|= 0.124
  alpha nocc = 39  HOMO = -0.279336554870677  LUMO = -0.0639110390086474
  beta  nocc = 38  HOMO = -0.236731954213193  LUMO = -0.0676329732889616
cycle= 42 E= -800.558289664283  delta_E= -0.00168  |g|= 0.0333  |ddm|= 0.0455
  alpha nocc = 39  HOMO = -0.277854211978459  LUMO = -0.0646713195985978
  beta  nocc = 38  HOMO = -0.23964317298969  LUMO = -0.067908677754488
cycle= 43 E= -800.553509335051  delta_E= 0.00478  |g|= 0.0275  |ddm|= 0.138
  alpha nocc = 39  HOMO = -0.271069216501503  LUMO = -0.0624070482118267
  beta  nocc = 38  HOMO = -0.237965313816887  LUMO = -0.0677148528310115
cycle= 44 E= -800.553093468988  delta_E= 0.000416  |g|= 0.0215  |ddm|= 0.193
  alpha nocc = 39  HOMO = -0.271701637773924  LUMO = -0.0587708263100813
  beta  nocc = 38  HOMO = -0.238147786875322  LUMO = -0.0683259388785357
cycle= 45 E= -800.555286204432  delta_E= -0.00219  |g|= 0.0213  |ddm|= 0.125
  alpha nocc = 39  HOMO = -0.270824886606152  LUMO = -0.0588255246553589
  beta  nocc = 38  HOMO = -0.234864214437174  LUMO = -0.0683314411160202
cycle= 46 E= -800.555378205645  delta_E= -9.2e-05  |g|= 0.0193  |ddm|= 0.0655
  alpha nocc = 39  HOMO = -0.269931070406654  LUMO = -0.0566341367905859
  beta  nocc = 38  HOMO = -0.23765578274969  LUMO = -0.0697385656113684
cycle= 47 E= -800.557526352113  delta_E= -0.00215  |g|= 0.0201  |ddm|= 0.102
  alpha nocc = 39  HOMO = -0.270258449442773  LUMO = -0.0567650423369671
  beta  nocc = 38  HOMO = -0.23782342466757  LUMO = -0.0699663785887872
cycle= 48 E= -800.556795627281  delta_E= 0.000731  |g|= 0.0198  |ddm|= 0.0371
  alpha nocc = 39  HOMO = -0.270328727962139  LUMO = -0.0564622848839052
  beta  nocc = 38  HOMO = -0.237030066676305  LUMO = -0.0707155867903973
cycle= 49 E= -800.556035062031  delta_E= 0.000761  |g|= 0.0199  |ddm|= 0.0724
  alpha nocc = 39  HOMO = -0.271070791632608  LUMO = -0.0581315017548637
  beta  nocc = 38  HOMO = -0.236810861409554  LUMO = -0.0700551590041768
cycle= 50 E= -800.554973314791  delta_E= 0.00106  |g|= 0.0182  |ddm|= 0.051
SCF not converged.
SCF energy = -800.554973314791 after 50 cycles  <S^2> = 2.518004  2S+1 = 3.3274639
shift = 0
thresh = 1e-05 
eri1 (918, 1830)
eri1 (918, 1830)
    CPU time for making amplitude: integral transform      0.21 sec, wall time      0.01 sec
shape (918, 1260)
1st memory: 179.4 MiB
eri1 (918, 1830)
eri1 (918, 1830)
2nd memory: 168.0 MiB

========================
iter = 0  energy = -800.901785 energy diff = 800.901785
multiplicity <S^2> : Reference = 2.518004 Response = 2.5175092 Projector = 2.5170144
eri1 (918, 1830)
eri1 (918, 1830)
    CPU time for making amplitude: integral transform      0.18 sec, wall time      0.01 sec
shape (918, 1260)
1st memory: 187.5 MiB
eri1 (918, 1830)
eri1 (918, 1830)
2nd memory: 166.4 MiB

========================
iter = 1  energy = -800.906070 energy diff = 0.004285
multiplicity <S^2> : Reference = 2.5038297 Response = 2.5043368 Projector = 2.504844
eri1 (918, 1830)
eri1 (918, 1830)
    CPU time for making amplitude: integral transform      0.18 sec, wall time      0.01 sec
shape (918, 1260)
1st memory: 187.2 MiB
eri1 (918, 1830)
eri1 (918, 1830)
2nd memory: 167.9 MiB

========================
iter = 2  energy = -800.924230 energy diff = 0.018161
multiplicity <S^2> : Reference = 2.4870374 Response = 2.4864849 Projector = 2.4859323
eri1 (918, 1830)
eri1 (918, 1830)
    CPU time for making amplitude: integral transform      0.17 sec, wall time      0.02 sec
shape (918, 1260)
1st memory: 196.8 MiB
eri1 (918, 1830)
eri1 (918, 1830)
2nd memory: 173.8 MiB

========================
iter = 3  energy = -800.933365 energy diff = 0.009134
multiplicity <S^2> : Reference = 2.4897945 Response = 2.4898583 Projector = 2.4899221
eri1 (918, 1830)
eri1 (918, 1830)
    CPU time for making amplitude: integral transform      0.19 sec, wall time      0.01 sec
shape (918, 1260)
1st memory: 187.8 MiB
eri1 (918, 1830)
eri1 (918, 1830)
2nd memory: 167.6 MiB

========================
iter = 4  energy = -800.935498 energy diff = 0.002133
multiplicity <S^2> : Reference = 2.4993988 Response = 2.4996104 Projector = 2.499822
eri1 (918, 1830)
eri1 (918, 1830)
    CPU time for making amplitude: integral transform      0.21 sec, wall time      0.01 sec
shape (918, 1260)
1st memory: 196.3 MiB
eri1 (918, 1830)
eri1 (918, 1830)
2nd memory: 166.0 MiB

========================
iter = 5  energy = -800.939907 energy diff = 0.004410
multiplicity <S^2> : Reference = 2.5742027 Response = 2.5741538 Projector = 2.5741049
eri1 (918, 1830)
eri1 (918, 1830)
    CPU time for making amplitude: integral transform      0.21 sec, wall time      0.01 sec
shape (918, 1260)
1st memory: 187.8 MiB
eri1 (918, 1830)
eri1 (918, 1830)
2nd memory: 166.4 MiB

========================
iter = 6  energy = -800.943062 energy diff = 0.003154
multiplicity <S^2> : Reference = 2.6774443 Response = 2.6787245 Projector = 2.6800048
eri1 (918, 1830)
eri1 (918, 1830)
    CPU time for making amplitude: integral transform      0.19 sec, wall time      0.01 sec
shape (918, 1260)
1st memory: 196.5 MiB
eri1 (918, 1830)
eri1 (918, 1830)
2nd memory: 167.7 MiB

========================
iter = 7  energy = -800.942771 energy diff = 0.000291
multiplicity <S^2> : Reference = 2.6672125 Response = 2.6686849 Projector = 2.6701572
eri1 (918, 1830)
eri1 (918, 1830)
    CPU time for making amplitude: integral transform      0.21 sec, wall time      0.01 sec
shape (918, 1260)
1st memory: 187.7 MiB
eri1 (918, 1830)
eri1 (918, 1830)
2nd memory: 167.6 MiB

========================
iter = 8  energy = -800.942081 energy diff = 0.000689
multiplicity <S^2> : Reference = 2.6345327 Response = 2.6346794 Projector = 2.6348262
eri1 (918, 1830)
eri1 (918, 1830)
    CPU time for making amplitude: integral transform      0.21 sec, wall time      0.01 sec
shape (918, 1260)
1st memory: 196.5 MiB
eri1 (918, 1830)
eri1 (918, 1830)
2nd memory: 167.5 MiB

========================
iter = 9  energy = -800.941895 energy diff = 0.000186
multiplicity <S^2> : Reference = 2.6208554 Response = 2.6214915 Projector = 2.6221275
eri1 (918, 1830)
eri1 (918, 1830)
    CPU time for making amplitude: integral transform      0.21 sec, wall time      0.01 sec
shape (918, 1260)
1st memory: 187.4 MiB
eri1 (918, 1830)
eri1 (918, 1830)
2nd memory: 166.7 MiB

========================
iter = 10  energy = -800.942160 energy diff = 0.000264
multiplicity <S^2> : Reference = 2.6176325 Response = 2.6176523 Projector = 2.6176721
eri1 (918, 1830)
eri1 (918, 1830)
    CPU time for making amplitude: integral transform      0.22 sec, wall time      0.01 sec
shape (918, 1260)
1st memory: 196.3 MiB
eri1 (918, 1830)
eri1 (918, 1830)
2nd memory: 173.3 MiB

========================
iter = 11  energy = -800.941885 energy diff = 0.000275
multiplicity <S^2> : Reference = 2.6112973 Response = 2.6113994 Projector = 2.6115016
eri1 (918, 1830)
eri1 (918, 1830)
    CPU time for making amplitude: integral transform      0.20 sec, wall time      0.01 sec
shape (918, 1260)
1st memory: 187.7 MiB
eri1 (918, 1830)
eri1 (918, 1830)
2nd memory: 168.2 MiB

========================
iter = 12  energy = -800.941433 energy diff = 0.000452
multiplicity <S^2> : Reference = 2.5935635 Response = 2.5935024 Projector = 2.5934414
eri1 (918, 1830)
eri1 (918, 1830)
    CPU time for making amplitude: integral transform      0.23 sec, wall time      0.02 sec
shape (918, 1260)
1st memory: 196.4 MiB
eri1 (918, 1830)
eri1 (918, 1830)
2nd memory: 166.4 MiB

========================
iter = 13  energy = -800.935603 energy diff = 0.005830
multiplicity <S^2> : Reference = 2.4919467 Response = 2.491987 Projector = 2.4920273
eri1 (918, 1830)
eri1 (918, 1830)
    CPU time for making amplitude: integral transform      0.26 sec, wall time      0.02 sec
shape (918, 1260)
1st memory: 187.8 MiB
eri1 (918, 1830)
eri1 (918, 1830)
2nd memory: 167.5 MiB

========================
iter = 14  energy = -800.928306 energy diff = 0.007298
multiplicity <S^2> : Reference = 2.5094261 Response = 2.5096489 Projector = 2.5098717
eri1 (918, 1830)
eri1 (918, 1830)
    CPU time for making amplitude: integral transform      0.20 sec, wall time      0.01 sec
shape (918, 1260)
1st memory: 196.3 MiB
eri1 (918, 1830)
eri1 (918, 1830)
2nd memory: 172.7 MiB

========================
iter = 15  energy = -800.928702 energy diff = 0.000397
multiplicity <S^2> : Reference = 2.5142332 Response = 2.5146605 Projector = 2.5150877
eri1 (918, 1830)
eri1 (918, 1830)
    CPU time for making amplitude: integral transform      0.21 sec, wall time      0.01 sec
shape (918, 1260)
1st memory: 187.4 MiB
eri1 (918, 1830)
eri1 (918, 1830)
2nd memory: 173.6 MiB

========================
iter = 16  energy = -800.929774 energy diff = 0.001072
multiplicity <S^2> : Reference = 2.5508936 Response = 2.5508707 Projector = 2.5508478
eri1 (918, 1830)
eri1 (918, 1830)
    CPU time for making amplitude: integral transform      0.20 sec, wall time      0.01 sec
shape (918, 1260)
1st memory: 196.6 MiB
eri1 (918, 1830)
eri1 (918, 1830)
2nd memory: 173.0 MiB

========================
iter = 17  energy = -800.932598 energy diff = 0.002824
multiplicity <S^2> : Reference = 2.5720184 Response = 2.5713498 Projector = 2.5706813
eri1 (918, 1830)
eri1 (918, 1830)
    CPU time for making amplitude: integral transform      0.21 sec, wall time      0.01 sec
shape (918, 1260)
1st memory: 188.0 MiB
eri1 (918, 1830)
eri1 (918, 1830)
2nd memory: 173.8 MiB

========================
iter = 18  energy = -800.933718 energy diff = 0.001120
multiplicity <S^2> : Reference = 2.5819594 Response = 2.5821293 Projector = 2.5822992
eri1 (918, 1830)
eri1 (918, 1830)
    CPU time for making amplitude: integral transform      0.23 sec, wall time      0.02 sec
shape (918, 1260)
1st memory: 196.7 MiB
eri1 (918, 1830)
eri1 (918, 1830)
2nd memory: 166.4 MiB

========================
iter = 19  energy = -800.935749 energy diff = 0.002031
multiplicity <S^2> : Reference = 2.5842279 Response = 2.5839592 Projector = 2.5836905
eri1 (918, 1830)
eri1 (918, 1830)
    CPU time for making amplitude: integral transform      0.19 sec, wall time      0.01 sec
shape (918, 1260)
1st memory: 187.5 MiB
eri1 (918, 1830)
eri1 (918, 1830)
2nd memory: 165.5 MiB

========================
iter = 20  energy = -800.935089 energy diff = 0.000660
multiplicity <S^2> : Reference = 2.5785993 Response = 2.5787804 Projector = 2.5789615
eri1 (918, 1830)
eri1 (918, 1830)
    CPU time for making amplitude: integral transform      0.19 sec, wall time      0.01 sec
shape (918, 1260)
1st memory: 197.0 MiB
eri1 (918, 1830)
eri1 (918, 1830)
2nd memory: 168.0 MiB

========================
iter = 21  energy = -800.934688 energy diff = 0.000402
multiplicity <S^2> : Reference = 2.5831306 Response = 2.5835411 Projector = 2.5839516
eri1 (918, 1830)
eri1 (918, 1830)
    CPU time for making amplitude: integral transform      0.21 sec, wall time      0.01 sec
shape (918, 1260)
1st memory: 187.5 MiB
eri1 (918, 1830)
eri1 (918, 1830)
2nd memory: 165.7 MiB

========================
iter = 22  energy = -800.931976 energy diff = 0.002711
multiplicity <S^2> : Reference = 2.5919703 Response = 2.5919835 Projector = 2.5919968
eri1 (918, 1830)
eri1 (918, 1830)
    CPU time for making amplitude: integral transform      0.21 sec, wall time      0.02 sec
shape (918, 1260)
1st memory: 196.4 MiB
eri1 (918, 1830)
eri1 (918, 1830)
2nd memory: 167.3 MiB

========================
iter = 23  energy = -800.927257 energy diff = 0.004719
multiplicity <S^2> : Reference = 2.6309604 Response = 2.6312581 Projector = 2.6315557
eri1 (918, 1830)
eri1 (918, 1830)
    CPU time for making amplitude: integral transform      0.21 sec, wall time      0.01 sec
shape (918, 1260)
1st memory: 187.1 MiB
eri1 (918, 1830)
eri1 (918, 1830)
2nd memory: 167.3 MiB

========================
iter = 24  energy = -800.927651 energy diff = 0.000394
multiplicity <S^2> : Reference = 2.6354495 Response = 2.6360603 Projector = 2.6366711
eri1 (918, 1830)
eri1 (918, 1830)
    CPU time for making amplitude: integral transform      0.17 sec, wall time      0.02 sec
shape (918, 1260)
1st memory: 196.4 MiB
eri1 (918, 1830)
eri1 (918, 1830)
2nd memory: 165.4 MiB

========================
iter = 25  energy = -800.927490 energy diff = 0.000161
multiplicity <S^2> : Reference = 2.6429129 Response = 2.6433579 Projector = 2.643803
eri1 (918, 1830)
eri1 (918, 1830)
    CPU time for making amplitude: integral transform      0.21 sec, wall time      0.01 sec
shape (918, 1260)
1st memory: 187.2 MiB
eri1 (918, 1830)
eri1 (918, 1830)
2nd memory: 165.3 MiB

========================
iter = 26  energy = -800.927897 energy diff = 0.000408
multiplicity <S^2> : Reference = 2.6429824 Response = 2.6432896 Projector = 2.6435969
eri1 (918, 1830)
eri1 (918, 1830)
    CPU time for making amplitude: integral transform      0.20 sec, wall time      0.01 sec
shape (918, 1260)
1st memory: 203.8 MiB
eri1 (918, 1830)
eri1 (918, 1830)
2nd memory: 169.0 MiB

========================
iter = 27  energy = -800.927988 energy diff = 0.000091
multiplicity <S^2> : Reference = 2.6418705 Response = 2.6415517 Projector = 2.6412329
eri1 (918, 1830)
eri1 (918, 1830)
    CPU time for making amplitude: integral transform      0.22 sec, wall time      0.02 sec
shape (918, 1260)
1st memory: 196.4 MiB
eri1 (918, 1830)
eri1 (918, 1830)
2nd memory: 172.8 MiB

========================
iter = 28  energy = -800.927624 energy diff = 0.000364
multiplicity <S^2> : Reference = 2.6461294 Response = 2.6458385 Projector = 2.6455477
eri1 (918, 1830)
eri1 (918, 1830)
    CPU time for making amplitude: integral transform      0.18 sec, wall time      0.01 sec
shape (918, 1260)
1st memory: 196.4 MiB
eri1 (918, 1830)
eri1 (918, 1830)
2nd memory: 172.9 MiB

========================
iter = 29  energy = -800.926815 energy diff = 0.000809
multiplicity <S^2> : Reference = 2.6609061 Response = 2.6603475 Projector = 2.6597889
eri1 (918, 1830)
eri1 (918, 1830)
    CPU time for making amplitude: integral transform      0.18 sec, wall time      0.01 sec
shape (918, 1260)
1st memory: 197.2 MiB
eri1 (918, 1830)
eri1 (918, 1830)
2nd memory: 173.0 MiB

========================
iter = 30  energy = -800.925727 energy diff = 0.001087
multiplicity <S^2> : Reference = 2.6808692 Response = 2.6802321 Projector = 2.6795951
eri1 (918, 1830)
eri1 (918, 1830)
    CPU time for making amplitude: integral transform      0.25 sec, wall time      0.02 sec
shape (918, 1260)
1st memory: 196.5 MiB
eri1 (918, 1830)
eri1 (918, 1830)
2nd memory: 173.0 MiB

========================
iter = 31  energy = -800.926004 energy diff = 0.000277
multiplicity <S^2> : Reference = 2.6832099 Response = 2.6829056 Projector = 2.6826013
eri1 (918, 1830)
eri1 (918, 1830)
    CPU time for making amplitude: integral transform      0.21 sec, wall time      0.01 sec
shape (918, 1260)
1st memory: 196.4 MiB
eri1 (918, 1830)
eri1 (918, 1830)
2nd memory: 172.8 MiB

========================
iter = 32  energy = -800.926059 energy diff = 0.000055
multiplicity <S^2> : Reference = 2.6843152 Response = 2.6840291 Projector = 2.683743
eri1 (918, 1830)
eri1 (918, 1830)
    CPU time for making amplitude: integral transform      0.17 sec, wall time      0.01 sec
shape (918, 1260)
1st memory: 196.4 MiB
eri1 (918, 1830)
eri1 (918, 1830)
2nd memory: 173.1 MiB

========================
iter = 33  energy = -800.926069 energy diff = 0.000010
multiplicity <S^2> : Reference = 2.6807166 Response = 2.6804705 Projector = 2.6802244

UOB-MP2 has converged
UOB-MP2 energy =  -800.926069253481
shift = 0
thresh = 1e-05 
eri1 (918, 1830)
eri1 (918, 1830)
    CPU time for making amplitude: integral transform      0.20 sec, wall time      0.01 sec
shape (918, 1260)
1st memory: 187.3 MiB
eri1 (918, 1830)
eri1 (918, 1830)
2nd memory: 167.3 MiB

========================
iter = 0  energy = -800.835350 energy diff = 800.835350
multiplicity <S^2> : Reference = 2.518004 Response = 2.5175092 Projector = 2.5170144
eri1 (918, 1830)
eri1 (918, 1830)
    CPU time for making amplitude: integral transform      0.19 sec, wall time      0.01 sec
shape (918, 1260)
1st memory: 202.4 MiB
eri1 (918, 1830)
eri1 (918, 1830)
2nd memory: 167.1 MiB

========================
iter = 1  energy = -800.839464 energy diff = 0.004113
multiplicity <S^2> : Reference = 2.4963102 Response = 2.4961461 Projector = 2.495982
eri1 (918, 1830)
eri1 (918, 1830)
    CPU time for making amplitude: integral transform      0.24 sec, wall time      0.02 sec
shape (918, 1260)
1st memory: 196.5 MiB
eri1 (918, 1830)
eri1 (918, 1830)
2nd memory: 165.5 MiB

========================
iter = 2  energy = -800.861082 energy diff = 0.021619
multiplicity <S^2> : Reference = 2.4754475 Response = 2.4754253 Projector = 2.4754031
eri1 (918, 1830)
eri1 (918, 1830)
    CPU time for making amplitude: integral transform      0.21 sec, wall time      0.02 sec
shape (918, 1260)
1st memory: 196.1 MiB
eri1 (918, 1830)
eri1 (918, 1830)
2nd memory: 165.1 MiB

========================
iter = 3  energy = -800.863738 energy diff = 0.002656
multiplicity <S^2> : Reference = 2.4737989 Response = 2.4732427 Projector = 2.4726865
eri1 (918, 1830)
eri1 (918, 1830)
    CPU time for making amplitude: integral transform      0.21 sec, wall time      0.01 sec
shape (918, 1260)
1st memory: 196.4 MiB
eri1 (918, 1830)
eri1 (918, 1830)
2nd memory: 165.3 MiB

========================
iter = 4  energy = -800.865006 energy diff = 0.001269
multiplicity <S^2> : Reference = 2.4832508 Response = 2.4824862 Projector = 2.4817217
eri1 (918, 1830)
eri1 (918, 1830)
    CPU time for making amplitude: integral transform      0.23 sec, wall time      0.02 sec
shape (918, 1260)
1st memory: 196.8 MiB
eri1 (918, 1830)
eri1 (918, 1830)
2nd memory: 166.4 MiB

========================
iter = 5  energy = -800.867283 energy diff = 0.002277
multiplicity <S^2> : Reference = 2.521705 Response = 2.5218234 Projector = 2.5219418
eri1 (918, 1830)
eri1 (918, 1830)
    CPU time for making amplitude: integral transform      0.19 sec, wall time      0.01 sec
shape (918, 1260)
1st memory: 196.5 MiB
eri1 (918, 1830)
eri1 (918, 1830)
2nd memory: 173.8 MiB

========================
iter = 6  energy = -800.864620 energy diff = 0.002663
multiplicity <S^2> : Reference = 2.4701452 Response = 2.4712865 Projector = 2.4724279
eri1 (918, 1830)
eri1 (918, 1830)
    CPU time for making amplitude: integral transform      0.19 sec, wall time      0.01 sec
shape (918, 1260)
1st memory: 196.8 MiB
eri1 (918, 1830)
eri1 (918, 1830)
2nd memory: 173.8 MiB

========================
iter = 7  energy = -800.863089 energy diff = 0.001531
multiplicity <S^2> : Reference = 2.4506827 Response = 2.4504652 Projector = 2.4502477
eri1 (918, 1830)
eri1 (918, 1830)
    CPU time for making amplitude: integral transform      0.23 sec, wall time      0.02 sec
shape (918, 1260)
1st memory: 196.7 MiB
eri1 (918, 1830)
eri1 (918, 1830)
2nd memory: 167.5 MiB

========================
iter = 8  energy = -800.863491 energy diff = 0.000402
multiplicity <S^2> : Reference = 2.4673368 Response = 2.467235 Projector = 2.4671332
eri1 (918, 1830)
eri1 (918, 1830)
    CPU time for making amplitude: integral transform      0.21 sec, wall time      0.02 sec
shape (918, 1260)
1st memory: 196.5 MiB
eri1 (918, 1830)
eri1 (918, 1830)
2nd memory: 167.3 MiB

========================
iter = 9  energy = -800.865659 energy diff = 0.002168
multiplicity <S^2> : Reference = 2.4874059 Response = 2.486522 Projector = 2.4856381
eri1 (918, 1830)
eri1 (918, 1830)
    CPU time for making amplitude: integral transform      0.22 sec, wall time      0.02 sec
shape (918, 1260)
1st memory: 196.4 MiB
eri1 (918, 1830)
eri1 (918, 1830)
2nd memory: 167.5 MiB

========================
iter = 10  energy = -800.865806 energy diff = 0.000147
multiplicity <S^2> : Reference = 2.4921128 Response = 2.4915644 Projector = 2.491016
eri1 (918, 1830)
eri1 (918, 1830)
    CPU time for making amplitude: integral transform      0.18 sec, wall time      0.02 sec
shape (918, 1260)
1st memory: 196.6 MiB
eri1 (918, 1830)
eri1 (918, 1830)
2nd memory: 167.5 MiB

========================
iter = 11  energy = -800.866591 energy diff = 0.000785
multiplicity <S^2> : Reference = 2.5107719 Response = 2.5100707 Projector = 2.5093695
eri1 (918, 1830)
eri1 (918, 1830)
    CPU time for making amplitude: integral transform      0.14 sec, wall time      0.01 sec
shape (918, 1260)
1st memory: 196.2 MiB
eri1 (918, 1830)
eri1 (918, 1830)
2nd memory: 166.4 MiB

========================
iter = 12  energy = -800.866754 energy diff = 0.000162
multiplicity <S^2> : Reference = 2.5130497 Response = 2.5129028 Projector = 2.512756
eri1 (918, 1830)
eri1 (918, 1830)
    CPU time for making amplitude: integral transform      0.18 sec, wall time      0.01 sec
shape (918, 1260)
1st memory: 196.4 MiB
eri1 (918, 1830)
eri1 (918, 1830)
2nd memory: 166.7 MiB

========================
iter = 13  energy = -800.866609 energy diff = 0.000144
multiplicity <S^2> : Reference = 2.5124756 Response = 2.5126966 Projector = 2.5129176
eri1 (918, 1830)
eri1 (918, 1830)
    CPU time for making amplitude: integral transform      0.21 sec, wall time      0.01 sec
shape (918, 1260)
1st memory: 196.7 MiB
eri1 (918, 1830)
eri1 (918, 1830)
2nd memory: 167.0 MiB

========================
iter = 14  energy = -800.866348 energy diff = 0.000262
multiplicity <S^2> : Reference = 2.5239047 Response = 2.5242855 Projector = 2.5246663
eri1 (918, 1830)
eri1 (918, 1830)
    CPU time for making amplitude: integral transform      0.20 sec, wall time      0.01 sec
shape (918, 1260)
1st memory: 196.2 MiB
eri1 (918, 1830)
eri1 (918, 1830)
2nd memory: 166.5 MiB

========================
iter = 15  energy = -800.866326 energy diff = 0.000021
multiplicity <S^2> : Reference = 2.5696598 Response = 2.5697509 Projector = 2.5698421
eri1 (918, 1830)
eri1 (918, 1830)
    CPU time for making amplitude: integral transform      0.21 sec, wall time      0.01 sec
shape (918, 1260)
1st memory: 196.5 MiB
eri1 (918, 1830)
eri1 (918, 1830)
2nd memory: 166.7 MiB

========================
iter = 16  energy = -800.866979 energy diff = 0.000652
multiplicity <S^2> : Reference = 2.6210035 Response = 2.6208466 Projector = 2.6206897
eri1 (918, 1830)
eri1 (918, 1830)
    CPU time for making amplitude: integral transform      0.24 sec, wall time      0.02 sec
shape (918, 1260)
1st memory: 196.0 MiB
eri1 (918, 1830)
eri1 (918, 1830)
2nd memory: 172.6 MiB

========================
iter = 17  energy = -800.867736 energy diff = 0.000758
multiplicity <S^2> : Reference = 2.6470699 Response = 2.6471898 Projector = 2.6473098
eri1 (918, 1830)
eri1 (918, 1830)
    CPU time for making amplitude: integral transform      0.19 sec, wall time      0.01 sec
shape (918, 1260)
1st memory: 196.4 MiB
eri1 (918, 1830)
eri1 (918, 1830)
2nd memory: 166.7 MiB

========================
iter = 18  energy = -800.867717 energy diff = 0.000020
multiplicity <S^2> : Reference = 2.6462458 Response = 2.6461374 Projector = 2.646029
eri1 (918, 1830)
eri1 (918, 1830)
    CPU time for making amplitude: integral transform      0.24 sec, wall time      0.02 sec
shape (918, 1260)
1st memory: 196.3 MiB
eri1 (918, 1830)
eri1 (918, 1830)
2nd memory: 165.3 MiB

========================
iter = 19  energy = -800.867756 energy diff = 0.000039
multiplicity <S^2> : Reference = 2.6461184 Response = 2.6460089 Projector = 2.6458994
eri1 (918, 1830)
eri1 (918, 1830)
    CPU time for making amplitude: integral transform      0.23 sec, wall time      0.02 sec
shape (918, 1260)
1st memory: 196.4 MiB
eri1 (918, 1830)
eri1 (918, 1830)
2nd memory: 165.3 MiB

========================
iter = 20  energy = -800.867329 energy diff = 0.000427
multiplicity <S^2> : Reference = 2.6590115 Response = 2.6598925 Projector = 2.6607735
eri1 (918, 1830)
eri1 (918, 1830)
    CPU time for making amplitude: integral transform      0.24 sec, wall time      0.02 sec
shape (918, 1260)
1st memory: 196.3 MiB
eri1 (918, 1830)
eri1 (918, 1830)
2nd memory: 165.2 MiB

========================
iter = 21  energy = -800.866307 energy diff = 0.001022
multiplicity <S^2> : Reference = 2.6871944 Response = 2.6878991 Projector = 2.6886039
eri1 (918, 1830)
eri1 (918, 1830)
    CPU time for making amplitude: integral transform      0.18 sec, wall time      0.01 sec
shape (918, 1260)
1st memory: 196.5 MiB
eri1 (918, 1830)
eri1 (918, 1830)
2nd memory: 165.4 MiB

========================
iter = 22  energy = -800.866228 energy diff = 0.000079
multiplicity <S^2> : Reference = 2.7003445 Response = 2.7003844 Projector = 2.7004243
eri1 (918, 1830)
eri1 (918, 1830)
    CPU time for making amplitude: integral transform      0.23 sec, wall time      0.02 sec
shape (918, 1260)
1st memory: 196.3 MiB
eri1 (918, 1830)
eri1 (918, 1830)
2nd memory: 165.2 MiB

========================
iter = 23  energy = -800.865943 energy diff = 0.000285
multiplicity <S^2> : Reference = 2.7085742 Response = 2.7081859 Projector = 2.7077976
eri1 (918, 1830)
eri1 (918, 1830)
    CPU time for making amplitude: integral transform      0.20 sec, wall time      0.01 sec
shape (918, 1260)
1st memory: 196.5 MiB
eri1 (918, 1830)
eri1 (918, 1830)
2nd memory: 165.4 MiB

========================
iter = 24  energy = -800.865853 energy diff = 0.000090
multiplicity <S^2> : Reference = 2.7096782 Response = 2.7094265 Projector = 2.7091749
eri1 (918, 1830)
eri1 (918, 1830)
    CPU time for making amplitude: integral transform      0.24 sec, wall time      0.02 sec
shape (918, 1260)
1st memory: 203.4 MiB
eri1 (918, 1830)
eri1 (918, 1830)
2nd memory: 165.5 MiB

========================
iter = 25  energy = -800.865859 energy diff = 0.000006
multiplicity <S^2> : Reference = 2.7104428 Response = 2.7100488 Projector = 2.7096548

UOB-MP2 has converged
UOB-MP2 energy =  -800.8658589763356


******** <class 'pyscf.scf.uhf.UHF'> ********
method = UHF
initial guess = minao
damping factor = 0
level_shift factor = 0
DIIS = <class 'pyscf.scf.diis.CDIIS'>
diis_start_cycle = 1
diis_space = 8
SCF conv_tol = 1e-09
SCF conv_tol_grad = None
SCF max_cycles = 50
direct_scf = True
direct_scf_tol = 1e-13
chkfile to save SCF result = /home/ltkoanh/Al_B2LYP_6311_Gd_Cluster/Cluster/Al12-cation-doublet/tmp7s3nw_sn
max_memory 4000 MB (current use 165 MB)
number electrons alpha = 39  beta = 38
Set gradient conv threshold to 3.16228e-05
init E= -798.550717131925
  alpha nocc = 39  HOMO = -0.28450285852259  LUMO = -0.250140355475479
  beta  nocc = 38  HOMO = -0.300997270709116  LUMO = -0.28450285852259

WARN: system HOMO -0.28450285852259 >= system LUMO -0.28450285852259

cycle= 1 E= -798.574129043494  delta_E= -0.0234  |g|= 0.776  |ddm|= 2.46
  alpha nocc = 39  HOMO = -0.114923982181771  LUMO = -0.069664494769413
  beta  nocc = 38  HOMO = -0.101553097539763  LUMO = -0.0648374454577002
cycle= 2 E= -777.641038087849  delta_E= 20.9  |g|= 2.51  |ddm|= 5.42
  alpha nocc = 39  HOMO = -0.160748266975988  LUMO = -0.0552985959817207
  beta  nocc = 38  HOMO = -0.14615489766199  LUMO = -0.0433227372983596
cycle= 3 E= -791.87547607101  delta_E= -14.2  |g|= 1.65  |ddm|= 3.71
  alpha nocc = 39  HOMO = -0.217198479914835  LUMO = -0.161864773428059
  beta  nocc = 38  HOMO = -0.206823588972843  LUMO = -0.153583604631663
cycle= 4 E= -799.435906341941  delta_E= -7.56  |g|= 0.568  |ddm|= 3.54
  alpha nocc = 39  HOMO = -0.171798544960108  LUMO = -0.156319059064688
  beta  nocc = 38  HOMO = -0.172708397787973  LUMO = -0.152899496140623
cycle= 5 E= -799.794167420951  delta_E= -0.358  |g|= 0.776  |ddm|= 2.01
  alpha nocc = 39  HOMO = -0.204326761413271  LUMO = -0.146447621601654
  beta  nocc = 38  HOMO = -0.202385042585688  LUMO = -0.135709124262281
cycle= 6 E= -798.340150363083  delta_E= 1.45  |g|= 1.56  |ddm|= 1.06
  alpha nocc = 39  HOMO = -0.232331761091702  LUMO = -0.148806943321011
  beta  nocc = 38  HOMO = -0.225320216008543  LUMO = -0.137280027632864
cycle= 7 E= -799.183823983708  delta_E= -0.844  |g|= 1.21  |ddm|= 0.527
  alpha nocc = 39  HOMO = -0.185253394766879  LUMO = -0.136992756651124
  beta  nocc = 38  HOMO = -0.185584659772266  LUMO = -0.125915933359224
cycle= 8 E= -798.39090819179  delta_E= 0.793  |g|= 1.53  |ddm|= 0.53
  alpha nocc = 39  HOMO = -0.18389138501643  LUMO = -0.135329047835146
  beta  nocc = 38  HOMO = -0.184213795425721  LUMO = -0.125196875686692
cycle= 9 E= -798.370739670193  delta_E= 0.0202  |g|= 1.54  |ddm|= 0.0539
  alpha nocc = 39  HOMO = -0.198705038563954  LUMO = -0.129472242960766
  beta  nocc = 38  HOMO = -0.198148196922791  LUMO = -0.119631364565343
cycle= 10 E= -798.683673877737  delta_E= -0.313  |g|=  1.4  |ddm|= 0.213
  alpha nocc = 39  HOMO = -0.202222441036221  LUMO = -0.125972813364218
  beta  nocc = 38  HOMO = -0.206017863265985  LUMO = -0.120000343269018
cycle= 11 E= -798.83766738473  delta_E= -0.154  |g|= 1.42  |ddm|= 0.434
  alpha nocc = 39  HOMO = -0.23508002917382  LUMO = -0.110339627953181
  beta  nocc = 38  HOMO = -0.230420787980067  LUMO = -0.111749538856652
cycle= 12 E= -799.671520000424  delta_E= -0.834  |g|= 0.908  |ddm|= 0.576
  alpha nocc = 39  HOMO = -0.29177011698053  LUMO = -0.0716538880067456
  beta  nocc = 38  HOMO = -0.267741045463583  LUMO = -0.0914244004046102
cycle= 13 E= -800.245297574787  delta_E= -0.574  |g|= 0.27  |ddm|= 1.31
  alpha nocc = 39  HOMO = -0.29594226832857  LUMO = -0.0839463398947308
  beta  nocc = 38  HOMO = -0.280453846471017  LUMO = -0.0886928505457393
cycle= 14 E= -800.370810181895  delta_E= -0.126  |g|= 0.154  |ddm|= 0.617
  alpha nocc = 39  HOMO = -0.288612945672864  LUMO = -0.0811863393429689
  beta  nocc = 38  HOMO = -0.272515693454459  LUMO = -0.0910297862930961
cycle= 15 E= -800.425343164497  delta_E= -0.0545  |g|= 0.145  |ddm|= 0.316
  alpha nocc = 39  HOMO = -0.289247284532266  LUMO = -0.0747155570374997
  beta  nocc = 38  HOMO = -0.272651741838979  LUMO = -0.0892346383899089
cycle= 16 E= -800.472208884195  delta_E= -0.0469  |g|= 0.143  |ddm|= 0.254
  alpha nocc = 39  HOMO = -0.29442542675401  LUMO = -0.0708875730925212
  beta  nocc = 38  HOMO = -0.273305239472365  LUMO = -0.0881747353696935
cycle= 17 E= -800.519007928999  delta_E= -0.0468  |g|= 0.15  |ddm|= 0.289
  alpha nocc = 39  HOMO = -0.290906964231583  LUMO = -0.085310504639481
  beta  nocc = 38  HOMO = -0.285733043711953  LUMO = -0.0925010119227379
cycle= 18 E= -800.452153170369  delta_E= 0.0669  |g|= 0.133  |ddm|= 0.66
  alpha nocc = 39  HOMO = -0.269808232334924  LUMO = -0.0828577057457882
  beta  nocc = 38  HOMO = -0.266041262420798  LUMO = -0.0769112252550622
cycle= 19 E= -800.497642345475  delta_E= -0.0455  |g|= 0.102  |ddm|= 0.419
  alpha nocc = 39  HOMO = -0.251690476797051  LUMO = -0.0712069304892829
  beta  nocc = 38  HOMO = -0.244432641154857  LUMO = -0.0732855072355716
cycle= 20 E= -800.549515119602  delta_E= -0.0519  |g|= 0.0754  |ddm|= 0.522
  alpha nocc = 39  HOMO = -0.245420847931285  LUMO = -0.0644482844956114
  beta  nocc = 38  HOMO = -0.246452929694631  LUMO = -0.0721078598360056
cycle= 21 E= -800.568015810528  delta_E= -0.0185  |g|= 0.089  |ddm|= 0.213
  alpha nocc = 39  HOMO = -0.255959472823816  LUMO = -0.0709573774782412
  beta  nocc = 38  HOMO = -0.255472446506177  LUMO = -0.0744163271558687
cycle= 22 E= -800.545134326699  delta_E= 0.0229  |g|= 0.0848  |ddm|= 0.227
  alpha nocc = 39  HOMO = -0.292708094163629  LUMO = -0.0721474174271575
  beta  nocc = 38  HOMO = -0.253523784269437  LUMO = -0.0668390852389886
cycle= 23 E= -800.540590745045  delta_E= 0.00454  |g|= 0.0608  |ddm|= 0.285
  alpha nocc = 39  HOMO = -0.284626248216497  LUMO = -0.0690961129758134
  beta  nocc = 38  HOMO = -0.241036816943878  LUMO = -0.0644905454570981
cycle= 24 E= -800.558099720724  delta_E= -0.0175  |g|= 0.0544  |ddm|= 0.262
  alpha nocc = 39  HOMO = -0.280581344524691  LUMO = -0.0663619738218055
  beta  nocc = 38  HOMO = -0.238015099317397  LUMO = -0.0628194843930744
cycle= 25 E= -800.560979704171  delta_E= -0.00288  |g|= 0.0493  |ddm|= 0.0974
  alpha nocc = 39  HOMO = -0.282149093639915  LUMO = -0.0637904136117497
  beta  nocc = 38  HOMO = -0.235439575575492  LUMO = -0.0651955759660254
cycle= 26 E= -800.566743401661  delta_E= -0.00576  |g|= 0.0537  |ddm|= 0.123
  alpha nocc = 39  HOMO = -0.277047822174062  LUMO = -0.070382169823244
  beta  nocc = 38  HOMO = -0.238549030542228  LUMO = -0.0633294062321158
cycle= 27 E= -800.563338919286  delta_E= 0.0034  |g|= 0.0506  |ddm|= 0.235
  alpha nocc = 39  HOMO = -0.276307523066684  LUMO = -0.0721675139089173
  beta  nocc = 38  HOMO = -0.234580255785014  LUMO = -0.0664887274439519
cycle= 28 E= -800.560684125451  delta_E= 0.00265  |g|= 0.049  |ddm|= 0.0818
  alpha nocc = 39  HOMO = -0.279251924094826  LUMO = -0.0726099040274547
  beta  nocc = 38  HOMO = -0.236718424587836  LUMO = -0.0654685490641672
cycle= 29 E= -800.560295283105  delta_E= 0.000389  |g|= 0.0501  |ddm|= 0.039
  alpha nocc = 39  HOMO = -0.278015762077053  LUMO = -0.0699496633139409
  beta  nocc = 38  HOMO = -0.240682539691682  LUMO = -0.0699800027984341
cycle= 30 E= -800.555043408514  delta_E= 0.00525  |g|= 0.0437  |ddm|= 0.15
  alpha nocc = 39  HOMO = -0.26757348607902  LUMO = -0.0601685476903956
  beta  nocc = 38  HOMO = -0.237692088259277  LUMO = -0.0704434873026169
cycle= 31 E= -800.559334456922  delta_E= -0.00429  |g|= 0.0398  |ddm|= 0.289
  alpha nocc = 39  HOMO = -0.269608526648182  LUMO = -0.0589796815276053
  beta  nocc = 38  HOMO = -0.238805291189121  LUMO = -0.0693990177001934
cycle= 32 E= -800.559274235343  delta_E= 6.02e-05  |g|= 0.0388  |ddm|= 0.0302
  alpha nocc = 39  HOMO = -0.271925991128385  LUMO = -0.0607650960715697
  beta  nocc = 38  HOMO = -0.237601778646734  LUMO = -0.0706213683088037
cycle= 33 E= -800.55995633359  delta_E= -0.000682  |g|= 0.0371  |ddm|= 0.102
  alpha nocc = 39  HOMO = -0.271800955048819  LUMO = -0.0605940453538131
  beta  nocc = 38  HOMO = -0.237550645420439  LUMO = -0.0706011237542966
cycle= 34 E= -800.56023858798  delta_E= -0.000282  |g|= 0.0372  |ddm|= 0.0117
  alpha nocc = 39  HOMO = -0.273545217202383  LUMO = -0.062390764151099
  beta  nocc = 38  HOMO = -0.239189661741627  LUMO = -0.0704511176441985
cycle= 35 E= -800.557363392691  delta_E= 0.00288  |g|= 0.0348  |ddm|= 0.122
  alpha nocc = 39  HOMO = -0.269650521564502  LUMO = -0.061414661862423
  beta  nocc = 38  HOMO = -0.237583342214285  LUMO = -0.0685241179684608
cycle= 36 E= -800.562353925699  delta_E= -0.00499  |g|= 0.0384  |ddm|= 0.127
  alpha nocc = 39  HOMO = -0.274463023465893  LUMO = -0.0636712764158903
  beta  nocc = 38  HOMO = -0.238563816343009  LUMO = -0.0711890100301369
cycle= 37 E= -800.556540382967  delta_E= 0.00581  |g|= 0.0317  |ddm|= 0.137
  alpha nocc = 39  HOMO = -0.279529589610088  LUMO = -0.0619002643235491
  beta  nocc = 38  HOMO = -0.238436029362666  LUMO = -0.0712521187702034
cycle= 38 E= -800.55613818142  delta_E= 0.000402  |g|= 0.03  |ddm|= 0.113
  alpha nocc = 39  HOMO = -0.27940796761568  LUMO = -0.0607553691617803
  beta  nocc = 38  HOMO = -0.238569641351223  LUMO = -0.0723074356538619
cycle= 39 E= -800.557358339922  delta_E= -0.00122  |g|= 0.0316  |ddm|= 0.0482
  alpha nocc = 39  HOMO = -0.28212244287936  LUMO = -0.063627643538332
  beta  nocc = 38  HOMO = -0.240533635990808  LUMO = -0.0692991829409057
cycle= 40 E= -800.555063392654  delta_E= 0.00229  |g|= 0.0289  |ddm|= 0.116
  alpha nocc = 39  HOMO = -0.282788087648561  LUMO = -0.0637699613016954
  beta  nocc = 38  HOMO = -0.240460809524986  LUMO = -0.0688937605466575
cycle= 41 E= -800.555216200604  delta_E= -0.000153  |g|= 0.0297  |ddm|= 0.0205
  alpha nocc = 39  HOMO = -0.281621146275488  LUMO = -0.0625491156927905
  beta  nocc = 38  HOMO = -0.241846538271515  LUMO = -0.0679642639839514
cycle= 42 E= -800.55447335191  delta_E= 0.000743  |g|= 0.027  |ddm|= 0.0773
  alpha nocc = 39  HOMO = -0.280967319776106  LUMO = -0.0623171004119453
  beta  nocc = 38  HOMO = -0.24286169074122  LUMO = -0.0706713223923223
cycle= 43 E= -800.55507584974  delta_E= -0.000602  |g|= 0.0258  |ddm|= 0.0745
  alpha nocc = 39  HOMO = -0.280989214235677  LUMO = -0.0592570766132566
  beta  nocc = 38  HOMO = -0.245148502579424  LUMO = -0.070298982077839
cycle= 44 E= -800.556258186461  delta_E= -0.00118  |g|= 0.0216  |ddm|= 0.153
  alpha nocc = 39  HOMO = -0.280909067261048  LUMO = -0.0574233957005983
  beta  nocc = 38  HOMO = -0.244694847413083  LUMO = -0.0742994259993535
cycle= 45 E= -800.559159923122  delta_E= -0.0029  |g|= 0.0204  |ddm|= 0.125
  alpha nocc = 39  HOMO = -0.281823423097978  LUMO = -0.0565872005703621
  beta  nocc = 38  HOMO = -0.24725841633541  LUMO = -0.075350393904401
cycle= 46 E= -800.562073578491  delta_E= -0.00291  |g|= 0.021  |ddm|= 0.117
  alpha nocc = 39  HOMO = -0.281303454895708  LUMO = -0.0578033809457093
  beta  nocc = 38  HOMO = -0.246667935470936  LUMO = -0.0742259106031024
cycle= 47 E= -800.559115580365  delta_E= 0.00296  |g|= 0.0192  |ddm|= 0.121
  alpha nocc = 39  HOMO = -0.280546641710692  LUMO = -0.0564445387911933
  beta  nocc = 38  HOMO = -0.245448057497204  LUMO = -0.0773407256384042
cycle= 48 E= -800.559203961196  delta_E= -8.84e-05  |g|= 0.019  |ddm|= 0.057
  alpha nocc = 39  HOMO = -0.281469100947698  LUMO = -0.0563249638770427
  beta  nocc = 38  HOMO = -0.246480426193305  LUMO = -0.0778510770364085
cycle= 49 E= -800.559782958959  delta_E= -0.000579  |g|= 0.0197  |ddm|= 0.0292
  alpha nocc = 39  HOMO = -0.279463014707856  LUMO = -0.0557516259386208
  beta  nocc = 38  HOMO = -0.244340639109365  LUMO = -0.0774408118507859
cycle= 50 E= -800.559415180145  delta_E= 0.000368  |g|= 0.0186  |ddm|= 0.0582
SCF not converged.
SCF energy = -800.559415180145 after 50 cycles  <S^2> = 2.6191441  2S+1 = 3.3877096
