#INFO: **** input file is /home/ltkoanh/Al_B2LYP_6311_Gd_Cluster/Cluster/Al12-cation-doublet/input.py ****
import numpy
from pyscf import gto, scf, dft, mp, cc
from pyscf.mp import uobmp2_mom_conv, dfuobmp2_mom_conv, uhf_mom
from pyscf.mp import  mp2, ump2
from pyscf.tools import molden
import os
from functools import reduce


mol = gto.Mole()
geom = os.environ.get('geom_txt')
mol.atom = geom
mol.basis = os.environ.get('basis', 'cc-pvdz')
mol.unit = 'A'
mol.charge = int(os.environ.get('charge', 0))
mol.spin = int(os.environ.get('spin', 0))
mol.verbose = 4
mol.build()

#################### Ground state using density fitting
### Hartree-Fock
a  = scf.UHF(mol).density_fit()
a.kernel()

### Ground state OBMP2 calculation
ob = dfuobmp2_mom_conv.DFUOBMP2(a)
ob.second_order = True
ob.thresh = 10e-6
ob.css = 1
ob.cos = 1
e_obmp2g = ob.kernel()

### Ground state O2BMP2 calculation
ob = dfuobmp2_mom_conv.DFUOBMP2(a)
ob.second_order = True
ob.thresh = 10e-6
ob.css = 0                             
ob.cos = 1.2                             
e_o2bmp2g = ob.kernel()  

#################### Ground state NOT using density fitting
### Hartree-Fock
a  = scf.UHF(mol)
a.kernel()

### Ground state OBMP2 calculation
ob = uobmp2_mom_conv.UOBMP2(a)
ob.second_order = True
ob.thresh = 10e-6
ob.css = 1
ob.cos = 1
#e_obmp2g = ob.kernel()

### Ground state O2BMP2 calculation
ob = uobmp2_mom_conv.UOBMP2(a)
ob.second_order = True
ob.thresh = 10e-6
ob.css = 0
ob.cos = 1.2   ## the cos can be vary ...                        	 
#e_o2bmp2g = ob.kernel()


## Results from density-fitting approximate with non-using density fitting 
## check results between df and non-df with small molecules before running the important molecules
#INFO: ******************** input file end ********************


System: uname_result(system='Linux', node='comphys', release='3.10.0-1160.119.1.el7.x86_64', version='#1 SMP Tue Jun 4 14:43:51 UTC 2024', machine='x86_64', processor='x86_64')  Threads 8
Python 3.7.9 (default, Dec  4 2023, 13:00:18) 
[GCC 4.8.5 20150623 (Red Hat 4.8.5-44)]
numpy 1.21.6  scipy 1.7.3
Date: Mon May 19 18:10:40 2025
PySCF version 1.7.0
PySCF path  /share/installs/pyscf/pyscf
GIT HEAD      ref: refs/heads/ob-mp2
GIT ob-mp2 branch  f0fc63383ab6c719c0c91f5e07a6895c637b700d

[CONFIG] conf_file None
[INPUT] verbose = 4
[INPUT] num. atoms = 12
[INPUT] num. electrons = 77
[INPUT] charge = 1
[INPUT] spin (= nelec alpha-beta = 2S) = 1
[INPUT] symmetry False subgroup None
[INPUT] Mole.unit = A
[INPUT]  1 H      1.682138000000   0.222000000000   2.190164000000 AA    3.178780123724   0.419519199653   4.138810127882 Bohr
[INPUT]  2 He     3.067669000000   0.325046000000   0.000000000000 AA    5.797054250818   0.614247917885   0.000000000000 Bohr
[INPUT]  3 Li    -0.395303000000  -1.361044000000   2.216190000000 AA   -0.747014406219  -2.572000403483   4.187992140000 Bohr
[INPUT]  4 Be    -2.264398000000   0.496317000000   1.339750000000 AA   -4.279092057013   0.937903200966   2.531760575386 Bohr
[INPUT]  5 B      1.682138000000   0.222000000000  -2.190164000000 AA    3.178780123724   0.419519199653  -4.138810127882 Bohr
[INPUT]  6 C      1.135570000000  -1.600572000000   0.000000000000 AA    2.145916295272  -3.024642722647   0.000000000000 Bohr
[INPUT]  7 N     -1.556226000000  -1.805613000000   0.000000000000 AA   -2.940840927927  -3.412114056954   0.000000000000 Bohr
[INPUT]  8 O     -0.395303000000  -1.361044000000  -2.216190000000 AA   -0.747014406219  -2.572000403483  -4.187992140000 Bohr
[INPUT]  9 F     -0.395303000000   1.736106000000   2.728810000000 AA   -0.747014406219   3.280764863214   5.156703545974 Bohr
[INPUT] 10 Ne    -0.395303000000   1.736106000000  -2.728810000000 AA   -0.747014406219   3.280764863214  -5.156703545974 Bohr
[INPUT] 11 Na    -2.264398000000   0.496317000000  -1.339750000000 AA   -4.279092057013   0.937903200966  -2.531760575386 Bohr
[INPUT] 12 Mg     0.098720000000   0.894382000000   0.000000000000 AA    0.186553763017   1.690137030741   0.000000000000 Bohr

nuclear repulsion = 428.086206557171
number of shells = 36
number of NR pGTOs = 360
number of NR cGTOs = 60
basis = sto-6g
ecp = {}
CPU time:         1.40


******** <class 'pyscf.df.df_jk.density_fit.<locals>.DFHF'> ********
method = DFHF-UHF
initial guess = minao
damping factor = 0
level_shift factor = 0
DIIS = <class 'pyscf.scf.diis.CDIIS'>
diis_start_cycle = 1
diis_space = 8
SCF conv_tol = 1e-09
SCF conv_tol_grad = None
SCF max_cycles = 50
direct_scf = True
direct_scf_tol = 1e-13
chkfile to save SCF result = /home/ltkoanh/Al_B2LYP_6311_Gd_Cluster/Cluster/Al12-cation-doublet/tmpy4as6xpt
max_memory 4000 MB (current use 60 MB)
number electrons alpha = 39  beta = 38
Set gradient conv threshold to 3.16228e-05
******** <class 'pyscf.df.df.DF'> ********
auxbasis = None
max_memory = 4000
_cderi_to_save = /home/ltkoanh/Al_B2LYP_6311_Gd_Cluster/Cluster/Al12-cation-doublet/tmp_g7msso2
Even tempered Gaussians are generated as DF auxbasis for  Ne B Li C N H Be F O Mg Na He
init E= -798.550103173912
  alpha nocc = 39  HOMO = -0.284463202327571  LUMO = -0.250063766383275
  beta  nocc = 38  HOMO = -0.300946835333256  LUMO = -0.28446320232757

WARN: system HOMO -0.28446320232757 >= system LUMO -0.28446320232757

cycle= 1 E= -798.573244529219  delta_E= -0.0231  |g|= 0.777  |ddm|= 2.46
  alpha nocc = 39  HOMO = -0.114702571113283  LUMO = -0.0695915495357197
  beta  nocc = 38  HOMO = -0.101367560790249  LUMO = -0.0647696698986953
cycle= 2 E= -777.644856520205  delta_E= 20.9  |g|= 2.51  |ddm|= 5.42
  alpha nocc = 39  HOMO = -0.160696646004223  LUMO = -0.0552293074832177
  beta  nocc = 38  HOMO = -0.146073636509284  LUMO = -0.043311039883359
cycle= 3 E= -791.87194313945  delta_E= -14.2  |g|= 1.65  |ddm|= 3.71
  alpha nocc = 39  HOMO = -0.216799583194259  LUMO = -0.161852201015103
  beta  nocc = 38  HOMO = -0.206536638509604  LUMO = -0.153576482416509
cycle= 4 E= -799.434797681618  delta_E= -7.56  |g|= 0.568  |ddm|= 3.54
  alpha nocc = 39  HOMO = -0.171673458206005  LUMO = -0.156205529922059
  beta  nocc = 38  HOMO = -0.172595526109986  LUMO = -0.152800305028369
cycle= 5 E= -799.788698301325  delta_E= -0.354  |g|= 0.781  |ddm|= 2.02
  alpha nocc = 39  HOMO = -0.203331808887097  LUMO = -0.14674797751831
  beta  nocc = 38  HOMO = -0.201555951685901  LUMO = -0.135951670412854
cycle= 6 E= -798.310872944072  delta_E= 1.48  |g|= 1.57  |ddm|= 1.06
  alpha nocc = 39  HOMO = -0.231899848966936  LUMO = -0.149159231428146
  beta  nocc = 38  HOMO = -0.224867752062475  LUMO = -0.137561154309427
cycle= 7 E= -799.163243455059  delta_E= -0.852  |g|= 1.22  |ddm|= 0.529
  alpha nocc = 39  HOMO = -0.184592147317936  LUMO = -0.13784199798181
  beta  nocc = 38  HOMO = -0.184795032925197  LUMO = -0.126547669659308
cycle= 8 E= -798.35450924019  delta_E= 0.809  |g|= 1.54  |ddm|= 0.533
  alpha nocc = 39  HOMO = -0.182836841654161  LUMO = -0.136225976845251
  beta  nocc = 38  HOMO = -0.183083346969804  LUMO = -0.125879743988369
cycle= 9 E= -798.324992337537  delta_E= 0.0295  |g|= 1.56  |ddm|= 0.0591
  alpha nocc = 39  HOMO = -0.195712264421509  LUMO = -0.131548105838424
  beta  nocc = 38  HOMO = -0.195196254122607  LUMO = -0.121177093326045
cycle= 10 E= -798.598700676114  delta_E= -0.274  |g|= 1.44  |ddm|= 0.19
  alpha nocc = 39  HOMO = -0.197173803598427  LUMO = -0.129815744262482
  beta  nocc = 38  HOMO = -0.200914999206934  LUMO = -0.12251447411493
cycle= 11 E= -798.623924760993  delta_E= -0.0252  |g|= 1.52  |ddm|= 0.404
  alpha nocc = 39  HOMO = -0.233770465203933  LUMO = -0.11003739931484
  beta  nocc = 38  HOMO = -0.229340559267773  LUMO = -0.112409458148816
cycle= 12 E= -799.693075825081  delta_E= -1.07  |g|= 0.887  |ddm|= 0.712
  alpha nocc = 39  HOMO = -0.290189434675738  LUMO = -0.0739560895394232
  beta  nocc = 38  HOMO = -0.267266217124256  LUMO = -0.0930477267165784
cycle= 13 E= -800.249434314301  delta_E= -0.556  |g|= 0.261  |ddm|= 1.28
  alpha nocc = 39  HOMO = -0.296968081277601  LUMO = -0.0841815112941903
  beta  nocc = 38  HOMO = -0.280251595930451  LUMO = -0.0876576891617484
cycle= 14 E= -800.3705752242  delta_E= -0.121  |g|= 0.155  |ddm|= 0.621
  alpha nocc = 39  HOMO = -0.287309562003976  LUMO = -0.0822488567191851
  beta  nocc = 38  HOMO = -0.270853240393721  LUMO = -0.0914783114892078
cycle= 15 E= -800.425715316684  delta_E= -0.0551  |g|= 0.149  |ddm|= 0.329
  alpha nocc = 39  HOMO = -0.288836217334065  LUMO = -0.074725832609114
  beta  nocc = 38  HOMO = -0.271975475558486  LUMO = -0.089542939437039
cycle= 16 E= -800.476930999691  delta_E= -0.0512  |g|= 0.144  |ddm|= 0.275
  alpha nocc = 39  HOMO = -0.293270318253078  LUMO = -0.0712008797398235
  beta  nocc = 38  HOMO = -0.271764049175915  LUMO = -0.0882427848004119
cycle= 17 E= -800.525388969604  delta_E= -0.0485  |g|= 0.149  |ddm|= 0.292
  alpha nocc = 39  HOMO = -0.288233910297334  LUMO = -0.0836305858848533
  beta  nocc = 38  HOMO = -0.283655215461685  LUMO = -0.0896986500911757
cycle= 18 E= -800.453153254524  delta_E= 0.0722  |g|= 0.133  |ddm|= 0.653
  alpha nocc = 39  HOMO = -0.263626138515986  LUMO = -0.0801313732866951
  beta  nocc = 38  HOMO = -0.265989479842675  LUMO = -0.0742413183661286
cycle= 19 E= -800.501066362932  delta_E= -0.0479  |g|= 0.098  |ddm|= 0.427
  alpha nocc = 39  HOMO = -0.247892037883301  LUMO = -0.0657505671307984
  beta  nocc = 38  HOMO = -0.243088998913664  LUMO = -0.0762461671601466
cycle= 20 E= -800.553608202792  delta_E= -0.0525  |g|= 0.0802  |ddm|= 0.532
  alpha nocc = 39  HOMO = -0.241054726126931  LUMO = -0.0639650108735001
  beta  nocc = 38  HOMO = -0.247990177712013  LUMO = -0.0729977381125428
cycle= 21 E= -800.566893821396  delta_E= -0.0133  |g|= 0.0914  |ddm|= 0.21
  alpha nocc = 39  HOMO = -0.252303016915222  LUMO = -0.070998903831205
  beta  nocc = 38  HOMO = -0.258242756828835  LUMO = -0.0740270215795725
cycle= 22 E= -800.542019958114  delta_E= 0.0249  |g|= 0.087  |ddm|= 0.241
  alpha nocc = 39  HOMO = -0.297724024021946  LUMO = -0.0729844247579679
  beta  nocc = 38  HOMO = -0.257197515154804  LUMO = -0.0665494606478353
cycle= 23 E= -800.535061882056  delta_E= 0.00696  |g|= 0.0729  |ddm|= 0.336
  alpha nocc = 39  HOMO = -0.28772349903829  LUMO = -0.0708336618282529
  beta  nocc = 38  HOMO = -0.245481953700611  LUMO = -0.0643407479122274
cycle= 24 E= -800.55211235744  delta_E= -0.0171  |g|= 0.061  |ddm|= 0.237
  alpha nocc = 39  HOMO = -0.281069725222783  LUMO = -0.0671500985983547
  beta  nocc = 38  HOMO = -0.241375254203203  LUMO = -0.0627093121660695
cycle= 25 E= -800.55563209137  delta_E= -0.00352  |g|= 0.0499  |ddm|= 0.137
  alpha nocc = 39  HOMO = -0.281001814914752  LUMO = -0.0625999209243914
  beta  nocc = 38  HOMO = -0.237754420602353  LUMO = -0.0682772151024549
cycle= 26 E= -800.56494785388  delta_E= -0.00932  |g|= 0.0559  |ddm|= 0.171
  alpha nocc = 39  HOMO = -0.276827310409332  LUMO = -0.0712754259315706
  beta  nocc = 38  HOMO = -0.240976362080966  LUMO = -0.0669134575202118
cycle= 27 E= -800.556799020791  delta_E= 0.00815  |g|= 0.0503  |ddm|= 0.266
  alpha nocc = 39  HOMO = -0.275025000681735  LUMO = -0.0702895481849115
  beta  nocc = 38  HOMO = -0.235186598482105  LUMO = -0.0667516450096856
cycle= 28 E= -800.55577401598  delta_E= 0.00103  |g|= 0.048  |ddm|= 0.101
  alpha nocc = 39  HOMO = -0.277705068393174  LUMO = -0.0704754594126084
  beta  nocc = 38  HOMO = -0.235695588055926  LUMO = -0.0678137616974392
cycle= 29 E= -800.555479729385  delta_E= 0.000294  |g|= 0.0458  |ddm|= 0.0798
  alpha nocc = 39  HOMO = -0.278850920715596  LUMO = -0.0701880756451295
  beta  nocc = 38  HOMO = -0.235345372793114  LUMO = -0.0675114802282829
cycle= 30 E= -800.556020858619  delta_E= -0.000541  |g|= 0.0462  |ddm|= 0.0144
  alpha nocc = 39  HOMO = -0.268805652712628  LUMO = -0.0652372522900308
  beta  nocc = 38  HOMO = -0.242177493733099  LUMO = -0.0707287869661344
cycle= 31 E= -800.556290371657  delta_E= -0.00027  |g|= 0.0394  |ddm|= 0.232
  alpha nocc = 39  HOMO = -0.268736651562555  LUMO = -0.0623447157228544
  beta  nocc = 38  HOMO = -0.239968269759281  LUMO = -0.0720222581089907
cycle= 32 E= -800.560865753942  delta_E= -0.00458  |g|= 0.0405  |ddm|= 0.129
  alpha nocc = 39  HOMO = -0.26830810554706  LUMO = -0.0631308939676608
  beta  nocc = 38  HOMO = -0.240329393672801  LUMO = -0.0720270538641521
cycle= 33 E= -800.559368293045  delta_E= 0.0015  |g|= 0.0402  |ddm|= 0.0403
  alpha nocc = 39  HOMO = -0.267130712298421  LUMO = -0.0625378328947754
  beta  nocc = 38  HOMO = -0.241312552395682  LUMO = -0.0710661879070138
cycle= 34 E= -800.560910376919  delta_E= -0.00154  |g|= 0.0411  |ddm|= 0.0461
  alpha nocc = 39  HOMO = -0.271376757374034  LUMO = -0.0632509809830272
  beta  nocc = 38  HOMO = -0.244137026681931  LUMO = -0.0716422113917188
cycle= 35 E= -800.556795690871  delta_E= 0.00411  |g|= 0.0365  |ddm|= 0.131
  alpha nocc = 39  HOMO = -0.271563840786281  LUMO = -0.0638435628615537
  beta  nocc = 38  HOMO = -0.241639529345591  LUMO = -0.0695643537392724
cycle= 36 E= -800.557928802363  delta_E= -0.00113  |g|= 0.0363  |ddm|= 0.133
  alpha nocc = 39  HOMO = -0.272066543916497  LUMO = -0.0648374054027092
  beta  nocc = 38  HOMO = -0.241636857217083  LUMO = -0.0709606289762672
cycle= 37 E= -800.555587977185  delta_E= 0.00234  |g|= 0.0347  |ddm|= 0.0664
  alpha nocc = 39  HOMO = -0.273639826045864  LUMO = -0.0649736803131208
  beta  nocc = 38  HOMO = -0.240262627220024  LUMO = -0.0686686139173071
cycle= 38 E= -800.555611004806  delta_E= -2.3e-05  |g|= 0.0338  |ddm|= 0.0933
  alpha nocc = 39  HOMO = -0.272949333855245  LUMO = -0.065471824087885
  beta  nocc = 38  HOMO = -0.240893659444758  LUMO = -0.0685166831137595
cycle= 39 E= -800.555977391991  delta_E= -0.000366  |g|= 0.0346  |ddm|= 0.0313
  alpha nocc = 39  HOMO = -0.275441649683063  LUMO = -0.0660599690614454
  beta  nocc = 38  HOMO = -0.242194523151675  LUMO = -0.0701796789861945
cycle= 40 E= -800.552528272258  delta_E= 0.00345  |g|= 0.0311  |ddm|= 0.104
  alpha nocc = 39  HOMO = -0.278047188827538  LUMO = -0.0644779250829246
  beta  nocc = 38  HOMO = -0.237582790326089  LUMO = -0.0683608270944791
cycle= 41 E= -800.556608456343  delta_E= -0.00408  |g|= 0.032  |ddm|= 0.124
  alpha nocc = 39  HOMO = -0.279336555252732  LUMO = -0.0639110382272884
  beta  nocc = 38  HOMO = -0.236731953971027  LUMO = -0.0676329727517299
cycle= 42 E= -800.55828966474  delta_E= -0.00168  |g|= 0.0333  |ddm|= 0.0455
  alpha nocc = 39  HOMO = -0.277854210203708  LUMO = -0.0646713179745303
  beta  nocc = 38  HOMO = -0.239643172332887  LUMO = -0.0679086779905592
cycle= 43 E= -800.553509335396  delta_E= 0.00478  |g|= 0.0275  |ddm|= 0.138
  alpha nocc = 39  HOMO = -0.271069211548863  LUMO = -0.062407041976474
  beta  nocc = 38  HOMO = -0.237965311771436  LUMO = -0.0677148536041699
cycle= 44 E= -800.553093474082  delta_E= 0.000416  |g|= 0.0215  |ddm|= 0.193
  alpha nocc = 39  HOMO = -0.271701633299488  LUMO = -0.0587708215230929
  beta  nocc = 38  HOMO = -0.238147784479821  LUMO = -0.0683259341870969
cycle= 45 E= -800.555286207918  delta_E= -0.00219  |g|= 0.0213  |ddm|= 0.125
  alpha nocc = 39  HOMO = -0.270824877720773  LUMO = -0.0588255170101858
  beta  nocc = 38  HOMO = -0.23486421630827  LUMO = -0.0683314384884021
cycle= 46 E= -800.555378211032  delta_E= -9.2e-05  |g|= 0.0193  |ddm|= 0.0655
  alpha nocc = 39  HOMO = -0.269931060088958  LUMO = -0.0566341325310488
  beta  nocc = 38  HOMO = -0.23765578371925  LUMO = -0.0697385558823432
cycle= 47 E= -800.557526357243  delta_E= -0.00215  |g|= 0.0201  |ddm|= 0.102
  alpha nocc = 39  HOMO = -0.270258443880574  LUMO = -0.0567650410867416
  beta  nocc = 38  HOMO = -0.237823428418426  LUMO = -0.0699663716228714
cycle= 48 E= -800.556795624735  delta_E= 0.000731  |g|= 0.0198  |ddm|= 0.0371
  alpha nocc = 39  HOMO = -0.2703287312324  LUMO = -0.0564622877596736
  beta  nocc = 38  HOMO = -0.237030070481098  LUMO = -0.0707155796682827
cycle= 49 E= -800.556035055301  delta_E= 0.000761  |g|= 0.0199  |ddm|= 0.0724
  alpha nocc = 39  HOMO = -0.271070788825892  LUMO = -0.0581314974452269
  beta  nocc = 38  HOMO = -0.236810866095703  LUMO = -0.0700551448511309
cycle= 50 E= -800.554973313423  delta_E= 0.00106  |g|= 0.0182  |ddm|= 0.051
SCF not converged.
SCF energy = -800.554973313423 after 50 cycles  <S^2> = 2.5180039  2S+1 = 3.3274638
shift = 0
thresh = 1e-05 
eri1 (918, 1830)
eri1 (918, 1830)
    CPU time for making amplitude: integral transform      0.17 sec, wall time      0.01 sec
shape (918, 1260)
1st memory: 190.8 MiB
eri1 (918, 1830)
eri1 (918, 1830)
2nd memory: 179.0 MiB

========================
iter = 0  energy = -800.901785 energy diff = 800.901785
multiplicity <S^2> : Reference = 2.5180039 Response = 2.5193425 Projector = 2.520681
eri1 (918, 1830)
eri1 (918, 1830)
    CPU time for making amplitude: integral transform      0.16 sec, wall time      0.01 sec
shape (918, 1260)
1st memory: 198.7 MiB
eri1 (918, 1830)
eri1 (918, 1830)
2nd memory: 185.3 MiB

========================
iter = 1  energy = -800.906070 energy diff = 0.004285
multiplicity <S^2> : Reference = 2.5038295 Response = 2.5043367 Projector = 2.5048439
eri1 (918, 1830)
eri1 (918, 1830)
    CPU time for making amplitude: integral transform      0.19 sec, wall time      0.01 sec
shape (918, 1260)
1st memory: 198.9 MiB
eri1 (918, 1830)
eri1 (918, 1830)
2nd memory: 185.2 MiB

========================
iter = 2  energy = -800.924230 energy diff = 0.018161
multiplicity <S^2> : Reference = 2.4870373 Response = 2.4864847 Projector = 2.4859322
eri1 (918, 1830)
eri1 (918, 1830)
    CPU time for making amplitude: integral transform      0.18 sec, wall time      0.01 sec
shape (918, 1260)
1st memory: 198.9 MiB
eri1 (918, 1830)
eri1 (918, 1830)
2nd memory: 179.0 MiB

========================
iter = 3  energy = -800.933366 energy diff = 0.009136
multiplicity <S^2> : Reference = 2.489794 Response = 2.4898578 Projector = 2.4899216
eri1 (918, 1830)
eri1 (918, 1830)
    CPU time for making amplitude: integral transform      0.17 sec, wall time      0.01 sec
shape (918, 1260)
1st memory: 198.5 MiB
eri1 (918, 1830)
eri1 (918, 1830)
2nd memory: 177.8 MiB

========================
iter = 4  energy = -800.935504 energy diff = 0.002138
multiplicity <S^2> : Reference = 2.4994226 Response = 2.4996344 Projector = 2.4998462
eri1 (918, 1830)
eri1 (918, 1830)
    CPU time for making amplitude: integral transform      0.16 sec, wall time      0.01 sec
shape (918, 1260)
1st memory: 199.1 MiB
eri1 (918, 1830)
eri1 (918, 1830)
2nd memory: 179.0 MiB

========================
iter = 5  energy = -800.939910 energy diff = 0.004406
multiplicity <S^2> : Reference = 2.5742051 Response = 2.5741562 Projector = 2.5741073
eri1 (918, 1830)
eri1 (918, 1830)
    CPU time for making amplitude: integral transform      0.19 sec, wall time      0.01 sec
shape (918, 1260)
1st memory: 198.9 MiB
eri1 (918, 1830)
eri1 (918, 1830)
2nd memory: 178.1 MiB

========================
iter = 6  energy = -800.943062 energy diff = 0.003152
multiplicity <S^2> : Reference = 2.677417 Response = 2.6786977 Projector = 2.6799783
eri1 (918, 1830)
eri1 (918, 1830)
    CPU time for making amplitude: integral transform      0.19 sec, wall time      0.01 sec
shape (918, 1260)
1st memory: 199.0 MiB
eri1 (918, 1830)
eri1 (918, 1830)
2nd memory: 179.0 MiB

========================
iter = 7  energy = -800.942772 energy diff = 0.000291
multiplicity <S^2> : Reference = 2.6672045 Response = 2.6686771 Projector = 2.6701496
eri1 (918, 1830)
eri1 (918, 1830)
    CPU time for making amplitude: integral transform      0.20 sec, wall time      0.01 sec
shape (918, 1260)
1st memory: 198.7 MiB
eri1 (918, 1830)
eri1 (918, 1830)
2nd memory: 184.3 MiB

========================
iter = 8  energy = -800.942085 energy diff = 0.000686
multiplicity <S^2> : Reference = 2.6346468 Response = 2.6347936 Projector = 2.6349404
eri1 (918, 1830)
eri1 (918, 1830)
    CPU time for making amplitude: integral transform      0.19 sec, wall time      0.01 sec
shape (918, 1260)
1st memory: 199.2 MiB
eri1 (918, 1830)
eri1 (918, 1830)
2nd memory: 185.3 MiB

========================
iter = 9  energy = -800.941900 energy diff = 0.000185
multiplicity <S^2> : Reference = 2.6210424 Response = 2.6216783 Projector = 2.6223142
eri1 (918, 1830)
eri1 (918, 1830)
    CPU time for making amplitude: integral transform      0.16 sec, wall time      0.01 sec
shape (918, 1260)
1st memory: 198.9 MiB
eri1 (918, 1830)
eri1 (918, 1830)
2nd memory: 185.3 MiB

========================
iter = 10  energy = -800.942163 energy diff = 0.000263
multiplicity <S^2> : Reference = 2.6177451 Response = 2.6177655 Projector = 2.617786
eri1 (918, 1830)
eri1 (918, 1830)
    CPU time for making amplitude: integral transform      0.19 sec, wall time      0.01 sec
shape (918, 1260)
1st memory: 198.9 MiB
eri1 (918, 1830)
eri1 (918, 1830)
2nd memory: 185.3 MiB

========================
iter = 11  energy = -800.941895 energy diff = 0.000268
multiplicity <S^2> : Reference = 2.6115959 Response = 2.6116978 Projector = 2.6117998
eri1 (918, 1830)
eri1 (918, 1830)
    CPU time for making amplitude: integral transform      0.20 sec, wall time      0.01 sec
shape (918, 1260)
1st memory: 199.1 MiB
eri1 (918, 1830)
eri1 (918, 1830)
2nd memory: 177.4 MiB

========================
iter = 12  energy = -800.941491 energy diff = 0.000404
multiplicity <S^2> : Reference = 2.595436 Response = 2.5953785 Projector = 2.5953209
eri1 (918, 1830)
eri1 (918, 1830)
    CPU time for making amplitude: integral transform      0.16 sec, wall time      0.01 sec
shape (918, 1260)
1st memory: 198.8 MiB
eri1 (918, 1830)
eri1 (918, 1830)
2nd memory: 177.7 MiB

========================
iter = 13  energy = -800.936278 energy diff = 0.005212
multiplicity <S^2> : Reference = 2.498169 Response = 2.498176 Projector = 2.4981831
eri1 (918, 1830)
eri1 (918, 1830)
    CPU time for making amplitude: integral transform      0.16 sec, wall time      0.01 sec
shape (918, 1260)
1st memory: 198.7 MiB
eri1 (918, 1830)
eri1 (918, 1830)
2nd memory: 177.1 MiB

========================
iter = 14  energy = -800.928014 energy diff = 0.008264
multiplicity <S^2> : Reference = 2.5108831 Response = 2.510851 Projector = 2.5108188
eri1 (918, 1830)
eri1 (918, 1830)
    CPU time for making amplitude: integral transform      0.17 sec, wall time      0.01 sec
shape (918, 1260)
1st memory: 198.9 MiB
eri1 (918, 1830)
eri1 (918, 1830)
2nd memory: 179.5 MiB

========================
iter = 15  energy = -800.928287 energy diff = 0.000272
multiplicity <S^2> : Reference = 2.5137486 Response = 2.5139822 Projector = 2.5142158
eri1 (918, 1830)
eri1 (918, 1830)
    CPU time for making amplitude: integral transform      0.21 sec, wall time      0.01 sec
shape (918, 1260)
1st memory: 198.3 MiB
eri1 (918, 1830)
eri1 (918, 1830)
2nd memory: 178.5 MiB

========================
iter = 16  energy = -800.929199 energy diff = 0.000912
multiplicity <S^2> : Reference = 2.5494441 Response = 2.5498077 Projector = 2.5501713
eri1 (918, 1830)
eri1 (918, 1830)
    CPU time for making amplitude: integral transform      0.16 sec, wall time      0.01 sec
shape (918, 1260)
1st memory: 198.8 MiB
eri1 (918, 1830)
eri1 (918, 1830)
2nd memory: 185.3 MiB

========================
iter = 17  energy = -800.932238 energy diff = 0.003039
multiplicity <S^2> : Reference = 2.5736424 Response = 2.5736351 Projector = 2.5736277
eri1 (918, 1830)
eri1 (918, 1830)
    CPU time for making amplitude: integral transform      0.20 sec, wall time      0.01 sec
shape (918, 1260)
1st memory: 199.1 MiB
eri1 (918, 1830)
eri1 (918, 1830)
2nd memory: 177.7 MiB

========================
iter = 18  energy = -800.933953 energy diff = 0.001715
multiplicity <S^2> : Reference = 2.5798721 Response = 2.5797216 Projector = 2.5795711
eri1 (918, 1830)
eri1 (918, 1830)
    CPU time for making amplitude: integral transform      0.19 sec, wall time      0.01 sec
shape (918, 1260)
1st memory: 198.9 MiB
eri1 (918, 1830)
eri1 (918, 1830)
2nd memory: 185.3 MiB

========================
iter = 19  energy = -800.935653 energy diff = 0.001700
multiplicity <S^2> : Reference = 2.5867567 Response = 2.5862869 Projector = 2.5858171
eri1 (918, 1830)
eri1 (918, 1830)
    CPU time for making amplitude: integral transform      0.18 sec, wall time      0.01 sec
shape (918, 1260)
1st memory: 198.5 MiB
eri1 (918, 1830)
eri1 (918, 1830)
2nd memory: 176.9 MiB

========================
iter = 20  energy = -800.935425 energy diff = 0.000228
multiplicity <S^2> : Reference = 2.5853425 Response = 2.5852042 Projector = 2.585066
eri1 (918, 1830)
eri1 (918, 1830)
    CPU time for making amplitude: integral transform      0.20 sec, wall time      0.01 sec
shape (918, 1260)
1st memory: 198.9 MiB
eri1 (918, 1830)
eri1 (918, 1830)
2nd memory: 184.5 MiB

========================
iter = 21  energy = -800.935267 energy diff = 0.000157
multiplicity <S^2> : Reference = 2.5862671 Response = 2.5865796 Projector = 2.586892
eri1 (918, 1830)
eri1 (918, 1830)
    CPU time for making amplitude: integral transform      0.17 sec, wall time      0.01 sec
shape (918, 1260)
1st memory: 199.0 MiB
eri1 (918, 1830)
eri1 (918, 1830)
2nd memory: 177.8 MiB

========================
iter = 22  energy = -800.935072 energy diff = 0.000196
multiplicity <S^2> : Reference = 2.5868566 Response = 2.586921 Projector = 2.5869854
eri1 (918, 1830)
eri1 (918, 1830)
    CPU time for making amplitude: integral transform      0.18 sec, wall time      0.01 sec
shape (918, 1260)
1st memory: 206.7 MiB
eri1 (918, 1830)
eri1 (918, 1830)
2nd memory: 180.6 MiB

========================
iter = 23  energy = -800.934176 energy diff = 0.000896
multiplicity <S^2> : Reference = 2.5933597 Response = 2.5926469 Projector = 2.591934
eri1 (918, 1830)
eri1 (918, 1830)
    CPU time for making amplitude: integral transform      0.16 sec, wall time      0.01 sec
shape (918, 1260)
1st memory: 207.0 MiB
eri1 (918, 1830)
eri1 (918, 1830)
2nd memory: 175.0 MiB

========================
iter = 24  energy = -800.930143 energy diff = 0.004032
multiplicity <S^2> : Reference = 2.6057617 Response = 2.6059318 Projector = 2.6061018
eri1 (918, 1830)
eri1 (918, 1830)
    CPU time for making amplitude: integral transform      0.19 sec, wall time      0.01 sec
shape (918, 1260)
1st memory: 206.5 MiB
eri1 (918, 1830)
eri1 (918, 1830)
2nd memory: 181.1 MiB

========================
iter = 25  energy = -800.927677 energy diff = 0.002466
multiplicity <S^2> : Reference = 2.6354611 Response = 2.6357051 Projector = 2.6359491
eri1 (918, 1830)
eri1 (918, 1830)
    CPU time for making amplitude: integral transform      0.20 sec, wall time      0.01 sec
shape (918, 1260)
1st memory: 216.4 MiB
eri1 (918, 1830)
eri1 (918, 1830)
2nd memory: 176.2 MiB

========================
iter = 26  energy = -800.928060 energy diff = 0.000384
multiplicity <S^2> : Reference = 2.6362527 Response = 2.6365368 Projector = 2.6368208
eri1 (918, 1830)
eri1 (918, 1830)
    CPU time for making amplitude: integral transform      0.19 sec, wall time      0.01 sec
shape (918, 1260)
1st memory: 216.3 MiB
eri1 (918, 1830)
eri1 (918, 1830)
2nd memory: 187.4 MiB

========================
iter = 27  energy = -800.928062 energy diff = 0.000002
multiplicity <S^2> : Reference = 2.6354658 Response = 2.6357509 Projector = 2.6360361

UOB-MP2 has converged
UOB-MP2 energy =  -800.9280620177765
shift = 0
thresh = 1e-05 
eri1 (918, 1830)
eri1 (918, 1830)
    CPU time for making amplitude: integral transform      0.19 sec, wall time      0.01 sec
shape (918, 1260)
1st memory: 207.0 MiB
eri1 (918, 1830)
eri1 (918, 1830)
2nd memory: 187.9 MiB

========================
iter = 0  energy = -800.835350 energy diff = 800.835350
multiplicity <S^2> : Reference = 2.5180039 Response = 2.5193425 Projector = 2.520681
eri1 (918, 1830)
eri1 (918, 1830)
    CPU time for making amplitude: integral transform      0.18 sec, wall time      0.01 sec
shape (918, 1260)
1st memory: 216.0 MiB
eri1 (918, 1830)
eri1 (918, 1830)
2nd memory: 186.9 MiB

========================
iter = 1  energy = -800.839464 energy diff = 0.004113
multiplicity <S^2> : Reference = 2.4963101 Response = 2.496146 Projector = 2.4959819
eri1 (918, 1830)
eri1 (918, 1830)
    CPU time for making amplitude: integral transform      0.18 sec, wall time      0.01 sec
shape (918, 1260)
1st memory: 207.0 MiB
eri1 (918, 1830)
eri1 (918, 1830)
2nd memory: 187.9 MiB

========================
iter = 2  energy = -800.861082 energy diff = 0.021619
multiplicity <S^2> : Reference = 2.4754474 Response = 2.4754252 Projector = 2.475403
eri1 (918, 1830)
eri1 (918, 1830)
    CPU time for making amplitude: integral transform      0.19 sec, wall time      0.01 sec
shape (918, 1260)
1st memory: 216.1 MiB
eri1 (918, 1830)
eri1 (918, 1830)
2nd memory: 187.9 MiB

========================
iter = 3  energy = -800.863738 energy diff = 0.002656
multiplicity <S^2> : Reference = 2.4737983 Response = 2.4732421 Projector = 2.472686
eri1 (918, 1830)
eri1 (918, 1830)
    CPU time for making amplitude: integral transform      0.19 sec, wall time      0.01 sec
shape (918, 1260)
1st memory: 207.1 MiB
eri1 (918, 1830)
eri1 (918, 1830)
2nd memory: 181.6 MiB

========================
iter = 4  energy = -800.865010 energy diff = 0.001271
multiplicity <S^2> : Reference = 2.4832641 Response = 2.4824994 Projector = 2.4817348
eri1 (918, 1830)
eri1 (918, 1830)
    CPU time for making amplitude: integral transform      0.19 sec, wall time      0.01 sec
shape (918, 1260)
1st memory: 216.2 MiB
eri1 (918, 1830)
eri1 (918, 1830)
2nd memory: 175.9 MiB

========================
iter = 5  energy = -800.867283 energy diff = 0.002274
multiplicity <S^2> : Reference = 2.5216941 Response = 2.5218126 Projector = 2.521931
eri1 (918, 1830)
eri1 (918, 1830)
    CPU time for making amplitude: integral transform      0.16 sec, wall time      0.01 sec
shape (918, 1260)
1st memory: 216.2 MiB
eri1 (918, 1830)
eri1 (918, 1830)
2nd memory: 175.0 MiB

========================
iter = 6  energy = -800.864620 energy diff = 0.002664
multiplicity <S^2> : Reference = 2.4701275 Response = 2.4712688 Projector = 2.47241
eri1 (918, 1830)
eri1 (918, 1830)
    CPU time for making amplitude: integral transform      0.19 sec, wall time      0.01 sec
shape (918, 1260)
1st memory: 216.0 MiB
eri1 (918, 1830)
eri1 (918, 1830)
2nd memory: 175.3 MiB

========================
iter = 7  energy = -800.863089 energy diff = 0.001531
multiplicity <S^2> : Reference = 2.4506856 Response = 2.4504681 Projector = 2.4502506
eri1 (918, 1830)
eri1 (918, 1830)
    CPU time for making amplitude: integral transform      0.17 sec, wall time      0.01 sec
shape (918, 1260)
1st memory: 215.5 MiB
eri1 (918, 1830)
eri1 (918, 1830)
2nd memory: 174.4 MiB

========================
iter = 8  energy = -800.863491 energy diff = 0.000402
multiplicity <S^2> : Reference = 2.4673337 Response = 2.4672319 Projector = 2.4671301
eri1 (918, 1830)
eri1 (918, 1830)
    CPU time for making amplitude: integral transform      0.18 sec, wall time      0.01 sec
shape (918, 1260)
1st memory: 215.6 MiB
eri1 (918, 1830)
eri1 (918, 1830)
2nd memory: 174.5 MiB

========================
iter = 9  energy = -800.865662 energy diff = 0.002171
multiplicity <S^2> : Reference = 2.4874471 Response = 2.4865625 Projector = 2.4856779
eri1 (918, 1830)
eri1 (918, 1830)
    CPU time for making amplitude: integral transform      0.18 sec, wall time      0.01 sec
shape (918, 1260)
1st memory: 215.9 MiB
eri1 (918, 1830)
eri1 (918, 1830)
2nd memory: 175.2 MiB

========================
iter = 10  energy = -800.865808 energy diff = 0.000146
multiplicity <S^2> : Reference = 2.4921259 Response = 2.4915774 Projector = 2.4910289
eri1 (918, 1830)
eri1 (918, 1830)
    CPU time for making amplitude: integral transform      0.18 sec, wall time      0.01 sec
shape (918, 1260)
1st memory: 215.8 MiB
eri1 (918, 1830)
eri1 (918, 1830)
2nd memory: 175.3 MiB

========================
iter = 11  energy = -800.866592 energy diff = 0.000784
multiplicity <S^2> : Reference = 2.5108 Response = 2.5100987 Projector = 2.5093975
eri1 (918, 1830)
eri1 (918, 1830)
    CPU time for making amplitude: integral transform      0.18 sec, wall time      0.01 sec
shape (918, 1260)
1st memory: 216.1 MiB
eri1 (918, 1830)
eri1 (918, 1830)
2nd memory: 175.5 MiB

========================
iter = 12  energy = -800.866754 energy diff = 0.000162
multiplicity <S^2> : Reference = 2.5130718 Response = 2.5129249 Projector = 2.5127781
eri1 (918, 1830)
eri1 (918, 1830)
    CPU time for making amplitude: integral transform      0.19 sec, wall time      0.01 sec
shape (918, 1260)
1st memory: 215.7 MiB
eri1 (918, 1830)
eri1 (918, 1830)
2nd memory: 174.7 MiB

========================
iter = 13  energy = -800.866611 energy diff = 0.000144
multiplicity <S^2> : Reference = 2.5124976 Response = 2.5127185 Projector = 2.5129395
eri1 (918, 1830)
eri1 (918, 1830)
    CPU time for making amplitude: integral transform      0.22 sec, wall time      0.01 sec
shape (918, 1260)
1st memory: 215.6 MiB
eri1 (918, 1830)
eri1 (918, 1830)
2nd memory: 174.6 MiB

========================
iter = 14  energy = -800.866349 energy diff = 0.000261
multiplicity <S^2> : Reference = 2.5238142 Response = 2.5232909 Projector = 2.5227675
eri1 (918, 1830)
eri1 (918, 1830)
    CPU time for making amplitude: integral transform      0.19 sec, wall time      0.01 sec
shape (918, 1260)
1st memory: 216.0 MiB
eri1 (918, 1830)
eri1 (918, 1830)
2nd memory: 175.5 MiB

========================
iter = 15  energy = -800.866261 energy diff = 0.000088
multiplicity <S^2> : Reference = 2.5717257 Response = 2.5719584 Projector = 2.5721911
eri1 (918, 1830)
eri1 (918, 1830)
    CPU time for making amplitude: integral transform      0.17 sec, wall time      0.01 sec
shape (918, 1260)
1st memory: 216.0 MiB
eri1 (918, 1830)
eri1 (918, 1830)
2nd memory: 175.3 MiB

========================
iter = 16  energy = -800.867119 energy diff = 0.000858
multiplicity <S^2> : Reference = 2.6191729 Response = 2.6191102 Projector = 2.6190475
eri1 (918, 1830)
eri1 (918, 1830)
    CPU time for making amplitude: integral transform      0.17 sec, wall time      0.01 sec
shape (918, 1260)
1st memory: 215.6 MiB
eri1 (918, 1830)
eri1 (918, 1830)
2nd memory: 175.1 MiB

========================
iter = 17  energy = -800.867670 energy diff = 0.000550
multiplicity <S^2> : Reference = 2.6448059 Response = 2.6450575 Projector = 2.6453091
eri1 (918, 1830)
eri1 (918, 1830)
    CPU time for making amplitude: integral transform      0.19 sec, wall time      0.01 sec
shape (918, 1260)
1st memory: 215.7 MiB
eri1 (918, 1830)
eri1 (918, 1830)
2nd memory: 175.0 MiB

========================
iter = 18  energy = -800.867752 energy diff = 0.000082
multiplicity <S^2> : Reference = 2.6482982 Response = 2.6483788 Projector = 2.6484594
eri1 (918, 1830)
eri1 (918, 1830)
    CPU time for making amplitude: integral transform      0.19 sec, wall time      0.01 sec
shape (918, 1260)
1st memory: 215.9 MiB
eri1 (918, 1830)
eri1 (918, 1830)
2nd memory: 174.8 MiB

========================
iter = 19  energy = -800.867671 energy diff = 0.000081
multiplicity <S^2> : Reference = 2.6485572 Response = 2.6487882 Projector = 2.6490193
eri1 (918, 1830)
eri1 (918, 1830)
    CPU time for making amplitude: integral transform      0.18 sec, wall time      0.01 sec
shape (918, 1260)
1st memory: 215.9 MiB
eri1 (918, 1830)
eri1 (918, 1830)
2nd memory: 174.9 MiB

========================
iter = 20  energy = -800.866769 energy diff = 0.000902
multiplicity <S^2> : Reference = 2.6647364 Response = 2.665315 Projector = 2.6658937
eri1 (918, 1830)
eri1 (918, 1830)
    CPU time for making amplitude: integral transform      0.19 sec, wall time      0.01 sec
shape (918, 1260)
1st memory: 223.2 MiB
eri1 (918, 1830)
eri1 (918, 1830)
2nd memory: 175.5 MiB

========================
iter = 21  energy = -800.866381 energy diff = 0.000388
multiplicity <S^2> : Reference = 2.6919107 Response = 2.6918538 Projector = 2.6917968
eri1 (918, 1830)
eri1 (918, 1830)
    CPU time for making amplitude: integral transform      0.18 sec, wall time      0.01 sec
shape (918, 1260)
1st memory: 216.0 MiB
eri1 (918, 1830)
eri1 (918, 1830)
2nd memory: 175.4 MiB

========================
iter = 22  energy = -800.866228 energy diff = 0.000153
multiplicity <S^2> : Reference = 2.7021969 Response = 2.7021804 Projector = 2.7021639
eri1 (918, 1830)
eri1 (918, 1830)
    CPU time for making amplitude: integral transform      0.17 sec, wall time      0.01 sec
shape (918, 1260)
1st memory: 216.2 MiB
eri1 (918, 1830)
eri1 (918, 1830)
2nd memory: 175.3 MiB

========================
iter = 23  energy = -800.866351 energy diff = 0.000123
multiplicity <S^2> : Reference = 2.7024265 Response = 2.7024994 Projector = 2.7025724
eri1 (918, 1830)
eri1 (918, 1830)
    CPU time for making amplitude: integral transform      0.18 sec, wall time      0.01 sec
shape (918, 1260)
1st memory: 216.3 MiB
eri1 (918, 1830)
eri1 (918, 1830)
2nd memory: 175.9 MiB

========================
iter = 24  energy = -800.865953 energy diff = 0.000398
multiplicity <S^2> : Reference = 2.7116148 Response = 2.7112868 Projector = 2.7109587
eri1 (918, 1830)
eri1 (918, 1830)
    CPU time for making amplitude: integral transform      0.18 sec, wall time      0.01 sec
shape (918, 1260)
1st memory: 215.9 MiB
eri1 (918, 1830)
eri1 (918, 1830)
2nd memory: 175.9 MiB

========================
iter = 25  energy = -800.865973 energy diff = 0.000020
multiplicity <S^2> : Reference = 2.7106569 Response = 2.7104418 Projector = 2.7102267
eri1 (918, 1830)
eri1 (918, 1830)
    CPU time for making amplitude: integral transform      0.19 sec, wall time      0.01 sec
shape (918, 1260)
1st memory: 216.2 MiB
eri1 (918, 1830)
eri1 (918, 1830)
2nd memory: 175.9 MiB

========================
iter = 26  energy = -800.866033 energy diff = 0.000059
multiplicity <S^2> : Reference = 2.7102045 Response = 2.7098799 Projector = 2.7095554
eri1 (918, 1830)
eri1 (918, 1830)
    CPU time for making amplitude: integral transform      0.16 sec, wall time      0.01 sec
shape (918, 1260)
1st memory: 216.0 MiB
eri1 (918, 1830)
eri1 (918, 1830)
2nd memory: 175.1 MiB

========================
iter = 27  energy = -800.866310 energy diff = 0.000278
multiplicity <S^2> : Reference = 2.7086675 Response = 2.708698 Projector = 2.7087285
eri1 (918, 1830)
eri1 (918, 1830)
    CPU time for making amplitude: integral transform      0.18 sec, wall time      0.01 sec
shape (918, 1260)
1st memory: 216.1 MiB
eri1 (918, 1830)
eri1 (918, 1830)
2nd memory: 174.8 MiB

========================
iter = 28  energy = -800.866557 energy diff = 0.000247
multiplicity <S^2> : Reference = 2.7099154 Response = 2.7098116 Projector = 2.7097079
eri1 (918, 1830)
eri1 (918, 1830)
    CPU time for making amplitude: integral transform      0.19 sec, wall time      0.01 sec
shape (918, 1260)
1st memory: 215.5 MiB
eri1 (918, 1830)
eri1 (918, 1830)
2nd memory: 174.7 MiB

========================
iter = 29  energy = -800.866655 energy diff = 0.000098
multiplicity <S^2> : Reference = 2.7091892 Response = 2.709086 Projector = 2.7089828
eri1 (918, 1830)
eri1 (918, 1830)
    CPU time for making amplitude: integral transform      0.18 sec, wall time      0.01 sec
shape (918, 1260)
1st memory: 216.0 MiB
eri1 (918, 1830)
eri1 (918, 1830)
2nd memory: 175.0 MiB

========================
iter = 30  energy = -800.866413 energy diff = 0.000242
multiplicity <S^2> : Reference = 2.7106662 Response = 2.7105609 Projector = 2.7104555
eri1 (918, 1830)
eri1 (918, 1830)
    CPU time for making amplitude: integral transform      0.19 sec, wall time      0.01 sec
shape (918, 1260)
1st memory: 223.5 MiB
eri1 (918, 1830)
eri1 (918, 1830)
2nd memory: 175.9 MiB

========================
iter = 31  energy = -800.865972 energy diff = 0.000441
multiplicity <S^2> : Reference = 2.7128956 Response = 2.7129316 Projector = 2.7129675
eri1 (918, 1830)
eri1 (918, 1830)
    CPU time for making amplitude: integral transform      0.18 sec, wall time      0.01 sec
shape (918, 1260)
1st memory: 216.0 MiB
eri1 (918, 1830)
eri1 (918, 1830)
2nd memory: 175.0 MiB

========================
iter = 32  energy = -800.865421 energy diff = 0.000551
multiplicity <S^2> : Reference = 2.7231451 Response = 2.7231662 Projector = 2.7231874
eri1 (918, 1830)
eri1 (918, 1830)
    CPU time for making amplitude: integral transform      0.19 sec, wall time      0.01 sec
shape (918, 1260)
1st memory: 215.9 MiB
eri1 (918, 1830)
eri1 (918, 1830)
2nd memory: 174.9 MiB

========================
iter = 33  energy = -800.865430 energy diff = 0.000008
multiplicity <S^2> : Reference = 2.7248316 Response = 2.7245582 Projector = 2.7242847

UOB-MP2 has converged
UOB-MP2 energy =  -800.8654297604703


******** <class 'pyscf.scf.uhf.UHF'> ********
method = UHF
initial guess = minao
damping factor = 0
level_shift factor = 0
DIIS = <class 'pyscf.scf.diis.CDIIS'>
diis_start_cycle = 1
diis_space = 8
SCF conv_tol = 1e-09
SCF conv_tol_grad = None
SCF max_cycles = 50
direct_scf = True
direct_scf_tol = 1e-13
chkfile to save SCF result = /home/ltkoanh/Al_B2LYP_6311_Gd_Cluster/Cluster/Al12-cation-doublet/tmp9yimc7rg
max_memory 4000 MB (current use 175 MB)
number electrons alpha = 39  beta = 38
Set gradient conv threshold to 3.16228e-05
init E= -798.550717131925
  alpha nocc = 39  HOMO = -0.284502858522586  LUMO = -0.250140355475479
  beta  nocc = 38  HOMO = -0.300997270709115  LUMO = -0.284502858522586

WARN: system HOMO -0.284502858522586 >= system LUMO -0.284502858522586

cycle= 1 E= -798.574129043494  delta_E= -0.0234  |g|= 0.776  |ddm|= 2.46
  alpha nocc = 39  HOMO = -0.114923982181766  LUMO = -0.0696644947694176
  beta  nocc = 38  HOMO = -0.101553097539762  LUMO = -0.0648374454576988
cycle= 2 E= -777.641038087849  delta_E= 20.9  |g|= 2.51  |ddm|= 5.42
  alpha nocc = 39  HOMO = -0.160748266975991  LUMO = -0.055298595981728
  beta  nocc = 38  HOMO = -0.146154897662  LUMO = -0.0433227372983652
cycle= 3 E= -791.87547607101  delta_E= -14.2  |g|= 1.65  |ddm|= 3.71
  alpha nocc = 39  HOMO = -0.217198479914826  LUMO = -0.161864773428052
  beta  nocc = 38  HOMO = -0.206823588972839  LUMO = -0.153583604631669
cycle= 4 E= -799.435906341941  delta_E= -7.56  |g|= 0.568  |ddm|= 3.54
  alpha nocc = 39  HOMO = -0.171798544960108  LUMO = -0.156319059064683
  beta  nocc = 38  HOMO = -0.172708397787971  LUMO = -0.152899496140618
cycle= 5 E= -799.794167420951  delta_E= -0.358  |g|= 0.776  |ddm|= 2.01
  alpha nocc = 39  HOMO = -0.204326761413246  LUMO = -0.146447621601661
  beta  nocc = 38  HOMO = -0.202385042585668  LUMO = -0.135709124262288
cycle= 6 E= -798.340150363084  delta_E= 1.45  |g|= 1.56  |ddm|= 1.06
  alpha nocc = 39  HOMO = -0.232331761091683  LUMO = -0.148806943321021
  beta  nocc = 38  HOMO = -0.225320216008521  LUMO = -0.137280027632869
cycle= 7 E= -799.183823983707  delta_E= -0.844  |g|= 1.21  |ddm|= 0.527
  alpha nocc = 39  HOMO = -0.185253394766853  LUMO = -0.136992756651154
  beta  nocc = 38  HOMO = -0.185584659772229  LUMO = -0.125915933359239
cycle= 8 E= -798.390908191789  delta_E= 0.793  |g|= 1.53  |ddm|= 0.53
  alpha nocc = 39  HOMO = -0.183891385016393  LUMO = -0.135329047835173
  beta  nocc = 38  HOMO = -0.184213795425679  LUMO = -0.125196875686709
cycle= 9 E= -798.370739670191  delta_E= 0.0202  |g|= 1.54  |ddm|= 0.0539
  alpha nocc = 39  HOMO = -0.198705038563762  LUMO = -0.129472242960877
  beta  nocc = 38  HOMO = -0.198148196922591  LUMO = -0.119631364565399
cycle= 10 E= -798.683673877733  delta_E= -0.313  |g|=  1.4  |ddm|= 0.213
  alpha nocc = 39  HOMO = -0.202222441036013  LUMO = -0.125972813364306
  beta  nocc = 38  HOMO = -0.206017863265792  LUMO = -0.120000343269087
cycle= 11 E= -798.837667384724  delta_E= -0.154  |g|= 1.42  |ddm|= 0.434
  alpha nocc = 39  HOMO = -0.235080029173887  LUMO = -0.110339627953057
  beta  nocc = 38  HOMO = -0.230420787980105  LUMO = -0.111749538856604
cycle= 12 E= -799.671520000428  delta_E= -0.834  |g|= 0.908  |ddm|= 0.576
  alpha nocc = 39  HOMO = -0.291770116980694  LUMO = -0.0716538880068952
  beta  nocc = 38  HOMO = -0.267741045463636  LUMO = -0.0914244004047546
cycle= 13 E= -800.245297574787  delta_E= -0.574  |g|= 0.27  |ddm|= 1.31
  alpha nocc = 39  HOMO = -0.295942268328675  LUMO = -0.0839463398946797
  beta  nocc = 38  HOMO = -0.280453846471092  LUMO = -0.0886928505459213
cycle= 14 E= -800.370810181894  delta_E= -0.126  |g|= 0.154  |ddm|= 0.617
  alpha nocc = 39  HOMO = -0.288612945672844  LUMO = -0.0811863393429531
  beta  nocc = 38  HOMO = -0.272515693454501  LUMO = -0.0910297862931153
cycle= 15 E= -800.425343164497  delta_E= -0.0545  |g|= 0.145  |ddm|= 0.316
  alpha nocc = 39  HOMO = -0.289247284532261  LUMO = -0.0747155570374722
  beta  nocc = 38  HOMO = -0.272651741839029  LUMO = -0.0892346383899159
cycle= 16 E= -800.472208884195  delta_E= -0.0469  |g|= 0.143  |ddm|= 0.254
  alpha nocc = 39  HOMO = -0.294425426753982  LUMO = -0.0708875730924904
  beta  nocc = 38  HOMO = -0.273305239472373  LUMO = -0.0881747353697088
cycle= 17 E= -800.519007929  delta_E= -0.0468  |g|= 0.15  |ddm|= 0.289
  alpha nocc = 39  HOMO = -0.290906964231645  LUMO = -0.0853105046394885
  beta  nocc = 38  HOMO = -0.285733043712004  LUMO = -0.0925010119227318
cycle= 18 E= -800.452153170368  delta_E= 0.0669  |g|= 0.133  |ddm|= 0.66
  alpha nocc = 39  HOMO = -0.269808232334918  LUMO = -0.0828577057457591
  beta  nocc = 38  HOMO = -0.266041262420783  LUMO = -0.0769112252549823
cycle= 19 E= -800.497642345475  delta_E= -0.0455  |g|= 0.102  |ddm|= 0.419
  alpha nocc = 39  HOMO = -0.251690476797013  LUMO = -0.0712069304893022
  beta  nocc = 38  HOMO = -0.244432641154789  LUMO = -0.0732855072355445
cycle= 20 E= -800.549515119602  delta_E= -0.0519  |g|= 0.0754  |ddm|= 0.522
  alpha nocc = 39  HOMO = -0.2454208479313  LUMO = -0.0644482844957126
  beta  nocc = 38  HOMO = -0.24645292969456  LUMO = -0.0721078598358548
cycle= 21 E= -800.568015810529  delta_E= -0.0185  |g|= 0.089  |ddm|= 0.213
  alpha nocc = 39  HOMO = -0.255959472824096  LUMO = -0.07095737747833
  beta  nocc = 38  HOMO = -0.255472446506315  LUMO = -0.0744163271557977
cycle= 22 E= -800.545134326698  delta_E= 0.0229  |g|= 0.0848  |ddm|= 0.227
  alpha nocc = 39  HOMO = -0.292708094163787  LUMO = -0.0721474174272072
  beta  nocc = 38  HOMO = -0.253523784269428  LUMO = -0.0668390852390001
cycle= 23 E= -800.540590745045  delta_E= 0.00454  |g|= 0.0608  |ddm|= 0.285
  alpha nocc = 39  HOMO = -0.284626248216647  LUMO = -0.0690961129758849
  beta  nocc = 38  HOMO = -0.24103681694391  LUMO = -0.0644905454570507
cycle= 24 E= -800.558099720724  delta_E= -0.0175  |g|= 0.0544  |ddm|= 0.262
  alpha nocc = 39  HOMO = -0.280581344524759  LUMO = -0.0663619738218799
  beta  nocc = 38  HOMO = -0.238015099317436  LUMO = -0.0628194843930713
cycle= 25 E= -800.560979704172  delta_E= -0.00288  |g|= 0.0493  |ddm|= 0.0974
  alpha nocc = 39  HOMO = -0.282149093640104  LUMO = -0.0637904136117074
  beta  nocc = 38  HOMO = -0.235439575575446  LUMO = -0.065195575966223
cycle= 26 E= -800.56674340166  delta_E= -0.00576  |g|= 0.0537  |ddm|= 0.123
  alpha nocc = 39  HOMO = -0.277047822174299  LUMO = -0.0703821698232744
  beta  nocc = 38  HOMO = -0.238549030542079  LUMO = -0.0633294062321594
cycle= 27 E= -800.563338919286  delta_E= 0.0034  |g|= 0.0506  |ddm|= 0.235
  alpha nocc = 39  HOMO = -0.276307523066908  LUMO = -0.0721675139089116
  beta  nocc = 38  HOMO = -0.234580255784732  LUMO = -0.0664887274441761
cycle= 28 E= -800.56068412545  delta_E= 0.00265  |g|= 0.049  |ddm|= 0.0818
  alpha nocc = 39  HOMO = -0.279251924095245  LUMO = -0.0726099040275137
  beta  nocc = 38  HOMO = -0.23671842458763  LUMO = -0.0654685490642563
cycle= 29 E= -800.560295283106  delta_E= 0.000389  |g|= 0.0501  |ddm|= 0.039
  alpha nocc = 39  HOMO = -0.278015762077538  LUMO = -0.069949663313491
  beta  nocc = 38  HOMO = -0.24068253969238  LUMO = -0.0699800027988363
cycle= 30 E= -800.555043408511  delta_E= 0.00525  |g|= 0.0437  |ddm|= 0.15
  alpha nocc = 39  HOMO = -0.267573486080242  LUMO = -0.060168547689221
  beta  nocc = 38  HOMO = -0.237692088259537  LUMO = -0.0704434873028232
cycle= 31 E= -800.559334456921  delta_E= -0.00429  |g|= 0.0398  |ddm|= 0.289
  alpha nocc = 39  HOMO = -0.269608526648524  LUMO = -0.0589796815266908
  beta  nocc = 38  HOMO = -0.23880529118881  LUMO = -0.0693990177007113
cycle= 32 E= -800.559274235342  delta_E= 6.02e-05  |g|= 0.0388  |ddm|= 0.0302
  alpha nocc = 39  HOMO = -0.271925991130147  LUMO = -0.0607650960707361
  beta  nocc = 38  HOMO = -0.237601778645951  LUMO = -0.0706213683099961
cycle= 33 E= -800.559956333588  delta_E= -0.000682  |g|= 0.0371  |ddm|= 0.102
  alpha nocc = 39  HOMO = -0.271800955050124  LUMO = -0.060594045352214
  beta  nocc = 38  HOMO = -0.237550645419536  LUMO = -0.0706011237550984
cycle= 34 E= -800.560238587979  delta_E= -0.000282  |g|= 0.0372  |ddm|= 0.0117
  alpha nocc = 39  HOMO = -0.273545217198717  LUMO = -0.0623907641513374
  beta  nocc = 38  HOMO = -0.239189661741399  LUMO = -0.0704511176439289
cycle= 35 E= -800.55736339269  delta_E= 0.00288  |g|= 0.0348  |ddm|= 0.122
  alpha nocc = 39  HOMO = -0.269650521556977  LUMO = -0.0614146618616267
  beta  nocc = 38  HOMO = -0.237583342209143  LUMO = -0.0685241179707483
cycle= 36 E= -800.562353925694  delta_E= -0.00499  |g|= 0.0384  |ddm|= 0.127
  alpha nocc = 39  HOMO = -0.274463023466114  LUMO = -0.0636712764175745
  beta  nocc = 38  HOMO = -0.238563816343824  LUMO = -0.0711890100330534
cycle= 37 E= -800.556540382969  delta_E= 0.00581  |g|= 0.0317  |ddm|= 0.137
  alpha nocc = 39  HOMO = -0.279529589609757  LUMO = -0.0619002643509263
  beta  nocc = 38  HOMO = -0.23843602936959  LUMO = -0.0712521187670421
cycle= 38 E= -800.556138181423  delta_E= 0.000402  |g|= 0.03  |ddm|= 0.113
  alpha nocc = 39  HOMO = -0.279407967621289  LUMO = -0.0607553691786883
  beta  nocc = 38  HOMO = -0.238569641359868  LUMO = -0.0723074356457924
cycle= 39 E= -800.55735833993  delta_E= -0.00122  |g|= 0.0316  |ddm|= 0.0482
  alpha nocc = 39  HOMO = -0.282122442873688  LUMO = -0.063627643555982
  beta  nocc = 38  HOMO = -0.240533635999811  LUMO = -0.0692991829215025
cycle= 40 E= -800.555063392654  delta_E= 0.00229  |g|= 0.0289  |ddm|= 0.116
  alpha nocc = 39  HOMO = -0.282788087637136  LUMO = -0.0637699613082995
  beta  nocc = 38  HOMO = -0.240460809527392  LUMO = -0.0688937605055588
cycle= 41 E= -800.555216200617  delta_E= -0.000153  |g|= 0.0297  |ddm|= 0.0205
  alpha nocc = 39  HOMO = -0.28162114625075  LUMO = -0.0625491156852502
  beta  nocc = 38  HOMO = -0.241846538226135  LUMO = -0.0679642638965096
cycle= 42 E= -800.554473351906  delta_E= 0.000743  |g|= 0.027  |ddm|= 0.0773
  alpha nocc = 39  HOMO = -0.280967319750331  LUMO = -0.0623171004291824
  beta  nocc = 38  HOMO = -0.242861690619334  LUMO = -0.0706713223192925
cycle= 43 E= -800.555075849739  delta_E= -0.000602  |g|= 0.0258  |ddm|= 0.0745
  alpha nocc = 39  HOMO = -0.280989214236452  LUMO = -0.0592570765671766
  beta  nocc = 38  HOMO = -0.245148502632749  LUMO = -0.0702989821608059
cycle= 44 E= -800.556258186571  delta_E= -0.00118  |g|= 0.0216  |ddm|= 0.153
  alpha nocc = 39  HOMO = -0.280909067341136  LUMO = -0.0574233956872263
  beta  nocc = 38  HOMO = -0.24469484751873  LUMO = -0.0742994260672525
cycle= 45 E= -800.559159923228  delta_E= -0.0029  |g|= 0.0204  |ddm|= 0.125
  alpha nocc = 39  HOMO = -0.281823423293311  LUMO = -0.0565872006283118
  beta  nocc = 38  HOMO = -0.247258416425529  LUMO = -0.075350394008609
cycle= 46 E= -800.56207357856  delta_E= -0.00291  |g|= 0.021  |ddm|= 0.117
  alpha nocc = 39  HOMO = -0.281303454815305  LUMO = -0.0578033809118601
  beta  nocc = 38  HOMO = -0.246667935290895  LUMO = -0.0742259105700482
cycle= 47 E= -800.559115580355  delta_E= 0.00296  |g|= 0.0192  |ddm|= 0.121
  alpha nocc = 39  HOMO = -0.280546641251292  LUMO = -0.0564445386902324
  beta  nocc = 38  HOMO = -0.245448057287959  LUMO = -0.0773407254488357
cycle= 48 E= -800.55920396103  delta_E= -8.84e-05  |g|= 0.019  |ddm|= 0.057
  alpha nocc = 39  HOMO = -0.281469100482632  LUMO = -0.0563249636553891
  beta  nocc = 38  HOMO = -0.246480425441897  LUMO = -0.0778510768989701
cycle= 49 E= -800.559782958732  delta_E= -0.000579  |g|= 0.0197  |ddm|= 0.0292
  alpha nocc = 39  HOMO = -0.279463014113512  LUMO = -0.0557516261056525
  beta  nocc = 38  HOMO = -0.244340638021458  LUMO = -0.077440811400963
cycle= 50 E= -800.559415179627  delta_E= 0.000368  |g|= 0.0186  |ddm|= 0.0582
SCF not converged.
SCF energy = -800.559415179627 after 50 cycles  <S^2> = 2.6191441  2S+1 = 3.3877096
