#INFO: **** input file is /home/ltkoanh/Al_B2LYP_6311_Gd_Cluster/Cluster/Al12-cation-doublet/input.py ****
import numpy
from pyscf import gto, scf, dft, mp, cc
from pyscf.mp import uobmp2_mom_conv, dfuobmp2_mom_conv, uhf_mom
from pyscf.mp import  mp2, ump2
from pyscf.tools import molden
import os
from functools import reduce


mol = gto.Mole()
geom = os.environ.get('geom_txt')
mol.atom = geom
mol.basis = os.environ.get('basis', 'cc-pvdz')
mol.unit = 'A'
mol.charge = int(os.environ.get('charge', 0))
mol.spin = int(os.environ.get('spin', 0))
mol.verbose = 4
mol.build()

#################### Ground state using density fitting
### Hartree-Fock
a  = scf.UHF(mol).density_fit()
a.kernel()

### Ground state OBMP2 calculation
ob = dfuobmp2_mom_conv.DFUOBMP2(a)
ob.second_order = True
ob.thresh = 10e-6
ob.css = 1
ob.cos = 1
e_obmp2g = ob.kernel()

### Ground state O2BMP2 calculation
ob = dfuobmp2_mom_conv.DFUOBMP2(a)
ob.second_order = True
ob.thresh = 10e-6
ob.css = 0                             
ob.cos = 1.2                             
e_o2bmp2g = ob.kernel()  

#################### Ground state NOT using density fitting
### Hartree-Fock
a  = scf.UHF(mol)
a.kernel()

### Ground state OBMP2 calculation
ob = uobmp2_mom_conv.UOBMP2(a)
ob.second_order = True
ob.thresh = 10e-6
ob.css = 1
ob.cos = 1
#e_obmp2g = ob.kernel()

### Ground state O2BMP2 calculation
ob = uobmp2_mom_conv.UOBMP2(a)
ob.second_order = True
ob.thresh = 10e-6
ob.css = 0
ob.cos = 1.2   ## the cos can be vary ...                        	 
#e_o2bmp2g = ob.kernel()


## Results from density-fitting approximate with non-using density fitting 
## check results between df and non-df with small molecules before running the important molecules
#INFO: ******************** input file end ********************


System: uname_result(system='Linux', node='comphys', release='3.10.0-1160.119.1.el7.x86_64', version='#1 SMP Tue Jun 4 14:43:51 UTC 2024', machine='x86_64', processor='x86_64')  Threads 8
Python 3.7.9 (default, Dec  4 2023, 13:00:18) 
[GCC 4.8.5 20150623 (Red Hat 4.8.5-44)]
numpy 1.21.6  scipy 1.7.3
Date: Mon May 19 17:25:59 2025
PySCF version 1.7.0
PySCF path  /share/installs/pyscf/pyscf
GIT HEAD      ref: refs/heads/ob-mp2
GIT ob-mp2 branch  f0fc63383ab6c719c0c91f5e07a6895c637b700d

[CONFIG] conf_file None
[INPUT] verbose = 4
[INPUT] num. atoms = 12
[INPUT] num. electrons = 77
[INPUT] charge = 1
[INPUT] spin (= nelec alpha-beta = 2S) = 1
[INPUT] symmetry False subgroup None
[INPUT] Mole.unit = A
[INPUT]  1 H      1.682138000000   0.222000000000   2.190164000000 AA    3.178780123724   0.419519199653   4.138810127882 Bohr
[INPUT]  2 He     3.067669000000   0.325046000000   0.000000000000 AA    5.797054250818   0.614247917885   0.000000000000 Bohr
[INPUT]  3 Li    -0.395303000000  -1.361044000000   2.216190000000 AA   -0.747014406219  -2.572000403483   4.187992140000 Bohr
[INPUT]  4 Be    -2.264398000000   0.496317000000   1.339750000000 AA   -4.279092057013   0.937903200966   2.531760575386 Bohr
[INPUT]  5 B      1.682138000000   0.222000000000  -2.190164000000 AA    3.178780123724   0.419519199653  -4.138810127882 Bohr
[INPUT]  6 C      1.135570000000  -1.600572000000   0.000000000000 AA    2.145916295272  -3.024642722647   0.000000000000 Bohr
[INPUT]  7 N     -1.556226000000  -1.805613000000   0.000000000000 AA   -2.940840927927  -3.412114056954   0.000000000000 Bohr
[INPUT]  8 O     -0.395303000000  -1.361044000000  -2.216190000000 AA   -0.747014406219  -2.572000403483  -4.187992140000 Bohr
[INPUT]  9 F     -0.395303000000   1.736106000000   2.728810000000 AA   -0.747014406219   3.280764863214   5.156703545974 Bohr
[INPUT] 10 Ne    -0.395303000000   1.736106000000  -2.728810000000 AA   -0.747014406219   3.280764863214  -5.156703545974 Bohr
[INPUT] 11 Na    -2.264398000000   0.496317000000  -1.339750000000 AA   -4.279092057013   0.937903200966  -2.531760575386 Bohr
[INPUT] 12 Mg     0.098720000000   0.894382000000   0.000000000000 AA    0.186553763017   1.690137030741   0.000000000000 Bohr

nuclear repulsion = 428.086206557171
number of shells = 36
number of NR pGTOs = 360
number of NR cGTOs = 60
basis = sto-6g
ecp = {}
CPU time:         1.37


******** <class 'pyscf.df.df_jk.density_fit.<locals>.DFHF'> ********
method = DFHF-UHF
initial guess = minao
damping factor = 0
level_shift factor = 0
DIIS = <class 'pyscf.scf.diis.CDIIS'>
diis_start_cycle = 1
diis_space = 8
SCF conv_tol = 1e-09
SCF conv_tol_grad = None
SCF max_cycles = 50
direct_scf = True
direct_scf_tol = 1e-13
chkfile to save SCF result = /home/ltkoanh/Al_B2LYP_6311_Gd_Cluster/Cluster/Al12-cation-doublet/tmpxgatnzq1
max_memory 4000 MB (current use 60 MB)
number electrons alpha = 39  beta = 38
Set gradient conv threshold to 3.16228e-05
******** <class 'pyscf.df.df.DF'> ********
auxbasis = None
max_memory = 4000
_cderi_to_save = /home/ltkoanh/Al_B2LYP_6311_Gd_Cluster/Cluster/Al12-cation-doublet/tmpqm3ngqdd
Even tempered Gaussians are generated as DF auxbasis for  He Na O F Li C Be Mg Ne B N H
init E= -798.550103173912
  alpha nocc = 39  HOMO = -0.284463202327572  LUMO = -0.250063766383276
  beta  nocc = 38  HOMO = -0.300946835333257  LUMO = -0.284463202327571

WARN: system HOMO -0.284463202327571 >= system LUMO -0.284463202327571

cycle= 1 E= -798.573244529219  delta_E= -0.0231  |g|= 0.777  |ddm|= 2.46
  alpha nocc = 39  HOMO = -0.114702571113301  LUMO = -0.0695915495357316
  beta  nocc = 38  HOMO = -0.10136756079026  LUMO = -0.0647696698987054
cycle= 2 E= -777.644856520205  delta_E= 20.9  |g|= 2.51  |ddm|= 5.42
  alpha nocc = 39  HOMO = -0.160696646004224  LUMO = -0.0552293074832208
  beta  nocc = 38  HOMO = -0.146073636509291  LUMO = -0.0433110398833638
cycle= 3 E= -791.87194313945  delta_E= -14.2  |g|= 1.65  |ddm|= 3.71
  alpha nocc = 39  HOMO = -0.216799583194285  LUMO = -0.161852201015103
  beta  nocc = 38  HOMO = -0.206536638509626  LUMO = -0.153576482416514
cycle= 4 E= -799.434797681618  delta_E= -7.56  |g|= 0.568  |ddm|= 3.54
  alpha nocc = 39  HOMO = -0.171673458206016  LUMO = -0.156205529922067
  beta  nocc = 38  HOMO = -0.172595526109996  LUMO = -0.152800305028381
cycle= 5 E= -799.788698301325  delta_E= -0.354  |g|= 0.781  |ddm|= 2.02
  alpha nocc = 39  HOMO = -0.203331808887136  LUMO = -0.1467479775183
  beta  nocc = 38  HOMO = -0.201555951685943  LUMO = -0.135951670412849
cycle= 6 E= -798.310872944073  delta_E= 1.48  |g|= 1.57  |ddm|= 1.06
  alpha nocc = 39  HOMO = -0.231899848966961  LUMO = -0.149159231428135
  beta  nocc = 38  HOMO = -0.2248677520625  LUMO = -0.137561154309415
cycle= 7 E= -799.163243455061  delta_E= -0.852  |g|= 1.22  |ddm|= 0.529
  alpha nocc = 39  HOMO = -0.184592147317965  LUMO = -0.137841997981775
  beta  nocc = 38  HOMO = -0.184795032925233  LUMO = -0.126547669659284
cycle= 8 E= -798.354509240192  delta_E= 0.809  |g|= 1.54  |ddm|= 0.533
  alpha nocc = 39  HOMO = -0.182836841654204  LUMO = -0.136225976845215
  beta  nocc = 38  HOMO = -0.183083346969855  LUMO = -0.125879743988343
cycle= 9 E= -798.324992337537  delta_E= 0.0295  |g|= 1.56  |ddm|= 0.0591
  alpha nocc = 39  HOMO = -0.195712264421601  LUMO = -0.131548105838344
  beta  nocc = 38  HOMO = -0.195196254122697  LUMO = -0.121177093325991
cycle= 10 E= -798.598700676117  delta_E= -0.274  |g|= 1.44  |ddm|= 0.19
  alpha nocc = 39  HOMO = -0.197173803598558  LUMO = -0.129815744262336
  beta  nocc = 38  HOMO = -0.200914999207074  LUMO = -0.122514474114822
cycle= 11 E= -798.623924760999  delta_E= -0.0252  |g|= 1.52  |ddm|= 0.404
  alpha nocc = 39  HOMO = -0.233770465203983  LUMO = -0.110037399314797
  beta  nocc = 38  HOMO = -0.229340559267814  LUMO = -0.112409458148771
cycle= 12 E= -799.693075825081  delta_E= -1.07  |g|= 0.887  |ddm|= 0.712
  alpha nocc = 39  HOMO = -0.290189434675769  LUMO = -0.0739560895393033
  beta  nocc = 38  HOMO = -0.26726621712422  LUMO = -0.0930477267165034
cycle= 13 E= -800.2494343143  delta_E= -0.556  |g|= 0.261  |ddm|= 1.28
  alpha nocc = 39  HOMO = -0.29696808127759  LUMO = -0.084181511294207
  beta  nocc = 38  HOMO = -0.280251595930475  LUMO = -0.087657689161824
cycle= 14 E= -800.3705752242  delta_E= -0.121  |g|= 0.155  |ddm|= 0.621
  alpha nocc = 39  HOMO = -0.287309562004033  LUMO = -0.0822488567191422
  beta  nocc = 38  HOMO = -0.270853240393785  LUMO = -0.0914783114892089
cycle= 15 E= -800.425715316684  delta_E= -0.0551  |g|= 0.149  |ddm|= 0.329
  alpha nocc = 39  HOMO = -0.288836217334068  LUMO = -0.0747258326091111
  beta  nocc = 38  HOMO = -0.271975475558507  LUMO = -0.0895429394370552
cycle= 16 E= -800.47693099969  delta_E= -0.0512  |g|= 0.144  |ddm|= 0.275
  alpha nocc = 39  HOMO = -0.293270318253119  LUMO = -0.071200879739807
  beta  nocc = 38  HOMO = -0.271764049175971  LUMO = -0.0882427848004245
cycle= 17 E= -800.525388969603  delta_E= -0.0485  |g|= 0.149  |ddm|= 0.292
  alpha nocc = 39  HOMO = -0.288233910297476  LUMO = -0.0836305858849097
  beta  nocc = 38  HOMO = -0.283655215461746  LUMO = -0.0896986500912722
cycle= 18 E= -800.453153254525  delta_E= 0.0722  |g|= 0.133  |ddm|= 0.653
  alpha nocc = 39  HOMO = -0.26362613851635  LUMO = -0.080131373286843
  beta  nocc = 38  HOMO = -0.265989479842759  LUMO = -0.0742413183661858
cycle= 19 E= -800.501066362931  delta_E= -0.0479  |g|= 0.098  |ddm|= 0.427
  alpha nocc = 39  HOMO = -0.247892037883423  LUMO = -0.0657505671311075
  beta  nocc = 38  HOMO = -0.243088998913743  LUMO = -0.0762461671601164
cycle= 20 E= -800.553608202792  delta_E= -0.0525  |g|= 0.0802  |ddm|= 0.532
  alpha nocc = 39  HOMO = -0.241054726127093  LUMO = -0.0639650108735614
  beta  nocc = 38  HOMO = -0.247990177712041  LUMO = -0.0729977381125358
cycle= 21 E= -800.566893821396  delta_E= -0.0133  |g|= 0.0914  |ddm|= 0.21
  alpha nocc = 39  HOMO = -0.252303016915344  LUMO = -0.0709989038312111
  beta  nocc = 38  HOMO = -0.2582427568288  LUMO = -0.074027021579629
cycle= 22 E= -800.542019958115  delta_E= 0.0249  |g|= 0.087  |ddm|= 0.241
  alpha nocc = 39  HOMO = -0.297724024021736  LUMO = -0.0729844247578832
  beta  nocc = 38  HOMO = -0.257197515154764  LUMO = -0.0665494606477996
cycle= 23 E= -800.535061882057  delta_E= 0.00696  |g|= 0.0729  |ddm|= 0.336
  alpha nocc = 39  HOMO = -0.287723499038029  LUMO = -0.0708336618280846
  beta  nocc = 38  HOMO = -0.245481953700395  LUMO = -0.0643407479122666
cycle= 24 E= -800.552112357438  delta_E= -0.0171  |g|= 0.061  |ddm|= 0.237
  alpha nocc = 39  HOMO = -0.281069725222644  LUMO = -0.0671500985982906
  beta  nocc = 38  HOMO = -0.241375254203083  LUMO = -0.0627093121661555
cycle= 25 E= -800.55563209137  delta_E= -0.00352  |g|= 0.0499  |ddm|= 0.137
  alpha nocc = 39  HOMO = -0.281001814914758  LUMO = -0.0625999209243584
  beta  nocc = 38  HOMO = -0.237754420602272  LUMO = -0.0682772151024809
cycle= 26 E= -800.56494785388  delta_E= -0.00932  |g|= 0.0559  |ddm|= 0.171
  alpha nocc = 39  HOMO = -0.276827310409267  LUMO = -0.0712754259315246
  beta  nocc = 38  HOMO = -0.240976362080864  LUMO = -0.0669134575202821
cycle= 27 E= -800.556799020793  delta_E= 0.00815  |g|= 0.0503  |ddm|= 0.266
  alpha nocc = 39  HOMO = -0.27502500068159  LUMO = -0.07028954818489
  beta  nocc = 38  HOMO = -0.235186598481861  LUMO = -0.0667516450097126
cycle= 28 E= -800.555774015981  delta_E= 0.00103  |g|= 0.048  |ddm|= 0.101
  alpha nocc = 39  HOMO = -0.277705068393302  LUMO = -0.0704754594127727
  beta  nocc = 38  HOMO = -0.23569558805594  LUMO = -0.0678137616973272
cycle= 29 E= -800.555479729385  delta_E= 0.000294  |g|= 0.0458  |ddm|= 0.0798
  alpha nocc = 39  HOMO = -0.27885092071586  LUMO = -0.0701880756454696
  beta  nocc = 38  HOMO = -0.23534537279321  LUMO = -0.0675114802282457
cycle= 30 E= -800.556020858617  delta_E= -0.000541  |g|= 0.0462  |ddm|= 0.0144
  alpha nocc = 39  HOMO = -0.26880565271164  LUMO = -0.0652372522925509
  beta  nocc = 38  HOMO = -0.242177493728783  LUMO = -0.0707287869663803
cycle= 31 E= -800.55629037166  delta_E= -0.00027  |g|= 0.0394  |ddm|= 0.232
  alpha nocc = 39  HOMO = -0.268736651561894  LUMO = -0.0623447157290562
  beta  nocc = 38  HOMO = -0.239968269758889  LUMO = -0.0720222581067492
cycle= 32 E= -800.560865753944  delta_E= -0.00458  |g|= 0.0405  |ddm|= 0.129
  alpha nocc = 39  HOMO = -0.268308105547741  LUMO = -0.0631308939731311
  beta  nocc = 38  HOMO = -0.240329393673406  LUMO = -0.0720270538613075
cycle= 33 E= -800.559368293045  delta_E= 0.0015  |g|= 0.0402  |ddm|= 0.0403
  alpha nocc = 39  HOMO = -0.267130712278695  LUMO = -0.0625378328994711
  beta  nocc = 38  HOMO = -0.241312552411858  LUMO = -0.0710661879109949
cycle= 34 E= -800.560910376931  delta_E= -0.00154  |g|= 0.0411  |ddm|= 0.0461
  alpha nocc = 39  HOMO = -0.271376757379114  LUMO = -0.0632509810100109
  beta  nocc = 38  HOMO = -0.244137026714987  LUMO = -0.0716422113760202
cycle= 35 E= -800.556795690881  delta_E= 0.00411  |g|= 0.0365  |ddm|= 0.131
  alpha nocc = 39  HOMO = -0.271563840760254  LUMO = -0.0638435628693314
  beta  nocc = 38  HOMO = -0.241639529360267  LUMO = -0.0695643536735197
cycle= 36 E= -800.557928802414  delta_E= -0.00113  |g|= 0.0363  |ddm|= 0.133
  alpha nocc = 39  HOMO = -0.272066543924216  LUMO = -0.0648374054377908
  beta  nocc = 38  HOMO = -0.241636857252636  LUMO = -0.070960629019587
cycle= 37 E= -800.555587977078  delta_E= 0.00234  |g|= 0.0347  |ddm|= 0.0664
  alpha nocc = 39  HOMO = -0.273639826234302  LUMO = -0.0649736802663706
  beta  nocc = 38  HOMO = -0.240262627035393  LUMO = -0.0686686137341701
cycle= 38 E= -800.555611004672  delta_E= -2.3e-05  |g|= 0.0338  |ddm|= 0.0933
  alpha nocc = 39  HOMO = -0.272949333988234  LUMO = -0.0654718241584636
  beta  nocc = 38  HOMO = -0.240893659328948  LUMO = -0.0685166828993477
cycle= 39 E= -800.555977391876  delta_E= -0.000366  |g|= 0.0346  |ddm|= 0.0313
  alpha nocc = 39  HOMO = -0.275441649620192  LUMO = -0.0660599690361807
  beta  nocc = 38  HOMO = -0.242194522986762  LUMO = -0.070179678900317
cycle= 40 E= -800.552528272194  delta_E= 0.00345  |g|= 0.0311  |ddm|= 0.104
  alpha nocc = 39  HOMO = -0.278047188653699  LUMO = -0.0644779249536462
  beta  nocc = 38  HOMO = -0.237582790381621  LUMO = -0.0683608271548923
cycle= 41 E= -800.556608456208  delta_E= -0.00408  |g|= 0.032  |ddm|= 0.124
  alpha nocc = 39  HOMO = -0.279336555400917  LUMO = -0.0639110379391642
  beta  nocc = 38  HOMO = -0.236731953881187  LUMO = -0.0676329725495723
cycle= 42 E= -800.558289664912  delta_E= -0.00168  |g|= 0.0333  |ddm|= 0.0455
  alpha nocc = 39  HOMO = -0.277854209547932  LUMO = -0.0646713173713708
  beta  nocc = 38  HOMO = -0.239643172090005  LUMO = -0.067908678076703
cycle= 43 E= -800.553509335522  delta_E= 0.00478  |g|= 0.0275  |ddm|= 0.138
  alpha nocc = 39  HOMO = -0.271069209707831  LUMO = -0.062407039655251
  beta  nocc = 38  HOMO = -0.237965311011665  LUMO = -0.0677148538892714
cycle= 44 E= -800.553093475977  delta_E= 0.000416  |g|= 0.0215  |ddm|= 0.193
  alpha nocc = 39  HOMO = -0.271701631636496  LUMO = -0.0587708197431997
  beta  nocc = 38  HOMO = -0.238147783591117  LUMO = -0.0683259324436169
cycle= 45 E= -800.555286209219  delta_E= -0.00219  |g|= 0.0213  |ddm|= 0.125
  alpha nocc = 39  HOMO = -0.270824874419828  LUMO = -0.0588255141720498
  beta  nocc = 38  HOMO = -0.234864217012388  LUMO = -0.0683314375061631
cycle= 46 E= -800.555378213036  delta_E= -9.2e-05  |g|= 0.0193  |ddm|= 0.0655
  alpha nocc = 39  HOMO = -0.269931056259383  LUMO = -0.0566341309614993
  beta  nocc = 38  HOMO = -0.237655784082076  LUMO = -0.0697385522440206
cycle= 47 E= -800.557526359151  delta_E= -0.00215  |g|= 0.0201  |ddm|= 0.102
  alpha nocc = 39  HOMO = -0.270258441824838  LUMO = -0.0567650406384175
  beta  nocc = 38  HOMO = -0.23782342982761  LUMO = -0.0699663690182978
cycle= 48 E= -800.556795623772  delta_E= 0.000731  |g|= 0.0198  |ddm|= 0.0371
  alpha nocc = 39  HOMO = -0.270328732486299  LUMO = -0.056462288864761
  beta  nocc = 38  HOMO = -0.237030071911415  LUMO = -0.0707155770642755
cycle= 49 E= -800.556035052721  delta_E= 0.000761  |g|= 0.0199  |ddm|= 0.0724
  alpha nocc = 39  HOMO = -0.271070787683001  LUMO = -0.0581314958204568
  beta  nocc = 38  HOMO = -0.236810867900777  LUMO = -0.0700551396482457
cycle= 50 E= -800.554973312916  delta_E= 0.00106  |g|= 0.0182  |ddm|= 0.051
SCF not converged.
SCF energy = -800.554973312916 after 50 cycles  <S^2> = 2.5180039  2S+1 = 3.3274638
shift = 0
thresh = 1e-05 
eri1 (918, 1830)
eri1 (918, 1830)
    CPU time for making amplitude: integral transform      0.16 sec, wall time      0.01 sec
shape (918, 1260)
1st memory: 185.6 MiB
eri1 (918, 1830)
eri1 (918, 1830)
2nd memory: 175.9 MiB

========================
iter = 0  energy = -800.901785 energy diff = 800.901785
multiplicity <S^2> : Reference = 2.5180039 Response = 2.5182208 Projector = 2.5184377
eri1 (918, 1830)
eri1 (918, 1830)
    CPU time for making amplitude: integral transform      0.19 sec, wall time      0.01 sec
shape (918, 1260)
1st memory: 190.0 MiB
eri1 (918, 1830)
eri1 (918, 1830)
2nd memory: 175.8 MiB

========================
iter = 1  energy = -800.906070 energy diff = 0.004285
multiplicity <S^2> : Reference = 2.5038295 Response = 2.5043367 Projector = 2.5048439
eri1 (918, 1830)
eri1 (918, 1830)
    CPU time for making amplitude: integral transform      0.19 sec, wall time      0.01 sec
shape (918, 1260)
1st memory: 189.6 MiB
eri1 (918, 1830)
eri1 (918, 1830)
2nd memory: 176.4 MiB

========================
iter = 2  energy = -800.924230 energy diff = 0.018161
multiplicity <S^2> : Reference = 2.4870373 Response = 2.4864847 Projector = 2.4859321
eri1 (918, 1830)
eri1 (918, 1830)
    CPU time for making amplitude: integral transform      0.19 sec, wall time      0.01 sec
shape (918, 1260)
1st memory: 190.7 MiB
eri1 (918, 1830)
eri1 (918, 1830)
2nd memory: 176.7 MiB

========================
iter = 3  energy = -800.933366 energy diff = 0.009135
multiplicity <S^2> : Reference = 2.4897942 Response = 2.489858 Projector = 2.4899218
eri1 (918, 1830)
eri1 (918, 1830)
    CPU time for making amplitude: integral transform      0.19 sec, wall time      0.01 sec
shape (918, 1260)
1st memory: 190.5 MiB
eri1 (918, 1830)
eri1 (918, 1830)
2nd memory: 176.9 MiB

========================
iter = 4  energy = -800.935502 energy diff = 0.002136
multiplicity <S^2> : Reference = 2.499415 Response = 2.4996267 Projector = 2.4998384
eri1 (918, 1830)
eri1 (918, 1830)
    CPU time for making amplitude: integral transform      0.18 sec, wall time      0.01 sec
shape (918, 1260)
1st memory: 194.6 MiB
eri1 (918, 1830)
eri1 (918, 1830)
2nd memory: 174.4 MiB

========================
iter = 5  energy = -800.939909 energy diff = 0.004407
multiplicity <S^2> : Reference = 2.574205 Response = 2.574156 Projector = 2.5741071
eri1 (918, 1830)
eri1 (918, 1830)
    CPU time for making amplitude: integral transform      0.20 sec, wall time      0.01 sec
shape (918, 1260)
1st memory: 194.1 MiB
eri1 (918, 1830)
eri1 (918, 1830)
2nd memory: 174.2 MiB

========================
iter = 6  energy = -800.943061 energy diff = 0.003153
multiplicity <S^2> : Reference = 2.6773774 Response = 2.6786579 Projector = 2.6799383
eri1 (918, 1830)
eri1 (918, 1830)
    CPU time for making amplitude: integral transform      0.17 sec, wall time      0.01 sec
shape (918, 1260)
1st memory: 193.8 MiB
eri1 (918, 1830)
eri1 (918, 1830)
2nd memory: 173.2 MiB

========================
iter = 7  energy = -800.942770 energy diff = 0.000291
multiplicity <S^2> : Reference = 2.6671368 Response = 2.6686092 Projector = 2.6700817
eri1 (918, 1830)
eri1 (918, 1830)
    CPU time for making amplitude: integral transform      0.18 sec, wall time      0.01 sec
shape (918, 1260)
1st memory: 193.8 MiB
eri1 (918, 1830)
eri1 (918, 1830)
2nd memory: 179.9 MiB

========================
iter = 8  energy = -800.942079 energy diff = 0.000691
multiplicity <S^2> : Reference = 2.6343983 Response = 2.6345452 Projector = 2.6346921
eri1 (918, 1830)
eri1 (918, 1830)
    CPU time for making amplitude: integral transform      0.18 sec, wall time      0.01 sec
shape (918, 1260)
1st memory: 194.5 MiB
eri1 (918, 1830)
eri1 (918, 1830)
2nd memory: 174.4 MiB

========================
iter = 9  energy = -800.941893 energy diff = 0.000186
multiplicity <S^2> : Reference = 2.6206982 Response = 2.6213342 Projector = 2.6219703
eri1 (918, 1830)
eri1 (918, 1830)
    CPU time for making amplitude: integral transform      0.19 sec, wall time      0.01 sec
shape (918, 1260)
1st memory: 194.3 MiB
eri1 (918, 1830)
eri1 (918, 1830)
2nd memory: 180.1 MiB

========================
iter = 10  energy = -800.942159 energy diff = 0.000266
multiplicity <S^2> : Reference = 2.6175046 Response = 2.6175245 Projector = 2.6175443
eri1 (918, 1830)
eri1 (918, 1830)
    CPU time for making amplitude: integral transform      0.20 sec, wall time      0.01 sec
shape (918, 1260)
1st memory: 194.4 MiB
eri1 (918, 1830)
eri1 (918, 1830)
2nd memory: 173.3 MiB

========================
iter = 11  energy = -800.941883 energy diff = 0.000276
multiplicity <S^2> : Reference = 2.6111307 Response = 2.6112323 Projector = 2.6113339
eri1 (918, 1830)
eri1 (918, 1830)
    CPU time for making amplitude: integral transform      0.18 sec, wall time      0.01 sec
shape (918, 1260)
1st memory: 194.3 MiB
eri1 (918, 1830)
eri1 (918, 1830)
2nd memory: 173.3 MiB

========================
iter = 12  energy = -800.941428 energy diff = 0.000455
multiplicity <S^2> : Reference = 2.5932456 Response = 2.5931837 Projector = 2.5931219
eri1 (918, 1830)
eri1 (918, 1830)
    CPU time for making amplitude: integral transform      0.17 sec, wall time      0.01 sec
shape (918, 1260)
1st memory: 193.8 MiB
eri1 (918, 1830)
eri1 (918, 1830)
2nd memory: 171.9 MiB

========================
iter = 13  energy = -800.935554 energy diff = 0.005874
multiplicity <S^2> : Reference = 2.4914818 Response = 2.4915186 Projector = 2.4915555
eri1 (918, 1830)
eri1 (918, 1830)
    CPU time for making amplitude: integral transform      0.18 sec, wall time      0.01 sec
shape (918, 1260)
1st memory: 193.8 MiB
eri1 (918, 1830)
eri1 (918, 1830)
2nd memory: 172.0 MiB

========================
iter = 14  energy = -800.928334 energy diff = 0.007220
multiplicity <S^2> : Reference = 2.5094702 Response = 2.5096942 Projector = 2.5099181
eri1 (918, 1830)
eri1 (918, 1830)
    CPU time for making amplitude: integral transform      0.20 sec, wall time      0.01 sec
shape (918, 1260)
1st memory: 194.0 MiB
eri1 (918, 1830)
eri1 (918, 1830)
2nd memory: 172.2 MiB

========================
iter = 15  energy = -800.928749 energy diff = 0.000415
multiplicity <S^2> : Reference = 2.5145638 Response = 2.5149976 Projector = 2.5154314
eri1 (918, 1830)
eri1 (918, 1830)
    CPU time for making amplitude: integral transform      0.16 sec, wall time      0.01 sec
shape (918, 1260)
1st memory: 193.8 MiB
eri1 (918, 1830)
eri1 (918, 1830)
2nd memory: 179.6 MiB

========================
iter = 16  energy = -800.929821 energy diff = 0.001072
multiplicity <S^2> : Reference = 2.5521995 Response = 2.5523663 Projector = 2.5525331
eri1 (918, 1830)
eri1 (918, 1830)
    CPU time for making amplitude: integral transform      0.20 sec, wall time      0.01 sec
shape (918, 1260)
1st memory: 193.9 MiB
eri1 (918, 1830)
eri1 (918, 1830)
2nd memory: 179.7 MiB

========================
iter = 17  energy = -800.932724 energy diff = 0.002903
multiplicity <S^2> : Reference = 2.5717776 Response = 2.5711022 Projector = 2.5704268
eri1 (918, 1830)
eri1 (918, 1830)
    CPU time for making amplitude: integral transform      0.17 sec, wall time      0.01 sec
shape (918, 1260)
1st memory: 194.1 MiB
eri1 (918, 1830)
eri1 (918, 1830)
2nd memory: 172.4 MiB

========================
iter = 18  energy = -800.933652 energy diff = 0.000928
multiplicity <S^2> : Reference = 2.5820199 Response = 2.5821902 Projector = 2.5823604
eri1 (918, 1830)
eri1 (918, 1830)
    CPU time for making amplitude: integral transform      0.17 sec, wall time      0.01 sec
shape (918, 1260)
1st memory: 200.4 MiB
eri1 (918, 1830)
eri1 (918, 1830)
2nd memory: 174.5 MiB

========================
iter = 19  energy = -800.935834 energy diff = 0.002181
multiplicity <S^2> : Reference = 2.5839325 Response = 2.5836623 Projector = 2.5833921
eri1 (918, 1830)
eri1 (918, 1830)
    CPU time for making amplitude: integral transform      0.17 sec, wall time      0.01 sec
shape (918, 1260)
1st memory: 200.1 MiB
eri1 (918, 1830)
eri1 (918, 1830)
2nd memory: 174.3 MiB

========================
iter = 20  energy = -800.935174 energy diff = 0.000660
multiplicity <S^2> : Reference = 2.5781693 Response = 2.5783482 Projector = 2.5785272
eri1 (918, 1830)
eri1 (918, 1830)
    CPU time for making amplitude: integral transform      0.19 sec, wall time      0.01 sec
shape (918, 1260)
1st memory: 200.2 MiB
eri1 (918, 1830)
eri1 (918, 1830)
2nd memory: 174.5 MiB

========================
iter = 21  energy = -800.934783 energy diff = 0.000392
multiplicity <S^2> : Reference = 2.5826876 Response = 2.5830969 Projector = 2.5835062
eri1 (918, 1830)
eri1 (918, 1830)
    CPU time for making amplitude: integral transform      0.19 sec, wall time      0.01 sec
shape (918, 1260)
1st memory: 209.6 MiB
eri1 (918, 1830)
eri1 (918, 1830)
2nd memory: 174.5 MiB

========================
iter = 22  energy = -800.932080 energy diff = 0.002703
multiplicity <S^2> : Reference = 2.5917125 Response = 2.5917265 Projector = 2.5917404
eri1 (918, 1830)
eri1 (918, 1830)
    CPU time for making amplitude: integral transform      0.18 sec, wall time      0.01 sec
shape (918, 1260)
1st memory: 200.3 MiB
eri1 (918, 1830)
eri1 (918, 1830)
2nd memory: 174.6 MiB

========================
iter = 23  energy = -800.927091 energy diff = 0.004989
multiplicity <S^2> : Reference = 2.6324204 Response = 2.6327197 Projector = 2.6330191
eri1 (918, 1830)
eri1 (918, 1830)
    CPU time for making amplitude: integral transform      0.16 sec, wall time      0.01 sec
shape (918, 1260)
1st memory: 209.6 MiB
eri1 (918, 1830)
eri1 (918, 1830)
2nd memory: 174.4 MiB

========================
iter = 24  energy = -800.927556 energy diff = 0.000465
multiplicity <S^2> : Reference = 2.635998 Response = 2.6366087 Projector = 2.6372194
eri1 (918, 1830)
eri1 (918, 1830)
    CPU time for making amplitude: integral transform      0.17 sec, wall time      0.01 sec
shape (918, 1260)
1st memory: 209.8 MiB
eri1 (918, 1830)
eri1 (918, 1830)
2nd memory: 174.7 MiB

========================
iter = 25  energy = -800.927335 energy diff = 0.000220
multiplicity <S^2> : Reference = 2.643955 Response = 2.6445107 Projector = 2.6450663
eri1 (918, 1830)
eri1 (918, 1830)
    CPU time for making amplitude: integral transform      0.21 sec, wall time      0.01 sec
shape (918, 1260)
1st memory: 209.8 MiB
eri1 (918, 1830)
eri1 (918, 1830)
2nd memory: 174.6 MiB

========================
iter = 26  energy = -800.927825 energy diff = 0.000489
multiplicity <S^2> : Reference = 2.643631 Response = 2.6440585 Projector = 2.6444859
eri1 (918, 1830)
eri1 (918, 1830)
    CPU time for making amplitude: integral transform      0.18 sec, wall time      0.01 sec
shape (918, 1260)
1st memory: 209.7 MiB
eri1 (918, 1830)
eri1 (918, 1830)
2nd memory: 174.5 MiB

========================
iter = 27  energy = -800.927922 energy diff = 0.000097
multiplicity <S^2> : Reference = 2.6423286 Response = 2.641854 Projector = 2.6413795
eri1 (918, 1830)
eri1 (918, 1830)
    CPU time for making amplitude: integral transform      0.18 sec, wall time      0.01 sec
shape (918, 1260)
1st memory: 209.6 MiB
eri1 (918, 1830)
eri1 (918, 1830)
2nd memory: 174.4 MiB

========================
iter = 28  energy = -800.927619 energy diff = 0.000303
multiplicity <S^2> : Reference = 2.6462937 Response = 2.6467307 Projector = 2.6471677
eri1 (918, 1830)
eri1 (918, 1830)
    CPU time for making amplitude: integral transform      0.21 sec, wall time      0.01 sec
shape (918, 1260)
1st memory: 209.6 MiB
eri1 (918, 1830)
eri1 (918, 1830)
2nd memory: 174.4 MiB

========================
iter = 29  energy = -800.926705 energy diff = 0.000914
multiplicity <S^2> : Reference = 2.6635777 Response = 2.662948 Projector = 2.6623184
eri1 (918, 1830)
eri1 (918, 1830)
    CPU time for making amplitude: integral transform      0.19 sec, wall time      0.01 sec
shape (918, 1260)
1st memory: 210.0 MiB
eri1 (918, 1830)
eri1 (918, 1830)
2nd memory: 174.7 MiB

========================
iter = 30  energy = -800.925607 energy diff = 0.001098
multiplicity <S^2> : Reference = 2.6839602 Response = 2.6836415 Projector = 2.6833227
eri1 (918, 1830)
eri1 (918, 1830)
    CPU time for making amplitude: integral transform      0.17 sec, wall time      0.01 sec
shape (918, 1260)
1st memory: 210.0 MiB
eri1 (918, 1830)
eri1 (918, 1830)
2nd memory: 181.3 MiB

========================
iter = 31  energy = -800.925834 energy diff = 0.000228
multiplicity <S^2> : Reference = 2.6858058 Response = 2.6854989 Projector = 2.6851919
eri1 (918, 1830)
eri1 (918, 1830)
    CPU time for making amplitude: integral transform      0.20 sec, wall time      0.01 sec
shape (918, 1260)
1st memory: 209.8 MiB
eri1 (918, 1830)
eri1 (918, 1830)
2nd memory: 180.5 MiB

========================
iter = 32  energy = -800.925873 energy diff = 0.000039
multiplicity <S^2> : Reference = 2.6862716 Response = 2.6859599 Projector = 2.6856482
eri1 (918, 1830)
eri1 (918, 1830)
    CPU time for making amplitude: integral transform      0.19 sec, wall time      0.01 sec
shape (918, 1260)
1st memory: 209.6 MiB
eri1 (918, 1830)
eri1 (918, 1830)
2nd memory: 180.3 MiB

========================
iter = 33  energy = -800.925936 energy diff = 0.000063
multiplicity <S^2> : Reference = 2.6829652 Response = 2.6827217 Projector = 2.6824781
eri1 (918, 1830)
eri1 (918, 1830)
    CPU time for making amplitude: integral transform      0.17 sec, wall time      0.01 sec
shape (918, 1260)
1st memory: 210.0 MiB
eri1 (918, 1830)
eri1 (918, 1830)
2nd memory: 180.7 MiB

========================
iter = 34  energy = -800.926058 energy diff = 0.000122
multiplicity <S^2> : Reference = 2.6798017 Response = 2.6795688 Projector = 2.6793359
eri1 (918, 1830)
eri1 (918, 1830)
    CPU time for making amplitude: integral transform      0.19 sec, wall time      0.01 sec
shape (918, 1260)
1st memory: 212.4 MiB
eri1 (918, 1830)
eri1 (918, 1830)
2nd memory: 177.5 MiB

========================
iter = 35  energy = -800.925154 energy diff = 0.000904
multiplicity <S^2> : Reference = 2.6756373 Response = 2.6756572 Projector = 2.6756771
eri1 (918, 1830)
eri1 (918, 1830)
    CPU time for making amplitude: integral transform      0.18 sec, wall time      0.01 sec
shape (918, 1260)
1st memory: 212.2 MiB
eri1 (918, 1830)
eri1 (918, 1830)
2nd memory: 177.3 MiB

========================
iter = 36  energy = -800.926288 energy diff = 0.001134
multiplicity <S^2> : Reference = 2.669659 Response = 2.6699366 Projector = 2.6702142
eri1 (918, 1830)
eri1 (918, 1830)
    CPU time for making amplitude: integral transform      0.19 sec, wall time      0.01 sec
shape (918, 1260)
1st memory: 212.2 MiB
eri1 (918, 1830)
eri1 (918, 1830)
2nd memory: 171.4 MiB

========================
iter = 37  energy = -800.926521 energy diff = 0.000233
multiplicity <S^2> : Reference = 2.6749408 Response = 2.6753426 Projector = 2.6757444
eri1 (918, 1830)
eri1 (918, 1830)
    CPU time for making amplitude: integral transform      0.19 sec, wall time      0.01 sec
shape (918, 1260)
1st memory: 212.1 MiB
eri1 (918, 1830)
eri1 (918, 1830)
2nd memory: 182.8 MiB

========================
iter = 38  energy = -800.926686 energy diff = 0.000166
multiplicity <S^2> : Reference = 2.6762544 Response = 2.6766343 Projector = 2.6770142
eri1 (918, 1830)
eri1 (918, 1830)
    CPU time for making amplitude: integral transform      0.22 sec, wall time      0.01 sec
shape (918, 1260)
1st memory: 212.7 MiB
eri1 (918, 1830)
eri1 (918, 1830)
2nd memory: 184.0 MiB

========================
iter = 39  energy = -800.926605 energy diff = 0.000081
multiplicity <S^2> : Reference = 2.6753344 Response = 2.6757295 Projector = 2.6761245
eri1 (918, 1830)
eri1 (918, 1830)
    CPU time for making amplitude: integral transform      0.24 sec, wall time      0.02 sec
shape (918, 1260)
1st memory: 212.2 MiB
eri1 (918, 1830)
eri1 (918, 1830)
2nd memory: 183.6 MiB

========================
iter = 40  energy = -800.926735 energy diff = 0.000129
multiplicity <S^2> : Reference = 2.6723445 Response = 2.6727455 Projector = 2.6731465
eri1 (918, 1830)
eri1 (918, 1830)
    CPU time for making amplitude: integral transform      0.16 sec, wall time      0.01 sec
shape (918, 1260)
1st memory: 212.6 MiB
eri1 (918, 1830)
eri1 (918, 1830)
2nd memory: 182.9 MiB

========================
iter = 41  energy = -800.924219 energy diff = 0.002515
multiplicity <S^2> : Reference = 2.6777445 Response = 2.6783724 Projector = 2.6790004
eri1 (918, 1830)
eri1 (918, 1830)
    CPU time for making amplitude: integral transform      0.19 sec, wall time      0.01 sec
shape (918, 1260)
1st memory: 212.2 MiB
eri1 (918, 1830)
eri1 (918, 1830)
2nd memory: 182.8 MiB

========================
iter = 42  energy = -800.923379 energy diff = 0.000840
multiplicity <S^2> : Reference = 2.6740198 Response = 2.6742335 Projector = 2.6744472
eri1 (918, 1830)
eri1 (918, 1830)
    CPU time for making amplitude: integral transform      0.19 sec, wall time      0.01 sec
shape (918, 1260)
1st memory: 212.5 MiB
eri1 (918, 1830)
eri1 (918, 1830)
2nd memory: 183.1 MiB

========================
iter = 43  energy = -800.922777 energy diff = 0.000602
multiplicity <S^2> : Reference = 2.6740405 Response = 2.6744021 Projector = 2.6747637
eri1 (918, 1830)
eri1 (918, 1830)
    CPU time for making amplitude: integral transform      0.19 sec, wall time      0.01 sec
shape (918, 1260)
1st memory: 212.1 MiB
eri1 (918, 1830)
eri1 (918, 1830)
2nd memory: 182.8 MiB

========================
iter = 44  energy = -800.922935 energy diff = 0.000158
multiplicity <S^2> : Reference = 2.6754323 Response = 2.6757575 Projector = 2.6760827
eri1 (918, 1830)
eri1 (918, 1830)
    CPU time for making amplitude: integral transform      0.17 sec, wall time      0.01 sec
shape (918, 1260)
1st memory: 212.2 MiB
eri1 (918, 1830)
eri1 (918, 1830)
2nd memory: 182.5 MiB

========================
iter = 45  energy = -800.923004 energy diff = 0.000069
multiplicity <S^2> : Reference = 2.6762149 Response = 2.6765414 Projector = 2.676868
eri1 (918, 1830)
eri1 (918, 1830)
    CPU time for making amplitude: integral transform      0.19 sec, wall time      0.01 sec
shape (918, 1260)
1st memory: 211.9 MiB
eri1 (918, 1830)
eri1 (918, 1830)
2nd memory: 182.5 MiB

========================
iter = 46  energy = -800.922997 energy diff = 0.000007
multiplicity <S^2> : Reference = 2.67619 Response = 2.6765158 Projector = 2.6768416

UOB-MP2 has converged
UOB-MP2 energy =  -800.9229966798305
shift = 0
thresh = 1e-05 
eri1 (918, 1830)
eri1 (918, 1830)
    CPU time for making amplitude: integral transform      0.17 sec, wall time      0.01 sec
shape (918, 1260)
1st memory: 203.2 MiB
eri1 (918, 1830)
eri1 (918, 1830)
2nd memory: 181.3 MiB

========================
iter = 0  energy = -800.835350 energy diff = 800.835350
multiplicity <S^2> : Reference = 2.5180039 Response = 2.5182208 Projector = 2.5184377
eri1 (918, 1830)
eri1 (918, 1830)
    CPU time for making amplitude: integral transform      0.16 sec, wall time      0.01 sec
shape (918, 1260)
1st memory: 203.2 MiB
eri1 (918, 1830)
eri1 (918, 1830)
2nd memory: 181.6 MiB

========================
iter = 1  energy = -800.839464 energy diff = 0.004113
multiplicity <S^2> : Reference = 2.49631 Response = 2.4961459 Projector = 2.4959818
eri1 (918, 1830)
eri1 (918, 1830)
    CPU time for making amplitude: integral transform      0.18 sec, wall time      0.01 sec
shape (918, 1260)
1st memory: 203.2 MiB
eri1 (918, 1830)
eri1 (918, 1830)
2nd memory: 181.5 MiB

========================
iter = 2  energy = -800.861082 energy diff = 0.021619
multiplicity <S^2> : Reference = 2.4754473 Response = 2.4754252 Projector = 2.475403
eri1 (918, 1830)
eri1 (918, 1830)
    CPU time for making amplitude: integral transform      0.20 sec, wall time      0.01 sec
shape (918, 1260)
1st memory: 202.9 MiB
eri1 (918, 1830)
eri1 (918, 1830)
2nd memory: 181.7 MiB

========================
iter = 3  energy = -800.863739 energy diff = 0.002657
multiplicity <S^2> : Reference = 2.4737972 Response = 2.4732411 Projector = 2.472685
eri1 (918, 1830)
eri1 (918, 1830)
    CPU time for making amplitude: integral transform      0.19 sec, wall time      0.01 sec
shape (918, 1260)
1st memory: 203.2 MiB
eri1 (918, 1830)
eri1 (918, 1830)
2nd memory: 182.2 MiB

========================
iter = 4  energy = -800.865009 energy diff = 0.001270
multiplicity <S^2> : Reference = 2.4832604 Response = 2.4824958 Projector = 2.4817312
eri1 (918, 1830)
eri1 (918, 1830)
    CPU time for making amplitude: integral transform      0.18 sec, wall time      0.01 sec
shape (918, 1260)
1st memory: 203.6 MiB
eri1 (918, 1830)
eri1 (918, 1830)
2nd memory: 181.8 MiB

========================
iter = 5  energy = -800.867283 energy diff = 0.002273
multiplicity <S^2> : Reference = 2.5216685 Response = 2.521787 Projector = 2.5219054
eri1 (918, 1830)
eri1 (918, 1830)
    CPU time for making amplitude: integral transform      0.19 sec, wall time      0.01 sec
shape (918, 1260)
1st memory: 203.1 MiB
eri1 (918, 1830)
eri1 (918, 1830)
2nd memory: 181.4 MiB

========================
iter = 6  energy = -800.864620 energy diff = 0.002663
multiplicity <S^2> : Reference = 2.4701309 Response = 2.4712722 Projector = 2.4724135
eri1 (918, 1830)
eri1 (918, 1830)
    CPU time for making amplitude: integral transform      0.18 sec, wall time      0.01 sec
shape (918, 1260)
1st memory: 203.2 MiB
eri1 (918, 1830)
eri1 (918, 1830)
2nd memory: 181.5 MiB

========================
iter = 7  energy = -800.863088 energy diff = 0.001532
multiplicity <S^2> : Reference = 2.4506802 Response = 2.4504626 Projector = 2.450245
eri1 (918, 1830)
eri1 (918, 1830)
    CPU time for making amplitude: integral transform      0.19 sec, wall time      0.01 sec
shape (918, 1260)
1st memory: 203.3 MiB
eri1 (918, 1830)
eri1 (918, 1830)
2nd memory: 181.6 MiB

========================
iter = 8  energy = -800.863491 energy diff = 0.000404
multiplicity <S^2> : Reference = 2.4673462 Response = 2.4672444 Projector = 2.4671425
eri1 (918, 1830)
eri1 (918, 1830)
    CPU time for making amplitude: integral transform      0.20 sec, wall time      0.01 sec
shape (918, 1260)
1st memory: 203.4 MiB
eri1 (918, 1830)
eri1 (918, 1830)
2nd memory: 181.7 MiB

========================
iter = 9  energy = -800.865661 energy diff = 0.002169
multiplicity <S^2> : Reference = 2.4874305 Response = 2.4865462 Projector = 2.485662
eri1 (918, 1830)
eri1 (918, 1830)
    CPU time for making amplitude: integral transform      0.18 sec, wall time      0.01 sec
shape (918, 1260)
1st memory: 203.1 MiB
eri1 (918, 1830)
eri1 (918, 1830)
2nd memory: 181.4 MiB

========================
iter = 10  energy = -800.865808 energy diff = 0.000147
multiplicity <S^2> : Reference = 2.4921327 Response = 2.4915841 Projector = 2.4910356
eri1 (918, 1830)
eri1 (918, 1830)
    CPU time for making amplitude: integral transform      0.18 sec, wall time      0.01 sec
shape (918, 1260)
1st memory: 203.2 MiB
eri1 (918, 1830)
eri1 (918, 1830)
2nd memory: 181.5 MiB

========================
iter = 11  energy = -800.866593 energy diff = 0.000785
multiplicity <S^2> : Reference = 2.5108029 Response = 2.5101017 Projector = 2.5094005
eri1 (918, 1830)
eri1 (918, 1830)
    CPU time for making amplitude: integral transform      0.16 sec, wall time      0.01 sec
shape (918, 1260)
1st memory: 203.1 MiB
eri1 (918, 1830)
eri1 (918, 1830)
2nd memory: 181.5 MiB

========================
iter = 12  energy = -800.866754 energy diff = 0.000162
multiplicity <S^2> : Reference = 2.5130682 Response = 2.5129213 Projector = 2.5127745
eri1 (918, 1830)
eri1 (918, 1830)
    CPU time for making amplitude: integral transform      0.19 sec, wall time      0.01 sec
shape (918, 1260)
1st memory: 203.3 MiB
eri1 (918, 1830)
eri1 (918, 1830)
2nd memory: 181.7 MiB

========================
iter = 13  energy = -800.866611 energy diff = 0.000143
multiplicity <S^2> : Reference = 2.5124921 Response = 2.512713 Projector = 2.5129339
eri1 (918, 1830)
eri1 (918, 1830)
    CPU time for making amplitude: integral transform      0.19 sec, wall time      0.01 sec
shape (918, 1260)
1st memory: 203.2 MiB
eri1 (918, 1830)
eri1 (918, 1830)
2nd memory: 181.6 MiB

========================
iter = 14  energy = -800.866351 energy diff = 0.000260
multiplicity <S^2> : Reference = 2.523788 Response = 2.5232647 Projector = 2.5227414
eri1 (918, 1830)
eri1 (918, 1830)
    CPU time for making amplitude: integral transform      0.19 sec, wall time      0.01 sec
shape (918, 1260)
1st memory: 203.3 MiB
eri1 (918, 1830)
eri1 (918, 1830)
2nd memory: 181.6 MiB

========================
iter = 15  energy = -800.866262 energy diff = 0.000089
multiplicity <S^2> : Reference = 2.5716739 Response = 2.5719067 Projector = 2.5721395
eri1 (918, 1830)
eri1 (918, 1830)
    CPU time for making amplitude: integral transform      0.22 sec, wall time      0.01 sec
shape (918, 1260)
1st memory: 203.1 MiB
eri1 (918, 1830)
eri1 (918, 1830)
2nd memory: 181.5 MiB

========================
iter = 16  energy = -800.867117 energy diff = 0.000855
multiplicity <S^2> : Reference = 2.6191466 Response = 2.6190839 Projector = 2.6190213
eri1 (918, 1830)
eri1 (918, 1830)
    CPU time for making amplitude: integral transform      0.19 sec, wall time      0.01 sec
shape (918, 1260)
1st memory: 203.3 MiB
eri1 (918, 1830)
eri1 (918, 1830)
2nd memory: 181.6 MiB

========================
iter = 17  energy = -800.867670 energy diff = 0.000553
multiplicity <S^2> : Reference = 2.6447626 Response = 2.6450142 Projector = 2.6452659
eri1 (918, 1830)
eri1 (918, 1830)
    CPU time for making amplitude: integral transform      0.17 sec, wall time      0.01 sec
shape (918, 1260)
1st memory: 203.0 MiB
eri1 (918, 1830)
eri1 (918, 1830)
2nd memory: 181.3 MiB

========================
iter = 18  energy = -800.867752 energy diff = 0.000082
multiplicity <S^2> : Reference = 2.6483111 Response = 2.6483917 Projector = 2.6484723
eri1 (918, 1830)
eri1 (918, 1830)
    CPU time for making amplitude: integral transform      0.20 sec, wall time      0.01 sec
shape (918, 1260)
1st memory: 203.2 MiB
eri1 (918, 1830)
eri1 (918, 1830)
2nd memory: 181.6 MiB

========================
iter = 19  energy = -800.867667 energy diff = 0.000085
multiplicity <S^2> : Reference = 2.648604 Response = 2.6488352 Projector = 2.6490663
eri1 (918, 1830)
eri1 (918, 1830)
    CPU time for making amplitude: integral transform      0.21 sec, wall time      0.01 sec
shape (918, 1260)
1st memory: 203.1 MiB
eri1 (918, 1830)
eri1 (918, 1830)
2nd memory: 181.5 MiB

========================
iter = 20  energy = -800.866771 energy diff = 0.000896
multiplicity <S^2> : Reference = 2.6645417 Response = 2.6651215 Projector = 2.6657013
eri1 (918, 1830)
eri1 (918, 1830)
    CPU time for making amplitude: integral transform      0.20 sec, wall time      0.01 sec
shape (918, 1260)
1st memory: 203.3 MiB
eri1 (918, 1830)
eri1 (918, 1830)
2nd memory: 181.7 MiB

========================
iter = 21  energy = -800.866427 energy diff = 0.000344
multiplicity <S^2> : Reference = 2.689791 Response = 2.6898341 Projector = 2.6898772
eri1 (918, 1830)
eri1 (918, 1830)
    CPU time for making amplitude: integral transform      0.21 sec, wall time      0.01 sec
shape (918, 1260)
1st memory: 203.0 MiB
eri1 (918, 1830)
eri1 (918, 1830)
2nd memory: 181.4 MiB

========================
iter = 22  energy = -800.866219 energy diff = 0.000208
multiplicity <S^2> : Reference = 2.7026816 Response = 2.7026633 Projector = 2.7026449
eri1 (918, 1830)
eri1 (918, 1830)
    CPU time for making amplitude: integral transform      0.18 sec, wall time      0.01 sec
shape (918, 1260)
1st memory: 203.3 MiB
eri1 (918, 1830)
eri1 (918, 1830)
2nd memory: 181.9 MiB

========================
iter = 23  energy = -800.866362 energy diff = 0.000143
multiplicity <S^2> : Reference = 2.702134 Response = 2.7022078 Projector = 2.7022817
eri1 (918, 1830)
eri1 (918, 1830)
    CPU time for making amplitude: integral transform      0.21 sec, wall time      0.01 sec
shape (918, 1260)
1st memory: 203.7 MiB
eri1 (918, 1830)
eri1 (918, 1830)
2nd memory: 182.2 MiB

========================
iter = 24  energy = -800.865948 energy diff = 0.000414
multiplicity <S^2> : Reference = 2.7117801 Response = 2.7114519 Projector = 2.7111236
eri1 (918, 1830)
eri1 (918, 1830)
    CPU time for making amplitude: integral transform      0.19 sec, wall time      0.01 sec
shape (918, 1260)
1st memory: 203.4 MiB
eri1 (918, 1830)
eri1 (918, 1830)
2nd memory: 181.6 MiB

========================
iter = 25  energy = -800.865967 energy diff = 0.000019
multiplicity <S^2> : Reference = 2.7108276 Response = 2.7106123 Projector = 2.710397
eri1 (918, 1830)
eri1 (918, 1830)
    CPU time for making amplitude: integral transform      0.20 sec, wall time      0.01 sec
shape (918, 1260)
1st memory: 203.1 MiB
eri1 (918, 1830)
eri1 (918, 1830)
2nd memory: 181.3 MiB

========================
iter = 26  energy = -800.866019 energy diff = 0.000052
multiplicity <S^2> : Reference = 2.7105159 Response = 2.710191 Projector = 2.7098661
eri1 (918, 1830)
eri1 (918, 1830)
    CPU time for making amplitude: integral transform      0.22 sec, wall time      0.01 sec
shape (918, 1260)
1st memory: 203.2 MiB
eri1 (918, 1830)
eri1 (918, 1830)
2nd memory: 181.5 MiB

========================
iter = 27  energy = -800.866298 energy diff = 0.000279
multiplicity <S^2> : Reference = 2.7087576 Response = 2.7086284 Projector = 2.7084992
eri1 (918, 1830)
eri1 (918, 1830)
    CPU time for making amplitude: integral transform      0.17 sec, wall time      0.01 sec
shape (918, 1260)
1st memory: 203.0 MiB
eri1 (918, 1830)
eri1 (918, 1830)
2nd memory: 181.3 MiB

========================
iter = 28  energy = -800.866536 energy diff = 0.000238
multiplicity <S^2> : Reference = 2.7106381 Response = 2.7105327 Projector = 2.7104274
eri1 (918, 1830)
eri1 (918, 1830)
    CPU time for making amplitude: integral transform      0.21 sec, wall time      0.02 sec
shape (918, 1260)
1st memory: 203.3 MiB
eri1 (918, 1830)
eri1 (918, 1830)
2nd memory: 181.6 MiB

========================
iter = 29  energy = -800.866621 energy diff = 0.000085
multiplicity <S^2> : Reference = 2.7099217 Response = 2.709817 Projector = 2.7097124
eri1 (918, 1830)
eri1 (918, 1830)
    CPU time for making amplitude: integral transform      0.21 sec, wall time      0.01 sec
shape (918, 1260)
1st memory: 203.1 MiB
eri1 (918, 1830)
eri1 (918, 1830)
2nd memory: 181.5 MiB

========================
iter = 30  energy = -800.866411 energy diff = 0.000210
multiplicity <S^2> : Reference = 2.7110977 Response = 2.7109918 Projector = 2.7108858
eri1 (918, 1830)
eri1 (918, 1830)
    CPU time for making amplitude: integral transform      0.19 sec, wall time      0.01 sec
shape (918, 1260)
1st memory: 203.1 MiB
eri1 (918, 1830)
eri1 (918, 1830)
2nd memory: 188.9 MiB

========================
iter = 31  energy = -800.866023 energy diff = 0.000389
multiplicity <S^2> : Reference = 2.7128809 Response = 2.7129153 Projector = 2.7129498
eri1 (918, 1830)
eri1 (918, 1830)
    CPU time for making amplitude: integral transform      0.19 sec, wall time      0.01 sec
shape (918, 1260)
1st memory: 203.0 MiB
eri1 (918, 1830)
eri1 (918, 1830)
2nd memory: 188.7 MiB

========================
iter = 32  energy = -800.865318 energy diff = 0.000705
multiplicity <S^2> : Reference = 2.7244667 Response = 2.7244859 Projector = 2.7245052
eri1 (918, 1830)
eri1 (918, 1830)
    CPU time for making amplitude: integral transform      0.20 sec, wall time      0.01 sec
shape (918, 1260)
1st memory: 202.9 MiB
eri1 (918, 1830)
eri1 (918, 1830)
2nd memory: 181.1 MiB

========================
iter = 33  energy = -800.865407 energy diff = 0.000089
multiplicity <S^2> : Reference = 2.7249867 Response = 2.7247144 Projector = 2.7244422
eri1 (918, 1830)
eri1 (918, 1830)
    CPU time for making amplitude: integral transform      0.17 sec, wall time      0.01 sec
shape (918, 1260)
1st memory: 203.3 MiB
eri1 (918, 1830)
eri1 (918, 1830)
2nd memory: 189.1 MiB

========================
iter = 34  energy = -800.865290 energy diff = 0.000117
multiplicity <S^2> : Reference = 2.7249579 Response = 2.7247564 Projector = 2.7245549
eri1 (918, 1830)
eri1 (918, 1830)
    CPU time for making amplitude: integral transform      0.18 sec, wall time      0.01 sec
shape (918, 1260)
1st memory: 203.5 MiB
eri1 (918, 1830)
eri1 (918, 1830)
2nd memory: 189.1 MiB

========================
iter = 35  energy = -800.865237 energy diff = 0.000053
multiplicity <S^2> : Reference = 2.724581 Response = 2.7245887 Projector = 2.7245963
eri1 (918, 1830)
eri1 (918, 1830)
    CPU time for making amplitude: integral transform      0.18 sec, wall time      0.01 sec
shape (918, 1260)
1st memory: 203.4 MiB
eri1 (918, 1830)
eri1 (918, 1830)
2nd memory: 189.1 MiB

========================
iter = 36  energy = -800.864957 energy diff = 0.000280
multiplicity <S^2> : Reference = 2.7278991 Response = 2.7276419 Projector = 2.7273847
eri1 (918, 1830)
eri1 (918, 1830)
    CPU time for making amplitude: integral transform      0.19 sec, wall time      0.01 sec
shape (918, 1260)
1st memory: 203.3 MiB
eri1 (918, 1830)
eri1 (918, 1830)
2nd memory: 183.2 MiB

========================
iter = 37  energy = -800.864436 energy diff = 0.000521
multiplicity <S^2> : Reference = 2.7368436 Response = 2.7364636 Projector = 2.7360836
eri1 (918, 1830)
eri1 (918, 1830)
    CPU time for making amplitude: integral transform      0.18 sec, wall time      0.01 sec
shape (918, 1260)
