#INFO: **** input file is /home/ltkoanh/Al_B2LYP_6311_Gd_Cluster/Cluster/Al13-cation-singlet/input.py ****
import numpy
from pyscf import gto, scf, dft, mp, cc
from pyscf.mp import uobmp2_mom_conv, dfuobmp2_mom_conv, uhf_mom
from pyscf.mp import  mp2, ump2
from pyscf.tools import molden
import os
from functools import reduce


mol = gto.Mole()
geom = os.environ.get('geom_txt')
mol.atom = geom
mol.basis = os.environ.get('basis', 'cc-pvdz')
mol.unit = 'A'
mol.charge = int(os.environ.get('charge', 0))
mol.spin = int(os.environ.get('spin', 0))
mol.verbose = 4
mol.build()

#################### Ground state using density fitting
### Hartree-Fock
a  = scf.UHF(mol).density_fit()
a.kernel()

### Ground state OBMP2 calculation
ob = dfuobmp2_mom_conv.DFUOBMP2(a)
ob.second_order = True
ob.thresh = 10e-6
ob.css = 1
ob.cos = 1
e_obmp2g = ob.kernel()

### Ground state O2BMP2 calculation
ob = dfuobmp2_mom_conv.DFUOBMP2(a)
ob.second_order = True
ob.thresh = 10e-6
ob.css = 0                             
ob.cos = 1.2                             
e_o2bmp2g = ob.kernel()  

#################### Ground state NOT using density fitting
### Hartree-Fock
a  = scf.UHF(mol)
a.kernel()

### Ground state OBMP2 calculation
ob = uobmp2_mom_conv.UOBMP2(a)
ob.second_order = True
ob.thresh = 10e-6
ob.css = 1
ob.cos = 1
#e_obmp2g = ob.kernel()

### Ground state O2BMP2 calculation
ob = uobmp2_mom_conv.UOBMP2(a)
ob.second_order = True
ob.thresh = 10e-6
ob.css = 0
ob.cos = 1.2   ## the cos can be vary ...                        	 
#e_o2bmp2g = ob.kernel()


## Results from density-fitting approximate with non-using density fitting 
## check results between df and non-df with small molecules before running the important molecules
#INFO: ******************** input file end ********************


System: uname_result(system='Linux', node='comphys', release='3.10.0-1160.119.1.el7.x86_64', version='#1 SMP Tue Jun 4 14:43:51 UTC 2024', machine='x86_64', processor='x86_64')  Threads 8
Python 3.7.9 (default, Dec  4 2023, 13:00:18) 
[GCC 4.8.5 20150623 (Red Hat 4.8.5-44)]
numpy 1.21.6  scipy 1.7.3
Date: Mon May 19 18:33:38 2025
PySCF version 1.7.0
PySCF path  /share/installs/pyscf/pyscf
GIT HEAD      ref: refs/heads/ob-mp2
GIT ob-mp2 branch  f0fc63383ab6c719c0c91f5e07a6895c637b700d

[CONFIG] conf_file None
[INPUT] verbose = 4
[INPUT] num. atoms = 13
[INPUT] num. electrons = 90
[INPUT] charge = 1
[INPUT] spin (= nelec alpha-beta = 2S) = 0
[INPUT] symmetry False subgroup None
[INPUT] Mole.unit = A
[INPUT]  1 H      1.704291000000   2.070534000000  -1.272239000000 AA    3.220643226561   3.912742191600  -2.404183274991 Bohr
[INPUT]  2 He    -0.970293000000   2.101420000000   1.340459000000 AA   -1.833588030583   3.971108272684   2.533100391208 Bohr
[INPUT]  3 Li     1.808579000000   1.465042000000   1.292944000000 AA    3.417718984640   2.768528140985   2.443310054400 Bohr
[INPUT]  4 Be     2.586001000000  -0.402148000000  -1.335742000000 AA    4.886833647851  -0.759949581542  -2.524186553079 Bohr
[INPUT]  5 B     -2.336927000000  -0.340516000000   1.177203000000 AA   -4.416152003101  -0.643481981032   2.224591263016 Bohr
[INPUT]  6 C     -0.000274000000  -0.082481000000   2.339036000000 AA   -0.000517784958  -0.155866500480   4.420137435498 Bohr
[INPUT]  7 N      1.996909000000  -1.290163000000   1.126039000000 AA    3.773611105679  -2.438054726047   2.127905315579 Bohr
[INPUT]  8 O     -0.496978000000  -2.340987000000   1.077115000000 AA   -0.939152309934  -4.423824291167   2.035452354661 Bohr
[INPUT]  9 F     -0.880076000000   2.546751000000  -1.250967000000 AA   -1.663102608803   4.812661897462  -2.363985020869 Bohr
[INPUT] 10 Ne    -2.584150000000   0.548790000000  -1.318253000000 AA   -4.883335764795   1.037062799900  -2.491137132886 Bohr
[INPUT] 11 Na    -1.706087000000  -1.928961000000  -1.355995000000 AA   -3.224037174681  -3.645207994967  -2.562459176280 Bohr
[INPUT] 12 Mg     0.879609000000  -2.403119000000  -1.362091000000 AA    1.662220106703  -4.541236754739  -2.573978946735 Bohr
[INPUT] 13 Al    -0.000603000000   0.055838000000  -0.457508000000 AA   -0.001139504853   0.105518527343  -0.864564819798 Bohr

nuclear repulsion = 588.922750780946
number of shells = 41
number of NR pGTOs = 414
number of NR cGTOs = 69
basis = sto-6g
ecp = {}
CPU time:         1.39


******** <class 'pyscf.df.df_jk.density_fit.<locals>.DFHF'> ********
method = DFHF-UHF
initial guess = minao
damping factor = 0
level_shift factor = 0
DIIS = <class 'pyscf.scf.diis.CDIIS'>
diis_start_cycle = 1
diis_space = 8
SCF conv_tol = 1e-09
SCF conv_tol_grad = None
SCF max_cycles = 50
direct_scf = True
direct_scf_tol = 1e-13
chkfile to save SCF result = /home/ltkoanh/Al_B2LYP_6311_Gd_Cluster/Cluster/Al13-cation-singlet/tmph8n8k1xm
max_memory 4000 MB (current use 60 MB)
number electrons alpha = 45  beta = 45
Set gradient conv threshold to 3.16228e-05
******** <class 'pyscf.df.df.DF'> ********
auxbasis = None
max_memory = 4000
_cderi_to_save = /home/ltkoanh/Al_B2LYP_6311_Gd_Cluster/Cluster/Al13-cation-singlet/tmpp7f0qko4
Even tempered Gaussians are generated as DF auxbasis for  He Li Al N Be F H Ne Na Mg O C B
init E= -1038.46961609953
  alpha nocc = 45  HOMO = -0.480218875307378  LUMO = -0.408588482642242
  beta  nocc = 45  HOMO = -0.469301059790561  LUMO = -0.40185980631539
cycle= 1 E= -1038.7138343161  delta_E= -0.244  |g|= 1.09  |ddm|= 2.64
  alpha nocc = 45  HOMO = -0.0396491449081168  LUMO = -0.0321864853377457
  beta  nocc = 45  HOMO = -0.0385047382533437  LUMO = -0.0337723926710981
cycle= 2 E= -1017.46643028095  delta_E= 21.2  |g|= 3.21  |ddm|= 6.03
  alpha nocc = 45  HOMO = -0.031703742728935  LUMO = -0.02369679593218
  beta  nocc = 45  HOMO = -0.0332156220572014  LUMO = -0.0230637838235077
cycle= 3 E= -1033.9146578276  delta_E= -16.4  |g|= 2.36  |ddm|= 4.51
  alpha nocc = 45  HOMO = -0.120471085620255  LUMO = -0.113191243525352
  beta  nocc = 45  HOMO = -0.121580832452999  LUMO = -0.116582983186671
cycle= 4 E= -1038.99383352771  delta_E= -5.08  |g|= 1.32  |ddm|= 3.12
  alpha nocc = 45  HOMO = -0.0862344219523451  LUMO = -0.0850152144396865
  beta  nocc = 45  HOMO = -0.0910664672127204  LUMO = -0.0877278643267602

WARN: system HOMO -0.0910664672127204 >= system LUMO -0.0877278643267602

cycle= 5 E= -1036.44439769154  delta_E= 2.55  |g|= 1.61  |ddm|= 3.42
  alpha nocc = 45  HOMO = -0.102535392122366  LUMO = -0.0968031864948837
  beta  nocc = 45  HOMO = -0.12626081920178  LUMO = -0.0978139430915979
cycle= 6 E= -1039.76461474818  delta_E= -3.32  |g|= 1.33  |ddm|= 2.12
  alpha nocc = 45  HOMO = -0.0972893928797608  LUMO = -0.0707412732813697
  beta  nocc = 45  HOMO = -0.125045172748813  LUMO = -0.0722715040731936
cycle= 7 E= -1038.56685925622  delta_E=  1.2  |g|= 1.71  |ddm|= 0.783
  alpha nocc = 45  HOMO = -0.0940650262622603  LUMO = -0.0840399589098697
  beta  nocc = 45  HOMO = -0.106201128071917  LUMO = -0.0951169478575343

WARN: system HOMO -0.106201128071917 >= system LUMO -0.0951169478575343

cycle= 8 E= -1039.38343287958  delta_E= -0.817  |g|= 1.44  |ddm|= 0.916
  alpha nocc = 45  HOMO = -0.0948389261943745  LUMO = -0.0835510585428588
  beta  nocc = 45  HOMO = -0.106504931640523  LUMO = -0.0947823969844111

WARN: system HOMO -0.106504931640523 >= system LUMO -0.0947823969844111

cycle= 9 E= -1039.40733253359  delta_E= -0.0239  |g|= 1.43  |ddm|= 0.0796
  alpha nocc = 45  HOMO = -0.174439365594217  LUMO = -0.159462099464471
  beta  nocc = 45  HOMO = -0.174650051290585  LUMO = -0.170082884107017
cycle= 10 E= -1040.1138303331  delta_E= -0.706  |g|= 0.967  |ddm|=  2.4
  alpha nocc = 45  HOMO = -0.182943202459012  LUMO = -0.123315803565512
  beta  nocc = 45  HOMO = -0.205900650758749  LUMO = -0.0769665875048132
cycle= 11 E= -1041.06282758159  delta_E= -0.949  |g|= 0.318  |ddm|= 1.45
  alpha nocc = 45  HOMO = -0.173261637153037  LUMO = -0.0341382691494055
  beta  nocc = 45  HOMO = -0.245902480110865  LUMO = -0.0676832467475554
cycle= 12 E= -1041.29258022157  delta_E= -0.23  |g|= 0.218  |ddm|= 0.953
  alpha nocc = 45  HOMO = -0.216646092159934  LUMO = -0.00423233338557509
  beta  nocc = 45  HOMO = -0.254360054860657  LUMO = -0.0240438993902586
cycle= 13 E= -1041.41425010858  delta_E= -0.122  |g|= 0.115  |ddm|= 0.643
  alpha nocc = 45  HOMO = -0.206895683036479  LUMO = -0.0105695856195356
  beta  nocc = 45  HOMO = -0.237424318270478  LUMO = -0.027455372564963
cycle= 14 E= -1041.47274836252  delta_E= -0.0585  |g|= 0.0949  |ddm|= 0.471
  alpha nocc = 45  HOMO = -0.218378979291065  LUMO = -0.00732970565662223
  beta  nocc = 45  HOMO = -0.242092666808579  LUMO = -0.020681086973896
cycle= 15 E= -1041.50948293667  delta_E= -0.0367  |g|= 0.0811  |ddm|= 0.343
  alpha nocc = 45  HOMO = -0.222881948819646  LUMO = -0.00894219864197002
  beta  nocc = 45  HOMO = -0.240398188288573  LUMO = -0.014030998195416
cycle= 16 E= -1041.54482182982  delta_E= -0.0353  |g|= 0.0727  |ddm|= 0.369
  alpha nocc = 45  HOMO = -0.227991007802376  LUMO = -0.00784545511589648
  beta  nocc = 45  HOMO = -0.239640550346244  LUMO = -0.0159379094352552
cycle= 17 E= -1041.56455645897  delta_E= -0.0197  |g|= 0.0776  |ddm|= 0.22
  alpha nocc = 45  HOMO = -0.215833954342021  LUMO = -0.00853748079388054
  beta  nocc = 45  HOMO = -0.235060376210684  LUMO = -0.0146274796328088
cycle= 18 E= -1041.52013904326  delta_E= 0.0444  |g|= 0.0532  |ddm|= 0.614
  alpha nocc = 45  HOMO = -0.218594378946047  LUMO = -0.0072461044445304
  beta  nocc = 45  HOMO = -0.235613461834597  LUMO = -0.0118823376179135
cycle= 19 E= -1041.53377085198  delta_E= -0.0136  |g|= 0.0489  |ddm|= 0.241
  alpha nocc = 45  HOMO = -0.217585407623205  LUMO = -0.00607238047026558
  beta  nocc = 45  HOMO = -0.232634017034621  LUMO = -0.00968454665315619
cycle= 20 E= -1041.53744977438  delta_E= -0.00368  |g|= 0.0475  |ddm|= 0.0913
  alpha nocc = 45  HOMO = -0.216532802141969  LUMO = -0.00621108447802156
  beta  nocc = 45  HOMO = -0.234175902826719  LUMO = -0.00917872663977242
cycle= 21 E= -1041.53356427835  delta_E= 0.00389  |g|= 0.0468  |ddm|= 0.0673
  alpha nocc = 45  HOMO = -0.219413642400448  LUMO = -0.00376731433502953
  beta  nocc = 45  HOMO = -0.2452989746943  LUMO = -0.00537235046789241
cycle= 22 E= -1041.5167114999  delta_E= 0.0169  |g|= 0.0398  |ddm|= 0.341
  alpha nocc = 45  HOMO = -0.217393809264293  LUMO = -0.00560759305069322
  beta  nocc = 45  HOMO = -0.251958199758621  LUMO = -0.00427252507445941
cycle= 23 E= -1041.50789717274  delta_E= 0.00881  |g|= 0.034  |ddm|= 0.308
  alpha nocc = 45  HOMO = -0.219724770678932  LUMO = -0.00673536475797378
  beta  nocc = 45  HOMO = -0.250592543090987  LUMO = -0.00254221346259183
cycle= 24 E= -1041.51229285117  delta_E= -0.0044  |g|= 0.0352  |ddm|= 0.116
  alpha nocc = 45  HOMO = -0.219378767460292  LUMO = -0.00631876309817713
  beta  nocc = 45  HOMO = -0.251077654616919  LUMO = -0.00250227604042304
cycle= 25 E= -1041.51097049956  delta_E= 0.00132  |g|= 0.0346  |ddm|= 0.0298
  alpha nocc = 45  HOMO = -0.212240624679325  LUMO = -0.00728664665621198
  beta  nocc = 45  HOMO = -0.247522529785142  LUMO = -0.00328250788706152
cycle= 26 E= -1041.50616575758  delta_E= 0.0048  |g|= 0.0298  |ddm|= 0.129
  alpha nocc = 45  HOMO = -0.209614952509494  LUMO = -0.00494580673495654
  beta  nocc = 45  HOMO = -0.253091278665955  LUMO = -0.000730877181940433
cycle= 27 E= -1041.50217324563  delta_E= 0.00399  |g|= 0.0218  |ddm|= 0.268
  alpha nocc = 45  HOMO = -0.206017194212258  LUMO = -0.00702192041945403
  beta  nocc = 45  HOMO = -0.249519380259767  LUMO = -0.000671631016893737
cycle= 28 E= -1041.50677621565  delta_E= -0.0046  |g|= 0.0228  |ddm|= 0.177
  alpha nocc = 45  HOMO = -0.207735773347159  LUMO = -0.00533909659378531
  beta  nocc = 45  HOMO = -0.254940784820701  LUMO = -0.000603902940398637
cycle= 29 E= -1041.50472156282  delta_E= 0.00205  |g|= 0.0212  |ddm|=  0.1
  alpha nocc = 45  HOMO = -0.206158768074146  LUMO = -0.00656199825230631
  beta  nocc = 45  HOMO = -0.252969993313441  LUMO = -0.00125088483416811
cycle= 30 E= -1041.50517958776  delta_E= -0.000458  |g|= 0.0221  |ddm|= 0.0399
  alpha nocc = 45  HOMO = -0.206899525021272  LUMO = -0.00555175273916823
  beta  nocc = 45  HOMO = -0.256617073876071  LUMO = -0.000871087942571193
cycle= 31 E= -1041.5045367617  delta_E= 0.000643  |g|= 0.0212  |ddm|= 0.0614
  alpha nocc = 45  HOMO = -0.205890746607834  LUMO = -0.00568673551635341
  beta  nocc = 45  HOMO = -0.256845769957444  LUMO = -0.00138792221550838
cycle= 32 E= -1041.50367617284  delta_E= 0.000861  |g|= 0.0207  |ddm|= 0.0387
  alpha nocc = 45  HOMO = -0.207912008142227  LUMO = -0.00535204199078054
  beta  nocc = 45  HOMO = -0.257411777588672  LUMO = -0.00129776048865941
cycle= 33 E= -1041.50191362492  delta_E= 0.00176  |g|= 0.0192  |ddm|= 0.11
  alpha nocc = 45  HOMO = -0.207263683379377  LUMO = -0.0058364691301691
  beta  nocc = 45  HOMO = -0.256075938284311  LUMO = -0.00146091896270834
cycle= 34 E= -1041.50330876354  delta_E= -0.0014  |g|= 0.0199  |ddm|= 0.0709
  alpha nocc = 45  HOMO = -0.207706078442504  LUMO = -0.00576134793446987
  beta  nocc = 45  HOMO = -0.256865929669245  LUMO = -0.0018041363729841
cycle= 35 E= -1041.50215869512  delta_E= 0.00115  |g|= 0.0187  |ddm|= 0.0483
  alpha nocc = 45  HOMO = -0.207416243954636  LUMO = -0.00581172898327776
  beta  nocc = 45  HOMO = -0.257854488957773  LUMO = -0.00220596607324834
cycle= 36 E= -1041.50254095489  delta_E= -0.000382  |g|= 0.0179  |ddm|= 0.093
  alpha nocc = 45  HOMO = -0.207610272689754  LUMO = -0.00592433690878543
  beta  nocc = 45  HOMO = -0.257895201818789  LUMO = -0.00225222252308858
cycle= 37 E= -1041.50317522513  delta_E= -0.000634  |g|= 0.018  |ddm|= 0.0289
  alpha nocc = 45  HOMO = -0.20819366291625  LUMO = -0.00555815746132858
  beta  nocc = 45  HOMO = -0.25713705054241  LUMO = -0.00218326476977674
cycle= 38 E= -1041.50266278132  delta_E= 0.000512  |g|= 0.0178  |ddm|= 0.0295
  alpha nocc = 45  HOMO = -0.208045059017873  LUMO = -0.00521169251291513
  beta  nocc = 45  HOMO = -0.254970270462555  LUMO = -0.00161971459497669
cycle= 39 E= -1041.50230867148  delta_E= 0.000354  |g|= 0.0178  |ddm|= 0.0549
  alpha nocc = 45  HOMO = -0.207776917778223  LUMO = -0.00532081400915759
  beta  nocc = 45  HOMO = -0.255217821173501  LUMO = -0.00172169852686174
cycle= 40 E= -1041.50233750295  delta_E= -2.88e-05  |g|= 0.0178  |ddm|= 0.0106
  alpha nocc = 45  HOMO = -0.207969634633966  LUMO = -0.00535575121396922
  beta  nocc = 45  HOMO = -0.254926413921299  LUMO = -0.0017021536975747
cycle= 41 E= -1041.50209561295  delta_E= 0.000242  |g|= 0.0177  |ddm|= 0.0196
  alpha nocc = 45  HOMO = -0.208257608461329  LUMO = -0.00543990551319803
  beta  nocc = 45  HOMO = -0.254677896047431  LUMO = -0.00202323004004554
cycle= 42 E= -1041.50182382781  delta_E= 0.000272  |g|= 0.0172  |ddm|= 0.0286
  alpha nocc = 45  HOMO = -0.209878692683896  LUMO = -0.00607743802774846
  beta  nocc = 45  HOMO = -0.253004653307384  LUMO = -0.00170374164495137
cycle= 43 E= -1041.5033157277  delta_E= -0.00149  |g|= 0.0164  |ddm|= 0.0969
  alpha nocc = 45  HOMO = -0.209581849440076  LUMO = -0.00645541297174709
  beta  nocc = 45  HOMO = -0.252088580280654  LUMO = -0.00177798273066292
cycle= 44 E= -1041.50437931047  delta_E= -0.00106  |g|= 0.0166  |ddm|= 0.0597
  alpha nocc = 45  HOMO = -0.209527541362545  LUMO = -0.00630308669482686
  beta  nocc = 45  HOMO = -0.251822781567371  LUMO = -0.00211416407973588
cycle= 45 E= -1041.50404116495  delta_E= 0.000338  |g|= 0.0163  |ddm|= 0.0192
  alpha nocc = 45  HOMO = -0.209086770959697  LUMO = -0.00610111295672883
  beta  nocc = 45  HOMO = -0.249599422949922  LUMO = -0.00166554800802683
cycle= 46 E= -1041.5045971907  delta_E= -0.000556  |g|= 0.0159  |ddm|= 0.087
  alpha nocc = 45  HOMO = -0.208820275892843  LUMO = -0.0063014743275685
  beta  nocc = 45  HOMO = -0.249795955454221  LUMO = -0.00170965569534751
cycle= 47 E= -1041.50489386036  delta_E= -0.000297  |g|= 0.0161  |ddm|= 0.0188
  alpha nocc = 45  HOMO = -0.20986892015792  LUMO = -0.00576880733479624
  beta  nocc = 45  HOMO = -0.248323470524082  LUMO = -0.00158990016476417
cycle= 48 E= -1041.50404741098  delta_E= 0.000846  |g|= 0.0156  |ddm|= 0.0692
  alpha nocc = 45  HOMO = -0.209781957073582  LUMO = -0.00654506785318258
  beta  nocc = 45  HOMO = -0.247682689010432  LUMO = -0.00120823416539933
cycle= 49 E= -1041.50437822873  delta_E= -0.000331  |g|= 0.0152  |ddm|= 0.0444
  alpha nocc = 45  HOMO = -0.212047136590187  LUMO = -0.00670662046453663
  beta  nocc = 45  HOMO = -0.248336001827536  LUMO = -0.000890707182185602
cycle= 50 E= -1041.50419790823  delta_E= 0.00018  |g|= 0.0149  |ddm|= 0.0445
SCF not converged.
SCF energy = -1041.50419790823 after 50 cycles  <S^2> = 2.361416  2S+1 = 3.2319753
shift = 0
thresh = 1e-05 
eri1 (1031, 2415)
eri1 (1031, 2415)
    CPU time for making amplitude: integral transform      0.25 sec, wall time      0.02 sec
shape (1031, 1656)
1st memory: 232.7 MiB
eri1 (1031, 2415)
eri1 (1031, 2415)
2nd memory: 199.7 MiB

========================
iter = 0  energy = -1041.884361 energy diff = 1041.884361
multiplicity <S^2> : Reference = 2.361416 Response = 2.3618063 Projector = 2.3621965
eri1 (1031, 2415)
eri1 (1031, 2415)
    CPU time for making amplitude: integral transform      0.23 sec, wall time      0.02 sec
shape (1031, 1656)
1st memory: 233.5 MiB
eri1 (1031, 2415)
eri1 (1031, 2415)
2nd memory: 200.0 MiB

========================
iter = 1  energy = -1041.906624 energy diff = 0.022263
multiplicity <S^2> : Reference = 2.3526164 Response = 2.3527058 Projector = 2.3527952
eri1 (1031, 2415)
eri1 (1031, 2415)
    CPU time for making amplitude: integral transform      0.29 sec, wall time      0.02 sec
shape (1031, 1656)
1st memory: 237.8 MiB
eri1 (1031, 2415)
eri1 (1031, 2415)
2nd memory: 200.8 MiB

========================
iter = 2  energy = -1041.916540 energy diff = 0.009917
multiplicity <S^2> : Reference = 2.3147505 Response = 2.3145552 Projector = 2.3143598
eri1 (1031, 2415)
eri1 (1031, 2415)
    CPU time for making amplitude: integral transform      0.33 sec, wall time      0.02 sec
shape (1031, 1656)
1st memory: 237.4 MiB
eri1 (1031, 2415)
eri1 (1031, 2415)
2nd memory: 200.9 MiB

========================
iter = 3  energy = -1041.927198 energy diff = 0.010658
multiplicity <S^2> : Reference = 2.2945094 Response = 2.2945324 Projector = 2.2945554
eri1 (1031, 2415)
eri1 (1031, 2415)
    CPU time for making amplitude: integral transform      0.31 sec, wall time      0.02 sec
shape (1031, 1656)
1st memory: 237.7 MiB
eri1 (1031, 2415)
eri1 (1031, 2415)
2nd memory: 201.3 MiB

========================
iter = 4  energy = -1041.938776 energy diff = 0.011578
multiplicity <S^2> : Reference = 2.2863686 Response = 2.2862811 Projector = 2.2861937
eri1 (1031, 2415)
eri1 (1031, 2415)
    CPU time for making amplitude: integral transform      0.31 sec, wall time      0.02 sec
shape (1031, 1656)
1st memory: 237.7 MiB
eri1 (1031, 2415)
eri1 (1031, 2415)
2nd memory: 201.1 MiB

========================
iter = 5  energy = -1041.951894 energy diff = 0.013118
multiplicity <S^2> : Reference = 2.314177 Response = 2.3140188 Projector = 2.3138606
eri1 (1031, 2415)
eri1 (1031, 2415)
    CPU time for making amplitude: integral transform      0.28 sec, wall time      0.02 sec
shape (1031, 1656)
1st memory: 237.6 MiB
eri1 (1031, 2415)
eri1 (1031, 2415)
2nd memory: 200.9 MiB

========================
iter = 6  energy = -1041.959299 energy diff = 0.007404
multiplicity <S^2> : Reference = 2.3629627 Response = 2.3631244 Projector = 2.363286
eri1 (1031, 2415)
eri1 (1031, 2415)
    CPU time for making amplitude: integral transform      0.30 sec, wall time      0.02 sec
shape (1031, 1656)
1st memory: 237.2 MiB
eri1 (1031, 2415)
eri1 (1031, 2415)
2nd memory: 201.4 MiB

========================
iter = 7  energy = -1041.963153 energy diff = 0.003855
multiplicity <S^2> : Reference = 2.4161685 Response = 2.4161841 Projector = 2.4161997
eri1 (1031, 2415)
eri1 (1031, 2415)
    CPU time for making amplitude: integral transform      0.31 sec, wall time      0.02 sec
shape (1031, 1656)
1st memory: 237.4 MiB
eri1 (1031, 2415)
eri1 (1031, 2415)
2nd memory: 200.7 MiB

========================
iter = 8  energy = -1041.964079 energy diff = 0.000926
multiplicity <S^2> : Reference = 2.4372946 Response = 2.437216 Projector = 2.4371375
eri1 (1031, 2415)
eri1 (1031, 2415)
    CPU time for making amplitude: integral transform      0.28 sec, wall time      0.02 sec
shape (1031, 1656)
1st memory: 237.5 MiB
eri1 (1031, 2415)
eri1 (1031, 2415)
2nd memory: 201.3 MiB

========================
iter = 9  energy = -1041.962500 energy diff = 0.001579
multiplicity <S^2> : Reference = 2.3809318 Response = 2.381067 Projector = 2.3812023
eri1 (1031, 2415)
eri1 (1031, 2415)
    CPU time for making amplitude: integral transform      0.31 sec, wall time      0.02 sec
shape (1031, 1656)
1st memory: 237.4 MiB
eri1 (1031, 2415)
eri1 (1031, 2415)
2nd memory: 201.3 MiB

========================
iter = 10  energy = -1041.959403 energy diff = 0.003097
multiplicity <S^2> : Reference = 2.1697632 Response = 2.1697729 Projector = 2.1697827
eri1 (1031, 2415)
eri1 (1031, 2415)
    CPU time for making amplitude: integral transform      0.28 sec, wall time      0.02 sec
shape (1031, 1656)
1st memory: 237.6 MiB
eri1 (1031, 2415)
eri1 (1031, 2415)
2nd memory: 201.4 MiB

========================
iter = 11  energy = -1041.954846 energy diff = 0.004557
multiplicity <S^2> : Reference = 2.05023 Response = 2.0502234 Projector = 2.0502168
eri1 (1031, 2415)
eri1 (1031, 2415)
    CPU time for making amplitude: integral transform      0.27 sec, wall time      0.02 sec
shape (1031, 1656)
1st memory: 238.0 MiB
eri1 (1031, 2415)
eri1 (1031, 2415)
2nd memory: 202.5 MiB

========================
iter = 12  energy = -1041.957182 energy diff = 0.002336
multiplicity <S^2> : Reference = 2.0609633 Response = 2.0610319 Projector = 2.0611005
eri1 (1031, 2415)
eri1 (1031, 2415)
    CPU time for making amplitude: integral transform      0.24 sec, wall time      0.02 sec
shape (1031, 1656)
1st memory: 237.4 MiB
eri1 (1031, 2415)
eri1 (1031, 2415)
2nd memory: 202.3 MiB

========================
iter = 13  energy = -1041.953067 energy diff = 0.004115
multiplicity <S^2> : Reference = 2.0504669 Response = 2.0503258 Projector = 2.0501846
eri1 (1031, 2415)
eri1 (1031, 2415)
    CPU time for making amplitude: integral transform      0.25 sec, wall time      0.02 sec
shape (1031, 1656)
1st memory: 237.9 MiB
eri1 (1031, 2415)
eri1 (1031, 2415)
2nd memory: 202.8 MiB

========================
iter = 14  energy = -1041.951632 energy diff = 0.001436
multiplicity <S^2> : Reference = 2.0576841 Response = 2.0575862 Projector = 2.0574883
eri1 (1031, 2415)
eri1 (1031, 2415)
    CPU time for making amplitude: integral transform      0.27 sec, wall time      0.02 sec
shape (1031, 1656)
1st memory: 237.6 MiB
eri1 (1031, 2415)
eri1 (1031, 2415)
2nd memory: 202.1 MiB

========================
iter = 15  energy = -1041.949556 energy diff = 0.002076
multiplicity <S^2> : Reference = 2.0642613 Response = 2.0642099 Projector = 2.0641586
eri1 (1031, 2415)
eri1 (1031, 2415)
    CPU time for making amplitude: integral transform      0.29 sec, wall time      0.02 sec
shape (1031, 1656)
1st memory: 237.5 MiB
eri1 (1031, 2415)
eri1 (1031, 2415)
2nd memory: 203.0 MiB

========================
iter = 16  energy = -1041.951242 energy diff = 0.001686
multiplicity <S^2> : Reference = 2.0598516 Response = 2.059773 Projector = 2.0596944
eri1 (1031, 2415)
eri1 (1031, 2415)
    CPU time for making amplitude: integral transform      0.25 sec, wall time      0.02 sec
shape (1031, 1656)
1st memory: 237.6 MiB
eri1 (1031, 2415)
eri1 (1031, 2415)
2nd memory: 202.6 MiB

========================
iter = 17  energy = -1041.954507 energy diff = 0.003265
multiplicity <S^2> : Reference = 2.0554684 Response = 2.055403 Projector = 2.0553376
eri1 (1031, 2415)
eri1 (1031, 2415)
    CPU time for making amplitude: integral transform      0.30 sec, wall time      0.02 sec
shape (1031, 1656)
1st memory: 237.4 MiB
eri1 (1031, 2415)
eri1 (1031, 2415)
2nd memory: 202.7 MiB

========================
iter = 18  energy = -1041.960592 energy diff = 0.006085
multiplicity <S^2> : Reference = 2.0679617 Response = 2.0678556 Projector = 2.0677496
eri1 (1031, 2415)
eri1 (1031, 2415)
    CPU time for making amplitude: integral transform      0.25 sec, wall time      0.02 sec
shape (1031, 1656)
1st memory: 237.5 MiB
eri1 (1031, 2415)
eri1 (1031, 2415)
2nd memory: 202.5 MiB

========================
iter = 19  energy = -1041.961643 energy diff = 0.001051
multiplicity <S^2> : Reference = 2.0714972 Response = 2.0714596 Projector = 2.0714219
eri1 (1031, 2415)
eri1 (1031, 2415)
    CPU time for making amplitude: integral transform      0.28 sec, wall time      0.02 sec
shape (1031, 1656)
1st memory: 237.4 MiB
eri1 (1031, 2415)
eri1 (1031, 2415)
2nd memory: 202.7 MiB

========================
iter = 20  energy = -1041.961489 energy diff = 0.000154
multiplicity <S^2> : Reference = 2.0711026 Response = 2.0710695 Projector = 2.0710364
eri1 (1031, 2415)
eri1 (1031, 2415)
    CPU time for making amplitude: integral transform      0.33 sec, wall time      0.02 sec
shape (1031, 1656)
1st memory: 237.8 MiB
eri1 (1031, 2415)
eri1 (1031, 2415)
2nd memory: 204.0 MiB

========================
iter = 21  energy = -1041.961497 energy diff = 0.000008
multiplicity <S^2> : Reference = 2.0711208 Response = 2.0710877 Projector = 2.0710547

UOB-MP2 has converged
UOB-MP2 energy =  -1041.961497347553
shift = 0
thresh = 1e-05 
eri1 (1031, 2415)
eri1 (1031, 2415)
    CPU time for making amplitude: integral transform      0.30 sec, wall time      0.02 sec
shape (1031, 1656)
1st memory: 237.2 MiB
eri1 (1031, 2415)
eri1 (1031, 2415)
2nd memory: 199.7 MiB

========================
iter = 0  energy = -1041.793079 energy diff = 1041.793079
multiplicity <S^2> : Reference = 2.361416 Response = 2.3618063 Projector = 2.3621965
eri1 (1031, 2415)
eri1 (1031, 2415)
    CPU time for making amplitude: integral transform      0.28 sec, wall time      0.02 sec
shape (1031, 1656)
1st memory: 237.2 MiB
eri1 (1031, 2415)
eri1 (1031, 2415)
2nd memory: 200.2 MiB

========================
iter = 1  energy = -1041.818835 energy diff = 0.025756
multiplicity <S^2> : Reference = 2.3404188 Response = 2.340483 Projector = 2.3405473
eri1 (1031, 2415)
eri1 (1031, 2415)
    CPU time for making amplitude: integral transform      0.31 sec, wall time      0.02 sec
shape (1031, 1656)
1st memory: 237.7 MiB
eri1 (1031, 2415)
eri1 (1031, 2415)
2nd memory: 200.6 MiB

========================
iter = 2  energy = -1041.827835 energy diff = 0.009000
multiplicity <S^2> : Reference = 2.3006998 Response = 2.3003023 Projector = 2.2999049
eri1 (1031, 2415)
eri1 (1031, 2415)
    CPU time for making amplitude: integral transform      0.27 sec, wall time      0.02 sec
shape (1031, 1656)
1st memory: 237.6 MiB
eri1 (1031, 2415)
eri1 (1031, 2415)
2nd memory: 200.6 MiB

========================
iter = 3  energy = -1041.835955 energy diff = 0.008121
multiplicity <S^2> : Reference = 2.2743921 Response = 2.2743903 Projector = 2.2743884
eri1 (1031, 2415)
eri1 (1031, 2415)
    CPU time for making amplitude: integral transform      0.29 sec, wall time      0.02 sec
shape (1031, 1656)
1st memory: 237.4 MiB
eri1 (1031, 2415)
eri1 (1031, 2415)
2nd memory: 200.5 MiB

========================
iter = 4  energy = -1041.841406 energy diff = 0.005451
multiplicity <S^2> : Reference = 2.26828 Response = 2.2682144 Projector = 2.2681488
eri1 (1031, 2415)
eri1 (1031, 2415)
    CPU time for making amplitude: integral transform      0.26 sec, wall time      0.02 sec
shape (1031, 1656)
1st memory: 237.3 MiB
eri1 (1031, 2415)
eri1 (1031, 2415)
2nd memory: 200.8 MiB

========================
iter = 5  energy = -1041.847909 energy diff = 0.006503
multiplicity <S^2> : Reference = 2.3130454 Response = 2.313327 Projector = 2.3136086
eri1 (1031, 2415)
eri1 (1031, 2415)
    CPU time for making amplitude: integral transform      0.26 sec, wall time      0.02 sec
shape (1031, 1656)
1st memory: 237.9 MiB
eri1 (1031, 2415)
eri1 (1031, 2415)
2nd memory: 201.7 MiB

========================
iter = 6  energy = -1041.849189 energy diff = 0.001280
multiplicity <S^2> : Reference = 2.3421787 Response = 2.3422527 Projector = 2.3423267
eri1 (1031, 2415)
eri1 (1031, 2415)
    CPU time for making amplitude: integral transform      0.30 sec, wall time      0.02 sec
shape (1031, 1656)
1st memory: 237.0 MiB
eri1 (1031, 2415)
eri1 (1031, 2415)
2nd memory: 200.6 MiB

========================
iter = 7  energy = -1041.847377 energy diff = 0.001811
multiplicity <S^2> : Reference = 2.2683051 Response = 2.2683009 Projector = 2.2682968
eri1 (1031, 2415)
eri1 (1031, 2415)
    CPU time for making amplitude: integral transform      0.27 sec, wall time      0.02 sec
shape (1031, 1656)
1st memory: 237.1 MiB
eri1 (1031, 2415)
eri1 (1031, 2415)
2nd memory: 200.9 MiB

========================
iter = 8  energy = -1041.843259 energy diff = 0.004119
multiplicity <S^2> : Reference = 2.1128628 Response = 2.1129988 Projector = 2.1131347
eri1 (1031, 2415)
eri1 (1031, 2415)
    CPU time for making amplitude: integral transform      0.26 sec, wall time      0.02 sec
shape (1031, 1656)
1st memory: 237.6 MiB
eri1 (1031, 2415)
eri1 (1031, 2415)
2nd memory: 201.4 MiB

========================
iter = 9  energy = -1041.832579 energy diff = 0.010680
multiplicity <S^2> : Reference = 2.1401645 Response = 2.1402028 Projector = 2.140241
eri1 (1031, 2415)
eri1 (1031, 2415)
    CPU time for making amplitude: integral transform      0.31 sec, wall time      0.02 sec
shape (1031, 1656)
1st memory: 237.3 MiB
eri1 (1031, 2415)
eri1 (1031, 2415)
2nd memory: 202.4 MiB

========================
iter = 10  energy = -1041.837674 energy diff = 0.005095
multiplicity <S^2> : Reference = 2.0941149 Response = 2.094027 Projector = 2.093939
eri1 (1031, 2415)
eri1 (1031, 2415)
    CPU time for making amplitude: integral transform      0.25 sec, wall time      0.02 sec
shape (1031, 1656)
1st memory: 237.8 MiB
eri1 (1031, 2415)
eri1 (1031, 2415)
2nd memory: 202.6 MiB

========================
iter = 11  energy = -1041.838512 energy diff = 0.000838
multiplicity <S^2> : Reference = 2.1002341 Response = 2.1001683 Projector = 2.1001026
eri1 (1031, 2415)
eri1 (1031, 2415)
    CPU time for making amplitude: integral transform      0.29 sec, wall time      0.02 sec
shape (1031, 1656)
1st memory: 237.9 MiB
eri1 (1031, 2415)
eri1 (1031, 2415)
2nd memory: 202.4 MiB

========================
iter = 12  energy = -1041.838759 energy diff = 0.000247
multiplicity <S^2> : Reference = 2.0956106 Response = 2.0954817 Projector = 2.0953527
eri1 (1031, 2415)
eri1 (1031, 2415)
    CPU time for making amplitude: integral transform      0.26 sec, wall time      0.02 sec
shape (1031, 1656)
1st memory: 237.6 MiB
eri1 (1031, 2415)
eri1 (1031, 2415)
2nd memory: 202.1 MiB

========================
iter = 13  energy = -1041.839432 energy diff = 0.000673
multiplicity <S^2> : Reference = 2.0930572 Response = 2.0929914 Projector = 2.0929255
eri1 (1031, 2415)
eri1 (1031, 2415)
    CPU time for making amplitude: integral transform      0.31 sec, wall time      0.02 sec
shape (1031, 1656)
1st memory: 237.5 MiB
eri1 (1031, 2415)
eri1 (1031, 2415)
2nd memory: 202.3 MiB

========================
iter = 14  energy = -1041.842296 energy diff = 0.002865
multiplicity <S^2> : Reference = 2.0836466 Response = 2.083576 Projector = 2.0835053
eri1 (1031, 2415)
eri1 (1031, 2415)
    CPU time for making amplitude: integral transform      0.28 sec, wall time      0.02 sec
shape (1031, 1656)
1st memory: 237.2 MiB
eri1 (1031, 2415)
eri1 (1031, 2415)
2nd memory: 202.0 MiB

========================
iter = 15  energy = -1041.849542 energy diff = 0.007245
multiplicity <S^2> : Reference = 2.0663396 Response = 2.0664511 Projector = 2.0665627
eri1 (1031, 2415)
eri1 (1031, 2415)
    CPU time for making amplitude: integral transform      0.29 sec, wall time      0.02 sec
shape (1031, 1656)
1st memory: 237.5 MiB
eri1 (1031, 2415)
eri1 (1031, 2415)
2nd memory: 202.6 MiB

========================
iter = 16  energy = -1041.859867 energy diff = 0.010325
multiplicity <S^2> : Reference = 2.1129634 Response = 2.1129187 Projector = 2.1128739
eri1 (1031, 2415)
eri1 (1031, 2415)
    CPU time for making amplitude: integral transform      0.37 sec, wall time      0.02 sec
shape (1031, 1656)
1st memory: 237.1 MiB
eri1 (1031, 2415)
eri1 (1031, 2415)
2nd memory: 202.3 MiB

========================
iter = 17  energy = -1041.858268 energy diff = 0.001599
multiplicity <S^2> : Reference = 2.097221 Response = 2.0971028 Projector = 2.0969846
eri1 (1031, 2415)
eri1 (1031, 2415)
    CPU time for making amplitude: integral transform      0.25 sec, wall time      0.02 sec
shape (1031, 1656)
1st memory: 240.0 MiB
eri1 (1031, 2415)
eri1 (1031, 2415)
2nd memory: 202.4 MiB

========================
iter = 18  energy = -1041.858200 energy diff = 0.000068
multiplicity <S^2> : Reference = 2.0975761 Response = 2.0975457 Projector = 2.0975153
eri1 (1031, 2415)
eri1 (1031, 2415)
    CPU time for making amplitude: integral transform      0.26 sec, wall time      0.02 sec
shape (1031, 1656)
1st memory: 240.2 MiB
eri1 (1031, 2415)
eri1 (1031, 2415)
2nd memory: 202.7 MiB

========================
iter = 19  energy = -1041.858231 energy diff = 0.000031
multiplicity <S^2> : Reference = 2.0978814 Response = 2.0978509 Projector = 2.0978203
eri1 (1031, 2415)
eri1 (1031, 2415)
    CPU time for making amplitude: integral transform      0.28 sec, wall time      0.02 sec
shape (1031, 1656)
1st memory: 240.5 MiB
eri1 (1031, 2415)
eri1 (1031, 2415)
2nd memory: 202.9 MiB

========================
iter = 20  energy = -1041.856486 energy diff = 0.001745
multiplicity <S^2> : Reference = 2.0816958 Response = 2.0816691 Projector = 2.0816423
eri1 (1031, 2415)
eri1 (1031, 2415)
    CPU time for making amplitude: integral transform      0.30 sec, wall time      0.02 sec
shape (1031, 1656)
1st memory: 239.8 MiB
eri1 (1031, 2415)
eri1 (1031, 2415)
2nd memory: 202.6 MiB

========================
iter = 21  energy = -1041.856294 energy diff = 0.000193
multiplicity <S^2> : Reference = 2.077836 Response = 2.0778733 Projector = 2.0779107
eri1 (1031, 2415)
eri1 (1031, 2415)
    CPU time for making amplitude: integral transform      0.30 sec, wall time      0.02 sec
shape (1031, 1656)
1st memory: 240.3 MiB
eri1 (1031, 2415)
eri1 (1031, 2415)
2nd memory: 203.5 MiB

========================
iter = 22  energy = -1041.856477 energy diff = 0.000183
multiplicity <S^2> : Reference = 2.0764857 Response = 2.0765263 Projector = 2.076567
eri1 (1031, 2415)
eri1 (1031, 2415)
    CPU time for making amplitude: integral transform      0.28 sec, wall time      0.02 sec
shape (1031, 1656)
1st memory: 239.9 MiB
eri1 (1031, 2415)
eri1 (1031, 2415)
2nd memory: 203.3 MiB

========================
iter = 23  energy = -1041.856802 energy diff = 0.000325
multiplicity <S^2> : Reference = 2.073087 Response = 2.073353 Projector = 2.073619
eri1 (1031, 2415)
eri1 (1031, 2415)
    CPU time for making amplitude: integral transform      0.27 sec, wall time      0.02 sec
shape (1031, 1656)
1st memory: 240.5 MiB
eri1 (1031, 2415)
eri1 (1031, 2415)
2nd memory: 203.6 MiB

========================
iter = 24  energy = -1041.856092 energy diff = 0.000710
multiplicity <S^2> : Reference = 2.0613653 Response = 2.0612442 Projector = 2.0611232
eri1 (1031, 2415)
eri1 (1031, 2415)
    CPU time for making amplitude: integral transform      0.28 sec, wall time      0.02 sec
shape (1031, 1656)
1st memory: 240.1 MiB
eri1 (1031, 2415)
eri1 (1031, 2415)
2nd memory: 203.5 MiB

========================
iter = 25  energy = -1041.854363 energy diff = 0.001729
multiplicity <S^2> : Reference = 2.0777525 Response = 2.0777755 Projector = 2.0777984
eri1 (1031, 2415)
eri1 (1031, 2415)
    CPU time for making amplitude: integral transform      0.27 sec, wall time      0.02 sec
shape (1031, 1656)
1st memory: 240.5 MiB
eri1 (1031, 2415)
eri1 (1031, 2415)
2nd memory: 204.6 MiB

========================
iter = 26  energy = -1041.853700 energy diff = 0.000663
multiplicity <S^2> : Reference = 2.096517 Response = 2.0965312 Projector = 2.0965453
eri1 (1031, 2415)
eri1 (1031, 2415)
    CPU time for making amplitude: integral transform      0.28 sec, wall time      0.02 sec
shape (1031, 1656)
1st memory: 240.8 MiB
eri1 (1031, 2415)
eri1 (1031, 2415)
2nd memory: 205.0 MiB

========================
iter = 27  energy = -1041.853699 energy diff = 0.000001
multiplicity <S^2> : Reference = 2.0949894 Response = 2.0950981 Projector = 2.0952068

UOB-MP2 has converged
UOB-MP2 energy =  -1041.8536994006183


******** <class 'pyscf.scf.uhf.UHF'> ********
method = UHF
initial guess = minao
damping factor = 0
level_shift factor = 0
DIIS = <class 'pyscf.scf.diis.CDIIS'>
diis_start_cycle = 1
diis_space = 8
SCF conv_tol = 1e-09
SCF conv_tol_grad = None
SCF max_cycles = 50
direct_scf = True
direct_scf_tol = 1e-13
chkfile to save SCF result = /home/ltkoanh/Al_B2LYP_6311_Gd_Cluster/Cluster/Al13-cation-singlet/tmpif9dn5oj
max_memory 4000 MB (current use 205 MB)
number electrons alpha = 45  beta = 45
Set gradient conv threshold to 3.16228e-05
init E= -1038.470535049
  alpha nocc = 45  HOMO = -0.480282903849975  LUMO = -0.408708950151606
  beta  nocc = 45  HOMO = -0.469361001313967  LUMO = -0.401974201629156
cycle= 1 E= -1038.71539374026  delta_E= -0.245  |g|= 1.09  |ddm|= 2.64
  alpha nocc = 45  HOMO = -0.0396719923722087  LUMO = -0.0321631908987497
  beta  nocc = 45  HOMO = -0.0385117312453282  LUMO = -0.0337449704858983
cycle= 2 E= -1017.4469696743  delta_E= 21.3  |g|= 3.22  |ddm|= 6.03
  alpha nocc = 45  HOMO = -0.0315567892392067  LUMO = -0.0237694275582236
  beta  nocc = 45  HOMO = -0.0330400633046138  LUMO = -0.0231057939024617
cycle= 3 E= -1033.8901134255  delta_E= -16.4  |g|= 2.36  |ddm|= 4.51
  alpha nocc = 45  HOMO = -0.120615445481091  LUMO = -0.113304008470876
  beta  nocc = 45  HOMO = -0.121710284362995  LUMO = -0.116693065902964
cycle= 4 E= -1038.98518162434  delta_E= -5.1  |g|= 1.32  |ddm|= 3.13
  alpha nocc = 45  HOMO = -0.0868876416385924  LUMO = -0.0856549583578289
  beta  nocc = 45  HOMO = -0.0917385267216003  LUMO = -0.0880563959600522

WARN: system HOMO -0.0917385267216003 >= system LUMO -0.0880563959600522

cycle= 5 E= -1036.41342679984  delta_E= 2.57  |g|= 1.58  |ddm|=  3.4
  alpha nocc = 45  HOMO = -0.107275911100056  LUMO = -0.097685796795771
  beta  nocc = 45  HOMO = -0.128316412834053  LUMO = -0.0991259418446407
cycle= 6 E= -1040.10542281619  delta_E= -3.69  |g|= 1.15  |ddm|= 2.21
  alpha nocc = 45  HOMO = -0.0998378819253498  LUMO = -0.0695130580989122
  beta  nocc = 45  HOMO = -0.131846657189199  LUMO = -0.0698920987702196
cycle= 7 E= -1038.90959005303  delta_E=  1.2  |g|= 1.64  |ddm|= 0.772
  alpha nocc = 45  HOMO = -0.101152290200877  LUMO = -0.0859059528109587
  beta  nocc = 45  HOMO = -0.150864850201412  LUMO = -0.0878191593961033
cycle= 8 E= -1039.66645893744  delta_E= -0.757  |g|= 1.35  |ddm|= 0.625
  alpha nocc = 45  HOMO = -0.100809058821175  LUMO = -0.0864141976080992
  beta  nocc = 45  HOMO = -0.149802116733264  LUMO = -0.088538049823504
cycle= 9 E= -1039.64278737382  delta_E= 0.0237  |g|= 1.36  |ddm|= 0.0473
  alpha nocc = 45  HOMO = -0.192784771924252  LUMO = -0.114050416431819
  beta  nocc = 45  HOMO = -0.198626182502857  LUMO = -0.0994949329337338
cycle= 10 E= -1040.68839215319  delta_E= -1.05  |g|= 0.714  |ddm|= 1.83
  alpha nocc = 45  HOMO = -0.1835583997421  LUMO = -0.0477300227423551
  beta  nocc = 45  HOMO = -0.207558340126744  LUMO = -0.0629036906518669
cycle= 11 E= -1041.14845199983  delta_E= -0.46  |g|= 0.37  |ddm|= 0.773
  alpha nocc = 45  HOMO = -0.216071322619812  LUMO = -0.0161503435563865
  beta  nocc = 45  HOMO = -0.241565727266267  LUMO = -0.0321442552470443
cycle= 12 E= -1041.32435873065  delta_E= -0.176  |g|= 0.244  |ddm|= 0.75
  alpha nocc = 45  HOMO = -0.203610164253502  LUMO = -0.00236730175606934
  beta  nocc = 45  HOMO = -0.2365843603051  LUMO = -0.00707019574780884
cycle= 13 E= -1041.43314714978  delta_E= -0.109  |g|= 0.0942  |ddm|= 0.635
  alpha nocc = 45  HOMO = -0.184455061356424  LUMO = -0.00551128737952779
  beta  nocc = 45  HOMO = -0.222645863559143  LUMO = -0.0142666658713649
cycle= 14 E= -1041.47076192315  delta_E= -0.0376  |g|= 0.0813  |ddm|= 0.362
  alpha nocc = 45  HOMO = -0.185512928431374  LUMO = -0.00208560260901653
  beta  nocc = 45  HOMO = -0.222385853441039  LUMO = -0.00869177288003829
cycle= 15 E= -1041.49858129619  delta_E= -0.0278  |g|= 0.0825  |ddm|= 0.27
  alpha nocc = 45  HOMO = -0.185382183145867  LUMO = -0.00223556284213322
  beta  nocc = 45  HOMO = -0.221526206376211  LUMO = -0.00858991467561219
cycle= 16 E= -1041.50425118196  delta_E= -0.00567  |g|= 0.0838  |ddm|= 0.0539
  alpha nocc = 45  HOMO = -0.183482620222085  LUMO = -0.00247720239996727
  beta  nocc = 45  HOMO = -0.222053485254313  LUMO = -0.00623428299634139
cycle= 17 E= -1041.49731847298  delta_E= 0.00693  |g|= 0.0746  |ddm|= 0.126
  alpha nocc = 45  HOMO = -0.177201030723085  LUMO = 0.000787854114935199
  beta  nocc = 45  HOMO = -0.221917847855043  LUMO = -0.00189812597287652
cycle= 18 E= -1041.50668108684  delta_E= -0.00936  |g|= 0.0613  |ddm|= 0.371
  alpha nocc = 45  HOMO = -0.176629163740045  LUMO = -4.04817692386162e-05
  beta  nocc = 45  HOMO = -0.221167938437902  LUMO = -0.00227204947043024
cycle= 19 E= -1041.51398273085  delta_E= -0.0073  |g|= 0.063  |ddm|= 0.0966
  alpha nocc = 45  HOMO = -0.176376900343081  LUMO = 0.00206843208415882
  beta  nocc = 45  HOMO = -0.223095445681409  LUMO = -0.00334050891578403
cycle= 20 E= -1041.49754565265  delta_E= 0.0164  |g|= 0.0531  |ddm|= 0.251
  alpha nocc = 45  HOMO = -0.175372046414218  LUMO = 0.00578597592137516
  beta  nocc = 45  HOMO = -0.224741974796862  LUMO = 0.00286173625544722
cycle= 21 E= -1041.49766100993  delta_E= -0.000115  |g|= 0.0458  |ddm|= 0.274
  alpha nocc = 45  HOMO = -0.174699373459146  LUMO = 0.00799997195176974
  beta  nocc = 45  HOMO = -0.224875016227382  LUMO = 0.00535182849079156
cycle= 22 E= -1041.50534180849  delta_E= -0.00768  |g|= 0.0462  |ddm|= 0.182
  alpha nocc = 45  HOMO = -0.177047206035688  LUMO = 0.00922690183833705
  beta  nocc = 45  HOMO = -0.228482300764489  LUMO = 0.00479982587608027
cycle= 23 E= -1041.49936759837  delta_E= 0.00597  |g|= 0.0448  |ddm|= 0.116
  alpha nocc = 45  HOMO = -0.180292628078797  LUMO = 0.0111403118277847
  beta  nocc = 45  HOMO = -0.228756060454154  LUMO = 0.00634322995149171
cycle= 24 E= -1041.49279544629  delta_E= 0.00657  |g|= 0.0406  |ddm|= 0.19
  alpha nocc = 45  HOMO = -0.173395668312962  LUMO = 0.00813583988095776
  beta  nocc = 45  HOMO = -0.228122261923477  LUMO = 0.00727574387474775
cycle= 25 E= -1041.4967888572  delta_E= -0.00399  |g|= 0.0386  |ddm|= 0.238
  alpha nocc = 45  HOMO = -0.168823736556918  LUMO = 0.0105171163605023
  beta  nocc = 45  HOMO = -0.22486685473094  LUMO = 0.00810812283730599
cycle= 26 E= -1041.50189725935  delta_E= -0.00511  |g|= 0.0376  |ddm|= 0.108
  alpha nocc = 45  HOMO = -0.167355521224089  LUMO = 0.0111685849955996
  beta  nocc = 45  HOMO = -0.222376991809752  LUMO = 0.00942048931102868
cycle= 27 E= -1041.5081074776  delta_E= -0.00621  |g|= 0.0376  |ddm|= 0.139
  alpha nocc = 45  HOMO = -0.166758442507608  LUMO = 0.0107954323738884
  beta  nocc = 45  HOMO = -0.221750578969679  LUMO = 0.00957188889113743
cycle= 28 E= -1041.50908296289  delta_E= -0.000975  |g|= 0.0377  |ddm|= 0.0241
  alpha nocc = 45  HOMO = -0.167661940175209  LUMO = 0.010402962511152
  beta  nocc = 45  HOMO = -0.22280474479547  LUMO = 0.00885135526358102
cycle= 29 E= -1041.50759137499  delta_E= 0.00149  |g|= 0.0373  |ddm|= 0.0797
  alpha nocc = 45  HOMO = -0.168132023190307  LUMO = 0.0113562594164908
  beta  nocc = 45  HOMO = -0.223161996077202  LUMO = 0.00869692101620188
cycle= 30 E= -1041.50824166964  delta_E= -0.00065  |g|= 0.0383  |ddm|= 0.0342
  alpha nocc = 45  HOMO = -0.168695125828304  LUMO = 0.0112067698046439
  beta  nocc = 45  HOMO = -0.221631220076559  LUMO = 0.00849632733168621
cycle= 31 E= -1041.50645829404  delta_E= 0.00178  |g|= 0.0364  |ddm|= 0.102
  alpha nocc = 45  HOMO = -0.170357855537332  LUMO = 0.00681861030227524
  beta  nocc = 45  HOMO = -0.218001062791505  LUMO = 0.0082767846907202
cycle= 32 E= -1041.50831274596  delta_E= -0.00185  |g|= 0.0351  |ddm|= 0.23
  alpha nocc = 45  HOMO = -0.170053751149194  LUMO = 0.00622029424882234
  beta  nocc = 45  HOMO = -0.217831095317298  LUMO = 0.00824168159507888
cycle= 33 E= -1041.50855691544  delta_E= -0.000244  |g|= 0.0351  |ddm|= 0.0232
  alpha nocc = 45  HOMO = -0.16938804755488  LUMO = 0.00515756858086734
  beta  nocc = 45  HOMO = -0.216449961858624  LUMO = 0.0085329531835795
cycle= 34 E= -1041.51043657171  delta_E= -0.00188  |g|= 0.0344  |ddm|= 0.0644
  alpha nocc = 45  HOMO = -0.170765308358093  LUMO = 0.00356927705194905
  beta  nocc = 45  HOMO = -0.211712523811696  LUMO = 0.00934871153550754
cycle= 35 E= -1041.51822353871  delta_E= -0.00779  |g|= 0.0324  |ddm|= 0.228
  alpha nocc = 45  HOMO = -0.166490950356855  LUMO = 0.00322500741801765
  beta  nocc = 45  HOMO = -0.207999936212682  LUMO = 0.00993825825311029
cycle= 36 E= -1041.52280119675  delta_E= -0.00458  |g|= 0.0326  |ddm|= 0.111
  alpha nocc = 45  HOMO = -0.165660640797425  LUMO = 0.00264374569308667
  beta  nocc = 45  HOMO = -0.206171671572276  LUMO = 0.0102016053714278
cycle= 37 E= -1041.52539176806  delta_E= -0.00259  |g|= 0.0324  |ddm|= 0.0688
  alpha nocc = 45  HOMO = -0.165851205662789  LUMO = 0.00164459156152707
  beta  nocc = 45  HOMO = -0.204317059936293  LUMO = 0.0103111467815044
cycle= 38 E= -1041.52816502444  delta_E= -0.00277  |g|= 0.0326  |ddm|= 0.0845
  alpha nocc = 45  HOMO = -0.166398616796409  LUMO = 0.00195626380136615
  beta  nocc = 45  HOMO = -0.2046923266067  LUMO = 0.0102247965909332
cycle= 39 E= -1041.52780102779  delta_E= 0.000364  |g|= 0.0325  |ddm|= 0.0214
  alpha nocc = 45  HOMO = -0.166603324980923  LUMO = 0.00297308377708286
  beta  nocc = 45  HOMO = -0.203143377593924  LUMO = 0.0105163217209533
cycle= 40 E= -1041.52903837534  delta_E= -0.00124  |g|= 0.0316  |ddm|= 0.0664
  alpha nocc = 45  HOMO = -0.160727486355189  LUMO = 0.00668673023862729
  beta  nocc = 45  HOMO = -0.199886206671923  LUMO = 0.00958222851864453
cycle= 41 E= -1041.5310797167  delta_E= -0.00204  |g|= 0.0306  |ddm|= 0.131
  alpha nocc = 45  HOMO = -0.167222822536737  LUMO = 0.00457991634185435
  beta  nocc = 45  HOMO = -0.199696085414449  LUMO = 0.009228646109426
cycle= 42 E= -1041.53347634162  delta_E= -0.0024  |g|= 0.0306  |ddm|= 0.0851
  alpha nocc = 45  HOMO = -0.168072126792518  LUMO = 0.00444460086168604
  beta  nocc = 45  HOMO = -0.199472493166919  LUMO = 0.00918692385195461
cycle= 43 E= -1041.53390396628  delta_E= -0.000428  |g|= 0.0299  |ddm|= 0.0194
  alpha nocc = 45  HOMO = -0.168891294761444  LUMO = 0.00233539754177926
  beta  nocc = 45  HOMO = -0.194879766708937  LUMO = 0.00910146220045818
cycle= 44 E= -1041.53758985694  delta_E= -0.00369  |g|= 0.0281  |ddm|= 0.164
  alpha nocc = 45  HOMO = -0.168982696687381  LUMO = 0.00258025416532651
  beta  nocc = 45  HOMO = -0.194985013278778  LUMO = 0.00908907113191794
cycle= 45 E= -1041.53810224861  delta_E= -0.000512  |g|= 0.027  |ddm|= 0.0416
  alpha nocc = 45  HOMO = -0.169348139836269  LUMO = 0.00510760054476749
  beta  nocc = 45  HOMO = -0.190635464929547  LUMO = 0.00922834432157628
cycle= 46 E= -1041.5430833409  delta_E= -0.00498  |g|= 0.0252  |ddm|= 0.195
  alpha nocc = 45  HOMO = -0.169728133541171  LUMO = 0.00368944848654854
  beta  nocc = 45  HOMO = -0.189392168147819  LUMO = 0.00840348225650291
cycle= 47 E= -1041.54614826207  delta_E= -0.00306  |g|= 0.0247  |ddm|= 0.101
  alpha nocc = 45  HOMO = -0.169388966465285  LUMO = 0.00368210290955145
  beta  nocc = 45  HOMO = -0.188911446099056  LUMO = 0.0082718445131569
cycle= 48 E= -1041.54711911815  delta_E= -0.000971  |g|= 0.0249  |ddm|= 0.0317
  alpha nocc = 45  HOMO = -0.16950973595531  LUMO = 0.00348695264349883
  beta  nocc = 45  HOMO = -0.189491237374961  LUMO = 0.00867164266375908
cycle= 49 E= -1041.5462043715  delta_E= 0.000915  |g|= 0.0249  |ddm|= 0.0458
  alpha nocc = 45  HOMO = -0.170419059213808  LUMO = 0.00450490899735284
  beta  nocc = 45  HOMO = -0.189510502670738  LUMO = 0.00853352330284941
cycle= 50 E= -1041.54593780339  delta_E= 0.000267  |g|= 0.0245  |ddm|= 0.0424
SCF not converged.
SCF energy = -1041.54593780339 after 50 cycles  <S^2> = 3.7165223  2S+1 = 3.983226
