#INFO: **** input file is /home/ltkoanh/Al_B2LYP_6311_Gd_Cluster/Cluster/Al13-cation-singlet/input.py ****
import numpy
from pyscf import gto, scf, dft, mp, cc
from pyscf.mp import uobmp2_mom_conv, dfuobmp2_mom_conv, uhf_mom
from pyscf.mp import  mp2, ump2
from pyscf.tools import molden
import os
from functools import reduce


mol = gto.Mole()
geom = os.environ.get('geom_txt')
mol.atom = geom
mol.basis = os.environ.get('basis', 'cc-pvdz')
mol.unit = 'A'
mol.charge = int(os.environ.get('charge', 0))
mol.spin = int(os.environ.get('spin', 0))
mol.verbose = 4
mol.build()

#################### Ground state using density fitting
### Hartree-Fock
a  = scf.UHF(mol).density_fit()
a.kernel()

### Ground state OBMP2 calculation
ob = dfuobmp2_mom_conv.DFUOBMP2(a)
ob.second_order = True
ob.thresh = 10e-6
ob.css = 1
ob.cos = 1
e_obmp2g = ob.kernel()

### Ground state O2BMP2 calculation
ob = dfuobmp2_mom_conv.DFUOBMP2(a)
ob.second_order = True
ob.thresh = 10e-6
ob.css = 0                             
ob.cos = 1.2                             
e_o2bmp2g = ob.kernel()  

#################### Ground state NOT using density fitting
### Hartree-Fock
a  = scf.UHF(mol)
a.kernel()

### Ground state OBMP2 calculation
ob = uobmp2_mom_conv.UOBMP2(a)
ob.second_order = True
ob.thresh = 10e-6
ob.css = 1
ob.cos = 1
#e_obmp2g = ob.kernel()

### Ground state O2BMP2 calculation
ob = uobmp2_mom_conv.UOBMP2(a)
ob.second_order = True
ob.thresh = 10e-6
ob.css = 0
ob.cos = 1.2   ## the cos can be vary ...                        	 
#e_o2bmp2g = ob.kernel()


## Results from density-fitting approximate with non-using density fitting 
## check results between df and non-df with small molecules before running the important molecules
#INFO: ******************** input file end ********************


System: uname_result(system='Linux', node='comphys', release='3.10.0-1160.119.1.el7.x86_64', version='#1 SMP Tue Jun 4 14:43:51 UTC 2024', machine='x86_64', processor='x86_64')  Threads 8
Python 3.7.9 (default, Dec  4 2023, 13:00:18) 
[GCC 4.8.5 20150623 (Red Hat 4.8.5-44)]
numpy 1.21.6  scipy 1.7.3
Date: Tue May 27 18:17:57 2025
PySCF version 1.7.0
PySCF path  /share/installs/pyscf/pyscf
GIT HEAD      ref: refs/heads/ob-mp2
GIT ob-mp2 branch  f0fc63383ab6c719c0c91f5e07a6895c637b700d

[CONFIG] conf_file None
[INPUT] verbose = 4
[INPUT] num. atoms = 13
[INPUT] num. electrons = 168
[INPUT] charge = 1
[INPUT] spin (= nelec alpha-beta = 2S) = 0
[INPUT] symmetry False subgroup None
[INPUT] Mole.unit = A
[INPUT]  1 Al     1.704291000000   2.070534000000  -1.272239000000 AA    3.220643226561   3.912742191600  -2.404183274991 Bohr
[INPUT]  2 Al    -0.970293000000   2.101420000000   1.340459000000 AA   -1.833588030583   3.971108272684   2.533100391208 Bohr
[INPUT]  3 Al     1.808579000000   1.465042000000   1.292944000000 AA    3.417718984640   2.768528140985   2.443310054400 Bohr
[INPUT]  4 Al     2.586001000000  -0.402148000000  -1.335742000000 AA    4.886833647851  -0.759949581542  -2.524186553079 Bohr
[INPUT]  5 Al    -2.336927000000  -0.340516000000   1.177203000000 AA   -4.416152003101  -0.643481981032   2.224591263016 Bohr
[INPUT]  6 Al    -0.000274000000  -0.082481000000   2.339036000000 AA   -0.000517784958  -0.155866500480   4.420137435498 Bohr
[INPUT]  7 Al     1.996909000000  -1.290163000000   1.126039000000 AA    3.773611105679  -2.438054726047   2.127905315579 Bohr
[INPUT]  8 Al    -0.496978000000  -2.340987000000   1.077115000000 AA   -0.939152309934  -4.423824291167   2.035452354661 Bohr
[INPUT]  9 Al    -0.880076000000   2.546751000000  -1.250967000000 AA   -1.663102608803   4.812661897462  -2.363985020869 Bohr
[INPUT] 10 Al    -2.584150000000   0.548790000000  -1.318253000000 AA   -4.883335764795   1.037062799900  -2.491137132886 Bohr
[INPUT] 11 Al    -1.706087000000  -1.928961000000  -1.355995000000 AA   -3.224037174681  -3.645207994967  -2.562459176280 Bohr
[INPUT] 12 Al     0.879609000000  -2.403119000000  -1.362091000000 AA    1.662220106703  -4.541236754739  -2.573978946735 Bohr
[INPUT] 13 Al    -0.000603000000   0.055838000000  -0.457508000000 AA   -0.001139504853   0.105518527343  -0.864564819798 Bohr

nuclear repulsion = 1991.29437182388
number of shells = 65
number of NR pGTOs = 702
number of NR cGTOs = 117
basis = sto-6g
ecp = {}
CPU time:         1.39


******** <class 'pyscf.df.df_jk.density_fit.<locals>.DFHF'> ********
method = DFHF-UHF
initial guess = minao
damping factor = 0
level_shift factor = 0
DIIS = <class 'pyscf.scf.diis.CDIIS'>
diis_start_cycle = 1
diis_space = 8
SCF conv_tol = 1e-09
SCF conv_tol_grad = None
SCF max_cycles = 50
direct_scf = True
direct_scf_tol = 1e-13
chkfile to save SCF result = /home/ltkoanh/Al_B2LYP_6311_Gd_Cluster/Cluster/Al13-cation-singlet/tmpz99a2lel
max_memory 4000 MB (current use 60 MB)
number electrons alpha = 84  beta = 84
Set gradient conv threshold to 3.16228e-05
******** <class 'pyscf.df.df.DF'> ********
auxbasis = None
max_memory = 4000
_cderi_to_save = /home/ltkoanh/Al_B2LYP_6311_Gd_Cluster/Cluster/Al13-cation-singlet/tmphdf_0ju1
Even tempered Gaussians are generated as DF auxbasis for  Al
init E= -3129.82859323468
  alpha nocc = 84  HOMO = -0.794272135734303  LUMO = -0.691793776411241
  beta  nocc = 84  HOMO = -0.745318227109316  LUMO = -0.678396146313303
cycle= 1 E= -3130.96157884004  delta_E= -1.13  |g|= 1.05  |ddm|= 4.21
  alpha nocc = 84  HOMO = 0.108638338748991  LUMO = 0.154830733652161
  beta  nocc = 84  HOMO = 0.109073770872622  LUMO = 0.172618258960087
cycle= 2 E= -3131.25897198352  delta_E= -0.297  |g|= 0.884  |ddm|= 3.25
  alpha nocc = 84  HOMO = -0.0884644848164786  LUMO = 0.0695412459610487
  beta  nocc = 84  HOMO = -0.0917697157636091  LUMO = 0.0731534871188367
cycle= 3 E= -3131.9137271  delta_E= -0.655  |g|= 0.188  |ddm|= 1.54
  alpha nocc = 84  HOMO = -0.11167815681216  LUMO = 0.0741470458147075
  beta  nocc = 84  HOMO = -0.116301361854264  LUMO = 0.0813242539377931
cycle= 4 E= -3131.93625293513  delta_E= -0.0225  |g|= 0.119  |ddm|= 0.533
  alpha nocc = 84  HOMO = -0.122692382784286  LUMO = 0.0642818192501646
  beta  nocc = 84  HOMO = -0.12707557426844  LUMO = 0.0679105470438497
cycle= 5 E= -3131.95105024117  delta_E= -0.0148  |g|= 0.0317  |ddm|= 0.251
  alpha nocc = 84  HOMO = -0.123616891593327  LUMO = 0.0656281226258942
  beta  nocc = 84  HOMO = -0.127617870983093  LUMO = 0.0689516915076298
cycle= 6 E= -3131.95248404523  delta_E= -0.00143  |g|= 0.0171  |ddm|= 0.0867
  alpha nocc = 84  HOMO = -0.124614973945091  LUMO = 0.0650478720507592
  beta  nocc = 84  HOMO = -0.12784104630845  LUMO = 0.0672061931411089
cycle= 7 E= -3131.95373330633  delta_E= -0.00125  |g|= 0.00716  |ddm|= 0.112
  alpha nocc = 84  HOMO = -0.124974749688378  LUMO = 0.0651458921581033
  beta  nocc = 84  HOMO = -0.127312496823589  LUMO = 0.0662970617962117
cycle= 8 E= -3131.95413921382  delta_E= -0.000406  |g|= 0.00356  |ddm|= 0.0836
  alpha nocc = 84  HOMO = -0.125271672725085  LUMO = 0.0653784125788242
  beta  nocc = 84  HOMO = -0.127163631734226  LUMO = 0.0661353666412408
cycle= 9 E= -3131.95421007956  delta_E= -7.09e-05  |g|= 0.00191  |ddm|= 0.0307
  alpha nocc = 84  HOMO = -0.125540068476205  LUMO = 0.0653229299323494
  beta  nocc = 84  HOMO = -0.12708360408147  LUMO = 0.0657819787679137
cycle= 10 E= -3131.95424065915  delta_E= -3.06e-05  |g|= 0.00108  |ddm|= 0.0228
  alpha nocc = 84  HOMO = -0.125677321093498  LUMO = 0.0653255608813989
  beta  nocc = 84  HOMO = -0.127116751981585  LUMO = 0.0656867291635133
cycle= 11 E= -3131.95425153337  delta_E= -1.09e-05  |g|= 0.000852  |ddm|= 0.012
  alpha nocc = 84  HOMO = -0.12566491733185  LUMO = 0.0653620928026444
  beta  nocc = 84  HOMO = -0.127062781382878  LUMO = 0.0656759631641827
cycle= 12 E= -3131.95425516652  delta_E= -3.63e-06  |g|= 0.000841  |ddm|= 0.00509
  alpha nocc = 84  HOMO = -0.125721243778455  LUMO = 0.0653927736124607
  beta  nocc = 84  HOMO = -0.127061803039043  LUMO = 0.0656356477367759
cycle= 13 E= -3131.95426061093  delta_E= -5.44e-06  |g|= 0.000608  |ddm|= 0.00836
  alpha nocc = 84  HOMO = -0.125738701005525  LUMO = 0.0654006232080164
  beta  nocc = 84  HOMO = -0.127051076348345  LUMO = 0.0655970112878418
cycle= 14 E= -3131.95426412927  delta_E= -3.52e-06  |g|= 0.000556  |ddm|= 0.00602
  alpha nocc = 84  HOMO = -0.125726916349516  LUMO = 0.0654327912003562
  beta  nocc = 84  HOMO = -0.127020225250493  LUMO = 0.0655923593429911
cycle= 15 E= -3131.95426714784  delta_E= -3.02e-06  |g|= 0.000543  |ddm|= 0.00514
  alpha nocc = 84  HOMO = -0.125740398688393  LUMO = 0.0654362622050153
  beta  nocc = 84  HOMO = -0.127025810114749  LUMO = 0.065579319668242
cycle= 16 E= -3131.95426915671  delta_E= -2.01e-06  |g|= 0.000541  |ddm|= 0.00341
  alpha nocc = 84  HOMO = -0.125737939579979  LUMO = 0.0654341030606515
  beta  nocc = 84  HOMO = -0.127024946474366  LUMO = 0.0655815033086211
cycle= 17 E= -3131.95426854691  delta_E= 6.1e-07  |g|= 0.000539  |ddm|= 0.00104
  alpha nocc = 84  HOMO = -0.125739700367903  LUMO = 0.0654301926531429
  beta  nocc = 84  HOMO = -0.127031461124713  LUMO = 0.0655852604665664
cycle= 18 E= -3131.95426746452  delta_E= 1.08e-06  |g|= 0.000528  |ddm|= 0.00201
  alpha nocc = 84  HOMO = -0.125721991179683  LUMO = 0.0654337923106368
  beta  nocc = 84  HOMO = -0.1270112278828  LUMO = 0.0655931318554216
cycle= 19 E= -3131.9542657615  delta_E= 1.7e-06  |g|= 0.000497  |ddm|= 0.00414
  alpha nocc = 84  HOMO = -0.125739976574614  LUMO = 0.0654418731845652
  beta  nocc = 84  HOMO = -0.127009369578163  LUMO = 0.0656050803518636
cycle= 20 E= -3131.95426475612  delta_E= 1.01e-06  |g|= 0.000461  |ddm|= 0.00476
  alpha nocc = 84  HOMO = -0.125746094001469  LUMO = 0.0654421214013063
  beta  nocc = 84  HOMO = -0.126983382097159  LUMO = 0.0656070209845043
cycle= 21 E= -3131.95426507114  delta_E= -3.15e-07  |g|= 0.000436  |ddm|= 0.0049
  alpha nocc = 84  HOMO = -0.125758369831484  LUMO = 0.0654408286871475
  beta  nocc = 84  HOMO = -0.126976430593259  LUMO = 0.0656083677749772
cycle= 22 E= -3131.95426555605  delta_E= -4.85e-07  |g|= 0.0004  |ddm|= 0.00328
  alpha nocc = 84  HOMO = -0.125779643250356  LUMO = 0.0654383461936153
  beta  nocc = 84  HOMO = -0.126979764532285  LUMO = 0.0656111750595812
cycle= 23 E= -3131.95426671912  delta_E= -1.16e-06  |g|= 0.000377  |ddm|= 0.00429
  alpha nocc = 84  HOMO = -0.125788645762641  LUMO = 0.0654270386432051
  beta  nocc = 84  HOMO = -0.126990994469059  LUMO = 0.0656023063723673
cycle= 24 E= -3131.9542678904  delta_E= -1.17e-06  |g|= 0.000372  |ddm|= 0.00348
  alpha nocc = 84  HOMO = -0.125787308620734  LUMO = 0.0654290464426164
  beta  nocc = 84  HOMO = -0.126991880095636  LUMO = 0.0656003639322055
cycle= 25 E= -3131.95426877962  delta_E= -8.89e-07  |g|= 0.000369  |ddm|= 0.00219
  alpha nocc = 84  HOMO = -0.125787055221133  LUMO = 0.0654285343633977
  beta  nocc = 84  HOMO = -0.126996254970961  LUMO = 0.0655975214053073
cycle= 26 E= -3131.95426920192  delta_E= -4.22e-07  |g|= 0.000369  |ddm|= 0.00103
  alpha nocc = 84  HOMO = -0.125787104340092  LUMO = 0.0654286847146198
  beta  nocc = 84  HOMO = -0.126996693925737  LUMO = 0.0655967584907262
cycle= 27 E= -3131.9542693215  delta_E= -1.2e-07  |g|= 0.000369  |ddm|= 0.000349
  alpha nocc = 84  HOMO = -0.125788575004461  LUMO = 0.0654283938114518
  beta  nocc = 84  HOMO = -0.12699778547059  LUMO = 0.0655960095290657
cycle= 28 E= -3131.95426941181  delta_E= -9.03e-08  |g|= 0.000369  |ddm|= 0.000399
  alpha nocc = 84  HOMO = -0.125788877783268  LUMO = 0.06542886509175
  beta  nocc = 84  HOMO = -0.126998540352529  LUMO = 0.0655956932188292
cycle= 29 E= -3131.95426953818  delta_E= -1.26e-07  |g|= 0.000369  |ddm|= 0.00033
  alpha nocc = 84  HOMO = -0.125787985776517  LUMO = 0.0654292077649755
  beta  nocc = 84  HOMO = -0.126998797185429  LUMO = 0.0655951006930068
cycle= 30 E= -3131.95426972121  delta_E= -1.83e-07  |g|= 0.000369  |ddm|= 0.000508
  alpha nocc = 84  HOMO = -0.12578850708042  LUMO = 0.065429835690735
  beta  nocc = 84  HOMO = -0.127000580723585  LUMO = 0.0655950430691237
cycle= 31 E= -3131.95426985339  delta_E= -1.32e-07  |g|= 0.000369  |ddm|= 0.000386
  alpha nocc = 84  HOMO = -0.125787373121167  LUMO = 0.0654303772421836
  beta  nocc = 84  HOMO = -0.127000404800949  LUMO = 0.0655952069105188
cycle= 32 E= -3131.95426984139  delta_E= 1.2e-08  |g|= 0.000369  |ddm|= 0.000163
  alpha nocc = 84  HOMO = -0.125786855953621  LUMO = 0.0654300026039019
  beta  nocc = 84  HOMO = -0.127002097485021  LUMO = 0.0655937564215716
cycle= 33 E= -3131.95426998395  delta_E= -1.43e-07  |g|= 0.000369  |ddm|= 0.000388
  alpha nocc = 84  HOMO = -0.125787217800932  LUMO = 0.0654283840688622
  beta  nocc = 84  HOMO = -0.126999246317941  LUMO = 0.0655943520063835
cycle= 34 E= -3131.95426982883  delta_E= 1.55e-07  |g|= 0.000369  |ddm|= 0.000461
  alpha nocc = 84  HOMO = -0.125805835669251  LUMO = 0.0654215448889617
  beta  nocc = 84  HOMO = -0.126963239144243  LUMO = 0.0656139359599576
cycle= 35 E= -3131.95426729572  delta_E= 2.53e-06  |g|= 0.000356  |ddm|= 0.00679
  alpha nocc = 84  HOMO = -0.125838736378555  LUMO = 0.0654012273700333
  beta  nocc = 84  HOMO = -0.126894574894941  LUMO = 0.0656222708753396
cycle= 36 E= -3131.95426637569  delta_E= 9.2e-07  |g|= 0.000333  |ddm|= 0.0069
  alpha nocc = 84  HOMO = -0.125877957248184  LUMO = 0.0653896452558394
  beta  nocc = 84  HOMO = -0.126847657507242  LUMO = 0.0656343293992083
cycle= 37 E= -3131.95426511841  delta_E= 1.26e-06  |g|= 0.000313  |ddm|= 0.00677
  alpha nocc = 84  HOMO = -0.125890818504225  LUMO = 0.065392004573442
  beta  nocc = 84  HOMO = -0.126837698986613  LUMO = 0.0656356989784209
cycle= 38 E= -3131.954265338  delta_E= -2.2e-07  |g|= 0.000306  |ddm|= 0.00282
  alpha nocc = 84  HOMO = -0.1258932256722  LUMO = 0.0653922458256098
  beta  nocc = 84  HOMO = -0.126814688000109  LUMO = 0.065640834769266
cycle= 39 E= -3131.95426497129  delta_E= 3.67e-07  |g|= 0.000298  |ddm|= 0.00284
  alpha nocc = 84  HOMO = -0.125903118026319  LUMO = 0.0653947912664873
  beta  nocc = 84  HOMO = -0.126809553122349  LUMO = 0.0656473865793808
cycle= 40 E= -3131.9542647456  delta_E= 2.26e-07  |g|= 0.000295  |ddm|= 0.00288
  alpha nocc = 84  HOMO = -0.125900042346131  LUMO = 0.0653951654341809
  beta  nocc = 84  HOMO = -0.12680921235977  LUMO = 0.0656484767863626
cycle= 41 E= -3131.95426480915  delta_E= -6.35e-08  |g|= 0.000292  |ddm|= 0.00144
  alpha nocc = 84  HOMO = -0.125898290395418  LUMO = 0.0653924529238205
  beta  nocc = 84  HOMO = -0.126809030003619  LUMO = 0.065651016240559
cycle= 42 E= -3131.95426489069  delta_E= -8.15e-08  |g|= 0.000293  |ddm|= 0.00128
  alpha nocc = 84  HOMO = -0.125896161988831  LUMO = 0.0653940734162004
  beta  nocc = 84  HOMO = -0.126810085512356  LUMO = 0.0656512085691885
cycle= 43 E= -3131.95426498432  delta_E= -9.36e-08  |g|= 0.000293  |ddm|= 0.000347
  alpha nocc = 84  HOMO = -0.125893839670722  LUMO = 0.0653954930989789
  beta  nocc = 84  HOMO = -0.126814471728168  LUMO = 0.0656470562437638
cycle= 44 E= -3131.95426516929  delta_E= -1.85e-07  |g|= 0.000293  |ddm|= 0.00112
  alpha nocc = 84  HOMO = -0.125894495554591  LUMO = 0.0653953844942872
  beta  nocc = 84  HOMO = -0.126812719119573  LUMO = 0.065647798679499
cycle= 45 E= -3131.95426505539  delta_E= 1.14e-07  |g|= 0.000293  |ddm|= 0.000388
  alpha nocc = 84  HOMO = -0.125900107191021  LUMO = 0.065395410842531
  beta  nocc = 84  HOMO = -0.126809056264805  LUMO = 0.0656482576860349
cycle= 46 E= -3131.95426485099  delta_E= 2.04e-07  |g|= 0.000292  |ddm|= 0.000887
  alpha nocc = 84  HOMO = -0.125898726671715  LUMO = 0.0653940145535237
  beta  nocc = 84  HOMO = -0.126809570666882  LUMO = 0.0656485758706837
cycle= 47 E= -3131.95426481512  delta_E= 3.59e-08  |g|= 0.000293  |ddm|= 0.000305
  alpha nocc = 84  HOMO = -0.125897807377421  LUMO = 0.0653941091773859
  beta  nocc = 84  HOMO = -0.126813016783641  LUMO = 0.0656476512899145
cycle= 48 E= -3131.95426486299  delta_E= -4.79e-08  |g|= 0.000293  |ddm|= 0.000433
  alpha nocc = 84  HOMO = -0.125896725188408  LUMO = 0.0653950194733388
  beta  nocc = 84  HOMO = -0.126816793431266  LUMO = 0.06564834057798
cycle= 49 E= -3131.95426496644  delta_E= -1.03e-07  |g|= 0.000294  |ddm|= 0.000623
  alpha nocc = 84  HOMO = -0.125896560769497  LUMO = 0.0653950800776127
  beta  nocc = 84  HOMO = -0.126817285912782  LUMO = 0.0656481437756162
cycle= 50 E= -3131.9542649823  delta_E= -1.59e-08  |g|= 0.000294  |ddm|= 8.41e-05
SCF not converged.
SCF energy = -3131.9542649823 after 50 cycles  <S^2> = 0.0065523825  2S+1 = 1.01302
shift = 0
thresh = 1e-05 
eri1 (1469, 6903)
eri1 (1469, 6903)
    CPU time for making amplitude: integral transform      1.44 sec, wall time      0.10 sec
shape (1469, 3861)
1st memory: 625.5 MiB
eri1 (1469, 6903)
eri1 (1469, 6903)
2nd memory: 481.9 MiB

========================
iter = 0  energy = -3132.777463 energy diff = 3132.777463
multiplicity <S^2> : Reference = 0.0065523825 Response = 0.0065534195 Projector = 0.0065544565
eri1 (1469, 6903)
eri1 (1469, 6903)
    CPU time for making amplitude: integral transform      1.53 sec, wall time      0.12 sec
shape (1469, 3861)
1st memory: 612.1 MiB
eri1 (1469, 6903)
eri1 (1469, 6903)
2nd memory: 485.8 MiB

========================
iter = 1  energy = -3132.788548 energy diff = 0.011086
multiplicity <S^2> : Reference = 0.0044714286 Response = 0.0044713718 Projector = 0.004471315
eri1 (1469, 6903)
eri1 (1469, 6903)
    CPU time for making amplitude: integral transform      1.58 sec, wall time      0.12 sec
shape (1469, 3861)
1st memory: 621.5 MiB
eri1 (1469, 6903)
eri1 (1469, 6903)
2nd memory: 487.1 MiB

========================
iter = 2  energy = -3132.797568 energy diff = 0.009020
multiplicity <S^2> : Reference = 0.0032886523 Response = 0.0032892516 Projector = 0.003289851
eri1 (1469, 6903)
eri1 (1469, 6903)
    CPU time for making amplitude: integral transform      1.23 sec, wall time      0.08 sec
shape (1469, 3861)
1st memory: 613.8 MiB
eri1 (1469, 6903)
eri1 (1469, 6903)
2nd memory: 491.3 MiB

========================
iter = 3  energy = -3132.803203 energy diff = 0.005635
multiplicity <S^2> : Reference = 0.0021292608 Response = 0.0021295578 Projector = 0.0021298547
eri1 (1469, 6903)
eri1 (1469, 6903)
    CPU time for making amplitude: integral transform      1.46 sec, wall time      0.11 sec
shape (1469, 3861)
1st memory: 620.0 MiB
eri1 (1469, 6903)
eri1 (1469, 6903)
2nd memory: 492.0 MiB

========================
iter = 4  energy = -3132.806407 energy diff = 0.003203
multiplicity <S^2> : Reference = 0.0010024811 Response = 0.0010025958 Projector = 0.0010027104
eri1 (1469, 6903)
eri1 (1469, 6903)
    CPU time for making amplitude: integral transform      1.31 sec, wall time      0.09 sec
shape (1469, 3861)
1st memory: 614.7 MiB
eri1 (1469, 6903)
eri1 (1469, 6903)
2nd memory: 492.1 MiB

========================
iter = 5  energy = -3132.806899 energy diff = 0.000493
multiplicity <S^2> : Reference = 0.00061112294 Response = 0.00061112933 Projector = 0.00061113572
eri1 (1469, 6903)
eri1 (1469, 6903)
    CPU time for making amplitude: integral transform      1.49 sec, wall time      0.11 sec
shape (1469, 3861)
1st memory: 620.8 MiB
eri1 (1469, 6903)
eri1 (1469, 6903)
2nd memory: 492.5 MiB

========================
iter = 6  energy = -3132.807005 energy diff = 0.000106
multiplicity <S^2> : Reference = 0.00034326235 Response = 0.00034331328 Projector = 0.00034336421
eri1 (1469, 6903)
eri1 (1469, 6903)
    CPU time for making amplitude: integral transform      1.33 sec, wall time      0.09 sec
shape (1469, 3861)
1st memory: 653.0 MiB
eri1 (1469, 6903)
eri1 (1469, 6903)
2nd memory: 504.1 MiB

========================
iter = 7  energy = -3132.807063 energy diff = 0.000058
multiplicity <S^2> : Reference = 0.0002020406 Response = 0.00020205774 Projector = 0.00020207488
eri1 (1469, 6903)
eri1 (1469, 6903)
    CPU time for making amplitude: integral transform      1.42 sec, wall time      0.10 sec
shape (1469, 3861)
1st memory: 666.7 MiB
eri1 (1469, 6903)
eri1 (1469, 6903)
2nd memory: 505.0 MiB

========================
iter = 8  energy = -3132.807079 energy diff = 0.000016
multiplicity <S^2> : Reference = 0.00011403599 Response = 0.00011404393 Projector = 0.00011405188
eri1 (1469, 6903)
eri1 (1469, 6903)
    CPU time for making amplitude: integral transform      1.50 sec, wall time      0.11 sec
shape (1469, 3861)
1st memory: 653.0 MiB
eri1 (1469, 6903)
eri1 (1469, 6903)
2nd memory: 505.0 MiB

========================
iter = 9  energy = -3132.807088 energy diff = 0.000009
multiplicity <S^2> : Reference = 5.8801327e-05 Response = 5.8793595e-05 Projector = 5.8785862e-05

UOB-MP2 has converged
UOB-MP2 energy =  -3132.8070879779107
shift = 0
thresh = 1e-05 
eri1 (1469, 6903)
eri1 (1469, 6903)
    CPU time for making amplitude: integral transform      1.46 sec, wall time      0.11 sec
shape (1469, 3861)
1st memory: 609.8 MiB
eri1 (1469, 6903)
eri1 (1469, 6903)
2nd memory: 488.0 MiB

========================
iter = 0  energy = -3132.499678 energy diff = 3132.499678
multiplicity <S^2> : Reference = 0.0065523825 Response = 0.0065534195 Projector = 0.0065544565
eri1 (1469, 6903)
eri1 (1469, 6903)
    CPU time for making amplitude: integral transform      1.34 sec, wall time      0.09 sec
shape (1469, 3861)
1st memory: 618.8 MiB
eri1 (1469, 6903)
eri1 (1469, 6903)
2nd memory: 490.0 MiB

========================
iter = 1  energy = -3132.530275 energy diff = 0.030597
multiplicity <S^2> : Reference = 0.0045392894 Response = 0.0045388807 Projector = 0.0045384721
eri1 (1469, 6903)
eri1 (1469, 6903)
    CPU time for making amplitude: integral transform      1.41 sec, wall time      0.10 sec
shape (1469, 3861)
1st memory: 651.4 MiB
eri1 (1469, 6903)
eri1 (1469, 6903)
2nd memory: 502.4 MiB

========================
iter = 2  energy = -3132.535047 energy diff = 0.004772
multiplicity <S^2> : Reference = 0.0033293975 Response = 0.0033297346 Projector = 0.0033300718
eri1 (1469, 6903)
eri1 (1469, 6903)
    CPU time for making amplitude: integral transform      1.28 sec, wall time      0.09 sec
shape (1469, 3861)
1st memory: 631.9 MiB
eri1 (1469, 6903)
eri1 (1469, 6903)
2nd memory: 491.5 MiB

========================
iter = 3  energy = -3132.537323 energy diff = 0.002277
multiplicity <S^2> : Reference = 0.0022405589 Response = 0.0022405399 Projector = 0.0022405209
eri1 (1469, 6903)
eri1 (1469, 6903)
    CPU time for making amplitude: integral transform      1.41 sec, wall time      0.10 sec
shape (1469, 3861)
1st memory: 651.8 MiB
eri1 (1469, 6903)
eri1 (1469, 6903)
2nd memory: 502.7 MiB

========================
iter = 4  energy = -3132.538896 energy diff = 0.001573
multiplicity <S^2> : Reference = 0.0010277678 Response = 0.0010279604 Projector = 0.0010281529
eri1 (1469, 6903)
eri1 (1469, 6903)
    CPU time for making amplitude: integral transform      1.30 sec, wall time      0.09 sec
shape (1469, 3861)
1st memory: 614.4 MiB
eri1 (1469, 6903)
eri1 (1469, 6903)
2nd memory: 492.4 MiB

========================
iter = 5  energy = -3132.539035 energy diff = 0.000139
multiplicity <S^2> : Reference = 0.00064711642 Response = 0.00064702711 Projector = 0.0006469378
eri1 (1469, 6903)
eri1 (1469, 6903)
    CPU time for making amplitude: integral transform      1.45 sec, wall time      0.11 sec
shape (1469, 3861)
1st memory: 621.2 MiB
eri1 (1469, 6903)
eri1 (1469, 6903)
2nd memory: 493.2 MiB

========================
iter = 6  energy = -3132.539082 energy diff = 0.000047
multiplicity <S^2> : Reference = 0.0003910263 Response = 0.00039098827 Projector = 0.00039095023
eri1 (1469, 6903)
eri1 (1469, 6903)
    CPU time for making amplitude: integral transform      1.39 sec, wall time      0.10 sec
shape (1469, 3861)
1st memory: 653.6 MiB
eri1 (1469, 6903)
eri1 (1469, 6903)
2nd memory: 504.4 MiB

========================
iter = 7  energy = -3132.539097 energy diff = 0.000015
multiplicity <S^2> : Reference = 0.00023875667 Response = 0.00023873327 Projector = 0.00023870986
eri1 (1469, 6903)
eri1 (1469, 6903)
    CPU time for making amplitude: integral transform      1.33 sec, wall time      0.09 sec
shape (1469, 3861)
1st memory: 667.3 MiB
eri1 (1469, 6903)
eri1 (1469, 6903)
2nd memory: 505.1 MiB

========================
iter = 8  energy = -3132.539106 energy diff = 0.000008
multiplicity <S^2> : Reference = 0.00013794695 Response = 0.00013794754 Projector = 0.00013794813

UOB-MP2 has converged
UOB-MP2 energy =  -3132.5391057781117


******** <class 'pyscf.scf.uhf.UHF'> ********
method = UHF
initial guess = minao
damping factor = 0
level_shift factor = 0
DIIS = <class 'pyscf.scf.diis.CDIIS'>
diis_start_cycle = 1
diis_space = 8
SCF conv_tol = 1e-09
SCF conv_tol_grad = None
SCF max_cycles = 50
direct_scf = True
direct_scf_tol = 1e-13
chkfile to save SCF result = /home/ltkoanh/Al_B2LYP_6311_Gd_Cluster/Cluster/Al13-cation-singlet/tmp8x8q3keg
max_memory 4000 MB (current use 279 MB)
number electrons alpha = 84  beta = 84
Set gradient conv threshold to 3.16228e-05
init E= -3129.83094643476
  alpha nocc = 84  HOMO = -0.794551830583104  LUMO = -0.692002388010537
  beta  nocc = 84  HOMO = -0.745581340673804  LUMO = -0.678625265459967
cycle= 1 E= -3130.96467209252  delta_E= -1.13  |g|= 1.05  |ddm|= 4.21
  alpha nocc = 84  HOMO = 0.108622061861046  LUMO = 0.15466956164615
  beta  nocc = 84  HOMO = 0.109078272155148  LUMO = 0.172478763655333
cycle= 2 E= -3131.26180684307  delta_E= -0.297  |g|= 0.884  |ddm|= 3.25
  alpha nocc = 84  HOMO = -0.0885350582222474  LUMO = 0.0693720934018362
  beta  nocc = 84  HOMO = -0.0918172038638656  LUMO = 0.0729846053618406
cycle= 3 E= -3131.91770179591  delta_E= -0.656  |g|= 0.189  |ddm|= 1.54
  alpha nocc = 84  HOMO = -0.111800312888309  LUMO = 0.0739873561230404
  beta  nocc = 84  HOMO = -0.116411664120974  LUMO = 0.0811842651872211
cycle= 4 E= -3131.94027520051  delta_E= -0.0226  |g|= 0.119  |ddm|= 0.533
  alpha nocc = 84  HOMO = -0.122833922209597  LUMO = 0.0641085774670439
  beta  nocc = 84  HOMO = -0.127210947238452  LUMO = 0.0677454233031873
cycle= 5 E= -3131.95510820948  delta_E= -0.0148  |g|= 0.0317  |ddm|= 0.251
  alpha nocc = 84  HOMO = -0.123766302509701  LUMO = 0.0654483498213968
  beta  nocc = 84  HOMO = -0.127763183533788  LUMO = 0.0687785337868237
cycle= 6 E= -3131.95654149768  delta_E= -0.00143  |g|= 0.0171  |ddm|= 0.0867
  alpha nocc = 84  HOMO = -0.124775335092002  LUMO = 0.064867798170655
  beta  nocc = 84  HOMO = -0.128002234319357  LUMO = 0.06702935228899
cycle= 7 E= -3131.95778623578  delta_E= -0.00124  |g|= 0.00715  |ddm|= 0.112
  alpha nocc = 84  HOMO = -0.125138493529591  LUMO = 0.0649648651008472
  beta  nocc = 84  HOMO = -0.127481947505844  LUMO = 0.0661175464263787
cycle= 8 E= -3131.95819059911  delta_E= -0.000404  |g|= 0.00356  |ddm|= 0.0833
  alpha nocc = 84  HOMO = -0.125439378012879  LUMO = 0.0651978995418698
  beta  nocc = 84  HOMO = -0.127337267813997  LUMO = 0.0659544833394672
cycle= 9 E= -3131.95826157477  delta_E= -7.1e-05  |g|= 0.00191  |ddm|= 0.0307
  alpha nocc = 84  HOMO = -0.125708569277267  LUMO = 0.0651431002494536
  beta  nocc = 84  HOMO = -0.1272573854021  LUMO = 0.0656007862301019
cycle= 10 E= -3131.95829218942  delta_E= -3.06e-05  |g|= 0.00108  |ddm|= 0.0228
  alpha nocc = 84  HOMO = -0.12584559035987  LUMO = 0.065146037511214
  beta  nocc = 84  HOMO = -0.127289971313778  LUMO = 0.0655064353661329
cycle= 11 E= -3131.95830301565  delta_E= -1.08e-05  |g|= 0.000854  |ddm|= 0.012
  alpha nocc = 84  HOMO = -0.125832822993197  LUMO = 0.0651822175096559
  beta  nocc = 84  HOMO = -0.127235619051281  LUMO = 0.065496288736532
cycle= 12 E= -3131.95830658489  delta_E= -3.57e-06  |g|= 0.000841  |ddm|= 0.00501
  alpha nocc = 84  HOMO = -0.125890470460847  LUMO = 0.0652133659678259
  beta  nocc = 84  HOMO = -0.12723417608931  LUMO = 0.0654558537913152
cycle= 13 E= -3131.95831208378  delta_E= -5.5e-06  |g|= 0.000604  |ddm|= 0.00848
  alpha nocc = 84  HOMO = -0.125907795470972  LUMO = 0.0652213297205963
  beta  nocc = 84  HOMO = -0.127222228700804  LUMO = 0.0654174276046542
cycle= 14 E= -3131.9583155742  delta_E= -3.49e-06  |g|= 0.000551  |ddm|= 0.00603
  alpha nocc = 84  HOMO = -0.125896181467671  LUMO = 0.0652538888970226
  beta  nocc = 84  HOMO = -0.127190411395258  LUMO = 0.0654130834592928
cycle= 15 E= -3131.95831856433  delta_E= -2.99e-06  |g|= 0.000537  |ddm|= 0.00516
  alpha nocc = 84  HOMO = -0.125910392875548  LUMO = 0.0652573789916386
  beta  nocc = 84  HOMO = -0.127195666772907  LUMO = 0.0653995273238797
cycle= 16 E= -3131.95832060497  delta_E= -2.04e-06  |g|= 0.000535  |ddm|= 0.00351
  alpha nocc = 84  HOMO = -0.125908314227688  LUMO = 0.0652555459551099
  beta  nocc = 84  HOMO = -0.127195395945813  LUMO = 0.0654017473980622
cycle= 17 E= -3131.95832010908  delta_E= 4.96e-07  |g|= 0.000533  |ddm|= 0.000855
  alpha nocc = 84  HOMO = -0.125909091686012  LUMO = 0.065251602012401
  beta  nocc = 84  HOMO = -0.127201803950697  LUMO = 0.0654055715359497
cycle= 18 E= -3131.95831920512  delta_E= 9.04e-07  |g|= 0.000524  |ddm|= 0.0017
  alpha nocc = 84  HOMO = -0.125892991062698  LUMO = 0.0652542377770686
  beta  nocc = 84  HOMO = -0.127187035156858  LUMO = 0.0654139718323743
cycle= 19 E= -3131.95831795072  delta_E= 1.25e-06  |g|= 0.000501  |ddm|= 0.00308
  alpha nocc = 84  HOMO = -0.125908618950277  LUMO = 0.0652603237410748
  beta  nocc = 84  HOMO = -0.127189353395216  LUMO = 0.0654262605299375
cycle= 20 E= -3131.95831694596  delta_E= 1e-06  |g|= 0.00047  |ddm|= 0.00401
  alpha nocc = 84  HOMO = -0.125911882008712  LUMO = 0.0652604980016257
  beta  nocc = 84  HOMO = -0.127163346943006  LUMO = 0.0654302891351891
cycle= 21 E= -3131.95831697043  delta_E= -2.45e-08  |g|= 0.000446  |ddm|= 0.00479
  alpha nocc = 84  HOMO = -0.125922974503351  LUMO = 0.0652592048094077
  beta  nocc = 84  HOMO = -0.127154597266689  LUMO = 0.0654327252444707
cycle= 22 E= -3131.95831723589  delta_E= -2.65e-07  |g|= 0.000404  |ddm|= 0.00346
  alpha nocc = 84  HOMO = -0.1259448650666  LUMO = 0.0652563345828958
  beta  nocc = 84  HOMO = -0.127156368986526  LUMO = 0.0654359758434846
cycle= 23 E= -3131.95831812332  delta_E= -8.87e-07  |g|= 0.000377  |ddm|= 0.00443
  alpha nocc = 84  HOMO = -0.125954930857221  LUMO = 0.0652444912674504
  beta  nocc = 84  HOMO = -0.127166235686159  LUMO = 0.0654264520273909
cycle= 24 E= -3131.95831922919  delta_E= -1.11e-06  |g|= 0.000368  |ddm|= 0.00379
  alpha nocc = 84  HOMO = -0.125953580093257  LUMO = 0.0652468939151629
  beta  nocc = 84  HOMO = -0.127165548989245  LUMO = 0.0654242868437721
cycle= 25 E= -3131.9583202322  delta_E= -1e-06  |g|= 0.000364  |ddm|= 0.0026
  alpha nocc = 84  HOMO = -0.125954126686531  LUMO = 0.0652460667262137
  beta  nocc = 84  HOMO = -0.127172930358047  LUMO = 0.0654188867435901
cycle= 26 E= -3131.95832090419  delta_E= -6.72e-07  |g|= 0.000363  |ddm|= 0.00167
  alpha nocc = 84  HOMO = -0.125953680201163  LUMO = 0.0652476869040569
  beta  nocc = 84  HOMO = -0.127176008445836  LUMO = 0.0654169815914442
cycle= 27 E= -3131.95832129892  delta_E= -3.95e-07  |g|= 0.000363  |ddm|= 0.000992
  alpha nocc = 84  HOMO = -0.12595557137474  LUMO = 0.0652444513853386
  beta  nocc = 84  HOMO = -0.127170132042926  LUMO = 0.0654200606801174
cycle= 28 E= -3131.95832051531  delta_E= 7.84e-07  |g|= 0.000363  |ddm|= 0.00198
  alpha nocc = 84  HOMO = -0.125952378011776  LUMO = 0.0652424496529501
  beta  nocc = 84  HOMO = -0.127159340397552  LUMO = 0.0654214612199248
cycle= 29 E= -3131.95831981876  delta_E= 6.97e-07  |g|= 0.000361  |ddm|= 0.0018
  alpha nocc = 84  HOMO = -0.125954994994075  LUMO = 0.0652390849894526
  beta  nocc = 84  HOMO = -0.127146987979987  LUMO = 0.0654212831991845
cycle= 30 E= -3131.95831866459  delta_E= 1.15e-06  |g|= 0.000359  |ddm|= 0.00305
  alpha nocc = 84  HOMO = -0.125958443879337  LUMO = 0.0652400355443936
  beta  nocc = 84  HOMO = -0.127137055534565  LUMO = 0.0654224708851246
cycle= 31 E= -3131.9583178671  delta_E= 7.97e-07  |g|= 0.000356  |ddm|= 0.00219
  alpha nocc = 84  HOMO = -0.125964579192288  LUMO = 0.0652433021417518
  beta  nocc = 84  HOMO = -0.127112495552723  LUMO = 0.0654240639630861
cycle= 32 E= -3131.95831648377  delta_E= 1.38e-06  |g|= 0.000347  |ddm|= 0.00417
  alpha nocc = 84  HOMO = -0.12597398039119  LUMO = 0.065249456523335
  beta  nocc = 84  HOMO = -0.12707401782711  LUMO = 0.0654295696103388
cycle= 33 E= -3131.95831505471  delta_E= 1.43e-06  |g|= 0.000335  |ddm|= 0.00552
  alpha nocc = 84  HOMO = -0.125998104684065  LUMO = 0.065248011178789
  beta  nocc = 84  HOMO = -0.127056357944181  LUMO = 0.0654362397130194
cycle= 34 E= -3131.95831405317  delta_E= 1e-06  |g|= 0.000326  |ddm|= 0.00482
  alpha nocc = 84  HOMO = -0.126003303459035  LUMO = 0.0652402148341918
  beta  nocc = 84  HOMO = -0.127030596917551  LUMO = 0.0654448615622605
cycle= 35 E= -3131.95831385965  delta_E= 1.94e-07  |g|= 0.00032  |ddm|= 0.00359
  alpha nocc = 84  HOMO = -0.126015154929554  LUMO = 0.0652270564907544
  beta  nocc = 84  HOMO = -0.127024460349714  LUMO = 0.0654510369131849
cycle= 36 E= -3131.95831381102  delta_E= 4.86e-08  |g|= 0.000316  |ddm|= 0.00257
  alpha nocc = 84  HOMO = -0.126014108335441  LUMO = 0.0652235143268522
  beta  nocc = 84  HOMO = -0.127027351590145  LUMO = 0.0654513502365736
cycle= 37 E= -3131.95831437777  delta_E= -5.67e-07  |g|= 0.000316  |ddm|= 0.00163
  alpha nocc = 84  HOMO = -0.126014003801387  LUMO = 0.0652235599317274
  beta  nocc = 84  HOMO = -0.127028725258569  LUMO = 0.0654510839825349
cycle= 38 E= -3131.95831447538  delta_E= -9.76e-08  |g|= 0.000316  |ddm|= 0.000306
  alpha nocc = 84  HOMO = -0.126015610606145  LUMO = 0.0652224185850317
  beta  nocc = 84  HOMO = -0.127026840033681  LUMO = 0.0654511328871302
cycle= 39 E= -3131.95831433136  delta_E= 1.44e-07  |g|= 0.000316  |ddm|= 0.000544
  alpha nocc = 84  HOMO = -0.126018516883569  LUMO = 0.0652222825085787
  beta  nocc = 84  HOMO = -0.127013128051823  LUMO = 0.0654546689051681
cycle= 40 E= -3131.95831360702  delta_E= 7.24e-07  |g|= 0.000315  |ddm|= 0.00264
  alpha nocc = 84  HOMO = -0.126021107321789  LUMO = 0.0652209355013628
  beta  nocc = 84  HOMO = -0.127000747614581  LUMO = 0.0654570148192475
cycle= 41 E= -3131.95831318432  delta_E= 4.23e-07  |g|= 0.000314  |ddm|= 0.002
  alpha nocc = 84  HOMO = -0.126030189835766  LUMO = 0.0652211153871586
  beta  nocc = 84  HOMO = -0.126987472486226  LUMO = 0.0654607580876906
cycle= 42 E= -3131.95831325996  delta_E= -7.56e-08  |g|= 0.000313  |ddm|= 0.00246
  alpha nocc = 84  HOMO = -0.126030305076014  LUMO = 0.0652219810425387
  beta  nocc = 84  HOMO = -0.126988047928983  LUMO = 0.0654615787419176
cycle= 43 E= -3131.95831334118  delta_E= -8.12e-08  |g|= 0.000313  |ddm|= 0.000272
  alpha nocc = 84  HOMO = -0.126029881267813  LUMO = 0.0652224023366432
  beta  nocc = 84  HOMO = -0.126987921122825  LUMO = 0.0654616962860006
cycle= 44 E= -3131.95831333494  delta_E= 6.24e-09  |g|= 0.000313  |ddm|= 8.06e-05
  alpha nocc = 84  HOMO = -0.126034094306819  LUMO = 0.065218578006384
  beta  nocc = 84  HOMO = -0.126988474625838  LUMO = 0.0654620162972875
cycle= 45 E= -3131.95831345676  delta_E= -1.22e-07  |g|= 0.000313  |ddm|= 0.00065
  alpha nocc = 84  HOMO = -0.126035267908705  LUMO = 0.0652183265534985
  beta  nocc = 84  HOMO = -0.126987008644501  LUMO = 0.0654625557961059
cycle= 46 E= -3131.95831332257  delta_E= 1.34e-07  |g|= 0.000313  |ddm|= 0.000531
  alpha nocc = 84  HOMO = -0.126032448492715  LUMO = 0.0652197234212572
  beta  nocc = 84  HOMO = -0.126996065944711  LUMO = 0.0654604006351626
cycle= 47 E= -3131.95831380715  delta_E= -4.85e-07  |g|= 0.000313  |ddm|= 0.0019
  alpha nocc = 84  HOMO = -0.126030076408779  LUMO = 0.0652207150331346
  beta  nocc = 84  HOMO = -0.127000144480877  LUMO = 0.065459933438926
cycle= 48 E= -3131.95831410864  delta_E= -3.01e-07  |g|= 0.000313  |ddm|= 0.00111
  alpha nocc = 84  HOMO = -0.126028573865081  LUMO = 0.0652208605376146
  beta  nocc = 84  HOMO = -0.127000142155754  LUMO = 0.0654597497042703
cycle= 49 E= -3131.95831403899  delta_E= 6.97e-08  |g|= 0.000313  |ddm|= 0.000247
  alpha nocc = 84  HOMO = -0.126029557491345  LUMO = 0.0652205208776413
  beta  nocc = 84  HOMO = -0.126998322104179  LUMO = 0.0654603182347763
cycle= 50 E= -3131.95831402699  delta_E= 1.2e-08  |g|= 0.000313  |ddm|= 0.000311
SCF not converged.
SCF energy = -3131.95831402699 after 50 cycles  <S^2> = 0.0057388562  2S+1 = 1.0114126
