#INFO: **** input file is /home/ltkoanh/Al_B2LYP_6311_Gd_Cluster/Cluster/Al13-cation-singlet/input.py ****
import numpy
from pyscf import gto, scf, dft, mp, cc
from pyscf.mp import uobmp2_mom_conv, dfuobmp2_mom_conv, uhf_mom
from pyscf.mp import  mp2, ump2
from pyscf.tools import molden
import os
from functools import reduce


mol = gto.Mole()
geom = os.environ.get('geom_txt')
mol.atom = geom
mol.basis = os.environ.get('basis', 'cc-pvdz')
mol.unit = 'A'
mol.charge = int(os.environ.get('charge', 0))
mol.spin = int(os.environ.get('spin', 0))
mol.verbose = 4
mol.build()

#################### Ground state using density fitting
### Hartree-Fock
a  = scf.UHF(mol).density_fit()
a.kernel()

### Ground state OBMP2 calculation
ob = dfuobmp2_mom_conv.DFUOBMP2(a)
ob.second_order = True
ob.thresh = 10e-6
ob.css = 1
ob.cos = 1
e_obmp2g = ob.kernel()

### Ground state O2BMP2 calculation
ob = dfuobmp2_mom_conv.DFUOBMP2(a)
ob.second_order = True
ob.thresh = 10e-6
ob.css = 0                             
ob.cos = 1.2                             
e_o2bmp2g = ob.kernel()  

#################### Ground state NOT using density fitting
### Hartree-Fock
a  = scf.UHF(mol)
a.kernel()

### Ground state OBMP2 calculation
ob = uobmp2_mom_conv.UOBMP2(a)
ob.second_order = True
ob.thresh = 10e-6
ob.css = 1
ob.cos = 1
#e_obmp2g = ob.kernel()

### Ground state O2BMP2 calculation
ob = uobmp2_mom_conv.UOBMP2(a)
ob.second_order = True
ob.thresh = 10e-6
ob.css = 0
ob.cos = 1.2   ## the cos can be vary ...                        	 
#e_o2bmp2g = ob.kernel()


## Results from density-fitting approximate with non-using density fitting 
## check results between df and non-df with small molecules before running the important molecules
#INFO: ******************** input file end ********************


System: uname_result(system='Linux', node='comphys', release='3.10.0-1160.119.1.el7.x86_64', version='#1 SMP Tue Jun 4 14:43:51 UTC 2024', machine='x86_64', processor='x86_64')  Threads 8
Python 3.7.9 (default, Dec  4 2023, 13:00:18) 
[GCC 4.8.5 20150623 (Red Hat 4.8.5-44)]
numpy 1.21.6  scipy 1.7.3
Date: Sun May 25 18:10:14 2025
PySCF version 1.7.0
PySCF path  /share/installs/pyscf/pyscf
GIT HEAD      ref: refs/heads/ob-mp2
GIT ob-mp2 branch  f0fc63383ab6c719c0c91f5e07a6895c637b700d

[CONFIG] conf_file None
[INPUT] verbose = 4
[INPUT] num. atoms = 13
[INPUT] num. electrons = 90
[INPUT] charge = 1
[INPUT] spin (= nelec alpha-beta = 2S) = 0
[INPUT] symmetry False subgroup None
[INPUT] Mole.unit = A
[INPUT]  1 H      1.704291000000   2.070534000000  -1.272239000000 AA    3.220643226561   3.912742191600  -2.404183274991 Bohr
[INPUT]  2 He    -0.970293000000   2.101420000000   1.340459000000 AA   -1.833588030583   3.971108272684   2.533100391208 Bohr
[INPUT]  3 Li     1.808579000000   1.465042000000   1.292944000000 AA    3.417718984640   2.768528140985   2.443310054400 Bohr
[INPUT]  4 Be     2.586001000000  -0.402148000000  -1.335742000000 AA    4.886833647851  -0.759949581542  -2.524186553079 Bohr
[INPUT]  5 B     -2.336927000000  -0.340516000000   1.177203000000 AA   -4.416152003101  -0.643481981032   2.224591263016 Bohr
[INPUT]  6 C     -0.000274000000  -0.082481000000   2.339036000000 AA   -0.000517784958  -0.155866500480   4.420137435498 Bohr
[INPUT]  7 N      1.996909000000  -1.290163000000   1.126039000000 AA    3.773611105679  -2.438054726047   2.127905315579 Bohr
[INPUT]  8 O     -0.496978000000  -2.340987000000   1.077115000000 AA   -0.939152309934  -4.423824291167   2.035452354661 Bohr
[INPUT]  9 F     -0.880076000000   2.546751000000  -1.250967000000 AA   -1.663102608803   4.812661897462  -2.363985020869 Bohr
[INPUT] 10 Ne    -2.584150000000   0.548790000000  -1.318253000000 AA   -4.883335764795   1.037062799900  -2.491137132886 Bohr
[INPUT] 11 Na    -1.706087000000  -1.928961000000  -1.355995000000 AA   -3.224037174681  -3.645207994967  -2.562459176280 Bohr
[INPUT] 12 Mg     0.879609000000  -2.403119000000  -1.362091000000 AA    1.662220106703  -4.541236754739  -2.573978946735 Bohr
[INPUT] 13 Al    -0.000603000000   0.055838000000  -0.457508000000 AA   -0.001139504853   0.105518527343  -0.864564819798 Bohr

nuclear repulsion = 588.922750780946
number of shells = 41
number of NR pGTOs = 414
number of NR cGTOs = 69
basis = sto-6g
ecp = {}
CPU time:         1.43


******** <class 'pyscf.df.df_jk.density_fit.<locals>.DFHF'> ********
method = DFHF-UHF
initial guess = minao
damping factor = 0
level_shift factor = 0
DIIS = <class 'pyscf.scf.diis.CDIIS'>
diis_start_cycle = 1
diis_space = 8
SCF conv_tol = 1e-09
SCF conv_tol_grad = None
SCF max_cycles = 50
direct_scf = True
direct_scf_tol = 1e-13
chkfile to save SCF result = /home/ltkoanh/Al_B2LYP_6311_Gd_Cluster/Cluster/Al13-cation-singlet/tmpor8csluc
max_memory 4000 MB (current use 60 MB)
number electrons alpha = 45  beta = 45
Set gradient conv threshold to 3.16228e-05
******** <class 'pyscf.df.df.DF'> ********
auxbasis = None
max_memory = 4000
_cderi_to_save = /home/ltkoanh/Al_B2LYP_6311_Gd_Cluster/Cluster/Al13-cation-singlet/tmpx294triw
Even tempered Gaussians are generated as DF auxbasis for  C B O Na Be N Li He H F Mg Al Ne
init E= -1038.46961609953
  alpha nocc = 45  HOMO = -0.480218875307377  LUMO = -0.408588482642241
  beta  nocc = 45  HOMO = -0.469301059790562  LUMO = -0.40185980631539
cycle= 1 E= -1038.7138343161  delta_E= -0.244  |g|= 1.09  |ddm|= 2.64
  alpha nocc = 45  HOMO = -0.0396491449081189  LUMO = -0.0321864853377485
  beta  nocc = 45  HOMO = -0.0385047382533445  LUMO = -0.0337723926711021
cycle= 2 E= -1017.46643028095  delta_E= 21.2  |g|= 3.21  |ddm|= 6.03
  alpha nocc = 45  HOMO = -0.0317037427289503  LUMO = -0.0236967959321841
  beta  nocc = 45  HOMO = -0.03321562205721  LUMO = -0.0230637838235084
cycle= 3 E= -1033.9146578276  delta_E= -16.4  |g|= 2.36  |ddm|= 4.51
  alpha nocc = 45  HOMO = -0.120471085620255  LUMO = -0.113191243525355
  beta  nocc = 45  HOMO = -0.121580832453001  LUMO = -0.11658298318667
cycle= 4 E= -1038.99383352771  delta_E= -5.08  |g|= 1.32  |ddm|= 3.12
  alpha nocc = 45  HOMO = -0.0862344219523375  LUMO = -0.085015214439671
  beta  nocc = 45  HOMO = -0.0910664672127122  LUMO = -0.0877278643267528

WARN: system HOMO -0.0910664672127122 >= system LUMO -0.0877278643267528

cycle= 5 E= -1036.44439769155  delta_E= 2.55  |g|= 1.61  |ddm|= 3.42
  alpha nocc = 45  HOMO = -0.102535392122308  LUMO = -0.0968031864948602
  beta  nocc = 45  HOMO = -0.126260819201726  LUMO = -0.0978139430915753
cycle= 6 E= -1039.76461474817  delta_E= -3.32  |g|= 1.33  |ddm|= 2.12
  alpha nocc = 45  HOMO = -0.0972893928797548  LUMO = -0.0707412732813728
  beta  nocc = 45  HOMO = -0.125045172748698  LUMO = -0.072271504073241
cycle= 7 E= -1038.56685925621  delta_E=  1.2  |g|= 1.71  |ddm|= 0.783
  alpha nocc = 45  HOMO = -0.0940650262620777  LUMO = -0.0840399589098093
  beta  nocc = 45  HOMO = -0.106201128071014  LUMO = -0.0951169478576099

WARN: system HOMO -0.106201128071014 >= system LUMO -0.0951169478576099

cycle= 8 E= -1039.38343287956  delta_E= -0.817  |g|= 1.44  |ddm|= 0.916
  alpha nocc = 45  HOMO = -0.0948389261943804  LUMO = -0.0835510585426811
  beta  nocc = 45  HOMO = -0.106504931639683  LUMO = -0.0947823969844114

WARN: system HOMO -0.106504931639683 >= system LUMO -0.0947823969844114

cycle= 9 E= -1039.40733253359  delta_E= -0.0239  |g|= 1.43  |ddm|= 0.0796
  alpha nocc = 45  HOMO = -0.174439365595198  LUMO = -0.159462099465172
  beta  nocc = 45  HOMO = -0.174650051290772  LUMO = -0.170082884109627
cycle= 10 E= -1040.11383033295  delta_E= -0.706  |g|= 0.967  |ddm|=  2.4
  alpha nocc = 45  HOMO = -0.182943202459828  LUMO = -0.123315803568754
  beta  nocc = 45  HOMO = -0.205900650767375  LUMO = -0.0769665875081651
cycle= 11 E= -1041.06282758156  delta_E= -0.949  |g|= 0.318  |ddm|= 1.45
  alpha nocc = 45  HOMO = -0.173261637148132  LUMO = -0.0341382691484382
  beta  nocc = 45  HOMO = -0.245902480113336  LUMO = -0.067683246750689
cycle= 12 E= -1041.29258022154  delta_E= -0.23  |g|= 0.218  |ddm|= 0.953
  alpha nocc = 45  HOMO = -0.216646092153102  LUMO = -0.0042323333851897
  beta  nocc = 45  HOMO = -0.25436005485892  LUMO = -0.0240438993931278
cycle= 13 E= -1041.41425010858  delta_E= -0.122  |g|= 0.115  |ddm|= 0.643
  alpha nocc = 45  HOMO = -0.20689568303454  LUMO = -0.0105695856216017
  beta  nocc = 45  HOMO = -0.237424318271272  LUMO = -0.0274553725666443
cycle= 14 E= -1041.47274836252  delta_E= -0.0585  |g|= 0.0949  |ddm|= 0.471
  alpha nocc = 45  HOMO = -0.218378979288183  LUMO = -0.0073297056571206
  beta  nocc = 45  HOMO = -0.242092666808789  LUMO = -0.0206810869731191
cycle= 15 E= -1041.50948293667  delta_E= -0.0367  |g|= 0.0811  |ddm|= 0.343
  alpha nocc = 45  HOMO = -0.222881948814419  LUMO = -0.00894219864237871
  beta  nocc = 45  HOMO = -0.240398188287967  LUMO = -0.014030998193209
cycle= 16 E= -1041.54482182982  delta_E= -0.0353  |g|= 0.0727  |ddm|= 0.369
  alpha nocc = 45  HOMO = -0.227991007795744  LUMO = -0.00784545511705993
  beta  nocc = 45  HOMO = -0.239640550345898  LUMO = -0.0159379094338493
cycle= 17 E= -1041.56455645897  delta_E= -0.0197  |g|= 0.0776  |ddm|= 0.22
  alpha nocc = 45  HOMO = -0.215833954339758  LUMO = -0.00853748079470916
  beta  nocc = 45  HOMO = -0.235060376210036  LUMO = -0.014627479631824
cycle= 18 E= -1041.52013904325  delta_E= 0.0444  |g|= 0.0532  |ddm|= 0.614
  alpha nocc = 45  HOMO = -0.21859437894725  LUMO = -0.00724610444535402
  beta  nocc = 45  HOMO = -0.235613461834402  LUMO = -0.0118823376172831
cycle= 19 E= -1041.53377085198  delta_E= -0.0136  |g|= 0.0489  |ddm|= 0.241
  alpha nocc = 45  HOMO = -0.217585407623475  LUMO = -0.00607238047089413
  beta  nocc = 45  HOMO = -0.232634017033935  LUMO = -0.0096845466519113
cycle= 20 E= -1041.53744977438  delta_E= -0.00368  |g|= 0.0475  |ddm|= 0.0913
  alpha nocc = 45  HOMO = -0.216532802145777  LUMO = -0.00621108447807645
  beta  nocc = 45  HOMO = -0.234175902822248  LUMO = -0.00917872663936133
cycle= 21 E= -1041.53356427838  delta_E= 0.00389  |g|= 0.0468  |ddm|= 0.0673
  alpha nocc = 45  HOMO = -0.219413642403222  LUMO = -0.00376731433810921
  beta  nocc = 45  HOMO = -0.245298974683726  LUMO = -0.00537235046972553
cycle= 22 E= -1041.51671149991  delta_E= 0.0169  |g|= 0.0398  |ddm|= 0.341
  alpha nocc = 45  HOMO = -0.2173938092705  LUMO = -0.00560759305340465
  beta  nocc = 45  HOMO = -0.251958199752997  LUMO = -0.00427252507442689
cycle= 23 E= -1041.50789717275  delta_E= 0.00881  |g|= 0.034  |ddm|= 0.308
  alpha nocc = 45  HOMO = -0.219724770689929  LUMO = -0.00673536475991031
  beta  nocc = 45  HOMO = -0.250592543083791  LUMO = -0.00254221346221184
cycle= 24 E= -1041.51229285118  delta_E= -0.0044  |g|= 0.0352  |ddm|= 0.116
  alpha nocc = 45  HOMO = -0.219378767462597  LUMO = -0.00631876309584892
  beta  nocc = 45  HOMO = -0.251077654618161  LUMO = -0.00250227604000045
cycle= 25 E= -1041.51097049955  delta_E= 0.00132  |g|= 0.0346  |ddm|= 0.0298
  alpha nocc = 45  HOMO = -0.212240624686063  LUMO = -0.00728664665650304
  beta  nocc = 45  HOMO = -0.247522529766948  LUMO = -0.00328250788629167
cycle= 26 E= -1041.50616575757  delta_E= 0.0048  |g|= 0.0298  |ddm|= 0.129
  alpha nocc = 45  HOMO = -0.209614952522501  LUMO = -0.00494580674071536
  beta  nocc = 45  HOMO = -0.253091278669375  LUMO = -0.000730877176204668
cycle= 27 E= -1041.50217324564  delta_E= 0.00399  |g|= 0.0218  |ddm|= 0.268
  alpha nocc = 45  HOMO = -0.20601719421655  LUMO = -0.00702192039836682
  beta  nocc = 45  HOMO = -0.249519380330528  LUMO = -0.000671631003469118
cycle= 28 E= -1041.50677621565  delta_E= -0.0046  |g|= 0.0228  |ddm|= 0.177
  alpha nocc = 45  HOMO = -0.20773577334328  LUMO = -0.00533909659393933
  beta  nocc = 45  HOMO = -0.254940784859847  LUMO = -0.000603902944631135
cycle= 29 E= -1041.5047215628  delta_E= 0.00205  |g|= 0.0212  |ddm|=  0.1
  alpha nocc = 45  HOMO = -0.206158768038259  LUMO = -0.00656199829890521
  beta  nocc = 45  HOMO = -0.252969993322211  LUMO = -0.00125088486857113
cycle= 30 E= -1041.50517958771  delta_E= -0.000458  |g|= 0.0221  |ddm|= 0.0399
  alpha nocc = 45  HOMO = -0.206899525056322  LUMO = -0.00555175273464546
  beta  nocc = 45  HOMO = -0.256617074059795  LUMO = -0.000871087983274091
cycle= 31 E= -1041.50453676158  delta_E= 0.000643  |g|= 0.0212  |ddm|= 0.0614
  alpha nocc = 45  HOMO = -0.205890746743124  LUMO = -0.00568673547139162
  beta  nocc = 45  HOMO = -0.256845770069885  LUMO = -0.00138792212868856
cycle= 32 E= -1041.50367617303  delta_E= 0.000861  |g|= 0.0207  |ddm|= 0.0387
  alpha nocc = 45  HOMO = -0.207912007436066  LUMO = -0.00535204177109484
  beta  nocc = 45  HOMO = -0.257411777550069  LUMO = -0.00129776044806464
cycle= 33 E= -1041.50191362534  delta_E= 0.00176  |g|= 0.0192  |ddm|= 0.11
  alpha nocc = 45  HOMO = -0.207263682611132  LUMO = -0.00583646859226824
  beta  nocc = 45  HOMO = -0.25607593844439  LUMO = -0.00146091878583975
cycle= 34 E= -1041.50330876367  delta_E= -0.0014  |g|= 0.0199  |ddm|= 0.0709
  alpha nocc = 45  HOMO = -0.207706078333323  LUMO = -0.00576134772069647
  beta  nocc = 45  HOMO = -0.256865930692687  LUMO = -0.00180413657752383
cycle= 35 E= -1041.50215869466  delta_E= 0.00115  |g|= 0.0187  |ddm|= 0.0483
  alpha nocc = 45  HOMO = -0.207416243866272  LUMO = -0.00581172957831792
  beta  nocc = 45  HOMO = -0.257854490760305  LUMO = -0.00220596628653388
cycle= 36 E= -1041.50254095534  delta_E= -0.000382  |g|= 0.0179  |ddm|= 0.093
  alpha nocc = 45  HOMO = -0.207610272737302  LUMO = -0.00592433750888738
  beta  nocc = 45  HOMO = -0.257895203741473  LUMO = -0.00225222273611915
cycle= 37 E= -1041.50317522566  delta_E= -0.000634  |g|= 0.018  |ddm|= 0.0289
  alpha nocc = 45  HOMO = -0.208193664211763  LUMO = -0.00555815752455818
  beta  nocc = 45  HOMO = -0.257137052305666  LUMO = -0.00218326525655552
cycle= 38 E= -1041.50266278104  delta_E= 0.000512  |g|= 0.0178  |ddm|= 0.0295
  alpha nocc = 45  HOMO = -0.208045060021505  LUMO = -0.0052116918784005
  beta  nocc = 45  HOMO = -0.254970264193346  LUMO = -0.00161971353301311
cycle= 39 E= -1041.50230867043  delta_E= 0.000354  |g|= 0.0178  |ddm|= 0.0549
  alpha nocc = 45  HOMO = -0.207776919748413  LUMO = -0.00532081302627572
  beta  nocc = 45  HOMO = -0.255217814667  LUMO = -0.00172169724890916
cycle= 40 E= -1041.50233750278  delta_E= -2.88e-05  |g|= 0.0178  |ddm|= 0.0106
  alpha nocc = 45  HOMO = -0.207969640623681  LUMO = -0.00535575109279471
  beta  nocc = 45  HOMO = -0.254926400225312  LUMO = -0.00170215240129441
cycle= 41 E= -1041.50209560842  delta_E= 0.000242  |g|= 0.0177  |ddm|= 0.0196
  alpha nocc = 45  HOMO = -0.208257620415421  LUMO = -0.00543990685086242
  beta  nocc = 45  HOMO = -0.254677881430745  LUMO = -0.00202322881161951
cycle= 42 E= -1041.50182382656  delta_E= 0.000272  |g|= 0.0172  |ddm|= 0.0286
  alpha nocc = 45  HOMO = -0.209878706929987  LUMO = -0.00607744247714831
  beta  nocc = 45  HOMO = -0.253004632547962  LUMO = -0.00170373701212167
cycle= 43 E= -1041.503315741  delta_E= -0.00149  |g|= 0.0164  |ddm|= 0.0969
  alpha nocc = 45  HOMO = -0.209581866509674  LUMO = -0.00645541611573374
  beta  nocc = 45  HOMO = -0.252088578844377  LUMO = -0.00177797678324166
cycle= 44 E= -1041.50437931314  delta_E= -0.00106  |g|= 0.0166  |ddm|= 0.0597
  alpha nocc = 45  HOMO = -0.209527557533911  LUMO = -0.00630308953676259
  beta  nocc = 45  HOMO = -0.251822777380134  LUMO = -0.00211415960578407
cycle= 45 E= -1041.50404116648  delta_E= 0.000338  |g|= 0.0163  |ddm|= 0.0192
  alpha nocc = 45  HOMO = -0.209086783261388  LUMO = -0.00610111817703407
  beta  nocc = 45  HOMO = -0.249599418427123  LUMO = -0.0016655496678349
cycle= 46 E= -1041.50459719428  delta_E= -0.000556  |g|= 0.0159  |ddm|= 0.087
  alpha nocc = 45  HOMO = -0.208820275995428  LUMO = -0.00630146797123518
  beta  nocc = 45  HOMO = -0.249795962080134  LUMO = -0.00170965738628862
cycle= 47 E= -1041.50489385386  delta_E= -0.000297  |g|= 0.0161  |ddm|= 0.0188
  alpha nocc = 45  HOMO = -0.2098688727822  LUMO = -0.00576882538070942
  beta  nocc = 45  HOMO = -0.248323508992872  LUMO = -0.00158989568961498
cycle= 48 E= -1041.5040474208  delta_E= 0.000846  |g|= 0.0156  |ddm|= 0.0692
  alpha nocc = 45  HOMO = -0.20978223966353  LUMO = -0.00654503819192306
  beta  nocc = 45  HOMO = -0.24768293903608  LUMO = -0.00120823737664069
cycle= 49 E= -1041.50437814587  delta_E= -0.000331  |g|= 0.0152  |ddm|= 0.0444
  alpha nocc = 45  HOMO = -0.212047135564439  LUMO = -0.00670661906639645
  beta  nocc = 45  HOMO = -0.248336170647166  LUMO = -0.000890814595699201
cycle= 50 E= -1041.50419775631  delta_E= 0.00018  |g|= 0.0149  |ddm|= 0.0445
SCF not converged.
SCF energy = -1041.50419775631 after 50 cycles  <S^2> = 2.3614139  2S+1 = 3.231974
shift = 0
thresh = 1e-05 
eri1 (1031, 2415)
eri1 (1031, 2415)
    CPU time for making amplitude: integral transform      0.31 sec, wall time      0.02 sec
shape (1031, 1656)
1st memory: 219.1 MiB
eri1 (1031, 2415)
eri1 (1031, 2415)
2nd memory: 185.6 MiB

========================
iter = 0  energy = -1041.884361 energy diff = 1041.884361
multiplicity <S^2> : Reference = 2.3614139 Response = 2.3616158 Projector = 2.3618176
eri1 (1031, 2415)
eri1 (1031, 2415)
    CPU time for making amplitude: integral transform      0.30 sec, wall time      0.02 sec
shape (1031, 1656)
1st memory: 219.9 MiB
eri1 (1031, 2415)
eri1 (1031, 2415)
2nd memory: 186.0 MiB

========================
iter = 1  energy = -1041.906624 energy diff = 0.022263
multiplicity <S^2> : Reference = 2.3526137 Response = 2.3527031 Projector = 2.3527925
eri1 (1031, 2415)
eri1 (1031, 2415)
    CPU time for making amplitude: integral transform      0.30 sec, wall time      0.02 sec
shape (1031, 1656)
1st memory: 223.0 MiB
eri1 (1031, 2415)
eri1 (1031, 2415)
2nd memory: 186.9 MiB

========================
iter = 2  energy = -1041.916540 energy diff = 0.009917
multiplicity <S^2> : Reference = 2.3147471 Response = 2.3145518 Projector = 2.3143564
eri1 (1031, 2415)
eri1 (1031, 2415)
    CPU time for making amplitude: integral transform      0.32 sec, wall time      0.02 sec
shape (1031, 1656)
1st memory: 222.8 MiB
eri1 (1031, 2415)
eri1 (1031, 2415)
2nd memory: 187.2 MiB

========================
iter = 3  energy = -1041.927198 energy diff = 0.010658
multiplicity <S^2> : Reference = 2.2945056 Response = 2.2945286 Projector = 2.2945516
eri1 (1031, 2415)
eri1 (1031, 2415)
    CPU time for making amplitude: integral transform      0.32 sec, wall time      0.02 sec
shape (1031, 1656)
1st memory: 223.2 MiB
eri1 (1031, 2415)
eri1 (1031, 2415)
2nd memory: 187.2 MiB

========================
iter = 4  energy = -1041.938781 energy diff = 0.011583
multiplicity <S^2> : Reference = 2.2863609 Response = 2.2862734 Projector = 2.2861859
eri1 (1031, 2415)
eri1 (1031, 2415)
    CPU time for making amplitude: integral transform      0.29 sec, wall time      0.02 sec
shape (1031, 1656)
1st memory: 223.6 MiB
eri1 (1031, 2415)
eri1 (1031, 2415)
2nd memory: 187.5 MiB

========================
iter = 5  energy = -1041.951891 energy diff = 0.013109
multiplicity <S^2> : Reference = 2.3141601 Response = 2.3140018 Projector = 2.3138435
eri1 (1031, 2415)
eri1 (1031, 2415)
    CPU time for making amplitude: integral transform      0.34 sec, wall time      0.02 sec
shape (1031, 1656)
1st memory: 223.1 MiB
eri1 (1031, 2415)
eri1 (1031, 2415)
2nd memory: 187.5 MiB

========================
iter = 6  energy = -1041.959292 energy diff = 0.007401
multiplicity <S^2> : Reference = 2.3629064 Response = 2.3630681 Projector = 2.3632297
eri1 (1031, 2415)
eri1 (1031, 2415)
    CPU time for making amplitude: integral transform      0.32 sec, wall time      0.02 sec
shape (1031, 1656)
1st memory: 223.0 MiB
eri1 (1031, 2415)
eri1 (1031, 2415)
2nd memory: 187.9 MiB

========================
iter = 7  energy = -1041.963146 energy diff = 0.003855
multiplicity <S^2> : Reference = 2.416086 Response = 2.4161015 Projector = 2.416117
eri1 (1031, 2415)
eri1 (1031, 2415)
    CPU time for making amplitude: integral transform      0.28 sec, wall time      0.02 sec
shape (1031, 1656)
1st memory: 222.8 MiB
eri1 (1031, 2415)
eri1 (1031, 2415)
2nd memory: 186.7 MiB

========================
iter = 8  energy = -1041.964064 energy diff = 0.000918
multiplicity <S^2> : Reference = 2.4370052 Response = 2.4369269 Projector = 2.4368486
eri1 (1031, 2415)
eri1 (1031, 2415)
    CPU time for making amplitude: integral transform      0.29 sec, wall time      0.02 sec
shape (1031, 1656)
1st memory: 222.6 MiB
eri1 (1031, 2415)
eri1 (1031, 2415)
2nd memory: 187.0 MiB

========================
iter = 9  energy = -1041.962499 energy diff = 0.001564
multiplicity <S^2> : Reference = 2.381242 Response = 2.3813771 Projector = 2.3815123
eri1 (1031, 2415)
eri1 (1031, 2415)
    CPU time for making amplitude: integral transform      0.33 sec, wall time      0.02 sec
shape (1031, 1656)
1st memory: 223.0 MiB
eri1 (1031, 2415)
eri1 (1031, 2415)
2nd memory: 187.2 MiB

========================
iter = 10  energy = -1041.959446 energy diff = 0.003053
multiplicity <S^2> : Reference = 2.1713807 Response = 2.1713654 Projector = 2.17135
eri1 (1031, 2415)
eri1 (1031, 2415)
    CPU time for making amplitude: integral transform      0.36 sec, wall time      0.02 sec
shape (1031, 1656)
1st memory: 222.8 MiB
eri1 (1031, 2415)
eri1 (1031, 2415)
2nd memory: 187.6 MiB

========================
iter = 11  energy = -1041.954890 energy diff = 0.004557
multiplicity <S^2> : Reference = 2.0501599 Response = 2.0501533 Projector = 2.0501468
eri1 (1031, 2415)
eri1 (1031, 2415)
    CPU time for making amplitude: integral transform      0.32 sec, wall time      0.02 sec
shape (1031, 1656)
1st memory: 223.3 MiB
eri1 (1031, 2415)
eri1 (1031, 2415)
2nd memory: 188.1 MiB

========================
iter = 12  energy = -1041.957206 energy diff = 0.002316
multiplicity <S^2> : Reference = 2.060683 Response = 2.0607515 Projector = 2.06082
eri1 (1031, 2415)
eri1 (1031, 2415)
    CPU time for making amplitude: integral transform      0.32 sec, wall time      0.02 sec
shape (1031, 1656)
1st memory: 222.8 MiB
eri1 (1031, 2415)
eri1 (1031, 2415)
2nd memory: 188.0 MiB

========================
iter = 13  energy = -1041.953208 energy diff = 0.003997
multiplicity <S^2> : Reference = 2.0499812 Response = 2.049889 Projector = 2.0497969
eri1 (1031, 2415)
eri1 (1031, 2415)
    CPU time for making amplitude: integral transform      0.28 sec, wall time      0.02 sec
shape (1031, 1656)
1st memory: 226.1 MiB
eri1 (1031, 2415)
eri1 (1031, 2415)
2nd memory: 187.8 MiB

========================
iter = 14  energy = -1041.951798 energy diff = 0.001411
multiplicity <S^2> : Reference = 2.0570359 Response = 2.0569372 Projector = 2.0568385
eri1 (1031, 2415)
eri1 (1031, 2415)
    CPU time for making amplitude: integral transform      0.28 sec, wall time      0.02 sec
shape (1031, 1656)
1st memory: 222.7 MiB
eri1 (1031, 2415)
eri1 (1031, 2415)
2nd memory: 187.8 MiB

========================
iter = 15  energy = -1041.949620 energy diff = 0.002178
multiplicity <S^2> : Reference = 2.0641494 Response = 2.06402 Projector = 2.0638906
eri1 (1031, 2415)
eri1 (1031, 2415)
    CPU time for making amplitude: integral transform      0.32 sec, wall time      0.02 sec
shape (1031, 1656)
1st memory: 222.9 MiB
eri1 (1031, 2415)
eri1 (1031, 2415)
2nd memory: 188.2 MiB

========================
iter = 16  energy = -1041.951251 energy diff = 0.001631
multiplicity <S^2> : Reference = 2.0601192 Response = 2.0600544 Projector = 2.0599895
eri1 (1031, 2415)
eri1 (1031, 2415)
    CPU time for making amplitude: integral transform      0.32 sec, wall time      0.02 sec
shape (1031, 1656)
1st memory: 222.8 MiB
eri1 (1031, 2415)
eri1 (1031, 2415)
2nd memory: 188.2 MiB

========================
iter = 17  energy = -1041.954385 energy diff = 0.003134
multiplicity <S^2> : Reference = 2.0551447 Response = 2.0550332 Projector = 2.0549218
eri1 (1031, 2415)
eri1 (1031, 2415)
    CPU time for making amplitude: integral transform      0.30 sec, wall time      0.02 sec
shape (1031, 1656)
1st memory: 222.6 MiB
eri1 (1031, 2415)
eri1 (1031, 2415)
2nd memory: 188.0 MiB

========================
iter = 18  energy = -1041.959591 energy diff = 0.005206
multiplicity <S^2> : Reference = 2.0655365 Response = 2.0654041 Projector = 2.0652717
eri1 (1031, 2415)
eri1 (1031, 2415)
    CPU time for making amplitude: integral transform      0.32 sec, wall time      0.02 sec
shape (1031, 1656)
1st memory: 222.8 MiB
eri1 (1031, 2415)
eri1 (1031, 2415)
2nd memory: 189.3 MiB

========================
iter = 19  energy = -1041.961186 energy diff = 0.001596
multiplicity <S^2> : Reference = 2.0700879 Response = 2.0700014 Projector = 2.0699149
eri1 (1031, 2415)
eri1 (1031, 2415)
    CPU time for making amplitude: integral transform      0.33 sec, wall time      0.02 sec
shape (1031, 1656)
1st memory: 223.1 MiB
eri1 (1031, 2415)
eri1 (1031, 2415)
2nd memory: 189.8 MiB

========================
iter = 20  energy = -1041.960526 energy diff = 0.000661
multiplicity <S^2> : Reference = 2.0681682 Response = 2.0680616 Projector = 2.067955
eri1 (1031, 2415)
eri1 (1031, 2415)
    CPU time for making amplitude: integral transform      0.33 sec, wall time      0.02 sec
shape (1031, 1656)
1st memory: 222.8 MiB
eri1 (1031, 2415)
eri1 (1031, 2415)
2nd memory: 189.9 MiB

========================
iter = 21  energy = -1041.960031 energy diff = 0.000495
multiplicity <S^2> : Reference = 2.0666366 Response = 2.0665639 Projector = 2.0664911
eri1 (1031, 2415)
eri1 (1031, 2415)
    CPU time for making amplitude: integral transform      0.30 sec, wall time      0.02 sec
shape (1031, 1656)
1st memory: 226.4 MiB
eri1 (1031, 2415)
eri1 (1031, 2415)
2nd memory: 188.8 MiB

========================
iter = 22  energy = -1041.959867 energy diff = 0.000164
multiplicity <S^2> : Reference = 2.067653 Response = 2.0675807 Projector = 2.0675084
eri1 (1031, 2415)
eri1 (1031, 2415)
    CPU time for making amplitude: integral transform      0.30 sec, wall time      0.02 sec
shape (1031, 1656)
1st memory: 222.8 MiB
eri1 (1031, 2415)
eri1 (1031, 2415)
2nd memory: 190.0 MiB

========================
iter = 23  energy = -1041.958037 energy diff = 0.001830
multiplicity <S^2> : Reference = 2.0639623 Response = 2.0637818 Projector = 2.0636014
eri1 (1031, 2415)
eri1 (1031, 2415)
    CPU time for making amplitude: integral transform      0.27 sec, wall time      0.02 sec
shape (1031, 1656)
1st memory: 223.9 MiB
eri1 (1031, 2415)
eri1 (1031, 2415)
2nd memory: 190.2 MiB

========================
iter = 24  energy = -1041.953615 energy diff = 0.004422
multiplicity <S^2> : Reference = 2.0741294 Response = 2.0741049 Projector = 2.0740803
eri1 (1031, 2415)
eri1 (1031, 2415)
    CPU time for making amplitude: integral transform      0.30 sec, wall time      0.02 sec
shape (1031, 1656)
1st memory: 231.7 MiB
eri1 (1031, 2415)
eri1 (1031, 2415)
2nd memory: 202.3 MiB

========================
iter = 25  energy = -1041.950520 energy diff = 0.003095
multiplicity <S^2> : Reference = 2.0988793 Response = 2.0986915 Projector = 2.0985038
eri1 (1031, 2415)
eri1 (1031, 2415)
    CPU time for making amplitude: integral transform      0.33 sec, wall time      0.02 sec
shape (1031, 1656)
1st memory: 236.7 MiB
eri1 (1031, 2415)
eri1 (1031, 2415)
2nd memory: 202.2 MiB

========================
iter = 26  energy = -1041.950851 energy diff = 0.000331
multiplicity <S^2> : Reference = 2.0957281 Response = 2.0954722 Projector = 2.0952162
eri1 (1031, 2415)
eri1 (1031, 2415)
    CPU time for making amplitude: integral transform      0.31 sec, wall time      0.02 sec
shape (1031, 1656)
1st memory: 231.9 MiB
eri1 (1031, 2415)
eri1 (1031, 2415)
2nd memory: 202.3 MiB

========================
iter = 27  energy = -1041.950775 energy diff = 0.000076
multiplicity <S^2> : Reference = 2.0961526 Response = 2.0959991 Projector = 2.0958456
eri1 (1031, 2415)
eri1 (1031, 2415)
    CPU time for making amplitude: integral transform      0.32 sec, wall time      0.02 sec
shape (1031, 1656)
1st memory: 236.7 MiB
eri1 (1031, 2415)
eri1 (1031, 2415)
2nd memory: 194.0 MiB

========================
iter = 28  energy = -1041.950756 energy diff = 0.000019
multiplicity <S^2> : Reference = 2.0962511 Response = 2.0960975 Projector = 2.0959439
eri1 (1031, 2415)
eri1 (1031, 2415)
    CPU time for making amplitude: integral transform      0.26 sec, wall time      0.02 sec
shape (1031, 1656)
1st memory: 232.4 MiB
eri1 (1031, 2415)
eri1 (1031, 2415)
2nd memory: 194.2 MiB

========================
iter = 29  energy = -1041.950205 energy diff = 0.000551
multiplicity <S^2> : Reference = 2.1027368 Response = 2.102772 Projector = 2.1028072
eri1 (1031, 2415)
eri1 (1031, 2415)
    CPU time for making amplitude: integral transform      0.34 sec, wall time      0.02 sec
shape (1031, 1656)
1st memory: 236.6 MiB
eri1 (1031, 2415)
eri1 (1031, 2415)
2nd memory: 193.9 MiB

========================
iter = 30  energy = -1041.950285 energy diff = 0.000080
multiplicity <S^2> : Reference = 2.1020069 Response = 2.101968 Projector = 2.1019291
eri1 (1031, 2415)
eri1 (1031, 2415)
    CPU time for making amplitude: integral transform      0.28 sec, wall time      0.02 sec
shape (1031, 1656)
1st memory: 231.9 MiB
eri1 (1031, 2415)
eri1 (1031, 2415)
2nd memory: 193.4 MiB

========================
iter = 31  energy = -1041.950284 energy diff = 0.000000
multiplicity <S^2> : Reference = 2.1020185 Response = 2.1019796 Projector = 2.1019407

UOB-MP2 has converged
UOB-MP2 energy =  -1041.9502843209684
shift = 0
thresh = 1e-05 
eri1 (1031, 2415)
eri1 (1031, 2415)
    CPU time for making amplitude: integral transform      0.31 sec, wall time      0.02 sec
shape (1031, 1656)
1st memory: 222.6 MiB
eri1 (1031, 2415)
eri1 (1031, 2415)
2nd memory: 185.7 MiB

========================
iter = 0  energy = -1041.793079 energy diff = 1041.793079
multiplicity <S^2> : Reference = 2.3614139 Response = 2.3616158 Projector = 2.3618176
eri1 (1031, 2415)
eri1 (1031, 2415)
    CPU time for making amplitude: integral transform      0.38 sec, wall time      0.03 sec
shape (1031, 1656)
1st memory: 222.8 MiB
eri1 (1031, 2415)
eri1 (1031, 2415)
2nd memory: 186.0 MiB

========================
iter = 1  energy = -1041.818835 energy diff = 0.025756
multiplicity <S^2> : Reference = 2.3404163 Response = 2.3404805 Projector = 2.3405448
eri1 (1031, 2415)
eri1 (1031, 2415)
    CPU time for making amplitude: integral transform      0.32 sec, wall time      0.02 sec
shape (1031, 1656)
1st memory: 223.0 MiB
eri1 (1031, 2415)
eri1 (1031, 2415)
2nd memory: 186.4 MiB

========================
iter = 2  energy = -1041.827835 energy diff = 0.009000
multiplicity <S^2> : Reference = 2.3006966 Response = 2.3002992 Projector = 2.2999018
eri1 (1031, 2415)
eri1 (1031, 2415)
    CPU time for making amplitude: integral transform      0.29 sec, wall time      0.02 sec
shape (1031, 1656)
1st memory: 222.7 MiB
eri1 (1031, 2415)
eri1 (1031, 2415)
2nd memory: 186.1 MiB

========================
iter = 3  energy = -1041.835955 energy diff = 0.008121
multiplicity <S^2> : Reference = 2.2743879 Response = 2.2743863 Projector = 2.2743848
eri1 (1031, 2415)
eri1 (1031, 2415)
    CPU time for making amplitude: integral transform      0.31 sec, wall time      0.02 sec
shape (1031, 1656)
1st memory: 222.9 MiB
eri1 (1031, 2415)
eri1 (1031, 2415)
2nd memory: 186.8 MiB

========================
iter = 4  energy = -1041.841409 energy diff = 0.005454
multiplicity <S^2> : Reference = 2.2682758 Response = 2.2682104 Projector = 2.268145
eri1 (1031, 2415)
eri1 (1031, 2415)
    CPU time for making amplitude: integral transform      0.29 sec, wall time      0.02 sec
shape (1031, 1656)
1st memory: 222.8 MiB
eri1 (1031, 2415)
eri1 (1031, 2415)
2nd memory: 186.8 MiB

========================
iter = 5  energy = -1041.847908 energy diff = 0.006500
multiplicity <S^2> : Reference = 2.3130367 Response = 2.3133183 Projector = 2.3135999
eri1 (1031, 2415)
eri1 (1031, 2415)
    CPU time for making amplitude: integral transform      0.38 sec, wall time      0.03 sec
shape (1031, 1656)
1st memory: 222.9 MiB
eri1 (1031, 2415)
eri1 (1031, 2415)
2nd memory: 186.9 MiB

========================
iter = 6  energy = -1041.849187 energy diff = 0.001278
multiplicity <S^2> : Reference = 2.3421279 Response = 2.3422019 Projector = 2.3422759
eri1 (1031, 2415)
eri1 (1031, 2415)
    CPU time for making amplitude: integral transform      0.33 sec, wall time      0.02 sec
shape (1031, 1656)
1st memory: 223.0 MiB
eri1 (1031, 2415)
eri1 (1031, 2415)
2nd memory: 187.1 MiB

========================
iter = 7  energy = -1041.847380 energy diff = 0.001806
multiplicity <S^2> : Reference = 2.2684229 Response = 2.2684189 Projector = 2.2684148
eri1 (1031, 2415)
eri1 (1031, 2415)
    CPU time for making amplitude: integral transform      0.34 sec, wall time      0.02 sec
shape (1031, 1656)
1st memory: 222.8 MiB
eri1 (1031, 2415)
eri1 (1031, 2415)
2nd memory: 187.0 MiB

========================
iter = 8  energy = -1041.843272 energy diff = 0.004109
multiplicity <S^2> : Reference = 2.112937 Response = 2.1130732 Projector = 2.1132094
eri1 (1031, 2415)
eri1 (1031, 2415)
    CPU time for making amplitude: integral transform      0.36 sec, wall time      0.02 sec
shape (1031, 1656)
1st memory: 222.7 MiB
eri1 (1031, 2415)
eri1 (1031, 2415)
2nd memory: 187.0 MiB

========================
iter = 9  energy = -1041.832564 energy diff = 0.010708
multiplicity <S^2> : Reference = 2.1402662 Response = 2.1403046 Projector = 2.1403429
eri1 (1031, 2415)
eri1 (1031, 2415)
    CPU time for making amplitude: integral transform      0.38 sec, wall time      0.03 sec
shape (1031, 1656)
1st memory: 222.9 MiB
eri1 (1031, 2415)
eri1 (1031, 2415)
2nd memory: 188.1 MiB

========================
iter = 10  energy = -1041.837658 energy diff = 0.005094
multiplicity <S^2> : Reference = 2.094074 Response = 2.0939861 Projector = 2.0938982
eri1 (1031, 2415)
eri1 (1031, 2415)
    CPU time for making amplitude: integral transform      0.32 sec, wall time      0.02 sec
shape (1031, 1656)
1st memory: 223.1 MiB
eri1 (1031, 2415)
eri1 (1031, 2415)
2nd memory: 188.5 MiB

========================
iter = 11  energy = -1041.838507 energy diff = 0.000850
multiplicity <S^2> : Reference = 2.1000928 Response = 2.1000272 Projector = 2.0999615
eri1 (1031, 2415)
eri1 (1031, 2415)
    CPU time for making amplitude: integral transform      0.30 sec, wall time      0.02 sec
shape (1031, 1656)
1st memory: 222.7 MiB
eri1 (1031, 2415)
eri1 (1031, 2415)
2nd memory: 187.5 MiB

========================
iter = 12  energy = -1041.838748 energy diff = 0.000241
multiplicity <S^2> : Reference = 2.0955977 Response = 2.0954689 Projector = 2.0953401
eri1 (1031, 2415)
eri1 (1031, 2415)
    CPU time for making amplitude: integral transform      0.30 sec, wall time      0.02 sec
shape (1031, 1656)
1st memory: 222.7 MiB
eri1 (1031, 2415)
eri1 (1031, 2415)
2nd memory: 187.5 MiB

========================
iter = 13  energy = -1041.839219 energy diff = 0.000471
multiplicity <S^2> : Reference = 2.0940069 Response = 2.0939351 Projector = 2.0938633
eri1 (1031, 2415)
eri1 (1031, 2415)
    CPU time for making amplitude: integral transform      0.33 sec, wall time      0.02 sec
shape (1031, 1656)
1st memory: 222.5 MiB
eri1 (1031, 2415)
eri1 (1031, 2415)
2nd memory: 187.7 MiB

========================
iter = 14  energy = -1041.841059 energy diff = 0.001840
multiplicity <S^2> : Reference = 2.0881282 Response = 2.088008 Projector = 2.0878878
eri1 (1031, 2415)
eri1 (1031, 2415)
    CPU time for making amplitude: integral transform      0.33 sec, wall time      0.02 sec
shape (1031, 1656)
1st memory: 222.7 MiB
eri1 (1031, 2415)
eri1 (1031, 2415)
2nd memory: 188.2 MiB

========================
iter = 15  energy = -1041.844506 energy diff = 0.003447
multiplicity <S^2> : Reference = 2.0751367 Response = 2.0752546 Projector = 2.0753724
eri1 (1031, 2415)
eri1 (1031, 2415)
    CPU time for making amplitude: integral transform      0.36 sec, wall time      0.02 sec
shape (1031, 1656)
1st memory: 222.5 MiB
eri1 (1031, 2415)
eri1 (1031, 2415)
2nd memory: 188.1 MiB

========================
iter = 16  energy = -1041.855905 energy diff = 0.011399
multiplicity <S^2> : Reference = 2.0820858 Response = 2.0820127 Projector = 2.0819396
eri1 (1031, 2415)
eri1 (1031, 2415)
    CPU time for making amplitude: integral transform      0.43 sec, wall time      0.03 sec
shape (1031, 1656)
1st memory: 225.1 MiB
eri1 (1031, 2415)
eri1 (1031, 2415)
2nd memory: 188.3 MiB

========================
iter = 17  energy = -1041.860376 energy diff = 0.004471
multiplicity <S^2> : Reference = 2.1238226 Response = 2.123356 Projector = 2.1228894
eri1 (1031, 2415)
eri1 (1031, 2415)
    CPU time for making amplitude: integral transform      0.44 sec, wall time      0.03 sec
shape (1031, 1656)
1st memory: 225.7 MiB
eri1 (1031, 2415)
eri1 (1031, 2415)
2nd memory: 188.9 MiB

========================
iter = 18  energy = -1041.859374 energy diff = 0.001002
multiplicity <S^2> : Reference = 2.1076153 Response = 2.1075925 Projector = 2.1075696
eri1 (1031, 2415)
eri1 (1031, 2415)
    CPU time for making amplitude: integral transform      0.41 sec, wall time      0.03 sec
shape (1031, 1656)
1st memory: 225.8 MiB
eri1 (1031, 2415)
eri1 (1031, 2415)
2nd memory: 189.4 MiB

========================
iter = 19  energy = -1041.859391 energy diff = 0.000017
multiplicity <S^2> : Reference = 2.1075783 Response = 2.1075551 Projector = 2.107532
eri1 (1031, 2415)
eri1 (1031, 2415)
    CPU time for making amplitude: integral transform      0.34 sec, wall time      0.02 sec
shape (1031, 1656)
1st memory: 225.7 MiB
eri1 (1031, 2415)
eri1 (1031, 2415)
2nd memory: 189.3 MiB

========================
iter = 20  energy = -1041.860045 energy diff = 0.000654
multiplicity <S^2> : Reference = 2.1143768 Response = 2.1145569 Projector = 2.114737
eri1 (1031, 2415)
eri1 (1031, 2415)
    CPU time for making amplitude: integral transform      0.41 sec, wall time      0.03 sec
shape (1031, 1656)
1st memory: 225.5 MiB
eri1 (1031, 2415)
eri1 (1031, 2415)
2nd memory: 189.4 MiB

========================
iter = 21  energy = -1041.859759 energy diff = 0.000286
multiplicity <S^2> : Reference = 2.1071169 Response = 2.1072994 Projector = 2.107482
eri1 (1031, 2415)
eri1 (1031, 2415)
    CPU time for making amplitude: integral transform      0.41 sec, wall time      0.03 sec
shape (1031, 1656)
1st memory: 225.7 MiB
eri1 (1031, 2415)
eri1 (1031, 2415)
2nd memory: 189.7 MiB

========================
iter = 22  energy = -1041.858716 energy diff = 0.001042
multiplicity <S^2> : Reference = 2.0885907 Response = 2.088554 Projector = 2.0885173
eri1 (1031, 2415)
eri1 (1031, 2415)
    CPU time for making amplitude: integral transform      0.33 sec, wall time      0.02 sec
shape (1031, 1656)
1st memory: 225.4 MiB
eri1 (1031, 2415)
eri1 (1031, 2415)
2nd memory: 189.4 MiB

========================
iter = 23  energy = -1041.853812 energy diff = 0.004905
multiplicity <S^2> : Reference = 2.0614212 Response = 2.0615857 Projector = 2.0617502
eri1 (1031, 2415)
eri1 (1031, 2415)
    CPU time for making amplitude: integral transform      0.37 sec, wall time      0.02 sec
shape (1031, 1656)
1st memory: 225.9 MiB
eri1 (1031, 2415)
eri1 (1031, 2415)
2nd memory: 190.2 MiB

========================
iter = 24  energy = -1041.852783 energy diff = 0.001029
multiplicity <S^2> : Reference = 2.0754735 Response = 2.0752148 Projector = 2.0749562
eri1 (1031, 2415)
eri1 (1031, 2415)
    CPU time for making amplitude: integral transform      0.37 sec, wall time      0.02 sec
shape (1031, 1656)
1st memory: 225.7 MiB
eri1 (1031, 2415)
eri1 (1031, 2415)
2nd memory: 189.7 MiB

========================
iter = 25  energy = -1041.853025 energy diff = 0.000242
multiplicity <S^2> : Reference = 2.0788329 Response = 2.078562 Projector = 2.0782911
eri1 (1031, 2415)
eri1 (1031, 2415)
    CPU time for making amplitude: integral transform      0.33 sec, wall time      0.02 sec
shape (1031, 1656)
1st memory: 225.7 MiB
eri1 (1031, 2415)
eri1 (1031, 2415)
2nd memory: 190.1 MiB

========================
iter = 26  energy = -1041.853003 energy diff = 0.000021
multiplicity <S^2> : Reference = 2.0803572 Response = 2.0800859 Projector = 2.0798147
eri1 (1031, 2415)
eri1 (1031, 2415)
    CPU time for making amplitude: integral transform      0.37 sec, wall time      0.02 sec
shape (1031, 1656)
1st memory: 225.8 MiB
eri1 (1031, 2415)
eri1 (1031, 2415)
2nd memory: 190.2 MiB

========================
iter = 27  energy = -1041.854050 energy diff = 0.001047
multiplicity <S^2> : Reference = 2.1145028 Response = 2.1146034 Projector = 2.114704
eri1 (1031, 2415)
eri1 (1031, 2415)
    CPU time for making amplitude: integral transform      0.37 sec, wall time      0.02 sec
shape (1031, 1656)
1st memory: 225.9 MiB
eri1 (1031, 2415)
eri1 (1031, 2415)
2nd memory: 190.6 MiB

========================
iter = 28  energy = -1041.853428 energy diff = 0.000622
multiplicity <S^2> : Reference = 2.1301702 Response = 2.1300685 Projector = 2.1299668
eri1 (1031, 2415)
eri1 (1031, 2415)
    CPU time for making amplitude: integral transform      0.32 sec, wall time      0.02 sec
shape (1031, 1656)
1st memory: 225.5 MiB
eri1 (1031, 2415)
eri1 (1031, 2415)
2nd memory: 190.7 MiB

========================
iter = 29  energy = -1041.853419 energy diff = 0.000008
multiplicity <S^2> : Reference = 2.1291609 Response = 2.1290422 Projector = 2.1289235

UOB-MP2 has converged
UOB-MP2 energy =  -1041.8534194053882


******** <class 'pyscf.scf.uhf.UHF'> ********
method = UHF
initial guess = minao
damping factor = 0
level_shift factor = 0
DIIS = <class 'pyscf.scf.diis.CDIIS'>
diis_start_cycle = 1
diis_space = 8
SCF conv_tol = 1e-09
SCF conv_tol_grad = None
SCF max_cycles = 50
direct_scf = True
direct_scf_tol = 1e-13
chkfile to save SCF result = /home/ltkoanh/Al_B2LYP_6311_Gd_Cluster/Cluster/Al13-cation-singlet/tmpipl18wk3
max_memory 4000 MB (current use 190 MB)
number electrons alpha = 45  beta = 45
Set gradient conv threshold to 3.16228e-05
init E= -1038.470535049
  alpha nocc = 45  HOMO = -0.480282903849971  LUMO = -0.408708950151602
  beta  nocc = 45  HOMO = -0.469361001313971  LUMO = -0.401974201629153
cycle= 1 E= -1038.71539374026  delta_E= -0.245  |g|= 1.09  |ddm|= 2.64
  alpha nocc = 45  HOMO = -0.0396719923722031  LUMO = -0.0321631908987448
  beta  nocc = 45  HOMO = -0.0385117312453247  LUMO = -0.0337449704858954
cycle= 2 E= -1017.4469696743  delta_E= 21.3  |g|= 3.22  |ddm|= 6.03
  alpha nocc = 45  HOMO = -0.0315567892392052  LUMO = -0.0237694275582307
  beta  nocc = 45  HOMO = -0.0330400633046108  LUMO = -0.0231057939024551
cycle= 3 E= -1033.8901134255  delta_E= -16.4  |g|= 2.36  |ddm|= 4.51
  alpha nocc = 45  HOMO = -0.120615445481078  LUMO = -0.113304008470874
  beta  nocc = 45  HOMO = -0.121710284362986  LUMO = -0.116693065902957
cycle= 4 E= -1038.98518162434  delta_E= -5.1  |g|= 1.32  |ddm|= 3.13
  alpha nocc = 45  HOMO = -0.0868876416386376  LUMO = -0.0856549583578663
  beta  nocc = 45  HOMO = -0.0917385267216251  LUMO = -0.0880563959600761

WARN: system HOMO -0.0917385267216251 >= system LUMO -0.0880563959600761

cycle= 5 E= -1036.41342679984  delta_E= 2.57  |g|= 1.58  |ddm|=  3.4
  alpha nocc = 45  HOMO = -0.107275911100276  LUMO = -0.0976857967957925
  beta  nocc = 45  HOMO = -0.128316412834154  LUMO = -0.099125941844687
cycle= 6 E= -1040.10542281621  delta_E= -3.69  |g|= 1.15  |ddm|= 2.21
  alpha nocc = 45  HOMO = -0.0998378819255621  LUMO = -0.0695130580986906
  beta  nocc = 45  HOMO = -0.131846657189538  LUMO = -0.0698920987699625
cycle= 7 E= -1038.90959005304  delta_E=  1.2  |g|= 1.64  |ddm|= 0.772
  alpha nocc = 45  HOMO = -0.101152290201574  LUMO = -0.0859059528106677
  beta  nocc = 45  HOMO = -0.150864850203166  LUMO = -0.0878191593955439
cycle= 8 E= -1039.66645893745  delta_E= -0.757  |g|= 1.35  |ddm|= 0.625
  alpha nocc = 45  HOMO = -0.100809058821842  LUMO = -0.0864141976078895
  beta  nocc = 45  HOMO = -0.149802116734845  LUMO = -0.0885380498230768
cycle= 9 E= -1039.64278737382  delta_E= 0.0237  |g|= 1.36  |ddm|= 0.0473
  alpha nocc = 45  HOMO = -0.192784771926107  LUMO = -0.114050416430748
  beta  nocc = 45  HOMO = -0.198626182504803  LUMO = -0.099494932932576
cycle= 10 E= -1040.6883921532  delta_E= -1.05  |g|= 0.714  |ddm|= 1.83
  alpha nocc = 45  HOMO = -0.183558399742552  LUMO = -0.0477300227421332
  beta  nocc = 45  HOMO = -0.207558340126992  LUMO = -0.0629036906517553
cycle= 11 E= -1041.14845199983  delta_E= -0.46  |g|= 0.37  |ddm|= 0.773
  alpha nocc = 45  HOMO = -0.216071322619926  LUMO = -0.0161503435564543
  beta  nocc = 45  HOMO = -0.241565727266484  LUMO = -0.0321442552467858
cycle= 12 E= -1041.32435873066  delta_E= -0.176  |g|= 0.244  |ddm|= 0.75
  alpha nocc = 45  HOMO = -0.203610164252742  LUMO = -0.00236730175617876
  beta  nocc = 45  HOMO = -0.236584360304847  LUMO = -0.00707019574774696
cycle= 13 E= -1041.43314714978  delta_E= -0.109  |g|= 0.0942  |ddm|= 0.635
  alpha nocc = 45  HOMO = -0.184455061356551  LUMO = -0.0055112873794152
  beta  nocc = 45  HOMO = -0.222645863559207  LUMO = -0.0142666658712063
cycle= 14 E= -1041.47076192315  delta_E= -0.0376  |g|= 0.0813  |ddm|= 0.362
  alpha nocc = 45  HOMO = -0.18551292843126  LUMO = -0.00208560260898702
  beta  nocc = 45  HOMO = -0.222385853440975  LUMO = -0.00869177287989827
cycle= 15 E= -1041.49858129619  delta_E= -0.0278  |g|= 0.0825  |ddm|= 0.27
  alpha nocc = 45  HOMO = -0.185382183145781  LUMO = -0.00223556284210579
  beta  nocc = 45  HOMO = -0.221526206376191  LUMO = -0.00858991467549477
cycle= 16 E= -1041.50425118196  delta_E= -0.00567  |g|= 0.0838  |ddm|= 0.0539
  alpha nocc = 45  HOMO = -0.183482620221898  LUMO = -0.00247720239991789
  beta  nocc = 45  HOMO = -0.222053485254347  LUMO = -0.00623428299587891
cycle= 17 E= -1041.49731847299  delta_E= 0.00693  |g|= 0.0746  |ddm|= 0.126
  alpha nocc = 45  HOMO = -0.1772010307228  LUMO = 0.000787854115103577
  beta  nocc = 45  HOMO = -0.221917847854685  LUMO = -0.00189812597259916
cycle= 18 E= -1041.50668108684  delta_E= -0.00936  |g|= 0.0613  |ddm|= 0.371
  alpha nocc = 45  HOMO = -0.176629163739805  LUMO = -4.04817690681352e-05
  beta  nocc = 45  HOMO = -0.221167938437556  LUMO = -0.00227204947015153
cycle= 19 E= -1041.51398273085  delta_E= -0.0073  |g|= 0.063  |ddm|= 0.0966
  alpha nocc = 45  HOMO = -0.176376900343087  LUMO = 0.00206843208438511
  beta  nocc = 45  HOMO = -0.223095445681029  LUMO = -0.0033405089155068
cycle= 20 E= -1041.49754565265  delta_E= 0.0164  |g|= 0.0531  |ddm|= 0.251
  alpha nocc = 45  HOMO = -0.175372046414191  LUMO = 0.00578597592162375
  beta  nocc = 45  HOMO = -0.224741974796276  LUMO = 0.00286173625576285
cycle= 21 E= -1041.49766100993  delta_E= -0.000115  |g|= 0.0458  |ddm|= 0.274
  alpha nocc = 45  HOMO = -0.174699373459338  LUMO = 0.00799997195194733
  beta  nocc = 45  HOMO = -0.224875016226678  LUMO = 0.00535182849101642
cycle= 22 E= -1041.50534180849  delta_E= -0.00768  |g|= 0.0462  |ddm|= 0.182
  alpha nocc = 45  HOMO = -0.177047206035462  LUMO = 0.00922690183839464
  beta  nocc = 45  HOMO = -0.228482300763457  LUMO = 0.00479982587652006
cycle= 23 E= -1041.49936759837  delta_E= 0.00597  |g|= 0.0448  |ddm|= 0.116
  alpha nocc = 45  HOMO = -0.180292628078821  LUMO = 0.0111403118275498
  beta  nocc = 45  HOMO = -0.228756060453246  LUMO = 0.00634322995184887
cycle= 24 E= -1041.49279544629  delta_E= 0.00657  |g|= 0.0406  |ddm|= 0.19
  alpha nocc = 45  HOMO = -0.173395668312487  LUMO = 0.00813583988123667
  beta  nocc = 45  HOMO = -0.228122261922068  LUMO = 0.00727574387506653
cycle= 25 E= -1041.4967888572  delta_E= -0.00399  |g|= 0.0386  |ddm|= 0.238
  alpha nocc = 45  HOMO = -0.168823736557654  LUMO = 0.0105171163608469
  beta  nocc = 45  HOMO = -0.224866854730033  LUMO = 0.0081081228375888
cycle= 26 E= -1041.50189725935  delta_E= -0.00511  |g|= 0.0376  |ddm|= 0.108
  alpha nocc = 45  HOMO = -0.167355521224753  LUMO = 0.0111685849963942
  beta  nocc = 45  HOMO = -0.222376991809279  LUMO = 0.00942048931108794
cycle= 27 E= -1041.50810747759  delta_E= -0.00621  |g|= 0.0376  |ddm|= 0.139
  alpha nocc = 45  HOMO = -0.166758442507857  LUMO = 0.0107954323743933
  beta  nocc = 45  HOMO = -0.221750578968934  LUMO = 0.00957188889122839
cycle= 28 E= -1041.50908296289  delta_E= -0.000975  |g|= 0.0377  |ddm|= 0.0241
  alpha nocc = 45  HOMO = -0.167661940177155  LUMO = 0.0104029625110213
  beta  nocc = 45  HOMO = -0.222804744794961  LUMO = 0.00885135526337433
cycle= 29 E= -1041.50759137499  delta_E= 0.00149  |g|= 0.0373  |ddm|= 0.0797
  alpha nocc = 45  HOMO = -0.168132023191777  LUMO = 0.0113562594170234
  beta  nocc = 45  HOMO = -0.223161996076208  LUMO = 0.00869692101608294
cycle= 30 E= -1041.50824166964  delta_E= -0.00065  |g|= 0.0383  |ddm|= 0.0342
  alpha nocc = 45  HOMO = -0.168695125823924  LUMO = 0.0112067698065042
  beta  nocc = 45  HOMO = -0.221631220073448  LUMO = 0.00849632733257989
cycle= 31 E= -1041.50645829404  delta_E= 0.00178  |g|= 0.0364  |ddm|= 0.102
  alpha nocc = 45  HOMO = -0.170357855530907  LUMO = 0.00681861030829406
  beta  nocc = 45  HOMO = -0.218001062788076  LUMO = 0.008276784692243
cycle= 32 E= -1041.50831274596  delta_E= -0.00185  |g|= 0.0351  |ddm|= 0.23
  alpha nocc = 45  HOMO = -0.170053751142551  LUMO = 0.00622029424939579
  beta  nocc = 45  HOMO = -0.217831095311587  LUMO = 0.00824168159649908
cycle= 33 E= -1041.50855691544  delta_E= -0.000244  |g|= 0.0351  |ddm|= 0.0232
  alpha nocc = 45  HOMO = -0.169388047545872  LUMO = 0.00515756857973202
  beta  nocc = 45  HOMO = -0.216449961848689  LUMO = 0.00853295318591067
cycle= 34 E= -1041.51043657172  delta_E= -0.00188  |g|= 0.0344  |ddm|= 0.0644
  alpha nocc = 45  HOMO = -0.170765308361134  LUMO = 0.0035692770569821
  beta  nocc = 45  HOMO = -0.211712523810208  LUMO = 0.00934871153639799
cycle= 35 E= -1041.51822353871  delta_E= -0.00779  |g|= 0.0324  |ddm|= 0.228
  alpha nocc = 45  HOMO = -0.166490950369867  LUMO = 0.00322500742048057
  beta  nocc = 45  HOMO = -0.207999936222971  LUMO = 0.00993825825136482
cycle= 36 E= -1041.52280119674  delta_E= -0.00458  |g|= 0.0326  |ddm|= 0.111
  alpha nocc = 45  HOMO = -0.165660640804751  LUMO = 0.00264374569901054
  beta  nocc = 45  HOMO = -0.206171671556518  LUMO = 0.0102016053728068
cycle= 37 E= -1041.52539176808  delta_E= -0.00259  |g|= 0.0324  |ddm|= 0.0688
  alpha nocc = 45  HOMO = -0.165851205684719  LUMO = 0.00164459158911204
  beta  nocc = 45  HOMO = -0.204317059966758  LUMO = 0.0103111467745306
cycle= 38 E= -1041.5281650244  delta_E= -0.00277  |g|= 0.0326  |ddm|= 0.0845
  alpha nocc = 45  HOMO = -0.166398616832189  LUMO = 0.00195626383046136
  beta  nocc = 45  HOMO = -0.20469232664807  LUMO = 0.0102247965824629
cycle= 39 E= -1041.52780102774  delta_E= 0.000364  |g|= 0.0325  |ddm|= 0.0214
  alpha nocc = 45  HOMO = -0.166603324668917  LUMO = 0.00297308386335261
  beta  nocc = 45  HOMO = -0.20314337746072  LUMO = 0.0105163217341544
cycle= 40 E= -1041.52903837531  delta_E= -0.00124  |g|= 0.0316  |ddm|= 0.0664
  alpha nocc = 45  HOMO = -0.160727484925453  LUMO = 0.00668673045248894
  beta  nocc = 45  HOMO = -0.199886206042751  LUMO = 0.00958222842317254
cycle= 41 E= -1041.53107971655  delta_E= -0.00204  |g|= 0.0306  |ddm|= 0.131
  alpha nocc = 45  HOMO = -0.16722282179719  LUMO = 0.00457991635674368
  beta  nocc = 45  HOMO = -0.199696083804584  LUMO = 0.00922864558376123
cycle= 42 E= -1041.533476343  delta_E= -0.0024  |g|= 0.0306  |ddm|= 0.0851
  alpha nocc = 45  HOMO = -0.168072126901788  LUMO = 0.00444460075104304
  beta  nocc = 45  HOMO = -0.19947249112791  LUMO = 0.0091869235577232
cycle= 43 E= -1041.53390396876  delta_E= -0.000428  |g|= 0.0299  |ddm|= 0.0194
  alpha nocc = 45  HOMO = -0.168891315722104  LUMO = 0.00233539773747608
  beta  nocc = 45  HOMO = -0.194879771636205  LUMO = 0.0091014623703628
cycle= 44 E= -1041.53758986623  delta_E= -0.00369  |g|= 0.0281  |ddm|= 0.164
  alpha nocc = 45  HOMO = -0.168982709153016  LUMO = 0.00258025837407266
  beta  nocc = 45  HOMO = -0.194985023817099  LUMO = 0.00908907293425023
cycle= 45 E= -1041.53810224731  delta_E= -0.000512  |g|= 0.027  |ddm|= 0.0416
  alpha nocc = 45  HOMO = -0.169348144747828  LUMO = 0.00510761700725584
  beta  nocc = 45  HOMO = -0.190635485744218  LUMO = 0.00922834851584144
cycle= 46 E= -1041.54308332008  delta_E= -0.00498  |g|= 0.0252  |ddm|= 0.195
  alpha nocc = 45  HOMO = -0.169728136251363  LUMO = 0.00368946777917713
  beta  nocc = 45  HOMO = -0.189392182127861  LUMO = 0.00840348098395553
cycle= 47 E= -1041.54614825506  delta_E= -0.00306  |g|= 0.0247  |ddm|= 0.101
  alpha nocc = 45  HOMO = -0.169388963143588  LUMO = 0.00368210724230652
  beta  nocc = 45  HOMO = -0.18891144596757  LUMO = 0.00827184252259657
cycle= 48 E= -1041.54711913723  delta_E= -0.000971  |g|= 0.0249  |ddm|= 0.0317
  alpha nocc = 45  HOMO = -0.169509729988372  LUMO = 0.0034869521552156
  beta  nocc = 45  HOMO = -0.189491263687911  LUMO = 0.00867164961975211
cycle= 49 E= -1041.5462043448  delta_E= 0.000915  |g|= 0.0249  |ddm|= 0.0458
  alpha nocc = 45  HOMO = -0.170419051136928  LUMO = 0.00450489465331173
  beta  nocc = 45  HOMO = -0.189510521732465  LUMO = 0.00853352930671462
cycle= 50 E= -1041.54593779725  delta_E= 0.000267  |g|= 0.0245  |ddm|= 0.0424
SCF not converged.
SCF energy = -1041.54593779725 after 50 cycles  <S^2> = 3.7165216  2S+1 = 3.9832256
