 Entering Gaussian System, Link 0=g03
 Initial command:
 /usr/local/chem/g03E01/l1.exe /temp0/tam/Gau-29889.inp -scrdir=/temp0/tam/
 Entering Link 1 = /usr/local/chem/g03E01/l1.exe PID=     29890.
  
 Copyright (c) 1988,1990,1992,1993,1995,1998,2003,2004,2007, Gaussian, Inc.
                  All Rights Reserved.
  
 This is the Gaussian(R) 03 program.  It is based on the
 the Gaussian(R) 98 system (copyright 1998, Gaussian, Inc.),
 the Gaussian(R) 94 system (copyright 1995, Gaussian, Inc.),
 the Gaussian 92(TM) system (copyright 1992, Gaussian, Inc.),
 the Gaussian 90(TM) system (copyright 1990, Gaussian, Inc.),
 the Gaussian 88(TM) system (copyright 1988, Gaussian, Inc.),
 the Gaussian 86(TM) system (copyright 1986, Carnegie Mellon
 University), and the Gaussian 82(TM) system (copyright 1983,
 Carnegie Mellon University). Gaussian is a federally registered
 trademark of Gaussian, Inc.
  
 This software contains proprietary and confidential information,
 including trade secrets, belonging to Gaussian, Inc.
  
 This software is provided under written license and may be
 used, copied, transmitted, or stored only in accord with that
 written license.
  
 The following legend is applicable only to US Government
 contracts under FAR:
  
                    RESTRICTED RIGHTS LEGEND
  
 Use, reproduction and disclosure by the US Government is
 subject to restrictions as set forth in subparagraphs (a)
 and (c) of the Commercial Computer Software - Restricted
 Rights clause in FAR 52.227-19.
  
 Gaussian, Inc.
 340 Quinnipiac St., Bldg. 40, Wallingford CT 06492
  
  
 ---------------------------------------------------------------
 Warning -- This program may not be used in any manner that
 competes with the business of Gaussian, Inc. or will provide
 assistance to any competitor of Gaussian, Inc.  The licensee
 of this program is prohibited from giving any competitor of
 Gaussian, Inc. access to this program.  By using this program,
 the user acknowledges that Gaussian, Inc. is engaged in the
 business of creating and licensing software in the field of
 computational chemistry and represents and warrants to the
 licensee that it is not a competitor of Gaussian, Inc. and that
 it will not use this program in any manner prohibited above.
 ---------------------------------------------------------------
  

 Cite this work as:
 Gaussian 03, Revision E.01,
 M. J. Frisch, G. W. Trucks, H. B. Schlegel, G. E. Scuseria, 
 M. A. Robb, J. R. Cheeseman, J. A. Montgomery, Jr., T. Vreven, 
 K. N. Kudin, J. C. Burant, J. M. Millam, S. S. Iyengar, J. Tomasi, 
 V. Barone, B. Mennucci, M. Cossi, G. Scalmani, N. Rega, 
 G. A. Petersson, H. Nakatsuji, M. Hada, M. Ehara, K. Toyota, 
 R. Fukuda, J. Hasegawa, M. Ishida, T. Nakajima, Y. Honda, O. Kitao, 
 H. Nakai, M. Klene, X. Li, J. E. Knox, H. P. Hratchian, J. B. Cross, 
 V. Bakken, C. Adamo, J. Jaramillo, R. Gomperts, R. E. Stratmann, 
 O. Yazyev, A. J. Austin, R. Cammi, C. Pomelli, J. W. Ochterski, 
 P. Y. Ayala, K. Morokuma, G. A. Voth, P. Salvador, J. J. Dannenberg, 
 V. G. Zakrzewski, S. Dapprich, A. D. Daniels, M. C. Strain, 
 O. Farkas, D. K. Malick, A. D. Rabuck, K. Raghavachari, 
 J. B. Foresman, J. V. Ortiz, Q. Cui, A. G. Baboul, S. Clifford, 
 J. Cioslowski, B. B. Stefanov, G. Liu, A. Liashenko, P. Piskorz, 
 I. Komaromi, R. L. Martin, D. J. Fox, T. Keith, M. A. Al-Laham, 
 C. Y. Peng, A. Nanayakkara, M. Challacombe, P. M. W. Gill, 
 B. Johnson, W. Chen, M. W. Wong, C. Gonzalez, and J. A. Pople, 
 Gaussian, Inc., Wallingford CT, 2004.
 
 ******************************************
 Gaussian 03:  AM64L-G03RevE.01 11-Sep-2007
                12-Apr-2011 
 ******************************************
 %NprocShared=4
 Will use up to    4 processors via shared memory.
 %mem=3750MB
 %chk=S9L-ne-d-01
 ----------------------------------------------------------------------
 # b3lyp/LANL2DZ opt=(calcall,noeigentest,maxcycle=500) scfcyc=500 scf=
 xqc
 ----------------------------------------------------------------------
 1/6=500,10=4,11=1,14=-1,18=20,26=3,38=1/1,3;
 2/9=110,17=6,18=5,40=1/2;
 3/5=6,6=3,11=2,16=1,25=1,30=1,74=-5/1,2,3;
 4//1;
 5/5=2,7=500,8=3,13=1,38=5/2,8;
 8/6=4,10=90,11=11/1;
 11/6=1,8=1,9=11,15=111,16=1/1,2,10;
 10/6=1/2;
 6/7=2,8=2,9=2,10=2,18=1,28=1/1;
 7/10=1,25=1/1,2,3,16;
 1/6=500,10=4,11=1,14=-1,18=20/3(3);
 2/9=110/2;
 7/8=1,9=1,25=1,44=-1/16;
 99//99;
 2/9=110/2;
 3/5=6,6=3,11=2,16=1,25=1,30=1,74=-5/1,2,3;
 4/5=5,16=3/1;
 5/5=2,7=500,8=3,13=1,38=5/2,8;
 8/6=4,10=90,11=11/1;
 11/6=1,8=1,9=11,15=111,16=1/1,2,10;
 10/6=1/2;
 7/10=1,25=1/1,2,3,16;
 1/6=500,10=4,11=1,14=-1,18=20/3(-8);
 2/9=110/2;
 6/7=2,8=2,9=2,10=2,18=1,19=2,28=1/1;
 7/8=1,9=1,25=1,44=-1/16;
 99//99;
 -------
 si2-n-t
 -------
 Symbolic Z-matrix:
 Charge =  0 Multiplicity = 3
 Si                    0.        1.03613  -0.24984 
 

 GradGradGradGradGradGradGradGradGradGradGradGradGradGradGradGradGradGrad
 Berny optimization.
 Initialization pass.
 No Z-matrix variables, so optimization will use Cartesian coordinates.
 Trust Radius=3.00D-01 FncErr=1.00D-07 GrdErr=1.00D-06
 Number of steps in this run= 100 maximum allowed number of steps= 100.
 GradGradGradGradGradGradGradGradGradGradGradGradGradGradGradGradGradGrad

                          Input orientation:                          
 ---------------------------------------------------------------------
 Center     Atomic     Atomic              Coordinates (Angstroms)
 Number     Number      Type              X           Y           Z
 ---------------------------------------------------------------------
    1         14             0        0.000000    1.036131   -0.249839
 ---------------------------------------------------------------------
 Stoichiometry    Si(3)
 Framework group  OH[O(Si)]
 Deg. of freedom     0
 Full point group                 OH
 Largest Abelian subgroup         D2H     NOp   8
 Largest concise Abelian subgroup C1      NOp   1
                         Standard orientation:                         
 ---------------------------------------------------------------------
 Center     Atomic     Atomic              Coordinates (Angstroms)
 Number     Number      Type              X           Y           Z
 ---------------------------------------------------------------------
    1         14             0        0.000000    0.000000    0.000000
 ---------------------------------------------------------------------
 Standard basis: LANL2DZ (5D, 7F)
 There are     2 symmetry adapted basis functions of AG  symmetry.
 There are     0 symmetry adapted basis functions of B1G symmetry.
 There are     0 symmetry adapted basis functions of B2G symmetry.
 There are     0 symmetry adapted basis functions of B3G symmetry.
 There are     0 symmetry adapted basis functions of AU  symmetry.
 There are     2 symmetry adapted basis functions of B1U symmetry.
 There are     2 symmetry adapted basis functions of B2U symmetry.
 There are     2 symmetry adapted basis functions of B3U symmetry.
 Integral buffers will be    131072 words long.
 Raffenetti 2 integral format.
 Two-electron integral symmetry is turned on.
     8 basis functions,    12 primitive gaussians,     8 cartesian basis functions
     3 alpha electrons        1 beta electrons
       nuclear repulsion energy         0.0000000000 Hartrees.
 NAtoms=    1 NActive=    1 NUniq=    1 SFac= 7.50D-01 NAtFMM=   80 NAOKFM=F Big=F
 One-electron integrals computed using PRISM.
   1 Symmetry operations used in ECPInt.
 ECPInt:  NShTT=      10 NPrTT=      23 LenC2=      11 LenP2D=      23.
 LDataN:  DoStor=F MaxTD1= 3 Len=   28
 LDataN:  DoStor=T MaxTD1= 3 Len=   28
 NBasis=     8 RedAO= T  NBF=     2     0     0     0     0     2     2     2
 NBsUse=     8 1.00D-06 NBFU=     2     0     0     0     0     2     2     2
 Harris functional with IExCor=  402 diagonalized for initial guess.
 ExpMin= 8.85D-02 ExpMax= 2.58D+00 ExpMxC= 2.58D+00 IAcc=2 IRadAn=         4 AccDes= 0.00D+00
 HarFok:  IExCor= 402 AccDes= 0.00D+00 IRadAn=         4 IDoV=1
 ScaDFX=  1.000000  1.000000  1.000000  1.000000
 Initial guess orbital symmetries:
 Alpha Orbitals:
       Occupied  (A1G) (T1U) (T1U)
       Virtual   (T1U) (T1U) (T1U) (T1U) (A1G)
 Beta  Orbitals:
       Occupied  (A1G)
       Virtual   (T1U) (T1U) (T1U) (T1U) (T1U) (T1U) (A1G)
 <S**2> of initial guess= 2.0000
 Requested convergence on RMS density matrix=1.00D-08 within 128 cycles.
 Requested convergence on MAX density matrix=1.00D-06.
 Requested convergence on             energy=1.00D-06.
 No special actions if energy rises.
 Keep R1 and R2 integrals in memory in canonical form, NReq=     1676664.
 Integral accuracy reduced to 1.0D-05 until final iterations.
 Density matrix breaks symmetry, PCut= 1.00D-04
 Density has only Abelian symmetry.
 Density matrix breaks symmetry, PCut= 1.00D-04
 Density has only Abelian symmetry.
 Density matrix breaks symmetry, PCut= 1.00D-04
 Density has only Abelian symmetry.
 Density matrix breaks symmetry, PCut= 1.00D-04
 Density has only Abelian symmetry.
 Initial convergence to 1.0D-05 achieved.  Increase integral accuracy.
 Density matrix breaks symmetry, PCut= 1.00D-04
 Density has only Abelian symmetry.
 Density matrix breaks symmetry, PCut= 1.00D-04
 Density has only Abelian symmetry.
 Density matrix breaks symmetry, PCut= 1.00D-04
 Density has only Abelian symmetry.
 Density matrix breaks symmetry, PCut= 1.00D-04
 Density has only Abelian symmetry.
 SCF Done:  E(UB+HF-LYP) =  -3.76346867804     A.U. after    7 cycles
             Convg  =    0.2860D-08             -V/T =  3.7306
             S**2   =   2.0000
 Annihilation of the first spin contaminant:
 S**2 before annihilation     2.0000,   after     2.0000
 QCSCF skips out because SCF is already converged.
 Range of M.O.s used for correlation:     1     8
 NBasis=     8 NAE=     3 NBE=     1 NFC=     0 NFV=     0
 NROrb=      8 NOA=     3 NOB=     1 NVA=     5 NVB=     7

 **** Warning!!: The smallest alpha delta epsilon is  0.64342007D-01

  48 Symmetry operations used in ECPInt.
 ECPInt:  NShTT=      10 NPrTT=      23 LenC2=      11 LenP2D=      23.
 LDataN:  DoStor=F MaxTD1= 4 Len=   56
 LDataN:  DoStor=T MaxTD1= 4 Len=   56
 Symmetrizing basis deriv contribution to polar:
 IMax=3 JMax=2 DiffMx= 0.00D+00
 G2DrvN: will do    2 centers at a time, making    1 passes doing MaxLOS=1.
 FoFDir/FoFCou used for L=0 through L=1.
 DoAtom=T
          Differentiating once with respect to electric field.
                with respect to dipole field.
          Differentiating once with respect to nuclear coordinates.
          Store integrals in memory, NReq=      801970.
 CalDSu exits because no D1Ps are significant.
          There are   6 degrees of freedom in the 1st order CPHF.
     3 vectors were produced by pass  0.
 AX will form   3 AO Fock derivatives at one time.
     3 vectors were produced by pass  1.
     3 vectors were produced by pass  2.
     3 vectors were produced by pass  3.
 Inv2:  IOpt= 1 Iter= 1 AM= 2.31D-16 Conv= 1.00D-12.
 Inverted reduced A of dimension   12 with in-core refinement.
 Isotropic polarizability for W=    0.000000       15.32 Bohr**3.
 End of Minotr Frequency-dependent properties file   721 does not exist.

 **********************************************************************

            Population analysis using the SCF density.

 **********************************************************************

 Orbital symmetries:
 Alpha Orbitals:
       Occupied  (A1G) (?A) (?A)
       Virtual   (?A) (?A) (?A) (?A) (A1G)
 Beta  Orbitals:
       Occupied  (A1G)
       Virtual   (?A) (?A) (?A) (?A) (?A) (?A) (A1G)
 Unable to determine electronic state:  an orbital has unidentified symmetry.
 Alpha  occ. eigenvalues --   -0.45055  -0.19680  -0.19680
 Alpha virt. eigenvalues --   -0.13245   0.31243   0.31243   0.32142   4.18943
  Beta  occ. eigenvalues --   -0.37912
  Beta virt. eigenvalues --   -0.10962  -0.07935  -0.07935   0.33231   0.35647
  Beta virt. eigenvalues --    0.35647   4.20982
          Condensed to atoms (all electrons):
              1
     1  Si   4.000000
 Mulliken atomic charges:
              1
     1  Si   0.000000
 Sum of Mulliken charges=   0.00000
 Atomic charges with hydrogens summed into heavy atoms:
              1
     1  Si   0.000000
 Sum of Mulliken charges=   0.00000
          Atomic-Atomic Spin Densities.
              1
     1  Si   2.000000
 Mulliken atomic spin densities:
              1
     1  Si   2.000000
 Sum of Mulliken spin densities=   2.00000
 APT atomic charges:
              1
     1  Si   0.000000
 Sum of APT charges=   0.00000
 APT Atomic charges with hydrogens summed into heavy atoms:
              1
     1  Si   0.000000
 Sum of APT charges=   0.00000
 Electronic spatial extent (au):  <R**2>=    28.3121
 Charge=     0.0000 electrons
 Dipole moment (field-independent basis, Debye):
    X=     0.0000    Y=     0.0000    Z=     0.0000  Tot=     0.0000
 Quadrupole moment (field-independent basis, Debye-Ang):
   XX=    -9.6595   YY=   -14.2106   ZZ=   -14.2106
   XY=     0.0000   XZ=     0.0000   YZ=     0.0000
 Traceless Quadrupole moment (field-independent basis, Debye-Ang):
   XX=     3.0341   YY=    -1.5170   ZZ=    -1.5170
   XY=     0.0000   XZ=     0.0000   YZ=     0.0000
 Octapole moment (field-independent basis, Debye-Ang**2):
  XXX=     0.0000  YYY=     0.0000  ZZZ=     0.0000  XYY=     0.0000
  XXY=     0.0000  XXZ=     0.0000  XZZ=     0.0000  YZZ=     0.0000
  YYZ=     0.0000  XYZ=     0.0000
 Hexadecapole moment (field-independent basis, Debye-Ang**3):
 XXXX=   -16.2640 YYYY=   -32.2101 ZZZZ=   -32.2101 XXXY=     0.0000
 XXXZ=     0.0000 YYYX=     0.0000 YYYZ=     0.0000 ZZZX=     0.0000
 ZZZY=     0.0000 XXYY=    -8.0790 XXZZ=    -8.0790 YYZZ=   -10.7367
 XXYZ=     0.0000 YYXZ=     0.0000 ZZXY=     0.0000
 N-N= 0.000000000000D+00 E-N=-7.069326424935D+00  KE= 1.378264559740D+00
 Symmetry AG   KE= 5.524957544779D-01
 Symmetry B1G  KE= 0.000000000000D+00
 Symmetry B2G  KE= 0.000000000000D+00
 Symmetry B3G  KE= 0.000000000000D+00
 Symmetry AU   KE= 0.000000000000D+00
 Symmetry B1U  KE= 4.128844026312D-01
 Symmetry B2U  KE= 4.128844026312D-01
 Symmetry B3U  KE= 0.000000000000D+00
  Exact polarizability:  18.538   0.000  13.716   0.000   0.000  13.716
 Approx polarizability:  25.763   0.000  12.949   0.000   0.000  12.949
                          Isotropic Fermi Contact Couplings
        Atom                 a.u.       MegaHertz       Gauss      10(-4) cm-1
     1  Si(29)             0.00001      -0.00245      -0.00088      -0.00082
 --------------------------------------------------------
       Center         ----  Spin Dipole Couplings  ----
                      3XX-RR        3YY-RR        3ZZ-RR
 --------------------------------------------------------
     1   Atom       -0.116401      0.058200      0.058200
 --------------------------------------------------------
                        XY            XZ            YZ
 --------------------------------------------------------
     1   Atom        0.000000      0.000000      0.000000
 --------------------------------------------------------


 ---------------------------------------------------------------------------------
              Anisotropic Spin Dipole Couplings in Principal Axis System
 ---------------------------------------------------------------------------------

       Atom             a.u.   MegaHertz   Gauss  10(-4) cm-1        Axes

              Baa    -0.1164    12.348     4.406     4.119  1.0000  0.0000  0.0000
     1 Si(29) Bbb     0.0582    -6.174    -2.203    -2.059  0.0000  1.0000  0.0000
              Bcc     0.0582    -6.174    -2.203    -2.059  0.0000  0.0000  1.0000
 

 ---------------------------------------------------------------------------------

 Density matrix has only Abelian symmetry.
   8 Symmetry operations used in ECPInt.
 ECPInt:  NShTT=      10 NPrTT=      23 LenC2=      11 LenP2D=      23.
 LDataN:  DoStor=F MaxTD1= 5 Len=  102
 LDataN:  DoStor=T MaxTD1= 5 Len=  102
 Density matrix has only Abelian symmetry.
 ***** Axes restored to original set *****
 -------------------------------------------------------------------
 Center     Atomic                   Forces (Hartrees/Bohr)
 Number     Number              X              Y              Z
 -------------------------------------------------------------------
    1         14           0.000000000    0.000000000    0.000000000
 -------------------------------------------------------------------
 Cartesian Forces:  Max     0.000000000 RMS     0.000000000
 ------------------------------------------------------------------------
           Internal Coordinate Forces (Hartree/Bohr or radian)
 Cent Atom N1     Length/X     N2     Alpha/Y      N3      Beta/Z       J
 ------------------------------------------------------------------------
   1  Si        0.000000(   1)      0.000000(   2)      0.000000(   3)
 ------------------------------------------------------------------------
 Internal  Forces:  Max     0.000000000 RMS     0.000000000

 GradGradGradGradGradGradGradGradGradGradGradGradGradGradGradGradGradGrad
 Berny optimization.
 Search for a local minimum.
 Step number   1 out of a maximum of 100
 All quantities printed in internal units (Hartrees-Bohrs-Radians)
 Second derivative matrix not updated -- analytic derivatives used.
 The second derivative matrix:
                          X1        Y1        Z1
           X1           0.00000
           Y1           0.00000   0.00000
           Z1           0.00000   0.00000   0.00000
     Eigenvalues --- 
 RFO step:  Lambda= 0.00000000D+00.
 Linear search not attempted -- first point.
 TrRot=  0.000000  0.000000  0.000000  0.000000  0.000000  0.000000
 Variable       Old X    -DE/DX   Delta X   Delta X   Delta X     New X
                                 (Linear)    (Quad)   (Total)
    X1        0.00000   0.00000   0.00000   0.00000   0.00000   0.00000
    Y1        1.95800   0.00000   0.00000   0.00000   0.00000   1.95800
    Z1       -0.47213   0.00000   0.00000   0.00000   0.00000  -0.47213
         Item               Value     Threshold  Converged?
 Maximum Force            0.000000     0.000450     YES
 RMS     Force            0.000000     0.000300     YES
 Maximum Displacement     0.000000     0.001800     YES
 RMS     Displacement     0.000000     0.001200     YES
 Predicted change in Energy= 0.000000D+00
 Optimization completed.
    -- Stationary point found.
 GradGradGradGradGradGradGradGradGradGradGradGradGradGradGradGradGradGrad

                          Input orientation:                          
 ---------------------------------------------------------------------
 Center     Atomic     Atomic              Coordinates (Angstroms)
 Number     Number      Type              X           Y           Z
 ---------------------------------------------------------------------
    1         14             0        0.000000    1.036131   -0.249839
 ---------------------------------------------------------------------
 Stoichiometry    Si(3)
 Framework group  OH[O(Si)]
 Deg. of freedom     0
 Full point group                 OH
 Largest Abelian subgroup         D2H     NOp   8
 Largest concise Abelian subgroup C1      NOp   1
                         Standard orientation:                         
 ---------------------------------------------------------------------
 Center     Atomic     Atomic              Coordinates (Angstroms)
 Number     Number      Type              X           Y           Z
 ---------------------------------------------------------------------
    1         14             0        0.000000    0.000000    0.000000
 ---------------------------------------------------------------------
 Rotating derivatives to standard orientation.
 Full mass-weighted force constant matrix:
 Low frequencies ---    0.0000    0.0000    0.0001
 Diagonal vibrational polarizability:
        0.0000000       0.0000000       0.0000000
 Harmonic frequencies (cm**-1), IR intensities (KM/Mole), Raman scattering
 activities (A**4/AMU), depolarization ratios for plane and unpolarized
 incident light, reduced masses (AMU), force constants (mDyne/A),
 and normal coordinates:

 -------------------
 - Thermochemistry -
 -------------------
 Temperature   298.150 Kelvin.  Pressure   1.00000 Atm.
 Atom  1 has atomic number 14 and mass  27.97693
 Molecular mass:    27.97693 amu.
 Zero-point vibrational energy          0.0 (Joules/Mol)
                                    0.00000 (Kcal/Mol)
 Vibrational temperatures: 
          (Kelvin)
 
 Zero-point correction=                           0.000000 (Hartree/Particle)
 Thermal correction to Energy=                    0.001416
 Thermal correction to Enthalpy=                  0.002360
 Thermal correction to Gibbs Free Energy=        -0.015744
 Sum of electronic and zero-point Energies=             -3.763469
 Sum of electronic and thermal Energies=                -3.762052
 Sum of electronic and thermal Enthalpies=              -3.761108
 Sum of electronic and thermal Free Energies=           -3.779213
 
                     E (Thermal)             CV                S
                      KCal/Mol        Cal/Mol-Kelvin    Cal/Mol-Kelvin
 Total                    0.889              2.981             38.104
 Electronic               0.000              0.000              2.183
 Translational            0.889              2.981             35.921
 Rotational               0.000              0.000              0.000
 Vibrational              0.000              0.000              0.000
                       Q            Log10(Q)             Ln(Q)
 Total Bot       0.174492D+08          7.241776         16.674807
 Total V=0       0.174492D+08          7.241776         16.674807
 Vib (Bot)       0.100000D+01          0.000000          0.000000
 Vib (V=0)       0.100000D+01          0.000000          0.000000
 Electronic      0.300000D+01          0.477121          1.098612
 Translational   0.581641D+07          6.764655         15.576194
 Rotational      0.100000D+01          0.000000          0.000000
 ***** Axes restored to original set *****
 -------------------------------------------------------------------
 Center     Atomic                   Forces (Hartrees/Bohr)
 Number     Number              X              Y              Z
 -------------------------------------------------------------------
    1         14           0.000000000    0.000000000    0.000000000
 -------------------------------------------------------------------
 Cartesian Forces:  Max     0.000000000 RMS     0.000000000
 1\1\GINC-NODE36\Freq\UB3LYP\LANL2DZ\Si1(3)\TAM\12-Apr-2011\0\\# b3lyp/
 LANL2DZ opt=(calcall,noeigentest,maxcycle=500) scfcyc=500 scf=xqc\\si2
 -n-t\\0,3\Si,0.,1.036131,-0.249839\\Version=AM64L-G03RevE.01\HF=-3.763
 4687\S2=2.000008\S2-1=0.\S2A=2.\RMSD=2.860e-09\RMSF=0.000e+00\Thermal=
 0.0014163\Dipole=0.,0.,0.\DipoleDeriv=0.,0.,0.,0.,0.,0.,0.,0.,0.\Polar
 =13.7163873,0.,13.7163873,0.,0.,18.5384671\PG=OH [O(Si1)]\NImag=0\\0.,
 0.,0.,0.,0.,0.\\0.,0.,0.\\\@


    THE DOUGHNUT CREED
 AS YOU RAMBLE ON THROUGH LIFE, BROTHER
 WHATEVER BE YOUR GOAL
 KEEP YOUR EYE UPON THE DOUGHNUT
 AND NOT UPON THE HOLE.
 Job cpu time:  0 days  0 hours  0 minutes 46.4 seconds.
 File lengths (MBytes):  RWF=     13 Int=      0 D2E=      0 Chk=      6 Scr=      1
 Normal termination of Gaussian 03 at Tue Apr 12 17:17:10 2011.
 Initial command:
 /usr/local/chem/g03E01/l1.exe /temp0/tam/Gau-29889.inp -scrdir=/temp0/tam/
 Entering Link 1 = /usr/local/chem/g03E01/l1.exe PID=     29966.
  
 Copyright (c) 1988,1990,1992,1993,1995,1998,2003,2004,2007, Gaussian, Inc.
                  All Rights Reserved.
  
 This is the Gaussian(R) 03 program.  It is based on the
 the Gaussian(R) 98 system (copyright 1998, Gaussian, Inc.),
 the Gaussian(R) 94 system (copyright 1995, Gaussian, Inc.),
 the Gaussian 92(TM) system (copyright 1992, Gaussian, Inc.),
 the Gaussian 90(TM) system (copyright 1990, Gaussian, Inc.),
 the Gaussian 88(TM) system (copyright 1988, Gaussian, Inc.),
 the Gaussian 86(TM) system (copyright 1986, Carnegie Mellon
 University), and the Gaussian 82(TM) system (copyright 1983,
 Carnegie Mellon University). Gaussian is a federally registered
 trademark of Gaussian, Inc.
  
 This software contains proprietary and confidential information,
 including trade secrets, belonging to Gaussian, Inc.
  
 This software is provided under written license and may be
 used, copied, transmitted, or stored only in accord with that
 written license.
  
 The following legend is applicable only to US Government
 contracts under FAR:
  
                    RESTRICTED RIGHTS LEGEND
  
 Use, reproduction and disclosure by the US Government is
 subject to restrictions as set forth in subparagraphs (a)
 and (c) of the Commercial Computer Software - Restricted
 Rights clause in FAR 52.227-19.
  
 Gaussian, Inc.
 340 Quinnipiac St., Bldg. 40, Wallingford CT 06492
  
  
 ---------------------------------------------------------------
 Warning -- This program may not be used in any manner that
 competes with the business of Gaussian, Inc. or will provide
 assistance to any competitor of Gaussian, Inc.  The licensee
 of this program is prohibited from giving any competitor of
 Gaussian, Inc. access to this program.  By using this program,
 the user acknowledges that Gaussian, Inc. is engaged in the
 business of creating and licensing software in the field of
 computational chemistry and represents and warrants to the
 licensee that it is not a competitor of Gaussian, Inc. and that
 it will not use this program in any manner prohibited above.
 ---------------------------------------------------------------
  

 Cite this work as:
 Gaussian 03, Revision E.01,
 M. J. Frisch, G. W. Trucks, H. B. Schlegel, G. E. Scuseria, 
 M. A. Robb, J. R. Cheeseman, J. A. Montgomery, Jr., T. Vreven, 
 K. N. Kudin, J. C. Burant, J. M. Millam, S. S. Iyengar, J. Tomasi, 
 V. Barone, B. Mennucci, M. Cossi, G. Scalmani, N. Rega, 
 G. A. Petersson, H. Nakatsuji, M. Hada, M. Ehara, K. Toyota, 
 R. Fukuda, J. Hasegawa, M. Ishida, T. Nakajima, Y. Honda, O. Kitao, 
 H. Nakai, M. Klene, X. Li, J. E. Knox, H. P. Hratchian, J. B. Cross, 
 V. Bakken, C. Adamo, J. Jaramillo, R. Gomperts, R. E. Stratmann, 
 O. Yazyev, A. J. Austin, R. Cammi, C. Pomelli, J. W. Ochterski, 
 P. Y. Ayala, K. Morokuma, G. A. Voth, P. Salvador, J. J. Dannenberg, 
 V. G. Zakrzewski, S. Dapprich, A. D. Daniels, M. C. Strain, 
 O. Farkas, D. K. Malick, A. D. Rabuck, K. Raghavachari, 
 J. B. Foresman, J. V. Ortiz, Q. Cui, A. G. Baboul, S. Clifford, 
 J. Cioslowski, B. B. Stefanov, G. Liu, A. Liashenko, P. Piskorz, 
 I. Komaromi, R. L. Martin, D. J. Fox, T. Keith, M. A. Al-Laham, 
 C. Y. Peng, A. Nanayakkara, M. Challacombe, P. M. W. Gill, 
 B. Johnson, W. Chen, M. W. Wong, C. Gonzalez, and J. A. Pople, 
 Gaussian, Inc., Wallingford CT, 2004.
 
 ******************************************
 Gaussian 03:  AM64L-G03RevE.01 11-Sep-2007
                12-Apr-2011 
 ******************************************
 %NprocShared=4
 Will use up to    4 processors via shared memory.
 %mem=3750MB
 %chk=S9L-ne-d-01
 ----------------------------------------------------------------------
 # b3lyp/6-31G(d) opt=(readfc,noeigentest,maxcycle=500) freq scfcyc=500
  optcyc=500 geom=allcheck guess=read scf=xqc
 ----------------------------------------------------------------------
 1/6=500,10=3,11=1,14=-1,18=20,26=3,29=7,38=1/1,3;
 2/9=110,40=1/2;
 3/5=1,6=6,7=1,11=2,16=1,25=1,30=1,74=-5/1,2,3;
 4/5=1/1;
 5/5=2,7=500,8=3,13=1,38=6/2,8;
 6/7=2,8=2,9=2,10=2,28=1/1;
 7//1,2,3,16;
 1/6=500,11=1,14=-1,18=20/3(3);
 2/9=110/2;
 6/7=2,8=2,9=2,10=2,19=2,28=1/1;
 99//99;
 2/9=110/2;
 3/5=1,6=6,7=1,11=2,16=1,25=1,30=1,74=-5/1,2,3;
 4/5=5,16=3/1;
 5/5=2,7=500,8=3,13=1,38=5/2,8;
 7//1,2,3,16;
 1/6=500,11=1,14=-1,18=20/3(-5);
 2/9=110/2;
 6/7=2,8=2,9=2,10=2,19=2,28=1/1;
 99/9=1/99;
 -------
 si2-n-t
 -------
 No Z-matrix found on checkpoint file.
 Cartesian coordinates read from the checkpoint file:
 S9L-ne-d-01.chk
 Charge =  0 Multiplicity = 3
  Si                                                0.000000000000      1.036131000000     -0.249839000000
 Recover connectivity data from disk.

 GradGradGradGradGradGradGradGradGradGradGradGradGradGradGradGradGradGrad
 Berny optimization.
 Initialization pass.
 No Z-matrix variables, so optimization will use Cartesian coordinates.
 Force constant matrix read from checkpoint file:
 S9L-ne-d-01.chk
 Trust Radius=3.00D-01 FncErr=1.00D-07 GrdErr=1.00D-06
 Number of steps in this run= 100 maximum allowed number of steps= 100.
 GradGradGradGradGradGradGradGradGradGradGradGradGradGradGradGradGradGrad

                          Input orientation:                          
 ---------------------------------------------------------------------
 Center     Atomic     Atomic              Coordinates (Angstroms)
 Number     Number      Type              X           Y           Z
 ---------------------------------------------------------------------
    1         14             0        0.000000    1.036131   -0.249839
 ---------------------------------------------------------------------
 Stoichiometry    Si(3)
 Framework group  OH[O(Si)]
 Deg. of freedom     0
 Full point group                 OH
 Largest Abelian subgroup         D2H     NOp   8
 Largest concise Abelian subgroup C1      NOp   1
                         Standard orientation:                         
 ---------------------------------------------------------------------
 Center     Atomic     Atomic              Coordinates (Angstroms)
 Number     Number      Type              X           Y           Z
 ---------------------------------------------------------------------
    1         14             0        0.000000    0.000000    0.000000
 ---------------------------------------------------------------------
 Standard basis: 6-31G(d) (6D, 7F)
 There are     7 symmetry adapted basis functions of AG  symmetry.
 There are     1 symmetry adapted basis functions of B1G symmetry.
 There are     1 symmetry adapted basis functions of B2G symmetry.
 There are     1 symmetry adapted basis functions of B3G symmetry.
 There are     0 symmetry adapted basis functions of AU  symmetry.
 There are     3 symmetry adapted basis functions of B1U symmetry.
 There are     3 symmetry adapted basis functions of B2U symmetry.
 There are     3 symmetry adapted basis functions of B3U symmetry.
 Integral buffers will be    131072 words long.
 Raffenetti 2 integral format.
 Two-electron integral symmetry is turned on.
    19 basis functions,    52 primitive gaussians,    19 cartesian basis functions
     8 alpha electrons        6 beta electrons
       nuclear repulsion energy         0.0000000000 Hartrees.
 NAtoms=    1 NActive=    1 NUniq=    1 SFac= 7.50D-01 NAtFMM=   80 NAOKFM=F Big=F
 One-electron integrals computed using PRISM.
 NBasis=    19 RedAO= T  NBF=     7     1     1     1     0     3     3     3
 NBsUse=    19 1.00D-06 NBFU=     7     1     1     1     0     3     3     3
 Initial guess read from the checkpoint file:
 S9L-ne-d-01.chk
 Initial guess orbital symmetries:
 Alpha Orbitals:
       Occupied  (A1G) (?A) (?A) (?A) (?A) (?A) (?A) (A1G)
       Virtual   (A1G) (A1G) (A1G) (EG) (EG) (T2G) (T2G) (T2G)
                 (T1U) (T1U) (T1U)
 Beta  Orbitals:
       Occupied  (A1G) (?A) (?A) (?A) (?A) (?A)
       Virtual   (?A) (A1G) (A1G) (A1G) (A1G) (EG) (EG) (T2G) (T2G)
                 (T2G) (T1U) (T1U) (T1U)
 <S**2> of initial guess= 2.0000
 Requested convergence on RMS density matrix=1.00D-08 within 128 cycles.
 Requested convergence on MAX density matrix=1.00D-06.
 Requested convergence on             energy=1.00D-06.
 No special actions if energy rises.
 Keep R1 and R2 integrals in memory in canonical form, NReq=     1740422.
 Density matrix breaks symmetry, PCut= 1.00D-04
 Density has only Abelian symmetry.
 Density matrix breaks symmetry, PCut= 1.00D-04
 Density has only Abelian symmetry.
 Density matrix breaks symmetry, PCut= 1.00D-04
 Density has only Abelian symmetry.
 Density matrix breaks symmetry, PCut= 1.00D-04
 Density has only Abelian symmetry.
 Density matrix breaks symmetry, PCut= 1.00D-04
 Density has only Abelian symmetry.
 Density matrix breaks symmetry, PCut= 1.00D-04
 Density has only Abelian symmetry.
 Density matrix breaks symmetry, PCut= 1.00D-04
 Density has only Abelian symmetry.
 Density matrix breaks symmetry, PCut= 1.00D-04
 Density has only Abelian symmetry.
 Density matrix breaks symmetry, PCut= 1.00D-04
 Density has only Abelian symmetry.
 Density matrix breaks symmetry, PCut= 1.00D-04
 Density has only Abelian symmetry.
 Density matrix breaks symmetry, PCut= 1.00D-04
 Density has only Abelian symmetry.
 Density matrix breaks symmetry, PCut= 1.00D-04
 Density has only Abelian symmetry.
 SCF Done:  E(UB+HF-LYP) =  -289.371734867     A.U. after   11 cycles
             Convg  =    0.1905D-08             -V/T =  2.0033
             S**2   =   2.0019
 Annihilation of the first spin contaminant:
 S**2 before annihilation     2.0019,   after     2.0000
 QCSCF skips out because SCF is already converged.

 **********************************************************************

            Population analysis using the SCF density.

 **********************************************************************

 Orbital symmetries:
 Alpha Orbitals:
       Occupied  (A1G) (A1G) (T1U) (T1U) (T1U) (T2G) (?A) (?A)
       Virtual   (?A) (A1G) (?A) (?A) (?A) (T2G) (T2G) (T2G) (T2G)
                 (T2G) (A1G)
 Beta  Orbitals:
       Occupied  (A1G) (A1G) (T1U) (T1U) (T1U) (?A)
       Virtual   (?B) (?B) (?B) (?A) (?B) (?B) (?B) (?A) (T2G)
                 (T2G) (?A) (T2G) (A1G)
 Unable to determine electronic state:  partially filled degenerate orbitals.
 Alpha  occ. eigenvalues --  -66.16438  -5.31099  -3.67260  -3.66871  -3.66871
 Alpha  occ. eigenvalues --   -0.45314  -0.19135  -0.19135
 Alpha virt. eigenvalues --   -0.12667   0.16670   0.23805   0.23805   0.24535
 Alpha virt. eigenvalues --    0.55732   0.55732   0.56263   0.56263   0.57071
 Alpha virt. eigenvalues --    2.87084
  Beta  occ. eigenvalues --  -66.15848  -5.30467  -3.66950  -3.65618  -3.65618
  Beta  occ. eigenvalues --   -0.38819
  Beta virt. eigenvalues --   -0.10808  -0.07675  -0.07675   0.18783   0.25179
  Beta virt. eigenvalues --    0.27401   0.27401   0.59859   0.60761   0.60761
  Beta virt. eigenvalues --    0.63685   0.63685   2.89486
          Condensed to atoms (all electrons):
              1
     1  Si  14.000000
 Mulliken atomic charges:
              1
     1  Si   0.000000
 Sum of Mulliken charges=   0.00000
 Atomic charges with hydrogens summed into heavy atoms:
              1
     1  Si   0.000000
 Sum of Mulliken charges=   0.00000
          Atomic-Atomic Spin Densities.
              1
     1  Si   2.000000
 Mulliken atomic spin densities:
              1
     1  Si   2.000000
 Sum of Mulliken spin densities=   2.00000
 Electronic spatial extent (au):  <R**2>=    31.2494
 Charge=     0.0000 electrons
 Dipole moment (field-independent basis, Debye):
    X=     0.0000    Y=     0.0000    Z=     0.0000  Tot=     0.0000
 Quadrupole moment (field-independent basis, Debye-Ang):
   XX=   -15.5254   YY=   -10.9807   ZZ=   -15.5254
   XY=     0.0000   XZ=     0.0000   YZ=     0.0000
 Traceless Quadrupole moment (field-independent basis, Debye-Ang):
   XX=    -1.5149   YY=     3.0298   ZZ=    -1.5149
   XY=     0.0000   XZ=     0.0000   YZ=     0.0000
 Octapole moment (field-independent basis, Debye-Ang**2):
  XXX=     0.0000  YYY=     0.0000  ZZZ=     0.0000  XYY=     0.0000
  XXY=     0.0000  XXZ=     0.0000  XZZ=     0.0000  YZZ=     0.0000
  YYZ=     0.0000  XYZ=     0.0000
 Hexadecapole moment (field-independent basis, Debye-Ang**3):
 XXXX=   -33.3120 YYYY=   -16.6056 ZZZZ=   -33.3120 XXXY=     0.0000
 XXXZ=     0.0000 YYYX=     0.0000 YYYZ=     0.0000 ZZZX=     0.0000
 ZZZY=     0.0000 XXYY=    -8.3192 XXZZ=   -11.1040 YYZZ=    -8.3192
 XXYZ=     0.0000 YYXZ=     0.0000 ZZXY=     0.0000
 N-N= 0.000000000000D+00 E-N=-6.890540532967D+02  KE= 2.884165187260D+02
 Symmetry AG   KE= 2.134906803707D+02
 Symmetry B1G  KE= 0.000000000000D+00
 Symmetry B2G  KE= 0.000000000000D+00
 Symmetry B3G  KE= 0.000000000000D+00
 Symmetry AU   KE= 0.000000000000D+00
 Symmetry B1U  KE= 2.531338606034D+01
 Symmetry B2U  KE= 2.429906623785D+01
 Symmetry B3U  KE= 2.531338605710D+01
                          Isotropic Fermi Contact Couplings
        Atom                 a.u.       MegaHertz       Gauss      10(-4) cm-1
     1  Si(29)            -0.03204      14.23828       5.08057       4.74938
 --------------------------------------------------------
       Center         ----  Spin Dipole Couplings  ----
                      3XX-RR        3YY-RR        3ZZ-RR
 --------------------------------------------------------
     1   Atom        0.902054     -1.804108      0.902054
 --------------------------------------------------------
                        XY            XZ            YZ
 --------------------------------------------------------
     1   Atom        0.000000      0.000000      0.000000
 --------------------------------------------------------


 ---------------------------------------------------------------------------------
              Anisotropic Spin Dipole Couplings in Principal Axis System
 ---------------------------------------------------------------------------------

       Atom             a.u.   MegaHertz   Gauss  10(-4) cm-1        Axes

              Baa    -1.8041   191.387    68.292    63.840  0.0000  1.0000  0.0000
     1 Si(29) Bbb     0.9021   -95.694   -34.146   -31.920  1.0000  0.0000  0.0000
              Bcc     0.9021   -95.694   -34.146   -31.920  0.0000  0.0000  1.0000
 

 ---------------------------------------------------------------------------------

 Density matrix has only Abelian symmetry.
 Density matrix has only Abelian symmetry.
 ***** Axes restored to original set *****
 -------------------------------------------------------------------
 Center     Atomic                   Forces (Hartrees/Bohr)
 Number     Number              X              Y              Z
 -------------------------------------------------------------------
    1         14           0.000000000    0.000000000    0.000000000
 -------------------------------------------------------------------
 Cartesian Forces:  Max     0.000000000 RMS     0.000000000
 ------------------------------------------------------------------------
           Internal Coordinate Forces (Hartree/Bohr or radian)
 Cent Atom N1     Length/X     N2     Alpha/Y      N3      Beta/Z       J
 ------------------------------------------------------------------------
   1  Si        0.000000(   1)      0.000000(   2)      0.000000(   3)
 ------------------------------------------------------------------------
 Internal  Forces:  Max     0.000000000 RMS     0.000000000

 GradGradGradGradGradGradGradGradGradGradGradGradGradGradGradGradGradGrad
 Berny optimization.
 Search for a local minimum.
 Step number   1 out of a maximum of 100
 All quantities printed in internal units (Hartrees-Bohrs-Radians)
 Second derivative matrix not updated -- first step.
 The second derivative matrix:
                          X1        Y1        Z1
           X1           0.00000
           Y1           0.00000   0.00000
           Z1           0.00000   0.00000   0.00000
     Eigenvalues --- 
 RFO step:  Lambda= 0.00000000D+00.
 Linear search not attempted -- first point.
 TrRot=  0.000000  0.000000  0.000000  0.000000  0.000000  0.000000
 Variable       Old X    -DE/DX   Delta X   Delta X   Delta X     New X
                                 (Linear)    (Quad)   (Total)
    X1        0.00000   0.00000   0.00000   0.00000   0.00000   0.00000
    Y1        1.95800   0.00000   0.00000   0.00000   0.00000   1.95800
    Z1       -0.47213   0.00000   0.00000   0.00000   0.00000  -0.47213
         Item               Value     Threshold  Converged?
 Maximum Force            0.000000     0.000450     YES
 RMS     Force            0.000000     0.000300     YES
 Maximum Displacement     0.000000     0.001800     YES
 RMS     Displacement     0.000000     0.001200     YES
 Predicted change in Energy= 0.000000D+00
 Optimization completed.
    -- Stationary point found.
 GradGradGradGradGradGradGradGradGradGradGradGradGradGradGradGradGradGrad

                          Input orientation:                          
 ---------------------------------------------------------------------
 Center     Atomic     Atomic              Coordinates (Angstroms)
 Number     Number      Type              X           Y           Z
 ---------------------------------------------------------------------
    1         14             0        0.000000    1.036131   -0.249839
 ---------------------------------------------------------------------
 Stoichiometry    Si(3)
 Framework group  OH[O(Si)]
 Deg. of freedom     0
 Full point group                 OH
 Largest Abelian subgroup         D2H     NOp   8
 Largest concise Abelian subgroup C1      NOp   1
                         Standard orientation:                         
 ---------------------------------------------------------------------
 Center     Atomic     Atomic              Coordinates (Angstroms)
 Number     Number      Type              X           Y           Z
 ---------------------------------------------------------------------
    1         14             0        0.000000    0.000000    0.000000
 ---------------------------------------------------------------------

 **********************************************************************

            Population analysis using the SCF density.

 **********************************************************************

 Orbital symmetries:
 Alpha Orbitals:
       Occupied  (A1G) (A1G) (T1U) (T1U) (T1U) (T2G) (?A) (?A)
       Virtual   (?A) (A1G) (?A) (?A) (?A) (T2G) (T2G) (T2G) (T2G)
                 (T2G) (A1G)
 Beta  Orbitals:
       Occupied  (A1G) (A1G) (T1U) (T1U) (T1U) (?A)
       Virtual   (?B) (?B) (?B) (?A) (?B) (?B) (?B) (?A) (T2G)
                 (T2G) (?A) (T2G) (A1G)
 Unable to determine electronic state:  partially filled degenerate orbitals.
 Alpha  occ. eigenvalues --  -66.16438  -5.31099  -3.67260  -3.66871  -3.66871
 Alpha  occ. eigenvalues --   -0.45314  -0.19135  -0.19135
 Alpha virt. eigenvalues --   -0.12667   0.16670   0.23805   0.23805   0.24535
 Alpha virt. eigenvalues --    0.55732   0.55732   0.56263   0.56263   0.57071
 Alpha virt. eigenvalues --    2.87084
  Beta  occ. eigenvalues --  -66.15848  -5.30467  -3.66950  -3.65618  -3.65618
  Beta  occ. eigenvalues --   -0.38819
  Beta virt. eigenvalues --   -0.10808  -0.07675  -0.07675   0.18783   0.25179
  Beta virt. eigenvalues --    0.27401   0.27401   0.59859   0.60761   0.60761
  Beta virt. eigenvalues --    0.63685   0.63685   2.89486
          Condensed to atoms (all electrons):
              1
     1  Si  14.000000
 Mulliken atomic charges:
              1
     1  Si   0.000000
 Sum of Mulliken charges=   0.00000
 Atomic charges with hydrogens summed into heavy atoms:
              1
     1  Si   0.000000
 Sum of Mulliken charges=   0.00000
          Atomic-Atomic Spin Densities.
              1
     1  Si   2.000000
 Mulliken atomic spin densities:
              1
     1  Si   2.000000
 Sum of Mulliken spin densities=   2.00000
 Electronic spatial extent (au):  <R**2>=    31.2494
 Charge=     0.0000 electrons
 Dipole moment (field-independent basis, Debye):
    X=     0.0000    Y=     0.0000    Z=     0.0000  Tot=     0.0000
 Quadrupole moment (field-independent basis, Debye-Ang):
   XX=   -15.5254   YY=   -10.9807   ZZ=   -15.5254
   XY=     0.0000   XZ=     0.0000   YZ=     0.0000
 Traceless Quadrupole moment (field-independent basis, Debye-Ang):
   XX=    -1.5149   YY=     3.0298   ZZ=    -1.5149
   XY=     0.0000   XZ=     0.0000   YZ=     0.0000
 Octapole moment (field-independent basis, Debye-Ang**2):
  XXX=     0.0000  YYY=     0.0000  ZZZ=     0.0000  XYY=     0.0000
  XXY=     0.0000  XXZ=     0.0000  XZZ=     0.0000  YZZ=     0.0000
  YYZ=     0.0000  XYZ=     0.0000
 Hexadecapole moment (field-independent basis, Debye-Ang**3):
 XXXX=   -33.3120 YYYY=   -16.6056 ZZZZ=   -33.3120 XXXY=     0.0000
 XXXZ=     0.0000 YYYX=     0.0000 YYYZ=     0.0000 ZZZX=     0.0000
 ZZZY=     0.0000 XXYY=    -8.3192 XXZZ=   -11.1040 YYZZ=    -8.3192
 XXYZ=     0.0000 YYXZ=     0.0000 ZZXY=     0.0000
 N-N= 0.000000000000D+00 E-N=-6.890540532967D+02  KE= 2.884165187260D+02
 Symmetry AG   KE= 2.134906803707D+02
 Symmetry B1G  KE= 0.000000000000D+00
 Symmetry B2G  KE= 0.000000000000D+00
 Symmetry B3G  KE= 0.000000000000D+00
 Symmetry AU   KE= 0.000000000000D+00
 Symmetry B1U  KE= 2.531338606034D+01
 Symmetry B2U  KE= 2.429906623785D+01
 Symmetry B3U  KE= 2.531338605710D+01
                          Isotropic Fermi Contact Couplings
        Atom                 a.u.       MegaHertz       Gauss      10(-4) cm-1
     1  Si(29)            -0.03204      14.23828       5.08057       4.74938
 --------------------------------------------------------
       Center         ----  Spin Dipole Couplings  ----
                      3XX-RR        3YY-RR        3ZZ-RR
 --------------------------------------------------------
     1   Atom        0.902054     -1.804108      0.902054
 --------------------------------------------------------
                        XY            XZ            YZ
 --------------------------------------------------------
     1   Atom        0.000000      0.000000      0.000000
 --------------------------------------------------------


 ---------------------------------------------------------------------------------
              Anisotropic Spin Dipole Couplings in Principal Axis System
 ---------------------------------------------------------------------------------

       Atom             a.u.   MegaHertz   Gauss  10(-4) cm-1        Axes

              Baa    -1.8041   191.387    68.292    63.840  0.0000  1.0000  0.0000
     1 Si(29) Bbb     0.9021   -95.694   -34.146   -31.920  1.0000  0.0000  0.0000
              Bcc     0.9021   -95.694   -34.146   -31.920  0.0000  0.0000  1.0000
 

 ---------------------------------------------------------------------------------

 1\1\GINC-NODE36\FOpt\UB3LYP\6-31G(d)\Si1(3)\TAM\12-Apr-2011\0\\# b3lyp
 /6-31G(d) opt=(readfc,noeigentest,maxcycle=500) freq scfcyc=500 optcyc
 =500 geom=allcheck guess=read scf=xqc\\si2-n-t\\0,3\Si,0.,1.036131,-0.
 249839\\Version=AM64L-G03RevE.01\HF=-289.3717349\S2=2.001927\S2-1=0.\S
 2A=2.\RMSD=1.905e-09\RMSF=0.000e+00\Thermal=0.\Dipole=0.,0.,0.\PG=OH [
 O(Si1)]\\@


 Standing in the middle of the road is very dangerous;
 you get knocked down by the traffic from both sides.
                                -- Margaret Thatcher
 Job cpu time:  0 days  0 hours  0 minutes 37.9 seconds.
 File lengths (MBytes):  RWF=     13 Int=      0 D2E=      0 Chk=      6 Scr=      1
 Normal termination of Gaussian 03 at Tue Apr 12 17:17:47 2011.
 Link1:  Proceeding to internal job step number  2.
 ------------------------------------------------------------------
 #N Geom=AllCheck Guess=Read SCRF=Check GenChk UB3LYP/6-31G(d) Freq
 ------------------------------------------------------------------
 1/6=500,10=4,11=1,29=7,30=1,38=1,40=1,46=1/1,3;
 2/40=1/2;
 3/5=1,6=6,7=1,11=2,16=1,25=1,30=1,70=2,71=2,74=-5/1,2,3;
 4/5=1,7=2/1;
 5/5=2,7=500,8=3,13=1,38=6/2,8;
 8/6=4,10=90,11=11/1;
 11/6=1,8=1,9=11,15=111,16=1/1,2,10;
 10/6=1/2;
 6/7=2,8=2,9=2,10=2,18=1,28=1/1;
 7/8=1,10=1,25=1/1,2,3,16;
 1/6=500,10=4,11=1,30=1,46=1/3;
 99//99;
 -------
 si2-n-t
 -------
 No Z-matrix found on checkpoint file.
 Cartesian coordinates read from the checkpoint file:
 S9L-ne-d-01.chk
 Charge =  0 Multiplicity = 3
  Si                                                0.000000000000      1.036131000000     -0.249839000000
 Recover connectivity data from disk.

 GradGradGradGradGradGradGradGradGradGradGradGradGradGradGradGradGradGrad
 Berny optimization.
 Initialization pass.
 Trust Radius=3.00D-01 FncErr=1.00D-07 GrdErr=1.00D-07
 Number of steps in this run=   2 maximum allowed number of steps=   2.
 GradGradGradGradGradGradGradGradGradGradGradGradGradGradGradGradGradGrad

                          Input orientation:                          
 ---------------------------------------------------------------------
 Center     Atomic     Atomic              Coordinates (Angstroms)
 Number     Number      Type              X           Y           Z
 ---------------------------------------------------------------------
    1         14             0        0.000000    1.036131   -0.249839
 ---------------------------------------------------------------------
 Stoichiometry    Si(3)
 Framework group  OH[O(Si)]
 Deg. of freedom     0
 Full point group                 OH
 Largest Abelian subgroup         D2H     NOp   8
 Largest concise Abelian subgroup C1      NOp   1
                         Standard orientation:                         
 ---------------------------------------------------------------------
 Center     Atomic     Atomic              Coordinates (Angstroms)
 Number     Number      Type              X           Y           Z
 ---------------------------------------------------------------------
    1         14             0        0.000000    0.000000    0.000000
 ---------------------------------------------------------------------
 Standard basis: 6-31G(d) (6D, 7F)
 There are     7 symmetry adapted basis functions of AG  symmetry.
 There are     1 symmetry adapted basis functions of B1G symmetry.
 There are     1 symmetry adapted basis functions of B2G symmetry.
 There are     1 symmetry adapted basis functions of B3G symmetry.
 There are     0 symmetry adapted basis functions of AU  symmetry.
 There are     3 symmetry adapted basis functions of B1U symmetry.
 There are     3 symmetry adapted basis functions of B2U symmetry.
 There are     3 symmetry adapted basis functions of B3U symmetry.
 Integral buffers will be    131072 words long.
 Raffenetti 2 integral format.
 Two-electron integral symmetry is turned on.
    19 basis functions,    52 primitive gaussians,    19 cartesian basis functions
     8 alpha electrons        6 beta electrons
       nuclear repulsion energy         0.0000000000 Hartrees.
 NAtoms=    1 NActive=    1 NUniq=    1 SFac= 7.50D-01 NAtFMM=   80 NAOKFM=F Big=F
 One-electron integrals computed using PRISM.
 NBasis=    19 RedAO= T  NBF=     7     1     1     1     0     3     3     3
 NBsUse=    19 1.00D-06 NBFU=     7     1     1     1     0     3     3     3
 Initial guess read from the checkpoint file:
 S9L-ne-d-01.chk
 Initial guess orbital symmetries:
 Alpha Orbitals:
       Occupied  (A1G) (A1G) (T1U) (T1U) (T1U) (T2G) (?A) (?A)
       Virtual   (?A) (A1G) (?A) (?A) (?A) (T2G) (T2G) (T2G) (T2G)
                 (T2G) (A1G)
 Beta  Orbitals:
       Occupied  (A1G) (A1G) (T1U) (T1U) (T1U) (?A)
       Virtual   (?B) (?B) (?B) (?A) (?B) (?B) (?B) (?A) (T2G)
                 (T2G) (?A) (T2G) (A1G)
 <S**2> of initial guess= 2.0019
 Requested convergence on RMS density matrix=1.00D-08 within 128 cycles.
 Requested convergence on MAX density matrix=1.00D-06.
 Requested convergence on             energy=1.00D-06.
 No special actions if energy rises.
 Keep R1 and R2 integrals in memory in canonical form, NReq=     1740422.
 Density matrix breaks symmetry, PCut= 1.00D-04
 Density has only Abelian symmetry.
 Density matrix breaks symmetry, PCut= 1.00D-04
 Density has only Abelian symmetry.
 SCF Done:  E(UB+HF-LYP) =  -289.371734867     A.U. after    1 cycles
             Convg  =    0.1878D-09             -V/T =  2.0033
             S**2   =   2.0019
 Annihilation of the first spin contaminant:
 S**2 before annihilation     2.0019,   after     2.0000
 QCSCF skips out because SCF is already converged.
 Range of M.O.s used for correlation:     1    19
 NBasis=    19 NAE=     8 NBE=     6 NFC=     0 NFV=     0
 NROrb=     19 NOA=     8 NOB=     6 NVA=    11 NVB=    13

 **** Warning!!: The smallest alpha delta epsilon is  0.64682249D-01

 Symmetrizing basis deriv contribution to polar:
 IMax=3 JMax=2 DiffMx= 0.00D+00
 G2DrvN: will do    2 centers at a time, making    1 passes doing MaxLOS=2.
 FoFDir/FoFCou used for L=0 through L=2.
 DoAtom=T
          Differentiating once with respect to electric field.
                with respect to dipole field.
          Differentiating once with respect to nuclear coordinates.
          Store integrals in memory, NReq=      857115.
 CalDSu exits because no D1Ps are significant.
          There are   6 degrees of freedom in the 1st order CPHF.
     3 vectors were produced by pass  0.
 AX will form   3 AO Fock derivatives at one time.
     3 vectors were produced by pass  1.
     3 vectors were produced by pass  2.
     3 vectors were produced by pass  3.
     3 vectors were produced by pass  4.
     3 vectors were produced by pass  5.
     3 vectors were produced by pass  6.
 Inv2:  IOpt= 1 Iter= 1 AM= 4.69D-16 Conv= 1.00D-12.
 Inverted reduced A of dimension   21 with in-core refinement.
 Isotropic polarizability for W=    0.000000       19.02 Bohr**3.
 End of Minotr Frequency-dependent properties file   721 does not exist.

 **********************************************************************

            Population analysis using the SCF density.

 **********************************************************************

 Orbital symmetries:
 Alpha Orbitals:
       Occupied  (A1G) (A1G) (T1U) (T1U) (T1U) (T2G) (?A) (?A)
       Virtual   (?A) (A1G) (?A) (?A) (?A) (T2G) (T2G) (T2G) (T2G)
                 (T2G) (A1G)
 Beta  Orbitals:
       Occupied  (A1G) (A1G) (T1U) (T1U) (T1U) (?A)
       Virtual   (?B) (?B) (?B) (?A) (?B) (?B) (?B) (?A) (T2G)
                 (T2G) (?A) (T2G) (A1G)
 Unable to determine electronic state:  partially filled degenerate orbitals.
 Alpha  occ. eigenvalues --  -66.16438  -5.31099  -3.67260  -3.66871  -3.66871
 Alpha  occ. eigenvalues --   -0.45314  -0.19135  -0.19135
 Alpha virt. eigenvalues --   -0.12667   0.16670   0.23805   0.23805   0.24535
 Alpha virt. eigenvalues --    0.55732   0.55732   0.56263   0.56263   0.57071
 Alpha virt. eigenvalues --    2.87084
  Beta  occ. eigenvalues --  -66.15848  -5.30467  -3.66950  -3.65618  -3.65618
  Beta  occ. eigenvalues --   -0.38819
  Beta virt. eigenvalues --   -0.10808  -0.07675  -0.07675   0.18783   0.25179
  Beta virt. eigenvalues --    0.27401   0.27401   0.59859   0.60761   0.60761
  Beta virt. eigenvalues --    0.63685   0.63685   2.89486
          Condensed to atoms (all electrons):
              1
     1  Si  14.000000
 Mulliken atomic charges:
              1
     1  Si   0.000000
 Sum of Mulliken charges=   0.00000
 Atomic charges with hydrogens summed into heavy atoms:
              1
     1  Si   0.000000
 Sum of Mulliken charges=   0.00000
          Atomic-Atomic Spin Densities.
              1
     1  Si   2.000000
 Mulliken atomic spin densities:
              1
     1  Si   2.000000
 Sum of Mulliken spin densities=   2.00000
 APT atomic charges:
              1
     1  Si   0.000000
 Sum of APT charges=   0.00000
 APT Atomic charges with hydrogens summed into heavy atoms:
              1
     1  Si   0.000000
 Sum of APT charges=   0.00000
 Electronic spatial extent (au):  <R**2>=    31.2494
 Charge=     0.0000 electrons
 Dipole moment (field-independent basis, Debye):
    X=     0.0000    Y=     0.0000    Z=     0.0000  Tot=     0.0000
 Quadrupole moment (field-independent basis, Debye-Ang):
   XX=   -15.5254   YY=   -10.9807   ZZ=   -15.5254
   XY=     0.0000   XZ=     0.0000   YZ=     0.0000
 Traceless Quadrupole moment (field-independent basis, Debye-Ang):
   XX=    -1.5149   YY=     3.0298   ZZ=    -1.5149
   XY=     0.0000   XZ=     0.0000   YZ=     0.0000
 Octapole moment (field-independent basis, Debye-Ang**2):
  XXX=     0.0000  YYY=     0.0000  ZZZ=     0.0000  XYY=     0.0000
  XXY=     0.0000  XXZ=     0.0000  XZZ=     0.0000  YZZ=     0.0000
  YYZ=     0.0000  XYZ=     0.0000
 Hexadecapole moment (field-independent basis, Debye-Ang**3):
 XXXX=   -33.3120 YYYY=   -16.6056 ZZZZ=   -33.3120 XXXY=     0.0000
 XXXZ=     0.0000 YYYX=     0.0000 YYYZ=     0.0000 ZZZX=     0.0000
 ZZZY=     0.0000 XXYY=    -8.3192 XXZZ=   -11.1040 YYZZ=    -8.3192
 XXYZ=     0.0000 YYXZ=     0.0000 ZZXY=     0.0000
 N-N= 0.000000000000D+00 E-N=-6.890540533065D+02  KE= 2.884165187311D+02
 Symmetry AG   KE= 2.134906803748D+02
 Symmetry B1G  KE= 0.000000000000D+00
 Symmetry B2G  KE= 0.000000000000D+00
 Symmetry B3G  KE= 0.000000000000D+00
 Symmetry AU   KE= 0.000000000000D+00
 Symmetry B1U  KE= 2.531338605927D+01
 Symmetry B2U  KE= 2.429906623845D+01
 Symmetry B3U  KE= 2.531338605851D+01
  Exact polarizability:  19.595   0.000  17.883   0.000   0.000  19.595
 Approx polarizability:  21.033   0.000  27.528   0.000   0.000  21.033
                          Isotropic Fermi Contact Couplings
        Atom                 a.u.       MegaHertz       Gauss      10(-4) cm-1
     1  Si(29)            -0.03204      14.23828       5.08057       4.74938
 --------------------------------------------------------
       Center         ----  Spin Dipole Couplings  ----
                      3XX-RR        3YY-RR        3ZZ-RR
 --------------------------------------------------------
     1   Atom        0.902054     -1.804108      0.902054
 --------------------------------------------------------
                        XY            XZ            YZ
 --------------------------------------------------------
     1   Atom        0.000000      0.000000      0.000000
 --------------------------------------------------------


 ---------------------------------------------------------------------------------
              Anisotropic Spin Dipole Couplings in Principal Axis System
 ---------------------------------------------------------------------------------

       Atom             a.u.   MegaHertz   Gauss  10(-4) cm-1        Axes

              Baa    -1.8041   191.387    68.292    63.840  0.0000  1.0000  0.0000
     1 Si(29) Bbb     0.9021   -95.694   -34.146   -31.920  1.0000  0.0000  0.0000
              Bcc     0.9021   -95.694   -34.146   -31.920  0.0000  0.0000  1.0000
 

 ---------------------------------------------------------------------------------

 Density matrix has only Abelian symmetry.
 Density matrix has only Abelian symmetry.
 Full mass-weighted force constant matrix:
 Low frequencies ---    0.0000    0.0001    0.0005
 Diagonal vibrational polarizability:
        0.0000000       0.0000000       0.0000000
 Harmonic frequencies (cm**-1), IR intensities (KM/Mole), Raman scattering
 activities (A**4/AMU), depolarization ratios for plane and unpolarized
 incident light, reduced masses (AMU), force constants (mDyne/A),
 and normal coordinates:

 -------------------
 - Thermochemistry -
 -------------------
 Temperature   298.150 Kelvin.  Pressure   1.00000 Atm.
 Atom  1 has atomic number 14 and mass  27.97693
 Molecular mass:    27.97693 amu.
 Zero-point vibrational energy          0.0 (Joules/Mol)
                                    0.00000 (Kcal/Mol)
 Vibrational temperatures: 
          (Kelvin)
 
 Zero-point correction=                           0.000000 (Hartree/Particle)
 Thermal correction to Energy=                    0.001416
 Thermal correction to Enthalpy=                  0.002360
 Thermal correction to Gibbs Free Energy=        -0.015744
 Sum of electronic and zero-point Energies=           -289.371735
 Sum of electronic and thermal Energies=              -289.370319
 Sum of electronic and thermal Enthalpies=            -289.369374
 Sum of electronic and thermal Free Energies=         -289.387479
 
                     E (Thermal)             CV                S
                      KCal/Mol        Cal/Mol-Kelvin    Cal/Mol-Kelvin
 Total                    0.889              2.981             38.104
 Electronic               0.000              0.000              2.183
 Translational            0.889              2.981             35.921
 Rotational               0.000              0.000              0.000
 Vibrational              0.000              0.000              0.000
                       Q            Log10(Q)             Ln(Q)
 Total Bot       0.174492D+08          7.241776         16.674807
 Total V=0       0.174492D+08          7.241776         16.674807
 Vib (Bot)       0.100000D+01          0.000000          0.000000
 Vib (V=0)       0.100000D+01          0.000000          0.000000
 Electronic      0.300000D+01          0.477121          1.098612
 Translational   0.581641D+07          6.764655         15.576194
 Rotational      0.100000D+01          0.000000          0.000000
 ***** Axes restored to original set *****
 -------------------------------------------------------------------
 Center     Atomic                   Forces (Hartrees/Bohr)
 Number     Number              X              Y              Z
 -------------------------------------------------------------------
    1         14           0.000000000    0.000000000    0.000000000
 -------------------------------------------------------------------
 Cartesian Forces:  Max     0.000000000 RMS     0.000000000

 GradGradGradGradGradGradGradGradGradGradGradGradGradGradGradGradGradGrad
 Berny optimization.
 Search for a local minimum.
 Step number   1 out of a maximum of   2
 All quantities printed in internal units (Hartrees-Bohrs-Radians)
 Second derivative matrix not updated -- analytic derivatives used.
 The second derivative matrix:
                          X1        Y1        Z1
           X1           0.00000
           Y1           0.00000   0.00000
           Z1           0.00000   0.00000   0.00000
     Eigenvalues --- 
 Angle between quadratic step and forces=  90.00 degrees.
 Linear search not attempted -- first point.
 TrRot=  0.000000  0.000000  0.000000  0.000000  0.000000  0.000000
 Variable       Old X    -DE/DX   Delta X   Delta X   Delta X     New X
                                 (Linear)    (Quad)   (Total)
    X1        0.00000   0.00000   0.00000   0.00000   0.00000   0.00000
    Y1        1.95800   0.00000   0.00000   0.00000   0.00000   1.95800
    Z1       -0.47213   0.00000   0.00000   0.00000   0.00000  -0.47213
         Item               Value     Threshold  Converged?
 Maximum Force            0.000000     0.000450     YES
 RMS     Force            0.000000     0.000300     YES
 Maximum Displacement     0.000000     0.001800     YES
 RMS     Displacement     0.000000     0.001200     YES
 Predicted change in Energy= 0.000000D+00
 Optimization completed.
    -- Stationary point found.
 GradGradGradGradGradGradGradGradGradGradGradGradGradGradGradGradGradGrad

 1\1\GINC-NODE36\Freq\UB3LYP\6-31G(d)\Si1(3)\TAM\12-Apr-2011\0\\#N Geom
 =AllCheck Guess=Read SCRF=Check GenChk UB3LYP/6-31G(d) Freq\\si2-n-t\\
 0,3\Si,0.,1.036131,-0.249839\\Version=AM64L-G03RevE.01\HF=-289.3717349
 \S2=2.001927\S2-1=0.\S2A=2.\RMSD=1.878e-10\RMSF=0.000e+00\Thermal=0.00
 14163\Dipole=0.,0.,0.\DipoleDeriv=0.,0.,0.,0.,0.,0.,0.,0.,0.\Polar=19.
 5952893,0.,17.8826532,0.,0.,19.5952894\PG=OH [O(Si1)]\NImag=0\\0.,0.,0
 .,0.,0.,0.\\0.,0.,0.\\\@


 IN THE WOODS WE RETURN TO REASON AND FAITH.

                                 -- EMERSON
 Job cpu time:  0 days  0 hours  0 minutes 44.9 seconds.
 File lengths (MBytes):  RWF=     13 Int=      0 D2E=      0 Chk=      6 Scr=      1
 Normal termination of Gaussian 03 at Tue Apr 12 17:18:30 2011.
 Initial command:
 /usr/local/chem/g03E01/l1.exe /temp0/tam/Gau-29889.inp -scrdir=/temp0/tam/
 Entering Link 1 = /usr/local/chem/g03E01/l1.exe PID=     30090.
  
 Copyright (c) 1988,1990,1992,1993,1995,1998,2003,2004,2007, Gaussian, Inc.
                  All Rights Reserved.
  
 This is the Gaussian(R) 03 program.  It is based on the
 the Gaussian(R) 98 system (copyright 1998, Gaussian, Inc.),
 the Gaussian(R) 94 system (copyright 1995, Gaussian, Inc.),
 the Gaussian 92(TM) system (copyright 1992, Gaussian, Inc.),
 the Gaussian 90(TM) system (copyright 1990, Gaussian, Inc.),
 the Gaussian 88(TM) system (copyright 1988, Gaussian, Inc.),
 the Gaussian 86(TM) system (copyright 1986, Carnegie Mellon
 University), and the Gaussian 82(TM) system (copyright 1983,
 Carnegie Mellon University). Gaussian is a federally registered
 trademark of Gaussian, Inc.
  
 This software contains proprietary and confidential information,
 including trade secrets, belonging to Gaussian, Inc.
  
 This software is provided under written license and may be
 used, copied, transmitted, or stored only in accord with that
 written license.
  
 The following legend is applicable only to US Government
 contracts under FAR:
  
                    RESTRICTED RIGHTS LEGEND
  
 Use, reproduction and disclosure by the US Government is
 subject to restrictions as set forth in subparagraphs (a)
 and (c) of the Commercial Computer Software - Restricted
 Rights clause in FAR 52.227-19.
  
 Gaussian, Inc.
 340 Quinnipiac St., Bldg. 40, Wallingford CT 06492
  
  
 ---------------------------------------------------------------
 Warning -- This program may not be used in any manner that
 competes with the business of Gaussian, Inc. or will provide
 assistance to any competitor of Gaussian, Inc.  The licensee
 of this program is prohibited from giving any competitor of
 Gaussian, Inc. access to this program.  By using this program,
 the user acknowledges that Gaussian, Inc. is engaged in the
 business of creating and licensing software in the field of
 computational chemistry and represents and warrants to the
 licensee that it is not a competitor of Gaussian, Inc. and that
 it will not use this program in any manner prohibited above.
 ---------------------------------------------------------------
  

 Cite this work as:
 Gaussian 03, Revision E.01,
 M. J. Frisch, G. W. Trucks, H. B. Schlegel, G. E. Scuseria, 
 M. A. Robb, J. R. Cheeseman, J. A. Montgomery, Jr., T. Vreven, 
 K. N. Kudin, J. C. Burant, J. M. Millam, S. S. Iyengar, J. Tomasi, 
 V. Barone, B. Mennucci, M. Cossi, G. Scalmani, N. Rega, 
 G. A. Petersson, H. Nakatsuji, M. Hada, M. Ehara, K. Toyota, 
 R. Fukuda, J. Hasegawa, M. Ishida, T. Nakajima, Y. Honda, O. Kitao, 
 H. Nakai, M. Klene, X. Li, J. E. Knox, H. P. Hratchian, J. B. Cross, 
 V. Bakken, C. Adamo, J. Jaramillo, R. Gomperts, R. E. Stratmann, 
 O. Yazyev, A. J. Austin, R. Cammi, C. Pomelli, J. W. Ochterski, 
 P. Y. Ayala, K. Morokuma, G. A. Voth, P. Salvador, J. J. Dannenberg, 
 V. G. Zakrzewski, S. Dapprich, A. D. Daniels, M. C. Strain, 
 O. Farkas, D. K. Malick, A. D. Rabuck, K. Raghavachari, 
 J. B. Foresman, J. V. Ortiz, Q. Cui, A. G. Baboul, S. Clifford, 
 J. Cioslowski, B. B. Stefanov, G. Liu, A. Liashenko, P. Piskorz, 
 I. Komaromi, R. L. Martin, D. J. Fox, T. Keith, M. A. Al-Laham, 
 C. Y. Peng, A. Nanayakkara, M. Challacombe, P. M. W. Gill, 
 B. Johnson, W. Chen, M. W. Wong, C. Gonzalez, and J. A. Pople, 
 Gaussian, Inc., Wallingford CT, 2004.
 
 ******************************************
 Gaussian 03:  AM64L-G03RevE.01 11-Sep-2007
                12-Apr-2011 
 ******************************************
 %NprocShared=4
 Will use up to    4 processors via shared memory.
 %mem=3750MB
 %chk=S9L-ne-d-01
 ----------------------------------------------------------------------
 # b3lyp/6-311G(d) opt=(readfc,noeigentest,maxcycle=500) freq scfcyc=50
 0 optcyc=500 geom=allcheck guess=read scf=xqc
 ----------------------------------------------------------------------
 1/6=500,10=3,11=1,14=-1,18=20,26=3,29=7,38=1/1,3;
 2/9=110,40=1/2;
 3/5=4,6=6,7=1,11=2,16=1,25=1,30=1,74=-5/1,2,3;
 4/5=1/1;
 5/5=2,7=500,8=3,13=1,38=6/2,8;
 6/7=2,8=2,9=2,10=2,28=1/1;
 7//1,2,3,16;
 1/6=500,11=1,14=-1,18=20/3(3);
 2/9=110/2;
 6/7=2,8=2,9=2,10=2,19=2,28=1/1;
 99//99;
 2/9=110/2;
 3/5=4,6=6,7=1,11=2,16=1,25=1,30=1,74=-5/1,2,3;
 4/5=5,16=3/1;
 5/5=2,7=500,8=3,13=1,38=5/2,8;
 7//1,2,3,16;
 1/6=500,11=1,14=-1,18=20/3(-5);
 2/9=110/2;
 6/7=2,8=2,9=2,10=2,19=2,28=1/1;
 99/9=1/99;
 -------
 si2-n-t
 -------
 No Z-matrix found on checkpoint file.
 Cartesian coordinates read from the checkpoint file:
 S9L-ne-d-01.chk
 Charge =  0 Multiplicity = 3
  Si                                                0.000000000000      1.036131000000     -0.249839000000
 Recover connectivity data from disk.

 GradGradGradGradGradGradGradGradGradGradGradGradGradGradGradGradGradGrad
 Berny optimization.
 Initialization pass.
 No Z-matrix variables, so optimization will use Cartesian coordinates.
 Force constant matrix read from checkpoint file:
 S9L-ne-d-01.chk
 Trust Radius=3.00D-01 FncErr=1.00D-07 GrdErr=1.00D-06
 Number of steps in this run= 100 maximum allowed number of steps= 100.
 GradGradGradGradGradGradGradGradGradGradGradGradGradGradGradGradGradGrad

                          Input orientation:                          
 ---------------------------------------------------------------------
 Center     Atomic     Atomic              Coordinates (Angstroms)
 Number     Number      Type              X           Y           Z
 ---------------------------------------------------------------------
    1         14             0        0.000000    1.036131   -0.249839
 ---------------------------------------------------------------------
 Stoichiometry    Si(3)
 Framework group  OH[O(Si)]
 Deg. of freedom     0
 Full point group                 OH
 Largest Abelian subgroup         D2H     NOp   8
 Largest concise Abelian subgroup C1      NOp   1
                         Standard orientation:                         
 ---------------------------------------------------------------------
 Center     Atomic     Atomic              Coordinates (Angstroms)
 Number     Number      Type              X           Y           Z
 ---------------------------------------------------------------------
    1         14             0        0.000000    0.000000    0.000000
 ---------------------------------------------------------------------
 Standard basis: 6-311G(d) (5D, 7F)
 There are     8 symmetry adapted basis functions of AG  symmetry.
 There are     1 symmetry adapted basis functions of B1G symmetry.
 There are     1 symmetry adapted basis functions of B2G symmetry.
 There are     1 symmetry adapted basis functions of B3G symmetry.
 There are     0 symmetry adapted basis functions of AU  symmetry.
 There are     5 symmetry adapted basis functions of B1U symmetry.
 There are     5 symmetry adapted basis functions of B2U symmetry.
 There are     5 symmetry adapted basis functions of B3U symmetry.
 Integral buffers will be    131072 words long.
 Raffenetti 2 integral format.
 Two-electron integral symmetry is turned on.
    26 basis functions,    46 primitive gaussians,    27 cartesian basis functions
     8 alpha electrons        6 beta electrons
       nuclear repulsion energy         0.0000000000 Hartrees.
 NAtoms=    1 NActive=    1 NUniq=    1 SFac= 7.50D-01 NAtFMM=   80 NAOKFM=F Big=F
 One-electron integrals computed using PRISM.
 NBasis=    26 RedAO= T  NBF=     8     1     1     1     0     5     5     5
 NBsUse=    26 1.00D-06 NBFU=     8     1     1     1     0     5     5     5
 Initial guess read from the checkpoint file:
 S9L-ne-d-01.chk
 Initial guess orbital symmetries:
 Alpha Orbitals:
       Occupied  (A1G) (A1G) (T1U) (T1U) (T1U) (T2G) (?A) (?A)
       Virtual   (T2G) (T2G) (A1G) (A1G) (A1G) (T2G) (T2G) (T2G)
                 (?A) (?A) (?A) (?A) (?A) (?A) (?A) (?A) (?A) (?A)
 Beta  Orbitals:
       Occupied  (A1G) (A1G) (T1U) (T1U) (T1U) (T2G)
       Virtual   (T2G) (T2G) (A1G) (A1G) (A1G) (T2G) (T2G) (T2G)
                 (T1U) (T1U) (T1U) (T1U) (T1U) (T1U) (T1U) (T1U)
                 (T1U) (T1U) (T1U) (T1U)
 <S**2> of initial guess= 2.0017
 Requested convergence on RMS density matrix=1.00D-08 within 128 cycles.
 Requested convergence on MAX density matrix=1.00D-06.
 Requested convergence on             energy=1.00D-06.
 No special actions if energy rises.
 Keep R1 and R2 integrals in memory in canonical form, NReq=     1849481.
 Density matrix breaks symmetry, PCut= 1.00D-04
 Density has only Abelian symmetry.
 Density matrix breaks symmetry, PCut= 1.00D-04
 Density has only Abelian symmetry.
 Density matrix breaks symmetry, PCut= 1.00D-04
 Density has only Abelian symmetry.
 Density matrix breaks symmetry, PCut= 1.00D-04
 Density has only Abelian symmetry.
 Density matrix breaks symmetry, PCut= 1.00D-04
 Density has only Abelian symmetry.
 Density matrix breaks symmetry, PCut= 1.00D-04
 Density has only Abelian symmetry.
 Density matrix breaks symmetry, PCut= 1.00D-04
 Density has only Abelian symmetry.
 Density matrix breaks symmetry, PCut= 1.00D-04
 Density has only Abelian symmetry.
 Density matrix breaks symmetry, PCut= 1.00D-04
 Density has only Abelian symmetry.
 SCF Done:  E(UB+HF-LYP) =  -289.393820798     A.U. after    8 cycles
             Convg  =    0.3403D-08             -V/T =  2.0017
             S**2   =   2.0018
 Annihilation of the first spin contaminant:
 S**2 before annihilation     2.0018,   after     2.0000
 QCSCF skips out because SCF is already converged.

 **********************************************************************

            Population analysis using the SCF density.

 **********************************************************************

 Orbital symmetries:
 Alpha Orbitals:
       Occupied  (A1G) (A1G) (T1U) (T1U) (T1U) (T2G) (?A) (?A)
       Virtual   (?A) (?A) (?A) (?A) (A1G) (T2G) (T2G) (T2G) (T2G)
                 (T2G) (T1U) (T1U) (T1U) (A1G) (T1U) (T1U) (T1U)
                 (A1G)
 Beta  Orbitals:
       Occupied  (A1G) (A1G) (T1U) (T1U) (T1U) (?A)
       Virtual   (?B) (?B) (?B) (?B) (?B) (?B) (?A) (?A) (T2G)
                 (T2G) (?A) (T2G) (T1U) (T1U) (T1U) (A1G) (T1U)
                 (T1U) (T1U) (A1G)
 Unable to determine electronic state:  partially filled degenerate orbitals.
 Alpha  occ. eigenvalues --  -66.14108  -5.30671  -3.66841  -3.66489  -3.66489
 Alpha  occ. eigenvalues --   -0.45462  -0.19279  -0.19279
 Alpha virt. eigenvalues --   -0.12851   0.16100   0.16100   0.16765   0.23219
 Alpha virt. eigenvalues --    0.55575   0.55575   0.56107   0.56107   0.56901
 Alpha virt. eigenvalues --    1.08781   1.08781   1.08911   5.05533  11.16761
 Alpha virt. eigenvalues --   11.16917  11.16917 140.42419
  Beta  occ. eigenvalues --  -66.13429  -5.30010  -3.66492  -3.65131  -3.65131
  Beta  occ. eigenvalues --   -0.39026
  Beta virt. eigenvalues --   -0.11079  -0.08078  -0.08078   0.17295   0.19058
  Beta virt. eigenvalues --    0.19058   0.25731   0.59657   0.60546   0.60546
  Beta virt. eigenvalues --    0.63442   0.63442   1.09727   1.12494   1.12494
  Beta virt. eigenvalues --    5.07017  11.17258  11.18756  11.18756 140.43058
          Condensed to atoms (all electrons):
              1
     1  Si  14.000000
 Mulliken atomic charges:
              1
     1  Si   0.000000
 Sum of Mulliken charges=   0.00000
 Atomic charges with hydrogens summed into heavy atoms:
              1
     1  Si   0.000000
 Sum of Mulliken charges=   0.00000
          Atomic-Atomic Spin Densities.
              1
     1  Si   2.000000
 Mulliken atomic spin densities:
              1
     1  Si   2.000000
 Sum of Mulliken spin densities=   2.00000
 Electronic spatial extent (au):  <R**2>=    31.6670
 Charge=     0.0000 electrons
 Dipole moment (field-independent basis, Debye):
    X=     0.0000    Y=     0.0000    Z=     0.0000  Tot=     0.0000
 Quadrupole moment (field-independent basis, Debye-Ang):
   XX=   -15.7570   YY=   -11.0792   ZZ=   -15.7570
   XY=     0.0000   XZ=     0.0000   YZ=     0.0000
 Traceless Quadrupole moment (field-independent basis, Debye-Ang):
   XX=    -1.5593   YY=     3.1186   ZZ=    -1.5593
   XY=     0.0000   XZ=     0.0000   YZ=     0.0000
 Octapole moment (field-independent basis, Debye-Ang**2):
  XXX=     0.0000  YYY=     0.0000  ZZZ=     0.0000  XYY=     0.0000
  XXY=     0.0000  XXZ=     0.0000  XZZ=     0.0000  YZZ=     0.0000
  YYZ=     0.0000  XYZ=     0.0000
 Hexadecapole moment (field-independent basis, Debye-Ang**3):
 XXXX=   -35.6411 YYYY=   -17.2314 ZZZZ=   -35.6411 XXXY=     0.0000
 XXXZ=     0.0000 YYYX=     0.0000 YYYZ=     0.0000 ZZZX=     0.0000
 ZZZY=     0.0000 XXYY=    -8.8117 XXZZ=   -11.8804 YYZZ=    -8.8117
 XXYZ=     0.0000 YYXZ=     0.0000 ZZXY=     0.0000
 N-N= 0.000000000000D+00 E-N=-6.896597412983D+02  KE= 2.889086724529D+02
 Symmetry AG   KE= 2.134958231302D+02
 Symmetry B1G  KE= 0.000000000000D+00
 Symmetry B2G  KE= 0.000000000000D+00
 Symmetry B3G  KE= 0.000000000000D+00
 Symmetry AU   KE= 0.000000000000D+00
 Symmetry B1U  KE= 2.549722957007D+01
 Symmetry B2U  KE= 2.441839018253D+01
 Symmetry B3U  KE= 2.549722957007D+01
                          Isotropic Fermi Contact Couplings
        Atom                 a.u.       MegaHertz       Gauss      10(-4) cm-1
     1  Si(29)            -0.08916      39.61731      14.13644      13.21491
 --------------------------------------------------------
       Center         ----  Spin Dipole Couplings  ----
                      3XX-RR        3YY-RR        3ZZ-RR
 --------------------------------------------------------
     1   Atom        1.004090     -2.008179      1.004090
 --------------------------------------------------------
                        XY            XZ            YZ
 --------------------------------------------------------
     1   Atom        0.000000      0.000000      0.000000
 --------------------------------------------------------


 ---------------------------------------------------------------------------------
              Anisotropic Spin Dipole Couplings in Principal Axis System
 ---------------------------------------------------------------------------------

       Atom             a.u.   MegaHertz   Gauss  10(-4) cm-1        Axes

              Baa    -2.0082   213.036    76.016    71.061  0.0000  1.0000  0.0000
     1 Si(29) Bbb     1.0041  -106.518   -38.008   -35.531  1.0000  0.0000  0.0000
              Bcc     1.0041  -106.518   -38.008   -35.531  0.0000  0.0000  1.0000
 

 ---------------------------------------------------------------------------------

 Density matrix has only Abelian symmetry.
 Density matrix has only Abelian symmetry.
 ***** Axes restored to original set *****
 -------------------------------------------------------------------
 Center     Atomic                   Forces (Hartrees/Bohr)
 Number     Number              X              Y              Z
 -------------------------------------------------------------------
    1         14           0.000000000    0.000000000    0.000000000
 -------------------------------------------------------------------
 Cartesian Forces:  Max     0.000000000 RMS     0.000000000
 ------------------------------------------------------------------------
           Internal Coordinate Forces (Hartree/Bohr or radian)
 Cent Atom N1     Length/X     N2     Alpha/Y      N3      Beta/Z       J
 ------------------------------------------------------------------------
   1  Si        0.000000(   1)      0.000000(   2)      0.000000(   3)
 ------------------------------------------------------------------------
 Internal  Forces:  Max     0.000000000 RMS     0.000000000

 GradGradGradGradGradGradGradGradGradGradGradGradGradGradGradGradGradGrad
 Berny optimization.
 Search for a local minimum.
 Step number   1 out of a maximum of 100
 All quantities printed in internal units (Hartrees-Bohrs-Radians)
 Second derivative matrix not updated -- first step.
 The second derivative matrix:
                          X1        Y1        Z1
           X1           0.00000
           Y1           0.00000   0.00000
           Z1           0.00000   0.00000   0.00000
     Eigenvalues --- 
 RFO step:  Lambda= 0.00000000D+00.
 Linear search not attempted -- first point.
 TrRot=  0.000000  0.000000  0.000000  0.000000  0.000000  0.000000
[...]
 XXXX=   -37.3736 YYYY=   -17.9690 ZZZZ=   -37.3736 XXXY=     0.0000
 XXXZ=     0.0000 YYYX=     0.0000 YYYZ=     0.0000 ZZZX=     0.0000
 ZZZY=     0.0000 XXYY=    -9.2234 XXZZ=   -12.4579 YYZZ=    -9.2234
 XXYZ=     0.0000 YYXZ=     0.0000 ZZXY=     0.0000
 N-N= 0.000000000000D+00 E-N=-6.896346689351D+02  KE= 2.889037807919D+02
 Symmetry AG   KE= 2.134955568073D+02
 Symmetry B1G  KE= 0.000000000000D+00
 Symmetry B2G  KE= 0.000000000000D+00
 Symmetry B3G  KE= 0.000000000000D+00
 Symmetry AU   KE= 0.000000000000D+00
 Symmetry B1U  KE= 2.549512484752D+01
 Symmetry B2U  KE= 2.441797428954D+01
 Symmetry B3U  KE= 2.549512484752D+01
                          Isotropic Fermi Contact Couplings
        Atom                 a.u.       MegaHertz       Gauss      10(-4) cm-1
     1  Si(29)            -0.08585      38.14898      13.61250      12.72513
 --------------------------------------------------------
       Center         ----  Spin Dipole Couplings  ----
                      3XX-RR        3YY-RR        3ZZ-RR
 --------------------------------------------------------
     1   Atom        1.002803     -2.005605      1.002803
 --------------------------------------------------------
                        XY            XZ            YZ
 --------------------------------------------------------
     1   Atom        0.000000      0.000000      0.000000
 --------------------------------------------------------


 ---------------------------------------------------------------------------------
              Anisotropic Spin Dipole Couplings in Principal Axis System
 ---------------------------------------------------------------------------------

       Atom             a.u.   MegaHertz   Gauss  10(-4) cm-1        Axes

              Baa    -2.0056   212.763    75.919    70.970  0.0000  1.0000  0.0000
     1 Si(29) Bbb     1.0028  -106.381   -37.960   -35.485  0.0000  0.0000  1.0000
              Bcc     1.0028  -106.381   -37.960   -35.485  1.0000  0.0000  0.0000
 

 ---------------------------------------------------------------------------------

 1\1\GINC-NODE36\FOpt\UB3LYP\6-311+G(d)\Si1(3)\TAM\12-Apr-2011\0\\# b3l
 yp/6-311+G(d) opt=(readfc,noeigentest,maxcycle=500) freq scfcyc=500 op
 tcyc=500 scf=xqc geom=allcheck guess=read\\si2-n-t\\0,3\Si,0.,1.036131
 ,-0.249839\\Version=AM64L-G03RevE.01\HF=-289.3941685\S2=2.002006\S2-1=
 0.\S2A=2.\RMSD=5.007e-09\RMSF=0.000e+00\Thermal=0.\Dipole=0.,0.,0.\PG=
 OH [O(Si1)]\\@


 IN THE UNIVERSE THE DIFFICULT THINGS ARE DONE AS IF THEY WERE EASY.

                                                          -- LAO-TSU
 Job cpu time:  0 days  0 hours  0 minutes 37.9 seconds.
 File lengths (MBytes):  RWF=     13 Int=      0 D2E=      0 Chk=      6 Scr=      1
 Normal termination of Gaussian 03 at Tue Apr 12 17:20:26 2011.
 Link1:  Proceeding to internal job step number  2.
 --------------------------------------------------------------------
 #N Geom=AllCheck Guess=Read SCRF=Check GenChk UB3LYP/6-311+G(d) Freq
 --------------------------------------------------------------------
 1/6=500,10=4,11=1,29=7,30=1,38=1,40=1,46=1/1,3;
 2/40=1/2;
 3/5=4,6=6,7=11,11=2,16=1,25=1,30=1,70=2,71=2,74=-5/1,2,3;
 4/5=1,7=2/1;
 5/5=2,7=500,8=3,13=1,38=6/2,8;
 8/6=4,10=90,11=11/1;
 11/6=1,8=1,9=11,15=111,16=1/1,2,10;
 10/6=1/2;
 6/7=2,8=2,9=2,10=2,18=1,28=1/1;
 7/8=1,10=1,25=1/1,2,3,16;
 1/6=500,10=4,11=1,30=1,46=1/3;
 99//99;
 -------
 si2-n-t
 -------
 No Z-matrix found on checkpoint file.
 Cartesian coordinates read from the checkpoint file:
 S9L-ne-d-01.chk
 Charge =  0 Multiplicity = 3
  Si                                                0.000000000000      1.036131000000     -0.249839000000
 Recover connectivity data from disk.

 GradGradGradGradGradGradGradGradGradGradGradGradGradGradGradGradGradGrad
 Berny optimization.
 Initialization pass.
 Trust Radius=3.00D-01 FncErr=1.00D-07 GrdErr=1.00D-07
 Number of steps in this run=   2 maximum allowed number of steps=   2.
 GradGradGradGradGradGradGradGradGradGradGradGradGradGradGradGradGradGrad

                          Input orientation:                          
 ---------------------------------------------------------------------
 Center     Atomic     Atomic              Coordinates (Angstroms)
 Number     Number      Type              X           Y           Z
 ---------------------------------------------------------------------
    1         14             0        0.000000    1.036131   -0.249839
 ---------------------------------------------------------------------
 Stoichiometry    Si(3)
 Framework group  OH[O(Si)]
 Deg. of freedom     0
 Full point group                 OH
 Largest Abelian subgroup         D2H     NOp   8
 Largest concise Abelian subgroup C1      NOp   1
                         Standard orientation:                         
 ---------------------------------------------------------------------
 Center     Atomic     Atomic              Coordinates (Angstroms)
 Number     Number      Type              X           Y           Z
 ---------------------------------------------------------------------
    1         14             0        0.000000    0.000000    0.000000
 ---------------------------------------------------------------------
 Standard basis: 6-311+G(d) (5D, 7F)
 There are     9 symmetry adapted basis functions of AG  symmetry.
 There are     1 symmetry adapted basis functions of B1G symmetry.
 There are     1 symmetry adapted basis functions of B2G symmetry.
 There are     1 symmetry adapted basis functions of B3G symmetry.
 There are     0 symmetry adapted basis functions of AU  symmetry.
 There are     6 symmetry adapted basis functions of B1U symmetry.
 There are     6 symmetry adapted basis functions of B2U symmetry.
 There are     6 symmetry adapted basis functions of B3U symmetry.
 Integral buffers will be    131072 words long.
 Raffenetti 2 integral format.
 Two-electron integral symmetry is turned on.
    30 basis functions,    50 primitive gaussians,    31 cartesian basis functions
     8 alpha electrons        6 beta electrons
       nuclear repulsion energy         0.0000000000 Hartrees.
 NAtoms=    1 NActive=    1 NUniq=    1 SFac= 7.50D-01 NAtFMM=   80 NAOKFM=F Big=F
 One-electron integrals computed using PRISM.
 NBasis=    30 RedAO= T  NBF=     9     1     1     1     0     6     6     6
 NBsUse=    30 1.00D-06 NBFU=     9     1     1     1     0     6     6     6
 Initial guess read from the checkpoint file:
 S9L-ne-d-01.chk
 Initial guess orbital symmetries:
 Alpha Orbitals:
       Occupied  (A1G) (A1G) (T1U) (T1U) (T1U) (T2G) (?A) (?A)
       Virtual   (?A) (A1G) (?A) (?A) (?A) (?A) (?A) (?A) (A1G)
                 (T2G) (T2G) (T2G) (T2G) (T2G) (T1U) (T1U) (T1U)
                 (A1G) (T1U) (T1U) (T1U) (A1G)
 Beta  Orbitals:
       Occupied  (A1G) (A1G) (T1U) (T1U) (T1U) (?A)
       Virtual   (?B) (?B) (?B) (?A) (?B) (?B) (?B) (?B) (?B) (?B)
                 (?A) (?A) (T2G) (T2G) (?A) (T2G) (T1U) (T1U) (T1U)
                 (A1G) (T1U) (T1U) (T1U) (A1G)
 <S**2> of initial guess= 2.0020
 Requested convergence on RMS density matrix=1.00D-08 within 128 cycles.
 Requested convergence on MAX density matrix=1.00D-06.
 Requested convergence on             energy=1.00D-06.
 No special actions if energy rises.
 Keep R1 and R2 integrals in memory in canonical form, NReq=     1954241.
 Density matrix breaks symmetry, PCut= 1.00D-04
 Density has only Abelian symmetry.
 Density matrix breaks symmetry, PCut= 1.00D-04
 Density has only Abelian symmetry.
 SCF Done:  E(UB+HF-LYP) =  -289.394168504     A.U. after    1 cycles
             Convg  =    0.4920D-09             -V/T =  2.0017
             S**2   =   2.0020
 Annihilation of the first spin contaminant:
 S**2 before annihilation     2.0020,   after     2.0000
 QCSCF skips out because SCF is already converged.
 Range of M.O.s used for correlation:     1    30
 NBasis=    30 NAE=     8 NBE=     6 NFC=     0 NFV=     0
 NROrb=     30 NOA=     8 NOB=     6 NVA=    22 NVB=    24

 **** Warning!!: The smallest alpha delta epsilon is  0.64081565D-01

 Symmetrizing basis deriv contribution to polar:
 IMax=3 JMax=2 DiffMx= 0.00D+00
 G2DrvN: will do    2 centers at a time, making    1 passes doing MaxLOS=2.
 FoFDir/FoFCou used for L=0 through L=2.
 DoAtom=T
          Differentiating once with respect to electric field.
                with respect to dipole field.
          Differentiating once with respect to nuclear coordinates.
          Store integrals in memory, NReq=     1067861.
 CalDSu exits because no D1Ps are significant.
          There are   6 degrees of freedom in the 1st order CPHF.
     3 vectors were produced by pass  0.
 AX will form   3 AO Fock derivatives at one time.
     3 vectors were produced by pass  1.
     3 vectors were produced by pass  2.
     3 vectors were produced by pass  3.
     3 vectors were produced by pass  4.
     3 vectors were produced by pass  5.
     3 vectors were produced by pass  6.
 Inv2:  IOpt= 1 Iter= 1 AM= 4.60D-16 Conv= 1.00D-12.
 Inverted reduced A of dimension   21 with in-core refinement.
 Isotropic polarizability for W=    0.000000       23.23 Bohr**3.
 End of Minotr Frequency-dependent properties file   721 does not exist.

 **********************************************************************

            Population analysis using the SCF density.

 **********************************************************************

 Orbital symmetries:
 Alpha Orbitals:
       Occupied  (A1G) (A1G) (T1U) (T1U) (T1U) (T2G) (?A) (?A)
       Virtual   (?A) (A1G) (?A) (?A) (?A) (?A) (?A) (?A) (A1G)
                 (T2G) (T2G) (T2G) (T2G) (T2G) (T1U) (T1U) (T1U)
                 (A1G) (T1U) (T1U) (T1U) (A1G)
 Beta  Orbitals:
       Occupied  (A1G) (A1G) (T1U) (T1U) (T1U) (?A)
       Virtual   (?B) (?B) (?B) (?A) (?B) (?B) (?B) (?B) (?B) (?B)
                 (?A) (?A) (T2G) (T2G) (?A) (T2G) (T1U) (T1U) (T1U)
                 (A1G) (T1U) (T1U) (T1U) (A1G)
 Unable to determine electronic state:  partially filled degenerate orbitals.
 Alpha  occ. eigenvalues --  -66.14291  -5.30845  -3.67012  -3.66660  -3.66660
 Alpha  occ. eigenvalues --   -0.45582  -0.19383  -0.19383
 Alpha virt. eigenvalues --   -0.12975   0.01398   0.04616   0.04616   0.04946
 Alpha virt. eigenvalues --    0.27831   0.27831   0.28278   0.39241   0.55440
 Alpha virt. eigenvalues --    0.55440   0.55974   0.55974   0.56769   1.19072
 Alpha virt. eigenvalues --    1.19072   1.19116   5.19280  11.24610  11.24768
 Alpha virt. eigenvalues --   11.24768 140.58531
  Beta  occ. eigenvalues --  -66.13612  -5.30186  -3.66663  -3.65304  -3.65304
  Beta  occ. eigenvalues --   -0.39143
  Beta virt. eigenvalues --   -0.11219  -0.08290  -0.08290   0.02099   0.05110
  Beta virt. eigenvalues --    0.05718   0.05718   0.28818   0.30476   0.30476
  Beta virt. eigenvalues --    0.41526   0.59545   0.60426   0.60426   0.63317
  Beta virt. eigenvalues --    0.63317   1.19911   1.22603   1.22603   5.20785
  Beta virt. eigenvalues --   11.25104  11.26599  11.26599 140.59170
          Condensed to atoms (all electrons):
              1
     1  Si  14.000000
 Mulliken atomic charges:
              1
     1  Si   0.000000
 Sum of Mulliken charges=   0.00000
 Atomic charges with hydrogens summed into heavy atoms:
              1
     1  Si   0.000000
 Sum of Mulliken charges=   0.00000
          Atomic-Atomic Spin Densities.
              1
     1  Si   2.000000
 Mulliken atomic spin densities:
              1
     1  Si   2.000000
 Sum of Mulliken spin densities=   2.00000
 APT atomic charges:
              1
     1  Si   0.000000
 Sum of APT charges=   0.00000
 APT Atomic charges with hydrogens summed into heavy atoms:
              1
     1  Si   0.000000
 Sum of APT charges=   0.00000
 Electronic spatial extent (au):  <R**2>=    31.9553
 Charge=     0.0000 electrons
 Dipole moment (field-independent basis, Debye):
    X=     0.0000    Y=     0.0000    Z=     0.0000  Tot=     0.0000
 Quadrupole moment (field-independent basis, Debye-Ang):
   XX=   -15.9059   YY=   -11.1690   ZZ=   -15.9059
   XY=     0.0000   XZ=     0.0000   YZ=     0.0000
 Traceless Quadrupole moment (field-independent basis, Debye-Ang):
   XX=    -1.5790   YY=     3.1579   ZZ=    -1.5790
   XY=     0.0000   XZ=     0.0000   YZ=     0.0000
 Octapole moment (field-independent basis, Debye-Ang**2):
  XXX=     0.0000  YYY=     0.0000  ZZZ=     0.0000  XYY=     0.0000
  XXY=     0.0000  XXZ=     0.0000  XZZ=     0.0000  YZZ=     0.0000
  YYZ=     0.0000  XYZ=     0.0000
 Hexadecapole moment (field-independent basis, Debye-Ang**3):
 XXXX=   -37.3736 YYYY=   -17.9690 ZZZZ=   -37.3736 XXXY=     0.0000
 XXXZ=     0.0000 YYYX=     0.0000 YYYZ=     0.0000 ZZZX=     0.0000
 ZZZY=     0.0000 XXYY=    -9.2234 XXZZ=   -12.4579 YYZZ=    -9.2234
 XXYZ=     0.0000 YYXZ=     0.0000 ZZXY=     0.0000
 N-N= 0.000000000000D+00 E-N=-6.896346688409D+02  KE= 2.889037807500D+02
 Symmetry AG   KE= 2.134955567809D+02
 Symmetry B1G  KE= 0.000000000000D+00
 Symmetry B2G  KE= 0.000000000000D+00
 Symmetry B3G  KE= 0.000000000000D+00
 Symmetry AU   KE= 0.000000000000D+00
 Symmetry B1U  KE= 2.549512484145D+01
 Symmetry B2U  KE= 2.441797428622D+01
 Symmetry B3U  KE= 2.549512484145D+01
  Exact polarizability:  25.895   0.000  17.898   0.000   0.000  25.895
 Approx polarizability:  25.674   0.000  27.438   0.000   0.000  25.674
                          Isotropic Fermi Contact Couplings
        Atom                 a.u.       MegaHertz       Gauss      10(-4) cm-1
     1  Si(29)            -0.08585      38.14898      13.61250      12.72513
 --------------------------------------------------------
       Center         ----  Spin Dipole Couplings  ----
                      3XX-RR        3YY-RR        3ZZ-RR
 --------------------------------------------------------
     1   Atom        1.002803     -2.005605      1.002803
 --------------------------------------------------------
                        XY            XZ            YZ
 --------------------------------------------------------
     1   Atom        0.000000      0.000000      0.000000
 --------------------------------------------------------


 ---------------------------------------------------------------------------------
              Anisotropic Spin Dipole Couplings in Principal Axis System
 ---------------------------------------------------------------------------------

       Atom             a.u.   MegaHertz   Gauss  10(-4) cm-1        Axes

              Baa    -2.0056   212.763    75.919    70.970  0.0000  1.0000  0.0000
     1 Si(29) Bbb     1.0028  -106.381   -37.960   -35.485  0.0000  0.0000  1.0000
              Bcc     1.0028  -106.381   -37.960   -35.485  1.0000  0.0000  0.0000
 

 ---------------------------------------------------------------------------------

 Density matrix has only Abelian symmetry.
 Density matrix has only Abelian symmetry.
 Full mass-weighted force constant matrix:
 Low frequencies ---   -0.0006   -0.0003    0.0005
 Diagonal vibrational polarizability:
        0.0000000       0.0000000       0.0000000
 Harmonic frequencies (cm**-1), IR intensities (KM/Mole), Raman scattering
 activities (A**4/AMU), depolarization ratios for plane and unpolarized
 incident light, reduced masses (AMU), force constants (mDyne/A),
 and normal coordinates:

 -------------------
 - Thermochemistry -
 -------------------
 Temperature   298.150 Kelvin.  Pressure   1.00000 Atm.
 Atom  1 has atomic number 14 and mass  27.97693
 Molecular mass:    27.97693 amu.
 Zero-point vibrational energy          0.0 (Joules/Mol)
                                    0.00000 (Kcal/Mol)
 Vibrational temperatures: 
          (Kelvin)
 
 Zero-point correction=                           0.000000 (Hartree/Particle)
 Thermal correction to Energy=                    0.001416
 Thermal correction to Enthalpy=                  0.002360
 Thermal correction to Gibbs Free Energy=        -0.015744
 Sum of electronic and zero-point Energies=           -289.394169
 Sum of electronic and thermal Energies=              -289.392752
 Sum of electronic and thermal Enthalpies=            -289.391808
 Sum of electronic and thermal Free Energies=         -289.409913
 
                     E (Thermal)             CV                S
                      KCal/Mol        Cal/Mol-Kelvin    Cal/Mol-Kelvin
 Total                    0.889              2.981             38.104
 Electronic               0.000              0.000              2.183
 Translational            0.889              2.981             35.921
 Rotational               0.000              0.000              0.000
 Vibrational              0.000              0.000              0.000
                       Q            Log10(Q)             Ln(Q)
 Total Bot       0.174492D+08          7.241776         16.674807
 Total V=0       0.174492D+08          7.241776         16.674807
 Vib (Bot)       0.100000D+01          0.000000          0.000000
 Vib (V=0)       0.100000D+01          0.000000          0.000000
 Electronic      0.300000D+01          0.477121          1.098612
 Translational   0.581641D+07          6.764655         15.576194
 Rotational      0.100000D+01          0.000000          0.000000
 ***** Axes restored to original set *****
 -------------------------------------------------------------------
 Center     Atomic                   Forces (Hartrees/Bohr)
 Number     Number              X              Y              Z
 -------------------------------------------------------------------
    1         14           0.000000000    0.000000000    0.000000000
 -------------------------------------------------------------------
 Cartesian Forces:  Max     0.000000000 RMS     0.000000000

 GradGradGradGradGradGradGradGradGradGradGradGradGradGradGradGradGradGrad
 Berny optimization.
 Search for a local minimum.
 Step number   1 out of a maximum of   2
 All quantities printed in internal units (Hartrees-Bohrs-Radians)
 Second derivative matrix not updated -- analytic derivatives used.
 The second derivative matrix:
                          X1        Y1        Z1
           X1           0.00000
           Y1           0.00000   0.00000
           Z1           0.00000   0.00000   0.00000
     Eigenvalues --- 
 Angle between quadratic step and forces=  90.00 degrees.
 Linear search not attempted -- first point.
 TrRot=  0.000000  0.000000  0.000000  0.000000  0.000000  0.000000
 Variable       Old X    -DE/DX   Delta X   Delta X   Delta X     New X
                                 (Linear)    (Quad)   (Total)
    X1        0.00000   0.00000   0.00000   0.00000   0.00000   0.00000
    Y1        1.95800   0.00000   0.00000   0.00000   0.00000   1.95800
    Z1       -0.47213   0.00000   0.00000   0.00000   0.00000  -0.47213
         Item               Value     Threshold  Converged?
 Maximum Force            0.000000     0.000450     YES
 RMS     Force            0.000000     0.000300     YES
 Maximum Displacement     0.000000     0.001800     YES
 RMS     Displacement     0.000000     0.001200     YES
 Predicted change in Energy= 0.000000D+00
 Optimization completed.
    -- Stationary point found.
 GradGradGradGradGradGradGradGradGradGradGradGradGradGradGradGradGradGrad

 1\1\GINC-NODE36\Freq\UB3LYP\6-311+G(d)\Si1(3)\TAM\12-Apr-2011\0\\#N Ge
 om=AllCheck Guess=Read SCRF=Check GenChk UB3LYP/6-311+G(d) Freq\\si2-n
 -t\\0,3\Si,0.,1.036131,-0.249839\\Version=AM64L-G03RevE.01\HF=-289.394
 1685\S2=2.002006\S2-1=0.\S2A=2.\RMSD=4.920e-10\RMSF=0.000e+00\Thermal=
 0.0014163\Dipole=0.,0.,0.\DipoleDeriv=0.,0.,0.,0.,0.,0.,0.,0.,0.\Polar
 =25.895444,0.,17.8978108,0.,0.,25.895444\PG=OH [O(Si1)]\NImag=0\\0.,0.
 ,0.,0.,0.,0.\\0.,0.,0.\\\@


 THE ATTENTION SPAN OF A COMPUTER IS AS LONG
 AS ITS EXTENSION CORD.
 Job cpu time:  0 days  0 hours  0 minutes 44.8 seconds.
 File lengths (MBytes):  RWF=     13 Int=      0 D2E=      0 Chk=      6 Scr=      1
 Normal termination of Gaussian 03 at Tue Apr 12 17:21:10 2011.
