 Entering Gaussian System, Link 0=g03
 Initial command:
 /usr/local/chem/g03E01/l1.exe /temp0/tam/Gau-18258.inp -scrdir=/temp0/tam/
 Entering Link 1 = /usr/local/chem/g03E01/l1.exe PID=     18259.
  
 Copyright (c) 1988,1990,1992,1993,1995,1998,2003,2004,2007, Gaussian, Inc.
                  All Rights Reserved.
  
 This is the Gaussian(R) 03 program.  It is based on the
 the Gaussian(R) 98 system (copyright 1998, Gaussian, Inc.),
 the Gaussian(R) 94 system (copyright 1995, Gaussian, Inc.),
 the Gaussian 92(TM) system (copyright 1992, Gaussian, Inc.),
 the Gaussian 90(TM) system (copyright 1990, Gaussian, Inc.),
 the Gaussian 88(TM) system (copyright 1988, Gaussian, Inc.),
 the Gaussian 86(TM) system (copyright 1986, Carnegie Mellon
 University), and the Gaussian 82(TM) system (copyright 1983,
 Carnegie Mellon University). Gaussian is a federally registered
 trademark of Gaussian, Inc.
  
 This software contains proprietary and confidential information,
 including trade secrets, belonging to Gaussian, Inc.
  
 This software is provided under written license and may be
 used, copied, transmitted, or stored only in accord with that
 written license.
  
 The following legend is applicable only to US Government
 contracts under FAR:
  
                    RESTRICTED RIGHTS LEGEND
  
 Use, reproduction and disclosure by the US Government is
 subject to restrictions as set forth in subparagraphs (a)
 and (c) of the Commercial Computer Software - Restricted
 Rights clause in FAR 52.227-19.
  
 Gaussian, Inc.
 340 Quinnipiac St., Bldg. 40, Wallingford CT 06492
  
  
 ---------------------------------------------------------------
 Warning -- This program may not be used in any manner that
 competes with the business of Gaussian, Inc. or will provide
 assistance to any competitor of Gaussian, Inc.  The licensee
 of this program is prohibited from giving any competitor of
 Gaussian, Inc. access to this program.  By using this program,
 the user acknowledges that Gaussian, Inc. is engaged in the
 business of creating and licensing software in the field of
 computational chemistry and represents and warrants to the
 licensee that it is not a competitor of Gaussian, Inc. and that
 it will not use this program in any manner prohibited above.
 ---------------------------------------------------------------
  

 Cite this work as:
 Gaussian 03, Revision E.01,
 M. J. Frisch, G. W. Trucks, H. B. Schlegel, G. E. Scuseria, 
 M. A. Robb, J. R. Cheeseman, J. A. Montgomery, Jr., T. Vreven, 
 K. N. Kudin, J. C. Burant, J. M. Millam, S. S. Iyengar, J. Tomasi, 
 V. Barone, B. Mennucci, M. Cossi, G. Scalmani, N. Rega, 
 G. A. Petersson, H. Nakatsuji, M. Hada, M. Ehara, K. Toyota, 
 R. Fukuda, J. Hasegawa, M. Ishida, T. Nakajima, Y. Honda, O. Kitao, 
 H. Nakai, M. Klene, X. Li, J. E. Knox, H. P. Hratchian, J. B. Cross, 
 V. Bakken, C. Adamo, J. Jaramillo, R. Gomperts, R. E. Stratmann, 
 O. Yazyev, A. J. Austin, R. Cammi, C. Pomelli, J. W. Ochterski, 
 P. Y. Ayala, K. Morokuma, G. A. Voth, P. Salvador, J. J. Dannenberg, 
 V. G. Zakrzewski, S. Dapprich, A. D. Daniels, M. C. Strain, 
 O. Farkas, D. K. Malick, A. D. Rabuck, K. Raghavachari, 
 J. B. Foresman, J. V. Ortiz, Q. Cui, A. G. Baboul, S. Clifford, 
 J. Cioslowski, B. B. Stefanov, G. Liu, A. Liashenko, P. Piskorz, 
 I. Komaromi, R. L. Martin, D. J. Fox, T. Keith, M. A. Al-Laham, 
 C. Y. Peng, A. Nanayakkara, M. Challacombe, P. M. W. Gill, 
 B. Johnson, W. Chen, M. W. Wong, C. Gonzalez, and J. A. Pople, 
 Gaussian, Inc., Wallingford CT, 2004.
 
 ******************************************
 Gaussian 03:  AM64L-G03RevE.01 11-Sep-2007
                 4-Apr-2011 
 ******************************************
 %NprocShared=4
 Will use up to    4 processors via shared memory.
 %mem=3750MB
 %chk=S9L-ne-d-01
 ----------------------------------------------------------------------
 # b3lyp/LANL2DZ opt=(calcall,noeigentest,maxcycle=500) scfcyc=500 scf=
 xqc
 ----------------------------------------------------------------------
 1/6=500,10=4,11=1,14=-1,18=20,26=3,38=1/1,3;
 2/9=110,17=6,18=5,40=1/2;
 3/5=6,6=3,11=2,16=1,25=1,30=1,74=-5/1,2,3;
 4//1;
 5/5=2,7=500,8=3,13=1,38=5/2,8;
 8/6=4,10=90,11=11/1;
 11/6=1,8=1,9=11,15=111,16=1/1,2,10;
 10/6=1/2;
 6/7=2,8=2,9=2,10=2,18=1,28=1/1;
 7/10=1,25=1/1,2,3,16;
 1/6=500,10=4,11=1,14=-1,18=20/3(3);
 2/9=110/2;
 7/8=1,9=1,25=1,44=-1/16;
 99//99;
 2/9=110/2;
 3/5=6,6=3,11=2,16=1,25=1,30=1,74=-5/1,2,3;
 4/5=5,16=3/1;
 5/5=2,7=500,8=3,13=1,38=5/2,8;
 8/6=4,10=90,11=11/1;
 11/6=1,8=1,9=11,15=111,16=1/1,2,10;
 10/6=1/2;
 7/10=1,25=1/1,2,3,16;
 1/6=500,10=4,11=1,14=-1,18=20/3(-8);
 2/9=110/2;
 6/7=2,8=2,9=2,10=2,18=1,19=2,28=1/1;
 7/8=1,9=1,25=1,44=-1/16;
 99//99;
 ------
 si10-n
 ------
 Symbolic Z-matrix:
 Charge =  0 Multiplicity = 1
 Si                   -1.42612  -1.41493  -1.25028 
 Si                   -0.10123  -1.67932   0.79296 
 Si                    0.83122  -0.62067  -1.6238 
 Si                   -1.14982   1.05923  -1.4596 
 Si                    1.19319   1.81613  -1.28356 
 Si                    2.14806  -1.69497   0.04281 
 Si                   -1.89113   0.11039   0.78749 
 Si                   -0.08282   0.14869   2.49322 
 Si                    1.6249    0.48112   0.75114 
 Si                   -0.32052   2.08709   0.78464 
 

 GradGradGradGradGradGradGradGradGradGradGradGradGradGradGradGradGradGrad
 Berny optimization.
 Initialization pass.
                           ----------------------------
                           !    Initial Parameters    !
                           ! (Angstroms and Degrees)  !
 --------------------------                            --------------------------
 ! Name  Definition              Value          Derivative Info.                !
 --------------------------------------------------------------------------------
 ! R1    R(1,2)                  2.4495         calculate D2E/DX2 analytically  !
 ! R2    R(1,3)                  2.422          calculate D2E/DX2 analytically  !
 ! R3    R(1,4)                  2.4983         calculate D2E/DX2 analytically  !
 ! R4    R(1,7)                  2.5875         calculate D2E/DX2 analytically  !
 ! R5    R(2,3)                  2.7984         calculate D2E/DX2 analytically  !
 ! R6    R(2,6)                  2.3711         calculate D2E/DX2 analytically  !
 ! R7    R(2,7)                  2.5312         calculate D2E/DX2 analytically  !
 ! R8    R(2,8)                  2.4966         calculate D2E/DX2 analytically  !
 ! R9    R(2,9)                  2.7656         calculate D2E/DX2 analytically  !
 ! R10   R(3,4)                  2.6026         calculate D2E/DX2 analytically  !
 ! R11   R(3,5)                  2.4869         calculate D2E/DX2 analytically  !
 ! R12   R(3,6)                  2.3803         calculate D2E/DX2 analytically  !
 ! R13   R(3,9)                  2.7357         calculate D2E/DX2 analytically  !
 ! R14   R(4,5)                  2.4685         calculate D2E/DX2 analytically  !
 ! R15   R(4,7)                  2.5494         calculate D2E/DX2 analytically  !
 ! R16   R(4,10)                 2.604          calculate D2E/DX2 analytically  !
 ! R17   R(5,9)                  2.4716         calculate D2E/DX2 analytically  !
 ! R18   R(5,10)                 2.5772         calculate D2E/DX2 analytically  !
 ! R19   R(6,9)                  2.3475         calculate D2E/DX2 analytically  !
 ! R20   R(7,8)                  2.4862         calculate D2E/DX2 analytically  !
 ! R21   R(7,10)                 2.5247         calculate D2E/DX2 analytically  !
 ! R22   R(8,9)                  2.462          calculate D2E/DX2 analytically  !
 ! R23   R(8,10)                 2.5948         calculate D2E/DX2 analytically  !
 ! R24   R(9,10)                 2.5229         calculate D2E/DX2 analytically  !
 ! A1    A(2,1,4)               96.7167         calculate D2E/DX2 analytically  !
 ! A2    A(3,1,7)               95.4878         calculate D2E/DX2 analytically  !
 ! A3    A(1,2,6)              104.4717         calculate D2E/DX2 analytically  !
 ! A4    A(1,2,8)              119.5409         calculate D2E/DX2 analytically  !
 ! A5    A(1,2,9)              103.9251         calculate D2E/DX2 analytically  !
 ! A6    A(3,2,7)               88.0671         calculate D2E/DX2 analytically  !
 ! A7    A(3,2,8)              107.9815         calculate D2E/DX2 analytically  !
 ! A8    A(6,2,7)              132.4378         calculate D2E/DX2 analytically  !
 ! A9    A(6,2,8)              102.3158         calculate D2E/DX2 analytically  !
 ! A10   A(7,2,9)               83.6258         calculate D2E/DX2 analytically  !
 ! A11   A(1,3,5)              115.8418         calculate D2E/DX2 analytically  !
 ! A12   A(1,3,6)              105.0483         calculate D2E/DX2 analytically  !
 ! A13   A(1,3,9)              105.5804         calculate D2E/DX2 analytically  !
 ! A14   A(2,3,4)               86.3346         calculate D2E/DX2 analytically  !
 ! A15   A(2,3,5)              107.5194         calculate D2E/DX2 analytically  !
 ! A16   A(4,3,6)              131.9323         calculate D2E/DX2 analytically  !
 ! A17   A(4,3,9)               84.6121         calculate D2E/DX2 analytically  !
 ! A18   A(5,3,6)              105.4219         calculate D2E/DX2 analytically  !
 ! A19   A(1,4,5)              113.744          calculate D2E/DX2 analytically  !
 ! A20   A(1,4,10)             110.7271         calculate D2E/DX2 analytically  !
 ! A21   A(3,4,7)               92.1036         calculate D2E/DX2 analytically  !
 ! A22   A(3,4,10)              93.8269         calculate D2E/DX2 analytically  !
 ! A23   A(5,4,7)              109.1027         calculate D2E/DX2 analytically  !
 ! A24   A(3,5,10)              97.3146         calculate D2E/DX2 analytically  !
 ! A25   A(4,5,9)               93.3754         calculate D2E/DX2 analytically  !
 ! A26   A(1,7,8)              114.7517         calculate D2E/DX2 analytically  !
 ! A27   A(1,7,10)             110.4168         calculate D2E/DX2 analytically  !
 ! A28   A(2,7,4)               93.4079         calculate D2E/DX2 analytically  !
 ! A29   A(2,7,10)              96.5277         calculate D2E/DX2 analytically  !
 ! A30   A(4,7,8)              112.7996         calculate D2E/DX2 analytically  !
 ! A31   A(2,8,10)              95.6163         calculate D2E/DX2 analytically  !
 ! A32   A(7,8,9)               91.2103         calculate D2E/DX2 analytically  !
 ! A33   A(2,9,5)              108.9885         calculate D2E/DX2 analytically  !
 ! A34   A(2,9,10)              90.9047         calculate D2E/DX2 analytically  !
 ! A35   A(3,9,8)              111.0172         calculate D2E/DX2 analytically  !
 ! A36   A(3,9,10)              92.5323         calculate D2E/DX2 analytically  !
 ! A37   A(5,9,6)              106.9315         calculate D2E/DX2 analytically  !
 ! A38   A(5,9,8)              122.2954         calculate D2E/DX2 analytically  !
 ! A39   A(6,9,8)              104.0587         calculate D2E/DX2 analytically  !
 ! A40   A(6,9,10)             139.9902         calculate D2E/DX2 analytically  !
 ! A41   A(4,10,8)             107.5652         calculate D2E/DX2 analytically  !
 ! A42   A(4,10,9)              89.0185         calculate D2E/DX2 analytically  !
 ! A43   A(5,10,7)             106.4973         calculate D2E/DX2 analytically  !
 ! A44   A(5,10,8)             113.3321         calculate D2E/DX2 analytically  !
 ! A45   A(7,10,9)              88.93           calculate D2E/DX2 analytically  !
 ! D1    D(4,1,2,6)            -80.7782         calculate D2E/DX2 analytically  !
 ! D2    D(4,1,2,8)             32.7668         calculate D2E/DX2 analytically  !
 ! D3    D(4,1,2,9)            -25.2213         calculate D2E/DX2 analytically  !
 ! D4    D(7,1,3,5)            -38.5249         calculate D2E/DX2 analytically  !
 ! D5    D(7,1,3,6)             77.3351         calculate D2E/DX2 analytically  !
 ! D6    D(7,1,3,9)             21.0868         calculate D2E/DX2 analytically  !
 ! D7    D(2,1,4,5)             49.7919         calculate D2E/DX2 analytically  !
 ! D8    D(2,1,4,10)           -16.643          calculate D2E/DX2 analytically  !
 ! D9    D(3,1,7,8)            -46.9404         calculate D2E/DX2 analytically  !
 ! D10   D(3,1,7,10)            21.1403         calculate D2E/DX2 analytically  !
 ! D11   D(7,2,3,4)             -2.1709         calculate D2E/DX2 analytically  !
 ! D12   D(7,2,3,5)             52.5569         calculate D2E/DX2 analytically  !
 ! D13   D(8,2,3,4)            -58.9043         calculate D2E/DX2 analytically  !
 ! D14   D(8,2,3,5)             -4.1766         calculate D2E/DX2 analytically  !
 ! D15   D(3,2,7,4)              2.2156         calculate D2E/DX2 analytically  !
 ! D16   D(3,2,7,10)           -59.7234         calculate D2E/DX2 analytically  !
 ! D17   D(6,2,7,4)             36.4807         calculate D2E/DX2 analytically  !
 ! D18   D(6,2,7,10)           -25.4583         calculate D2E/DX2 analytically  !
 ! D19   D(9,2,7,4)             61.132          calculate D2E/DX2 analytically  !
 ! D20   D(9,2,7,10)            -0.807          calculate D2E/DX2 analytically  !
 ! D21   D(1,2,8,10)           -32.8134         calculate D2E/DX2 analytically  !
 ! D22   D(3,2,8,10)            25.9772         calculate D2E/DX2 analytically  !
 ! D23   D(6,2,8,10)            81.8784         calculate D2E/DX2 analytically  !
 ! D24   D(1,2,9,5)             -0.2582         calculate D2E/DX2 analytically  !
 ! D25   D(1,2,9,10)            60.458          calculate D2E/DX2 analytically  !
 ! D26   D(7,2,9,5)            -59.9137         calculate D2E/DX2 analytically  !
 ! D27   D(7,2,9,10)             0.8024         calculate D2E/DX2 analytically  !
 ! D28   D(2,3,4,7)              2.1556         calculate D2E/DX2 analytically  !
 ! D29   D(2,3,4,10)            60.8775         calculate D2E/DX2 analytically  !
 ! D30   D(6,3,4,7)            -29.2263         calculate D2E/DX2 analytically  !
 ! D31   D(6,3,4,10)            29.4956         calculate D2E/DX2 analytically  !
 ! D32   D(9,3,4,7)            -57.9823         calculate D2E/DX2 analytically  !
 ! D33   D(9,3,4,10)             0.7396         calculate D2E/DX2 analytically  !
 ! D34   D(1,3,5,10)            39.1579         calculate D2E/DX2 analytically  !
 ! D35   D(2,3,5,10)           -20.2646         calculate D2E/DX2 analytically  !
 ! D36   D(6,3,5,10)           -76.4912         calculate D2E/DX2 analytically  !
 ! D37   D(1,3,9,8)              4.6581         calculate D2E/DX2 analytically  !
 ! D38   D(1,3,9,10)           -57.0184         calculate D2E/DX2 analytically  !
 ! D39   D(4,3,9,8)             60.9141         calculate D2E/DX2 analytically  !
 ! D40   D(4,3,9,10)            -0.7624         calculate D2E/DX2 analytically  !
 ! D41   D(1,4,5,9)            -48.2645         calculate D2E/DX2 analytically  !
 ! D42   D(7,4,5,9)             18.385          calculate D2E/DX2 analytically  !
 ! D43   D(3,4,7,2)             -2.3826         calculate D2E/DX2 analytically  !
 ! D44   D(3,4,7,8)             56.0387         calculate D2E/DX2 analytically  !
 ! D45   D(5,4,7,2)            -59.8339         calculate D2E/DX2 analytically  !
 ! D46   D(5,4,7,8)             -1.4126         calculate D2E/DX2 analytically  !
 ! D47   D(1,4,10,8)            -0.4227         calculate D2E/DX2 analytically  !
 ! D48   D(1,4,10,9)            54.8819         calculate D2E/DX2 analytically  !
 ! D49   D(3,4,10,8)           -56.1033         calculate D2E/DX2 analytically  !
 ! D50   D(3,4,10,9)            -0.7986         calculate D2E/DX2 analytically  !
 ! D51   D(4,5,9,2)             25.7787         calculate D2E/DX2 analytically  !
 ! D52   D(4,5,9,6)             83.3031         calculate D2E/DX2 analytically  !
 ! D53   D(4,5,9,8)            -36.222          calculate D2E/DX2 analytically  !
 ! D54   D(3,5,10,7)           -19.9945         calculate D2E/DX2 analytically  !
 ! D55   D(3,5,10,8)            41.7967         calculate D2E/DX2 analytically  !
 ! D56   D(1,7,8,9)             47.6922         calculate D2E/DX2 analytically  !
 ! D57   D(4,7,8,9)            -16.4773         calculate D2E/DX2 analytically  !
 ! D58   D(1,7,10,5)            -0.4352         calculate D2E/DX2 analytically  !
 ! D59   D(1,7,10,9)           -56.4567         calculate D2E/DX2 analytically  !
 ! D60   D(2,7,10,5)            56.9008         calculate D2E/DX2 analytically  !
 ! D61   D(2,7,10,9)             0.8793         calculate D2E/DX2 analytically  !
 ! D62   D(7,8,9,3)            -28.4694         calculate D2E/DX2 analytically  !
 ! D63   D(7,8,9,5)             34.6968         calculate D2E/DX2 analytically  !
 ! D64   D(7,8,9,6)            -86.1964         calculate D2E/DX2 analytically  !
 ! D65   D(2,8,10,4)            16.894          calculate D2E/DX2 analytically  !
 ! D66   D(2,8,10,5)           -43.9465         calculate D2E/DX2 analytically  !
 ! D67   D(2,9,10,4)           -60.3997         calculate D2E/DX2 analytically  !
 ! D68   D(2,9,10,7)            -0.7996         calculate D2E/DX2 analytically  !
 ! D69   D(3,9,10,4)             0.7588         calculate D2E/DX2 analytically  !
 ! D70   D(3,9,10,7)            60.3588         calculate D2E/DX2 analytically  !
 ! D71   D(6,9,10,4)           -32.5494         calculate D2E/DX2 analytically  !
 ! D72   D(6,9,10,7)            27.0506         calculate D2E/DX2 analytically  !
 --------------------------------------------------------------------------------
 Trust Radius=3.00D-01 FncErr=1.00D-07 GrdErr=1.00D-06
 Number of steps in this run= 100 maximum allowed number of steps= 100.
 GradGradGradGradGradGradGradGradGradGradGradGradGradGradGradGradGradGrad

                          Input orientation:                          
 ---------------------------------------------------------------------
 Center     Atomic     Atomic              Coordinates (Angstroms)
 Number     Number      Type              X           Y           Z
 ---------------------------------------------------------------------
    1         14             0       -1.426117   -1.414932   -1.250279
    2         14             0       -0.101226   -1.679317    0.792962
    3         14             0        0.831218   -0.620670   -1.623796
    4         14             0       -1.149819    1.059234   -1.459599
    5         14             0        1.193186    1.816133   -1.283563
    6         14             0        2.148063   -1.694970    0.042808
    7         14             0       -1.891128    0.110386    0.787488
    8         14             0       -0.082818    0.148685    2.493221
    9         14             0        1.624899    0.481122    0.751142
   10         14             0       -0.320517    2.087091    0.784635
 ---------------------------------------------------------------------
                    Distance matrix (angstroms):
                    1          2          3          4          5
     1  Si   0.000000
     2  Si   2.449504   0.000000
     3  Si   2.421968   2.798375   0.000000
     4  Si   2.498330   3.697734   2.602604   0.000000
     5  Si   4.159524   4.266806   2.486923   2.468513   0.000000
     6  Si   3.811202   2.371134   2.380288   4.551801   3.872841
     7  Si   2.587533   2.531169   3.709434   2.549363   4.088009
     8  Si   4.273540   2.496560   4.286863   4.194327   4.321188
     9  Si   4.112105   2.765638   2.735728   3.594530   2.471569
    10  Si   4.198499   3.772796   3.802500   2.604000   2.577238
                    6          7          8          9         10
     6  Si   0.000000
     7  Si   4.486527   0.000000
     8  Si   3.792152   2.486157   0.000000
     9  Si   2.347512   3.535705   2.462042   0.000000
    10  Si   4.576918   2.524716   2.594838   2.522876   0.000000
 Stoichiometry    Si10
 Framework group  C1[X(Si10)]
 Deg. of freedom    24
 Full point group                 C1
 Largest Abelian subgroup         C1      NOp   1
 Largest concise Abelian subgroup C1      NOp   1
                         Standard orientation:                         
 ---------------------------------------------------------------------
 Center     Atomic     Atomic              Coordinates (Angstroms)
 Number     Number      Type              X           Y           Z
 ---------------------------------------------------------------------
    1         14             0        0.321763   -0.977654    2.207830
    2         14             0        1.249551    0.965648    1.040417
    3         14             0        1.016148   -1.611787   -0.024127
    4         14             0       -1.510921   -1.450628    0.577119
    5         14             0       -0.753200   -1.543118   -1.770404
    6         14             0        2.606155    0.038066   -0.668821
    7         14             0       -1.248824    0.932033    1.445153
    8         14             0       -0.271534    2.471132   -0.245130
    9         14             0        0.516562    0.570229   -1.596840
   10         14             0       -1.925699    0.606078   -0.965196
 ---------------------------------------------------------------------
 Rotational constants (GHZ):      0.5619904      0.5400261      0.5222517
 Standard basis: LANL2DZ (5D, 7F)
 There are    80 symmetry adapted basis functions of A   symmetry.
 Integral buffers will be    131072 words long.
 Raffenetti 2 integral format.
 Two-electron integral symmetry is turned on.
    80 basis functions,   120 primitive gaussians,    80 cartesian basis functions
    20 alpha electrons       20 beta electrons
       nuclear repulsion energy       124.5867661906 Hartrees.
 NAtoms=   10 NActive=   10 NUniq=   10 SFac= 7.50D-01 NAtFMM=   80 NAOKFM=F Big=F
 One-electron integrals computed using PRISM.
   1 Symmetry operations used in ECPInt.
 ECPInt:  NShTT=     820 NPrTT=    1850 LenC2=     821 LenP2D=    1805.
 LDataN:  DoStor=F MaxTD1= 3 Len=   28
 LDataN:  DoStor=T MaxTD1= 3 Len=   28
 NBasis=    80 RedAO= T  NBF=    80
 NBsUse=    80 1.00D-06 NBFU=    80
 Harris functional with IExCor=  402 diagonalized for initial guess.
 ExpMin= 8.85D-02 ExpMax= 2.58D+00 ExpMxC= 2.58D+00 IAcc=2 IRadAn=         4 AccDes= 0.00D+00
 HarFok:  IExCor= 402 AccDes= 0.00D+00 IRadAn=         4 IDoV=1
 ScaDFX=  1.000000  1.000000  1.000000  1.000000
 Initial guess orbital symmetries:
       Occupied  (A) (A) (A) (A) (A) (A) (A) (A) (A) (A) (A) (A)
                 (A) (A) (A) (A) (A) (A) (A) (A)
       Virtual   (A) (A) (A) (A) (A) (A) (A) (A) (A) (A) (A) (A)
                 (A) (A) (A) (A) (A) (A) (A) (A) (A) (A) (A) (A)
                 (A) (A) (A) (A) (A) (A) (A) (A) (A) (A) (A) (A)
                 (A) (A) (A) (A) (A) (A) (A) (A) (A) (A) (A) (A)
                 (A) (A) (A) (A) (A) (A) (A) (A) (A) (A) (A) (A)
 The electronic state of the initial guess is 1-A.
 Requested convergence on RMS density matrix=1.00D-08 within 128 cycles.
 Requested convergence on MAX density matrix=1.00D-06.
 Requested convergence on             energy=1.00D-06.
 No special actions if energy rises.
 Keep R1 integrals in memory in canonical form, NReq=     7071638.
 Integral accuracy reduced to 1.0D-05 until final iterations.
 Initial convergence to 1.0D-05 achieved.  Increase integral accuracy.
 SCF Done:  E(RB+HF-LYP) =  -38.5655295273     A.U. after   19 cycles
             Convg  =    0.1978D-08             -V/T =  3.5500
             S**2   =   0.0000
 QCSCF skips out because SCF is already converged.
 Range of M.O.s used for correlation:     1    80
 NBasis=    80 NAE=    20 NBE=    20 NFC=     0 NFV=     0
 NROrb=     80 NOA=    20 NOB=    20 NVA=    60 NVB=    60

 **** Warning!!: The smallest alpha delta epsilon is  0.99149827D-01

   1 Symmetry operations used in ECPInt.
 ECPInt:  NShTT=     820 NPrTT=    1850 LenC2=     821 LenP2D=    1805.
 LDataN:  DoStor=F MaxTD1= 4 Len=   56
 LDataN:  DoStor=T MaxTD1= 4 Len=   56
 Symmetrizing basis deriv contribution to polar:
 IMax=3 JMax=2 DiffMx= 0.00D+00
 G2DrvN: will do   11 centers at a time, making    1 passes doing MaxLOS=1.
 FoFDir/FoFCou used for L=0 through L=1.
 DoAtom=TTTTTTTTTT
          Differentiating once with respect to electric field.
                with respect to dipole field.
          Differentiating once with respect to nuclear coordinates.
          Store integrals in memory, NReq=     6053207.
          There are  33 degrees of freedom in the 1st order CPHF.
    30 vectors were produced by pass  0.
 AX will form  30 AO Fock derivatives at one time.
    30 vectors were produced by pass  1.
    30 vectors were produced by pass  2.
    30 vectors were produced by pass  3.
    30 vectors were produced by pass  4.
    30 vectors were produced by pass  5.
    27 vectors were produced by pass  6.
     3 vectors were produced by pass  7.
     3 vectors were produced by pass  8.
 Inv2:  IOpt= 1 Iter= 1 AM= 1.94D-15 Conv= 1.00D-12.
 Inverted reduced A of dimension  213 with in-core refinement.
 Isotropic polarizability for W=    0.000000      285.24 Bohr**3.
 End of Minotr Frequency-dependent properties file   721 does not exist.

 **********************************************************************

            Population analysis using the SCF density.

 **********************************************************************

 Orbital symmetries:
       Occupied  (A) (A) (A) (A) (A) (A) (A) (A) (A) (A) (A) (A)
                 (A) (A) (A) (A) (A) (A) (A) (A)
       Virtual   (A) (A) (A) (A) (A) (A) (A) (A) (A) (A) (A) (A)
                 (A) (A) (A) (A) (A) (A) (A) (A) (A) (A) (A) (A)
                 (A) (A) (A) (A) (A) (A) (A) (A) (A) (A) (A) (A)
                 (A) (A) (A) (A) (A) (A) (A) (A) (A) (A) (A) (A)
                 (A) (A) (A) (A) (A) (A) (A) (A) (A) (A) (A) (A)
 The electronic state is 1-A.
 Alpha  occ. eigenvalues --   -0.75436  -0.63991  -0.63059  -0.62379  -0.49383
 Alpha  occ. eigenvalues --   -0.46775  -0.46311  -0.45100  -0.44448  -0.38151
 Alpha  occ. eigenvalues --   -0.30824  -0.30521  -0.29242  -0.28929  -0.28393
 Alpha  occ. eigenvalues --   -0.27731  -0.27104  -0.26232  -0.25963  -0.25037
 Alpha virt. eigenvalues --   -0.15122  -0.13451  -0.12597  -0.07691  -0.07369
 Alpha virt. eigenvalues --   -0.06693  -0.06239  -0.05365  -0.05077  -0.04591
 Alpha virt. eigenvalues --   -0.04099  -0.03264  -0.00877   0.00297   0.02938
 Alpha virt. eigenvalues --    0.05362   0.05602   0.06271   0.07108   0.07916
 Alpha virt. eigenvalues --    0.27166   0.27232   0.27474   0.27679   0.27959
 Alpha virt. eigenvalues --    0.28235   0.29217   0.29734   0.30314   0.30758
 Alpha virt. eigenvalues --    0.30887   0.31134   0.31491   0.31755   0.31967
 Alpha virt. eigenvalues --    0.34868   0.35303   0.35936   0.36174   0.36707
 Alpha virt. eigenvalues --    0.37153   0.38066   0.40504   0.40791   0.40991
 Alpha virt. eigenvalues --    0.42638   0.42903   0.43248   0.43514   0.44019
 Alpha virt. eigenvalues --    8.45951  11.44024  11.49107  12.21726  12.33145
 Alpha virt. eigenvalues --   12.62362  12.91463  13.05685  13.26001  13.45635
          Condensed to atoms (all electrons):
              1          2          3          4          5          6
     1  Si   3.917095   0.032929   0.009115   0.035835  -0.024130  -0.050121
     2  Si   0.032929   4.384566  -0.087517  -0.050464  -0.021728   0.080084
     3  Si   0.009115  -0.087517   4.379752  -0.032088   0.030632   0.092633
     4  Si   0.035835  -0.050464  -0.032088   4.176960   0.018009  -0.009577
     5  Si  -0.024130  -0.021728   0.030632   0.018009   3.903992  -0.040802
     6  Si  -0.050121   0.080084   0.092633  -0.009577  -0.040802   3.672291
     7  Si   0.029493  -0.036379  -0.046787  -0.016253  -0.030730  -0.011459
     8  Si  -0.017327   0.030520  -0.020763  -0.026227  -0.015938  -0.048121
     9  Si  -0.026321  -0.119503  -0.117260  -0.055035   0.032793   0.086401
    10  Si  -0.021810  -0.048597  -0.045318  -0.019161   0.029305  -0.007197
              7          8          9         10
     1  Si   0.029493  -0.017327  -0.026321  -0.021810
     2  Si  -0.036379   0.030520  -0.119503  -0.048597
     3  Si  -0.046787  -0.020763  -0.117260  -0.045318
     4  Si  -0.016253  -0.026227  -0.055035  -0.019161
     5  Si  -0.030730  -0.015938   0.032793   0.029305
     6  Si  -0.011459  -0.048121   0.086401  -0.007197
     7  Si   4.220308   0.029023  -0.062061  -0.031551
     8  Si   0.029023   3.887875   0.018563   0.030328
     9  Si  -0.062061   0.018563   4.497889  -0.026898
    10  Si  -0.031551   0.030328  -0.026898   4.122194
 Mulliken atomic charges:
              1
     1  Si   0.115243
     2  Si  -0.163911
     3  Si  -0.162398
     4  Si  -0.021997
     5  Si   0.118598
     6  Si   0.235867
     7  Si  -0.043603
     8  Si   0.132068
     9  Si  -0.228568
    10  Si   0.018703
 Sum of Mulliken charges=   0.00000
 Atomic charges with hydrogens summed into heavy atoms:
              1
     1  Si   0.115243
     2  Si  -0.163911
     3  Si  -0.162398
     4  Si  -0.021997
     5  Si   0.118598
     6  Si   0.235867
     7  Si  -0.043603
     8  Si   0.132068
     9  Si  -0.228568
    10  Si   0.018703
 Sum of Mulliken charges=   0.00000
 APT atomic charges:
              1
     1  Si   0.097339
     2  Si  -0.125925
     3  Si  -0.126538
     4  Si  -0.040829
     5  Si   0.095887
     6  Si   0.178991
     7  Si  -0.068897
     8  Si   0.119962
     9  Si  -0.139041
    10  Si   0.009051
 Sum of APT charges=   0.00000
 APT Atomic charges with hydrogens summed into heavy atoms:
              1
     1  Si   0.097339
     2  Si  -0.125925
     3  Si  -0.126538
     4  Si  -0.040829
     5  Si   0.095887
     6  Si   0.178991
     7  Si  -0.068897
     8  Si   0.119962
     9  Si  -0.139041
    10  Si   0.009051
 Sum of APT charges=   0.00000
 Electronic spatial extent (au):  <R**2>=  1001.3671
 Charge=     0.0000 electrons
 Dipole moment (field-independent basis, Debye):
    X=     1.0966    Y=     0.1238    Z=    -0.4751  Tot=     1.2015
 Quadrupole moment (field-independent basis, Debye-Ang):
   XX=  -122.5159   YY=  -128.8204   ZZ=  -133.1420
   XY=     0.2144   XZ=    -0.5609   YZ=    -0.1301
 Traceless Quadrupole moment (field-independent basis, Debye-Ang):
   XX=     5.6435   YY=    -0.6609   ZZ=    -4.9826
   XY=     0.2144   XZ=    -0.5609   YZ=    -0.1301
 Octapole moment (field-independent basis, Debye-Ang**2):
  XXX=    11.3704  YYY=    -1.5604  ZZZ=    -7.9457  XYY=     6.0709
  XXY=    -0.1964  XXZ=     0.2032  XZZ=     7.0100  YZZ=     3.5722
  YYZ=    -0.4584  XYZ=     1.0709
 Hexadecapole moment (field-independent basis, Debye-Ang**3):
 XXXX= -1525.3038 YYYY= -1520.9056 ZZZZ= -1487.6153 XXXY=     2.1626
 XXXZ=   -14.1046 YYYX=    -4.4758 YYYZ=     0.6025 ZZZX=    -0.6775
 ZZZY=    -3.7203 XXYY=  -519.4576 XXZZ=  -511.2044 YYZZ=  -504.3083
 XXYZ=     1.7078 YYXZ=     2.4242 ZZXY=     5.1414
 N-N= 1.245867661906D+02 E-N=-3.185259369562D+02  KE= 1.512391483228D+01
  Exact polarizability: 294.857   0.926 284.251  -1.831   0.079 276.602
 Approx polarizability:1138.625  13.1121071.974 -16.237   0.2361004.000
   1 Symmetry operations used in ECPInt.
 ECPInt:  NShTT=     820 NPrTT=    1850 LenC2=     821 LenP2D=    1850.
 LDataN:  DoStor=F MaxTD1= 5 Len=  102
 LDataN:  DoStor=T MaxTD1= 5 Len=  102
 ***** Axes restored to original set *****
 -------------------------------------------------------------------
 Center     Atomic                   Forces (Hartrees/Bohr)
 Number     Number              X              Y              Z
 -------------------------------------------------------------------
    1         14          -0.019842486   -0.019131847   -0.010667595
    2         14          -0.003124720   -0.025517480    0.010989412
    3         14           0.010162826   -0.006692538   -0.024074674
    4         14          -0.015877279    0.011457838   -0.019143521
    5         14           0.019250320    0.011777307   -0.009632426
    6         14           0.011791005   -0.005858745   -0.000355930
    7         14          -0.038469129   -0.004553300    0.009673567
    8         14           0.003018278   -0.001612582    0.017687588
    9         14           0.032910912    0.014833864    0.015917481
   10         14           0.000180273    0.025297483    0.009606099
 -------------------------------------------------------------------
 Cartesian Forces:  Max     0.038469129 RMS     0.016447723

 GradGradGradGradGradGradGradGradGradGradGradGradGradGradGradGradGradGrad
 Berny optimization.
 Internal  Forces:  Max     0.015821897 RMS     0.004245838
 Search for a local minimum.
 Step number   1 out of a maximum of 100
 All quantities printed in internal units (Hartrees-Bohrs-Radians)
 Second derivative matrix not updated -- analytic derivatives used.
     Eigenvalues ---    0.00402   0.00571   0.00817   0.00964   0.01049
     Eigenvalues ---    0.01467   0.01981   0.02027   0.02125   0.02244
     Eigenvalues ---    0.02345   0.02564   0.03195   0.03641   0.03663
     Eigenvalues ---    0.03947   0.04265   0.04490   0.05465   0.05683
     Eigenvalues ---    0.05914   0.06080   0.06785   0.074571000.00000
     Eigenvalues --- 1000.000001000.000001000.000001000.000001000.00000
     Eigenvalues --- 1000.000001000.000001000.000001000.000001000.00000
     Eigenvalues --- 1000.000001000.000001000.000001000.000001000.00000
     Eigenvalues --- 1000.000001000.000001000.000001000.000001000.00000
     Eigenvalues --- 1000.000001000.000001000.000001000.000001000.00000
     Eigenvalues --- 1000.000001000.000001000.000001000.000001000.00000
     Eigenvalues --- 1000.000001000.000001000.000001000.000001000.00000
     Eigenvalues --- 1000.000001000.000001000.000001000.000001000.00000
     Eigenvalues --- 1000.000001000.000001000.000001000.000001000.00000
     Eigenvalues --- 1000.000001000.000001000.000001000.000001000.00000
     Eigenvalues --- 1000.000001000.000001000.000001000.000001000.00000
     Eigenvalues --- 1000.000001000.000001000.000001000.000001000.00000
     Eigenvalues --- 1000.000001000.000001000.000001000.000001000.00000
     Eigenvalues --- 1000.000001000.000001000.000001000.000001000.00000
     Eigenvalues --- 1000.000001000.000001000.000001000.000001000.00000
     Eigenvalues --- 1000.000001000.000001000.000001000.000001000.00000
     Eigenvalues --- 1000.000001000.000001000.000001000.000001000.00000
     Eigenvalues --- 1000.000001000.000001000.000001000.000001000.00000
     Eigenvalues --- 1000.000001000.000001000.000001000.000001000.00000
     Eigenvalues --- 1000.000001000.000001000.000001000.000001000.00000
     Eigenvalues --- 1000.000001000.000001000.000001000.000001000.00000
     Eigenvalues --- 1000.000001000.000001000.000001000.000001000.00000
     Eigenvalues --- 1000.000001000.000001000.000001000.000001000.00000
     Eigenvalues --- 1000.00000
 RFO step:  Lambda=-3.25890366D-02.
 Linear search not attempted -- first point.
 Maximum step size (   0.300) exceeded in Quadratic search.
    -- Step size scaled by   0.457
 Iteration  1 RMS(Cart)=  0.01411751 RMS(Int)=  0.00010326
 Iteration  2 RMS(Cart)=  0.00005234 RMS(Int)=  0.00007491
 Iteration  3 RMS(Cart)=  0.00000000 RMS(Int)=  0.00007491
 Variable       Old X    -DE/DX   Delta X   Delta X   Delta X     New X
                                 (Linear)    (Quad)   (Total)
    R1        4.62889   0.00960   0.00000   0.04745   0.04739   4.67628
    R2        4.57686   0.01402   0.00000   0.06385   0.06386   4.64072
    R3        4.72116   0.00993   0.00000   0.06137   0.06135   4.78251
    R4        4.88973   0.00872   0.00000   0.05689   0.05690   4.94663
    R5        5.28816   0.00759   0.00000   0.06014   0.06002   5.34818
    R6        4.48079   0.00819   0.00000   0.03524   0.03520   4.51599
    R7        4.78322   0.01172   0.00000   0.06858   0.06869   4.85191
    R8        4.71781   0.00557   0.00000   0.03358   0.03334   4.75115
    R9        5.22630   0.01450   0.00000   0.09667   0.09676   5.32306
   R10        4.91821   0.00832   0.00000   0.04815   0.04803   4.96624
   R11        4.69960   0.00688   0.00000   0.03691   0.03681   4.73642
   R12        4.49809   0.00591   0.00000   0.02945   0.02934   4.52743
   R13        5.16978   0.01200   0.00000   0.08929   0.08947   5.25924
   R14        4.66481   0.01377   0.00000   0.07383   0.07390   4.73871
   R15        4.81760   0.01080   0.00000   0.06850   0.06861   4.88621
   R16        4.92085   0.01000   0.00000   0.05702   0.05688   4.97773
   R17        4.67059   0.00661   0.00000   0.03802   0.03804   4.70862
   R18        4.87027   0.00829   0.00000   0.05586   0.05581   4.92609
   R19        4.43616   0.00469   0.00000   0.03212   0.03218   4.46834
   R20        4.69816   0.01173   0.00000   0.06871   0.06892   4.76707
   R21        4.77102   0.01582   0.00000   0.08508   0.08521   4.85623
   R22        4.65259   0.00795   0.00000   0.04543   0.04555   4.69813
   R23        4.90353   0.00567   0.00000   0.04027   0.04001   4.94354
   R24        4.76754   0.00968   0.00000   0.05798   0.05809   4.82563
    A1        1.68803  -0.00119   0.00000  -0.00274  -0.00275   1.68528
    A2        1.66658  -0.00007   0.00000   0.00401   0.00398   1.67055
    A3        1.82338   0.00136   0.00000   0.00036   0.00038   1.82375
    A4        2.08638  -0.00002   0.00000   0.00131   0.00130   2.08769
    A5        1.81384   0.00201   0.00000   0.00802   0.00797   1.82180
    A6        1.53706   0.00090   0.00000   0.00357   0.00355   1.54061
    A7        1.88463  -0.00068   0.00000  -0.00396  -0.00395   1.88069
    A8        2.31148   0.00066   0.00000  -0.00040  -0.00042   2.31106
    A9        1.78575  -0.00126   0.00000  -0.00763  -0.00762   1.77813
   A10        1.45955   0.00227   0.00000   0.01011   0.01003   1.46958
   A11        2.02182   0.00126   0.00000   0.00808   0.00803   2.02985
   A12        1.83344   0.00073   0.00000  -0.00280  -0.00275   1.83068
   A13        1.84273   0.00154   0.00000   0.00563   0.00556   1.84828
   A14        1.50682   0.00001   0.00000  -0.00040  -0.00040   1.50642
   A15        1.87657   0.00035   0.00000  -0.00036  -0.00038   1.87619
   A16        2.30265   0.00010   0.00000  -0.00473  -0.00473   2.29792
   A17        1.47676   0.00128   0.00000   0.00449   0.00445   1.48121
   A18        1.83996  -0.00151   0.00000  -0.01063  -0.01062   1.82934
   A19        1.98521   0.00036   0.00000  -0.00314  -0.00312   1.98209
   A20        1.93255   0.00028   0.00000  -0.00083  -0.00083   1.93172
   A21        1.60751   0.00081   0.00000   0.00535   0.00532   1.61283
   A22        1.63759  -0.00099   0.00000  -0.00205  -0.00205   1.63554
   A23        1.90420   0.00076   0.00000   0.00339   0.00337   1.90757
   A24        1.69846  -0.00042   0.00000   0.00003  -0.00002   1.69844
   A25        1.62971   0.00115   0.00000   0.00895   0.00889   1.63860
   A26        2.00280  -0.00161   0.00000  -0.01264  -0.01258   1.99022
   A27        1.92714  -0.00108   0.00000  -0.00775  -0.00772   1.91941
   A28        1.63028  -0.00167   0.00000  -0.00817  -0.00813   1.62214
   A29        1.68473  -0.00291   0.00000  -0.01318  -0.01307   1.67165
   A30        1.96872  -0.00311   0.00000  -0.01679  -0.01667   1.95205
   A31        1.66882   0.00092   0.00000   0.00556   0.00555   1.67437
   A32        1.59192   0.00365   0.00000   0.02049   0.02039   1.61231
   A33        1.90221  -0.00163   0.00000  -0.01160  -0.01153   1.89068
   A34        1.58659  -0.00173   0.00000  -0.01104  -0.01098   1.57560
   A35        1.93762  -0.00282   0.00000  -0.01698  -0.01688   1.92073
   A36        1.61499  -0.00165   0.00000  -0.01087  -0.01082   1.60417
   A37        1.86631  -0.00116   0.00000  -0.01224  -0.01229   1.85402
   A38        2.13446  -0.00134   0.00000  -0.00525  -0.00541   2.12905
   A39        1.81617  -0.00105   0.00000  -0.01063  -0.01070   1.80546
   A40        2.44329  -0.00231   0.00000  -0.02069  -0.02062   2.42267
   A41        1.87737  -0.00071   0.00000  -0.00291  -0.00288   1.87449
   A42        1.55367   0.00137   0.00000   0.00852   0.00850   1.56217
   A43        1.85873   0.00097   0.00000   0.00431   0.00430   1.86303
   A44        1.97802  -0.00072   0.00000  -0.00709  -0.00704   1.97098
   A45        1.55212   0.00239   0.00000   0.01423   0.01413   1.56625
    D1       -1.40984   0.00170   0.00000   0.00827   0.00824  -1.40161
    D2        0.57189   0.00109   0.00000  -0.00043  -0.00044   0.57145
    D3       -0.44019   0.00062   0.00000   0.00090   0.00089  -0.43931
    D4       -0.67239   0.00050   0.00000   0.00867   0.00868  -0.66370
    D5        1.34975  -0.00021   0.00000  -0.00199  -0.00200   1.34775
    D6        0.36803   0.00048   0.00000   0.00472   0.00473   0.37276
    D7        0.86903  -0.00150   0.00000  -0.00419  -0.00414   0.86489
    D8       -0.29047  -0.00069   0.00000  -0.00058  -0.00057  -0.29104
    D9       -0.81926   0.00178   0.00000   0.00611   0.00600  -0.81327
   D10        0.36897  -0.00133   0.00000  -0.01025  -0.01012   0.35885
   D11       -0.03789   0.00067   0.00000   0.00444   0.00441  -0.03348
   D12        0.91729   0.00222   0.00000   0.01276   0.01270   0.92999
   D13       -1.02807  -0.00069   0.00000  -0.00270  -0.00267  -1.03075
   D14       -0.07290   0.00086   0.00000   0.00562   0.00562  -0.06727
   D15        0.03867  -0.00071   0.00000  -0.00473  -0.00467   0.03400
   D16       -1.04237   0.00036   0.00000   0.00146   0.00143  -1.04094
   D17        0.63671  -0.00062   0.00000  -0.00591  -0.00580   0.63090
   D18       -0.44433   0.00045   0.00000   0.00028   0.00029  -0.44404
   D19        1.06696  -0.00048   0.00000  -0.00208  -0.00204   1.06491
   D20       -0.01408   0.00059   0.00000   0.00411   0.00406  -0.01003
   D21       -0.57270  -0.00139   0.00000  -0.00031  -0.00031  -0.57301
   D22        0.45339   0.00000   0.00000   0.00147   0.00147   0.45485
   D23        1.42905  -0.00061   0.00000  -0.00473  -0.00469   1.42436
   D24       -0.00451  -0.00053   0.00000  -0.00301  -0.00299  -0.00750
   D25        1.05519  -0.00095   0.00000  -0.00364  -0.00359   1.05161
   D26       -1.04569  -0.00014   0.00000  -0.00336  -0.00337  -1.04907
   D27        0.01401  -0.00056   0.00000  -0.00398  -0.00397   0.01004
   D28        0.03762  -0.00065   0.00000  -0.00439  -0.00437   0.03326
   D29        1.06251   0.00072   0.00000   0.00152   0.00149   1.06400
   D30       -0.51010  -0.00146   0.00000  -0.00680  -0.00678  -0.51688
   D31        0.51480  -0.00008   0.00000  -0.00089  -0.00093   0.51387
   D32       -1.01198  -0.00169   0.00000  -0.00933  -0.00923  -1.02121
   D33        0.01291  -0.00031   0.00000  -0.00342  -0.00337   0.00954
   D34        0.68343  -0.00058   0.00000  -0.00967  -0.00966   0.67378
   D35       -0.35368  -0.00092   0.00000  -0.00780  -0.00777  -0.36146
   D36       -1.33502  -0.00114   0.00000  -0.00344  -0.00341  -1.33843
   D37        0.08130  -0.00069   0.00000  -0.00387  -0.00385   0.07745
   D38       -0.99516   0.00049   0.00000   0.00165   0.00160  -0.99356
   D39        1.06315  -0.00086   0.00000  -0.00199  -0.00197   1.06118
   D40       -0.01331   0.00032   0.00000   0.00353   0.00348  -0.00982
   D41       -0.84237  -0.00016   0.00000  -0.00396  -0.00399  -0.84636
   D42        0.32088  -0.00036   0.00000  -0.00608  -0.00610   0.31478
   D43       -0.04158   0.00077   0.00000   0.00500   0.00495  -0.03663
   D44        0.97806  -0.00104   0.00000  -0.00486  -0.00476   0.97330
   D45       -1.04430   0.00154   0.00000   0.00912   0.00903  -1.03527
   D46       -0.02465  -0.00026   0.00000  -0.00074  -0.00068  -0.02534
   D47       -0.00738   0.00039   0.00000   0.00236   0.00234  -0.00504
   D48        0.95787   0.00126   0.00000   0.00608   0.00603   0.96390
   D49       -0.97919  -0.00054   0.00000  -0.00011  -0.00010  -0.97929
   D50       -0.01394   0.00033   0.00000   0.00361   0.00359  -0.01035
   D51        0.44992  -0.00018   0.00000   0.00247   0.00247   0.45240
   D52        1.45391  -0.00113   0.00000  -0.00990  -0.00976   1.44415
   D53       -0.63219   0.00231   0.00000   0.01947   0.01934  -0.61285
   D54       -0.34897  -0.00004   0.00000   0.00371   0.00375  -0.34522
   D55        0.72949   0.00060   0.00000   0.00668   0.00665   0.73614
   D56        0.83239  -0.00034   0.00000  -0.00009   0.00002   0.83240
   D57       -0.28758   0.00089   0.00000   0.00804   0.00793  -0.27966
   D58       -0.00760   0.00051   0.00000   0.00280   0.00274  -0.00486
   D59       -0.98535   0.00037   0.00000   0.00282   0.00274  -0.98262
   D60        0.99311  -0.00049   0.00000  -0.00438  -0.00435   0.98876
   D61        0.01535  -0.00063   0.00000  -0.00436  -0.00434   0.01100
   D62       -0.49688   0.00062   0.00000   0.00107   0.00099  -0.49590
   D63        0.60557  -0.00164   0.00000  -0.01587  -0.01582   0.58976
   D64       -1.50441   0.00177   0.00000   0.01372   0.01350  -1.49091
   D65        0.29486   0.00045   0.00000  -0.00162  -0.00161   0.29325
   D66       -0.76701  -0.00052   0.00000  -0.00494  -0.00492  -0.77194
   D67       -1.05417   0.00106   0.00000   0.00457   0.00447  -1.04971
   D68       -0.01396   0.00057   0.00000   0.00401   0.00398  -0.00998
   D69        0.01324  -0.00033   0.00000  -0.00354  -0.00348   0.00976
   D70        1.05346  -0.00081   0.00000  -0.00410  -0.00397   1.04949
   D71       -0.56809   0.00063   0.00000   0.00210   0.00207  -0.56603
   D72        0.47212   0.00014   0.00000   0.00154   0.00158   0.47370
         Item               Value     Threshold  Converged?
 Maximum Force            0.015822     0.000450     NO 
 RMS     Force            0.004246     0.000300     NO 
 Maximum Displacement     0.078397     0.001800     NO 
 RMS     Displacement     0.014122     0.001200     NO 
 Predicted change in Energy=-1.295877D-02
 GradGradGradGradGradGradGradGradGradGradGradGradGradGradGradGradGradGrad

                          Input orientation:                          
 ---------------------------------------------------------------------
 Center     Atomic     Atomic              Coordinates (Angstroms)
 Number     Number      Type              X           Y           Z
 ---------------------------------------------------------------------
    1         14             0       -1.448598   -1.437178   -1.261266
    2         14             0       -0.105116   -1.698052    0.800421
    3         14             0        0.837439   -0.625366   -1.643060
    4         14             0       -1.164931    1.068482   -1.476057
    5         14             0        1.218148    1.827018   -1.292446
    6         14             0        2.160983   -1.697724    0.041638
    7         14             0       -1.932614    0.105386    0.797444
    8         14             0       -0.079289    0.146833    2.508325
    9         14             0        1.660622    0.496409    0.767226
   10         14             0       -0.320902    2.106954    0.792794
 ---------------------------------------------------------------------
                    Distance matrix (angstroms):
                    1          2          3          4          5
     1  Si   0.000000
     2  Si   2.474581   0.000000
     3  Si   2.455763   2.830134   0.000000
     4  Si   2.530798   3.736210   2.628022   0.000000
     5  Si   4.215150   4.307811   2.506403   2.507620   0.000000
     6  Si   3.846364   2.389761   2.395815   4.584430   3.884910
     7  Si   2.617644   2.567518   3.763409   2.585671   4.154390
     8  Si   4.312066   2.514201   4.320958   4.231236   4.353415
     9  Si   4.185784   2.816840   2.783071   3.652853   2.491697
    10  Si   4.248734   3.811128   3.839363   2.634102   2.606772
                    6          7          8          9         10
     6  Si   0.000000
     7  Si   4.536517   0.000000
     8  Si   3.808642   2.522627   0.000000
     9  Si   2.364542   3.614576   2.486146   0.000000
    10  Si   4.604299   2.569808   2.616009   2.553615   0.000000
 Stoichiometry    Si10
 Framework group  C1[X(Si10)]
 Deg. of freedom    24
 Full point group                 C1
 Largest Abelian subgroup         C1      NOp   1
 Largest concise Abelian subgroup C1      NOp   1
                         Standard orientation:                         
 ---------------------------------------------------------------------
 Center     Atomic     Atomic              Coordinates (Angstroms)
 Number     Number      Type              X           Y           Z
 ---------------------------------------------------------------------
    1         14             0        0.278217   -0.980134    2.248677
    2         14             0        1.218550    0.992697    1.087961
    3         14             0        1.047284   -1.616390    0.004911
    4         14             0       -1.521725   -1.487999    0.543620
    5         14             0       -0.674878   -1.565148   -1.815416
    6         14             0        2.633084    0.072956   -0.604412
    7         14             0       -1.323320    0.927681    1.444075
    8         14             0       -0.296305    2.482020   -0.256783
    9         14             0        0.561792    0.589278   -1.621377
   10         14             0       -1.922698    0.585038   -1.031255
 ---------------------------------------------------------------------
 Rotational constants (GHZ):      0.5477473      0.5273414      0.5138693
 Standard basis: LANL2DZ (5D, 7F)
 There are    80 symmetry adapted basis functions of A   symmetry.
 Integral buffers will be    131072 words long.
 Raffenetti 2 integral format.
 Two-electron integral symmetry is turned on.
    80 basis functions,   120 primitive gaussians,    80 cartesian basis functions
    20 alpha electrons       20 beta electrons
       nuclear repulsion energy       123.1876632305 Hartrees.
 NAtoms=   10 NActive=   10 NUniq=   10 SFac= 7.50D-01 NAtFMM=   80 NAOKFM=F Big=F
 One-electron integrals computed using PRISM.
   1 Symmetry operations used in ECPInt.
 ECPInt:  NShTT=     820 NPrTT=    1850 LenC2=     821 LenP2D=    1805.
 LDataN:  DoStor=F MaxTD1= 3 Len=   28
 LDataN:  DoStor=T MaxTD1= 3 Len=   28
 NBasis=    80 RedAO= T  NBF=    80
 NBsUse=    80 1.00D-06 NBFU=    80
 Initial guess read from the read-write file:
 Initial guess orbital symmetries:
       Occupied  (A) (A) (A) (A) (A) (A) (A) (A) (A) (A) (A) (A)
                 (A) (A) (A) (A) (A) (A) (A) (A)
       Virtual   (A) (A) (A) (A) (A) (A) (A) (A) (A) (A) (A) (A)
                 (A) (A) (A) (A) (A) (A) (A) (A) (A) (A) (A) (A)
                 (A) (A) (A) (A) (A) (A) (A) (A) (A) (A) (A) (A)
                 (A) (A) (A) (A) (A) (A) (A) (A) (A) (A) (A) (A)
                 (A) (A) (A) (A) (A) (A) (A) (A) (A) (A) (A) (A)
 Harris functional with IExCor=  402 diagonalized for initial guess.
 ExpMin= 8.85D-02 ExpMax= 2.58D+00 ExpMxC= 2.58D+00 IAcc=2 IRadAn=         4 AccDes= 0.00D+00
 HarFok:  IExCor= 402 AccDes= 0.00D+00 IRadAn=         4 IDoV=1
 ScaDFX=  1.000000  1.000000  1.000000  1.000000
 Requested convergence on RMS density matrix=1.00D-08 within 128 cycles.
 Requested convergence on MAX density matrix=1.00D-06.
 Requested convergence on             energy=1.00D-06.
 No special actions if energy rises.
 Keep R1 integrals in memory in canonical form, NReq=     7071638.
 Integral accuracy reduced to 1.0D-05 until final iterations.
 Initial convergence to 1.0D-05 achieved.  Increase integral accuracy.
 SCF Done:  E(RB+HF-LYP) =  -38.5785609788     A.U. after   18 cycles
             Convg  =    0.5629D-08             -V/T =  3.5776
             S**2   =   0.0000
 QCSCF skips out because SCF is already converged.
 Range of M.O.s used for correlation:     1    80
 NBasis=    80 NAE=    20 NBE=    20 NFC=     0 NFV=     0
 NROrb=     80 NOA=    20 NOB=    20 NVA=    60 NVB=    60
   1 Symmetry operations used in ECPInt.
 ECPInt:  NShTT=     820 NPrTT=    1850 LenC2=     821 LenP2D=    1805.
 LDataN:  DoStor=F MaxTD1= 4 Len=   56
 LDataN:  DoStor=T MaxTD1= 4 Len=   56
 Symmetrizing basis deriv contribution to polar:
 IMax=3 JMax=2 DiffMx= 0.00D+00
 G2DrvN: will do   11 centers at a time, making    1 passes doing MaxLOS=1.
 FoFDir/FoFCou used for L=0 through L=1.
 DoAtom=TTTTTTTTTT
          Differentiating once with respect to electric field.
                with respect to dipole field.
          Differentiating once with respect to nuclear coordinates.
          Store integrals in memory, NReq=     6053207.
          There are  33 degrees of freedom in the 1st order CPHF.
    30 vectors were produced by pass  0.
 AX will form  30 AO Fock derivatives at one time.
    30 vectors were produced by pass  1.
    30 vectors were produced by pass  2.
    30 vectors were produced by pass  3.
    30 vectors were produced by pass  4.
    30 vectors were produced by pass  5.
    26 vectors were produced by pass  6.
     3 vectors were produced by pass  7.
     3 vectors were produced by pass  8.
 Inv2:  IOpt= 1 Iter= 1 AM= 2.47D-15 Conv= 1.00D-12.
 Inverted reduced A of dimension  212 with in-core refinement.
 Isotropic polarizability for W=    0.000000      289.77 Bohr**3.
 End of Minotr Frequency-dependent properties file   721 does not exist.
   1 Symmetry operations used in ECPInt.
 ECPInt:  NShTT=     820 NPrTT=    1850 LenC2=     821 LenP2D=    1850.
 LDataN:  DoStor=F MaxTD1= 5 Len=  102
 LDataN:  DoStor=T MaxTD1= 5 Len=  102
 ***** Axes restored to original set *****
 -------------------------------------------------------------------
 Center     Atomic                   Forces (Hartrees/Bohr)
 Number     Number              X              Y              Z
 -------------------------------------------------------------------
    1         14          -0.013694008   -0.014484973   -0.007833781
    2         14          -0.002726017   -0.019622757    0.008577934
    3         14           0.007112274   -0.005123450   -0.019129498
    4         14          -0.011777365    0.009065219   -0.014290720
    5         14           0.014543972    0.008168151   -0.007296011
    6         14           0.008089811   -0.004366101   -0.000383810
    7         14          -0.028767563   -0.003093005    0.007402113
    8         14           0.002596061   -0.001549367    0.013176909
    9         14           0.025067779    0.012142095    0.012618458
   10         14          -0.000444944    0.018864188    0.007158407
 -------------------------------------------------------------------
 Cartesian Forces:  Max     0.028767563 RMS     0.012417510

 GradGradGradGradGradGradGradGradGradGradGradGradGradGradGradGradGradGrad
 Berny optimization.
 Internal  Forces:  Max     0.011653017 RMS     0.003175640
 Search for a local minimum.
 Step number   2 out of a maximum of 100
 All quantities printed in internal units (Hartrees-Bohrs-Radians)
 Second derivative matrix not updated -- analytic derivatives used.
 Trust test= 1.01D+00 RLast= 3.00D-01 DXMaxT set to 4.24D-01
 Maximum step size (   0.424) exceeded in linear search.
    -- Step size scaled by   0.707
 Quartic linear search produced a step of  1.41423.
 Iteration  1 RMS(Cart)=  0.01995277 RMS(Int)=  0.00028595
 Iteration  2 RMS(Cart)=  0.00010138 RMS(Int)=  0.00025165
 Iteration  3 RMS(Cart)=  0.00000003 RMS(Int)=  0.00025165
 Variable       Old X    -DE/DX   Delta X   Delta X   Delta X     New X
                                 (Linear)    (Quad)   (Total)
    R1        4.67628   0.00689   0.06702   0.00000   0.06683   4.74311
    R2        4.64072   0.00996   0.09032   0.00000   0.09037   4.73109
    R3        4.78251   0.00754   0.08677   0.00000   0.08672   4.86923
    R4        4.94663   0.00667   0.08047   0.00000   0.08050   5.02713
    R5        5.34818   0.00611   0.08488   0.00000   0.08447   5.43265
    R6        4.51599   0.00571   0.04978   0.00000   0.04963   4.56562
    R7        4.85191   0.00879   0.09714   0.00000   0.09749   4.94939
    R8        4.75115   0.00412   0.04715   0.00000   0.04634   4.79749
    R9        5.32306   0.01119   0.13684   0.00000   0.13713   5.46019
   R10        4.96624   0.00620   0.06793   0.00000   0.06755   5.03379
   R11        4.73642   0.00500   0.05206   0.00000   0.05175   4.78816
   R12        4.52743   0.00422   0.04150   0.00000   0.04113   4.56857
   R13        5.25924   0.00955   0.12653   0.00000   0.12712   5.38636
   R14        4.73871   0.01014   0.10451   0.00000   0.10474   4.84346
   R15        4.88621   0.00824   0.09703   0.00000   0.09741   4.98362
   R16        4.97773   0.00740   0.08045   0.00000   0.08000   5.05773
   R17        4.70862   0.00489   0.05379   0.00000   0.05385   4.76247
   R18        4.92609   0.00641   0.07893   0.00000   0.07876   5.00485
   R19        4.46834   0.00364   0.04551   0.00000   0.04573   4.51407
   R20        4.76707   0.00883   0.09747   0.00000   0.09816   4.86524
   R21        4.85623   0.01165   0.12051   0.00000   0.12095   4.97719
   R22        4.69813   0.00591   0.06442   0.00000   0.06483   4.76297
   R23        4.94354   0.00439   0.05658   0.00000   0.05569   4.99923
   R24        4.82563   0.00729   0.08215   0.00000   0.08253   4.90816
    A1        1.68528  -0.00076  -0.00389   0.00000  -0.00390   1.68137
    A2        1.67055   0.00008   0.00563   0.00000   0.00552   1.67608
    A3        1.82375   0.00079   0.00054   0.00000   0.00061   1.82436
    A4        2.08769   0.00003   0.00185   0.00000   0.00182   2.08950
    A5        1.82180   0.00137   0.01127   0.00000   0.01109   1.83290
    A6        1.54061   0.00061   0.00503   0.00000   0.00496   1.54557
    A7        1.88069  -0.00051  -0.00558   0.00000  -0.00554   1.87515
    A8        2.31106   0.00036  -0.00059   0.00000  -0.00068   2.31038
    A9        1.77813  -0.00094  -0.01078   0.00000  -0.01076   1.76737
   A10        1.46958   0.00158   0.01419   0.00000   0.01393   1.48351
   A11        2.02985   0.00096   0.01135   0.00000   0.01119   2.04104
   A12        1.83068   0.00033  -0.00390   0.00000  -0.00375   1.82693
   A13        1.84828   0.00103   0.00786   0.00000   0.00763   1.85592
   A14        1.50642  -0.00001  -0.00056   0.00000  -0.00056   1.50586
   A15        1.87619   0.00018  -0.00054   0.00000  -0.00060   1.87559
   A16        2.29792  -0.00009  -0.00669   0.00000  -0.00668   2.29125
   A17        1.48121   0.00086   0.00630   0.00000   0.00619   1.48740
   A18        1.82934  -0.00118  -0.01502   0.00000  -0.01499   1.81434
   A19        1.98209   0.00010  -0.00441   0.00000  -0.00434   1.97775
   A20        1.93172   0.00013  -0.00118   0.00000  -0.00120   1.93052
   A21        1.61283   0.00061   0.00752   0.00000   0.00738   1.62021
   A22        1.63554  -0.00063  -0.00290   0.00000  -0.00291   1.63263
   A23        1.90757   0.00053   0.00476   0.00000   0.00469   1.91226
   A24        1.69844  -0.00025  -0.00003   0.00000  -0.00020   1.69823
   A25        1.63860   0.00091   0.01257   0.00000   0.01237   1.65097
   A26        1.99022  -0.00129  -0.01779   0.00000  -0.01757   1.97265
   A27        1.91941  -0.00083  -0.01092   0.00000  -0.01083   1.90859
   A28        1.62214  -0.00118  -0.01150   0.00000  -0.01138   1.61076
   A29        1.67165  -0.00202  -0.01849   0.00000  -0.01813   1.65352
   A30        1.95205  -0.00224  -0.02358   0.00000  -0.02315   1.92890
   A31        1.67437   0.00070   0.00785   0.00000   0.00781   1.68218
   A32        1.61231   0.00267   0.02884   0.00000   0.02849   1.64080
   A33        1.89068  -0.00125  -0.01631   0.00000  -0.01609   1.87459
   A34        1.57560  -0.00130  -0.01553   0.00000  -0.01532   1.56028
   A35        1.92073  -0.00209  -0.02388   0.00000  -0.02354   1.89719
   A36        1.60417  -0.00125  -0.01531   0.00000  -0.01515   1.58902
   A37        1.85402  -0.00103  -0.01737   0.00000  -0.01751   1.83651
   A38        2.12905  -0.00094  -0.00765   0.00000  -0.00815   2.12090
   A39        1.80546  -0.00094  -0.01514   0.00000  -0.01538   1.79008
   A40        2.42267  -0.00192  -0.02916   0.00000  -0.02891   2.39376
   A41        1.87449  -0.00049  -0.00407   0.00000  -0.00397   1.87052
   A42        1.56217   0.00103   0.01202   0.00000   0.01194   1.57411
   A43        1.86303   0.00068   0.00608   0.00000   0.00604   1.86907
   A44        1.97098  -0.00062  -0.00995   0.00000  -0.00979   1.96119
   A45        1.56625   0.00176   0.01998   0.00000   0.01961   1.58586
    D1       -1.40161   0.00120   0.01165   0.00000   0.01155  -1.39005
    D2        0.57145   0.00060  -0.00062   0.00000  -0.00065   0.57080
    D3       -0.43931   0.00037   0.00125   0.00000   0.00122  -0.43809
    D4       -0.66370   0.00055   0.01228   0.00000   0.01231  -0.65139
    D5        1.34775  -0.00017  -0.00284   0.00000  -0.00288   1.34487
    D6        0.37276   0.00042   0.00668   0.00000   0.00671   0.37947
    D7        0.86489  -0.00097  -0.00586   0.00000  -0.00572   0.85917
    D8       -0.29104  -0.00040  -0.00080   0.00000  -0.00077  -0.29181
    D9       -0.81327   0.00117   0.00848   0.00000   0.00810  -0.80516
   D10        0.35885  -0.00104  -0.01432   0.00000  -0.01387   0.34497
   D11       -0.03348   0.00050   0.00624   0.00000   0.00613  -0.02735
   D12        0.92999   0.00164   0.01797   0.00000   0.01779   0.94778
   D13       -1.03075  -0.00047  -0.00378   0.00000  -0.00369  -1.03444
   D14       -0.06727   0.00066   0.00795   0.00000   0.00797  -0.05931
   D15        0.03400  -0.00053  -0.00660   0.00000  -0.00641   0.02759
   D16       -1.04094   0.00024   0.00202   0.00000   0.00191  -1.03903
   D17        0.63090  -0.00051  -0.00821   0.00000  -0.00785   0.62305
   D18       -0.44404   0.00026   0.00042   0.00000   0.00047  -0.44357
   D19        1.06491  -0.00033  -0.00289   0.00000  -0.00274   1.06217
   D20       -0.01003   0.00044   0.00574   0.00000   0.00558  -0.00445
   D21       -0.57301  -0.00080  -0.00043   0.00000  -0.00040  -0.57340
   D22        0.45485   0.00005   0.00207   0.00000   0.00205   0.45690
   D23        1.42436  -0.00047  -0.00663   0.00000  -0.00648   1.41787
   D24       -0.00750  -0.00039  -0.00423   0.00000  -0.00418  -0.01168
   D25        1.05161  -0.00064  -0.00507   0.00000  -0.00490   1.04671
   D26       -1.04907  -0.00019  -0.00477   0.00000  -0.00483  -1.05389
   D27        0.01004  -0.00043  -0.00561   0.00000  -0.00554   0.00449
   D28        0.03326  -0.00050  -0.00617   0.00000  -0.00607   0.02718
   D29        1.06400   0.00045   0.00210   0.00000   0.00200   1.06600
   D30       -0.51688  -0.00102  -0.00959   0.00000  -0.00953  -0.52641
   D31        0.51387  -0.00007  -0.00131   0.00000  -0.00146   0.51241
   D32       -1.02121  -0.00122  -0.01305   0.00000  -0.01269  -1.03390
   D33        0.00954  -0.00027  -0.00477   0.00000  -0.00462   0.00492
   D34        0.67378  -0.00063  -0.01366   0.00000  -0.01363   0.66015
   D35       -0.36146  -0.00076  -0.01099   0.00000  -0.01091  -0.37236
   D36       -1.33843  -0.00074  -0.00482   0.00000  -0.00470  -1.34313
   D37        0.07745  -0.00051  -0.00545   0.00000  -0.00539   0.07206
   D38       -0.99356   0.00031   0.00227   0.00000   0.00209  -0.99147
   D39        1.06118  -0.00054  -0.00278   0.00000  -0.00272   1.05846
   D40       -0.00982   0.00027   0.00493   0.00000   0.00476  -0.00506
   D41       -0.84636  -0.00022  -0.00564   0.00000  -0.00573  -0.85209
   D42        0.31478  -0.00040  -0.00862   0.00000  -0.00870   0.30608
   D43       -0.03663   0.00057   0.00700   0.00000   0.00683  -0.02980
   D44        0.97330  -0.00072  -0.00674   0.00000  -0.00642   0.96687
   D45       -1.03527   0.00114   0.01278   0.00000   0.01248  -1.02279
   D46       -0.02534  -0.00015  -0.00097   0.00000  -0.00078  -0.02611
   D47       -0.00504   0.00028   0.00331   0.00000   0.00327  -0.00177
   D48        0.96390   0.00088   0.00853   0.00000   0.00836   0.97226
   D49       -0.97929  -0.00031  -0.00014   0.00000  -0.00012  -0.97941
   D50       -0.01035   0.00028   0.00507   0.00000   0.00497  -0.00538
   D51        0.45240  -0.00002   0.00350   0.00000   0.00352   0.45592
   D52        1.44415  -0.00091  -0.01380   0.00000  -0.01333   1.43083
   D53       -0.61285   0.00187   0.02735   0.00000   0.02690  -0.58596
   D54       -0.34522   0.00011   0.00530   0.00000   0.00543  -0.33979
   D55        0.73614   0.00054   0.00941   0.00000   0.00931   0.74546
   D56        0.83240  -0.00017   0.00002   0.00000   0.00037   0.83278
   D57       -0.27966   0.00071   0.01121   0.00000   0.01086  -0.26880
   D58       -0.00486   0.00036   0.00387   0.00000   0.00364  -0.00122
   D59       -0.98262   0.00028   0.00387   0.00000   0.00358  -0.97904
   D60        0.98876  -0.00040  -0.00615   0.00000  -0.00602   0.98274
   D61        0.01100  -0.00048  -0.00614   0.00000  -0.00607   0.00493
   D62       -0.49590   0.00036   0.00140   0.00000   0.00113  -0.49477
   D63        0.58976  -0.00139  -0.02237   0.00000  -0.02219   0.56757
   D64       -1.49091   0.00138   0.01910   0.00000   0.01838  -1.47253
   D65        0.29325   0.00021  -0.00228   0.00000  -0.00225   0.29100
   D66       -0.77194  -0.00045  -0.00696   0.00000  -0.00692  -0.77885
   D67       -1.04971   0.00072   0.00632   0.00000   0.00596  -1.04375
   D68       -0.00998   0.00044   0.00563   0.00000   0.00553  -0.00445
   D69        0.00976  -0.00027  -0.00492   0.00000  -0.00474   0.00502
   D70        1.04949  -0.00055  -0.00561   0.00000  -0.00518   1.04431
   D71       -0.56603   0.00041   0.00292   0.00000   0.00279  -0.56324
   D72        0.47370   0.00013   0.00223   0.00000   0.00236   0.47606
         Item               Value     Threshold  Converged?
 Maximum Force            0.011653     0.000450     NO 
 RMS     Force            0.003176     0.000300     NO 
 Maximum Displacement     0.111379     0.001800     NO 
 RMS     Displacement     0.019962     0.001200     NO 
 Predicted change in Energy=-1.236198D-02
 GradGradGradGradGradGradGradGradGradGradGradGradGradGradGradGradGradGrad

                          Input orientation:                          
 ---------------------------------------------------------------------
 Center     Atomic     Atomic              Coordinates (Angstroms)
 Number     Number      Type              X           Y           Z
 ---------------------------------------------------------------------
    1         14             0       -1.480446   -1.468636   -1.276674
    2         14             0       -0.110597   -1.724343    0.810896
    3         14             0        0.846123   -0.631902   -1.670219
    4         14             0       -1.186274    1.081511   -1.499215
    5         14             0        1.253598    1.842069   -1.304831
    6         14             0        2.179024   -1.701114    0.040005
    7         14             0       -1.991553    0.098216    0.811539
    8         14             0       -0.074235    0.144178    2.529153
    9         14             0        1.711438    0.518072    0.790112
   10         14             0       -0.321338    2.134708    0.804254
 ---------------------------------------------------------------------
                    Distance matrix (angstroms):
                    1          2          3          4          5
     1  Si   0.000000
     2  Si   2.509944   0.000000
     3  Si   2.503583   2.874834   0.000000
     4  Si   2.576686   3.790318   2.663769   0.000000
     5  Si   4.293782   4.365389   2.533787   2.563047   0.000000
     6  Si   3.896076   2.416025   2.417582   4.630057   3.901172
     7  Si   2.660242   2.619107   3.839870   2.637219   4.248653
     8  Si   4.366110   2.538721   4.368533   4.282870   4.398341
     9  Si   4.290307   2.889407   2.850340   3.735669   2.520193
    10  Si   4.319477   3.864807   3.891029   2.676436   2.648452
                    6          7          8          9         10
     6  Si   0.000000
     7  Si   4.607230   0.000000
     8  Si   3.831206   2.574572   0.000000
     9  Si   2.388741   3.726780   2.520454   0.000000
    10  Si   4.642135   2.633814   2.645477   2.597285   0.000000
 Stoichiometry    Si10
 Framework group  C1[X(Si10)]
 Deg. of freedom    24
 Full point group                 C1
 Largest Abelian subgroup         C1      NOp   1
 Largest concise Abelian subgroup C1      NOp   1
                         Standard orientation:                         
 ---------------------------------------------------------------------
 Center     Atomic     Atomic              Coordinates (Angstroms)
 Number     Number      Type              X           Y           Z
 ---------------------------------------------------------------------
    1         14             0        0.173773   -0.997310    2.302346
    2         14             0        1.148416    1.025478    1.180642
    3         14             0        1.091807   -1.620521    0.058076
    4         14             0       -1.540607   -1.546408    0.458788
    5         14             0       -0.523675   -1.584098   -1.893581
    6         14             0        2.675642    0.129978   -0.463387
    7         14             0       -1.457340    0.908908    1.417649
    8         14             0       -0.330092    2.497405   -0.265924
    9         14             0        0.656571    0.628012   -1.638716
   10         14             0       -1.894497    0.558555   -1.155894
 ---------------------------------------------------------------------
 Rotational constants (GHZ):      0.5286492      0.5101171      0.5023347
 Standard basis: LANL2DZ (5D, 7F)
 There are    80 symmetry adapted basis functions of A   symmetry.
 Integral buffers will be    131072 words long.
 Raffenetti 2 integral format.
 Two-electron integral symmetry is turned on.
    80 basis functions,   120 primitive gaussians,    80 cartesian basis functions
    20 alpha electrons       20 beta electrons
       nuclear repulsion energy       121.2704758039 Hartrees.
 NAtoms=   10 NActive=   10 NUniq=   10 SFac= 7.50D-01 NAtFMM=   80 NAOKFM=F Big=F
 One-electron integrals computed using PRISM.
   1 Symmetry operations used in ECPInt.
 ECPInt:  NShTT=     820 NPrTT=    1850 LenC2=     821 LenP2D=    1805.
 LDataN:  DoStor=F MaxTD1= 3 Len=   28
 LDataN:  DoStor=T MaxTD1= 3 Len=   28
 NBasis=    80 RedAO= T  NBF=    80
 NBsUse=    80 1.00D-06 NBFU=    80
 Initial guess read from the read-write file:
 Initial guess orbital symmetries:
       Occupied  (A) (A) (A) (A) (A) (A) (A) (A) (A) (A) (A) (A)
                 (A) (A) (A) (A) (A) (A) (A) (A)
       Virtual   (A) (A) (A) (A) (A) (A) (A) (A) (A) (A) (A) (A)
                 (A) (A) (A) (A) (A) (A) (A) (A) (A) (A) (A) (A)
                 (A) (A) (A) (A) (A) (A) (A) (A) (A) (A) (A) (A)
                 (A) (A) (A) (A) (A) (A) (A) (A) (A) (A) (A) (A)
                 (A) (A) (A) (A) (A) (A) (A) (A) (A) (A) (A) (A)
 Harris functional with IExCor=  402 diagonalized for initial guess.
 ExpMin= 8.85D-02 ExpMax= 2.58D+00 ExpMxC= 2.58D+00 IAcc=2 IRadAn=         4 AccDes= 0.00D+00
 HarFok:  IExCor= 402 AccDes= 0.00D+00 IRadAn=         4 IDoV=1
 ScaDFX=  1.000000  1.000000  1.000000  1.000000
 Requested convergence on RMS density matrix=1.00D-08 within 128 cycles.
 Requested convergence on MAX density matrix=1.00D-06.
 Requested convergence on             energy=1.00D-06.
 No special actions if energy rises.
 Keep R1 integrals in memory in canonical form, NReq=     7071638.
 Integral accuracy reduced to 1.0D-05 until final iterations.
 Initial convergence to 1.0D-05 achieved.  Increase integral accuracy.
 SCF Done:  E(RB+HF-LYP) =  -38.5910739161     A.U. after   17 cycles
             Convg  =    0.8830D-08             -V/T =  3.6148
             S**2   =   0.0000
 QCSCF skips out because SCF is already converged.
 Range of M.O.s used for correlation:     1    80
 NBasis=    80 NAE=    20 NBE=    20 NFC=     0 NFV=     0
 NROrb=     80 NOA=    20 NOB=    20 NVA=    60 NVB=    60
   1 Symmetry operations used in ECPInt.
 ECPInt:  NShTT=     820 NPrTT=    1850 LenC2=     821 LenP2D=    1805.
 LDataN:  DoStor=F MaxTD1= 4 Len=   56
 LDataN:  DoStor=T MaxTD1= 4 Len=   56
 Symmetrizing basis deriv contribution to polar:
 IMax=3 JMax=2 DiffMx= 0.00D+00
 G2DrvN: will do   11 centers at a time, making    1 passes doing MaxLOS=1.
 FoFDir/FoFCou used for L=0 through L=1.
 DoAtom=TTTTTTTTTT
          Differentiating once with respect to electric field.
                with respect to dipole field.
          Differentiating once with respect to nuclear coordinates.
          Store integrals in memory, NReq=     6053235.
          There are  33 degrees of freedom in the 1st order CPHF.
    30 vectors were produced by pass  0.
 AX will form  30 AO Fock derivatives at one time.
    30 vectors were produced by pass  1.
    30 vectors were produced by pass  2.
    30 vectors were produced by pass  3.
    30 vectors were produced by pass  4.
    30 vectors were produced by pass  5.
    26 vectors were produced by pass  6.
     3 vectors were produced by pass  7.
     3 vectors were produced by pass  8.
 Inv2:  IOpt= 1 Iter= 1 AM= 1.78D-15 Conv= 1.00D-12.
 Inverted reduced A of dimension  212 with in-core refinement.
 Isotropic polarizability for W=    0.000000      296.19 Bohr**3.
 End of Minotr Frequency-dependent properties file   721 does not exist.
   1 Symmetry operations used in ECPInt.
 ECPInt:  NShTT=     820 NPrTT=    1850 LenC2=     821 LenP2D=    1850.
 LDataN:  DoStor=F MaxTD1= 5 Len=  102
 LDataN:  DoStor=T MaxTD1= 5 Len=  102
 ***** Axes restored to original set *****
 -------------------------------------------------------------------
 Center     Atomic                   Forces (Hartrees/Bohr)
 Number     Number              X              Y              Z
 -------------------------------------------------------------------
    1         14          -0.006202323   -0.008749272   -0.004223056
    2         14          -0.002267779   -0.012154073    0.005519471
    3         14           0.003548523   -0.002961873   -0.012706447
    4         14          -0.006905663    0.006004679   -0.008220090
    5         14           0.008884544    0.003709226   -0.004289050
    6         14           0.003470859   -0.002517714   -0.000421159
    7         14          -0.016589522   -0.001410761    0.004297036
    8         14           0.002129642   -0.001449738    0.007715051
    9         14           0.015094685    0.008573834    0.008233917
   10         14          -0.001162966    0.010955692    0.004094327
 -------------------------------------------------------------------
 Cartesian Forces:  Max     0.016589522 RMS     0.007414162

 GradGradGradGradGradGradGradGradGradGradGradGradGradGradGradGradGradGrad
 Berny optimization.
 Internal  Forces:  Max     0.007022861 RMS     0.001857014
 Search for a local minimum.
 Step number   3 out of a maximum of 100
 All quantities printed in internal units (Hartrees-Bohrs-Radians)
 Second derivative matrix not updated -- analytic derivatives used.
 Maximum step size (   0.424) exceeded in linear search.
    -- Step size scaled by   0.814
 Quintic linear search produced a step of  1.00005.
 Iteration  1 RMS(Cart)=  0.01994049 RMS(Int)=  0.00031545
 Iteration  2 RMS(Cart)=  0.00009873 RMS(Int)=  0.00028716
 Iteration  3 RMS(Cart)=  0.00000003 RMS(Int)=  0.00028716
 Variable       Old X    -DE/DX   Delta X   Delta X   Delta X     New X
                                 (Linear)    (Quad)   (Total)
    R1        4.74311   0.00351   0.06683   0.00000   0.06662   4.80972
    R2        4.73109   0.00502   0.09037   0.00000   0.09042   4.82151
    R3        4.86923   0.00460   0.08672   0.00000   0.08667   4.95590
    R4        5.02713   0.00404   0.08050   0.00000   0.08052   5.10765
    R5        5.43265   0.00427   0.08447   0.00000   0.08402   5.51667
    R6        4.56562   0.00262   0.04963   0.00000   0.04947   4.61509
    R7        4.94939   0.00503   0.09750   0.00000   0.09787   5.04727
    R8        4.79749   0.00235   0.04634   0.00000   0.04542   4.84291
    R9        5.46019   0.00702   0.13714   0.00000   0.13745   5.59764
   R10        5.03379   0.00360   0.06756   0.00000   0.06713   5.10092
   R11        4.78816   0.00262   0.05175   0.00000   0.05139   4.83956
   R12        4.56857   0.00209   0.04114   0.00000   0.04073   4.60930
   R13        5.38636   0.00632   0.12713   0.00000   0.12779   5.51415
   R14        4.84346   0.00578   0.10475   0.00000   0.10501   4.94847
   R15        4.98362   0.00496   0.09742   0.00000   0.09784   5.08146
   R16        5.05773   0.00421   0.08000   0.00000   0.07949   5.13722
   R17        4.76247   0.00267   0.05385   0.00000   0.05392   4.81640
   R18        5.00485   0.00406   0.07877   0.00000   0.07858   5.08343
   R19        4.51407   0.00228   0.04573   0.00000   0.04598   4.56005
   R20        4.86524   0.00526   0.09817   0.00000   0.09895   4.96419
   R21        4.97719   0.00648   0.12096   0.00000   0.12145   5.09864
   R22        4.76297   0.00333   0.06484   0.00000   0.06533   4.82829
   R23        4.99923   0.00286   0.05569   0.00000   0.05467   5.05390
   R24        4.90816   0.00426   0.08253   0.00000   0.08295   4.99111
    A1        1.68137  -0.00024  -0.00390   0.00000  -0.00392   1.67746
    A2        1.67608   0.00022   0.00552   0.00000   0.00540   1.68148
    A3        1.82436   0.00010   0.00061   0.00000   0.00068   1.82504
    A4        2.08950   0.00011   0.00182   0.00000   0.00179   2.09129
    A5        1.83290   0.00062   0.01109   0.00000   0.01089   1.84379
    A6        1.54557   0.00026   0.00496   0.00000   0.00487   1.55045
    A7        1.87515  -0.00031  -0.00554   0.00000  -0.00549   1.86966
    A8        2.31038  -0.00001  -0.00068   0.00000  -0.00078   2.30960
    A9        1.76737  -0.00058  -0.01076   0.00000  -0.01075   1.75662
   A10        1.48351   0.00075   0.01393   0.00000   0.01362   1.49712
   A11        2.04104   0.00063   0.01119   0.00000   0.01101   2.05205
   A12        1.82693  -0.00018  -0.00375   0.00000  -0.00360   1.82334
   A13        1.85592   0.00042   0.00763   0.00000   0.00737   1.86329
   A14        1.50586  -0.00003  -0.00056   0.00000  -0.00056   1.50530
   A15        1.87559   0.00001  -0.00060   0.00000  -0.00067   1.87492
   A16        2.29125  -0.00030  -0.00668   0.00000  -0.00668   2.28457
   A17        1.48740   0.00037   0.00619   0.00000   0.00606   1.49346
   A18        1.81434  -0.00076  -0.01499   0.00000  -0.01497   1.79938
   A19        1.97775  -0.00023  -0.00434   0.00000  -0.00426   1.97349
   A20        1.93052  -0.00005  -0.00120   0.00000  -0.00122   1.92930
   A21        1.62021   0.00035   0.00738   0.00000   0.00722   1.62744
   A22        1.63263  -0.00023  -0.00291   0.00000  -0.00291   1.62972
   A23        1.91226   0.00023   0.00469   0.00000   0.00459   1.91685
   A24        1.69823  -0.00004  -0.00020   0.00000  -0.00039   1.69784
   A25        1.65097   0.00060   0.01237   0.00000   0.01214   1.66311
   A26        1.97265  -0.00089  -0.01757   0.00000  -0.01731   1.95534
   A27        1.90859  -0.00051  -0.01083   0.00000  -0.01070   1.89789
   A28        1.61076  -0.00056  -0.01139   0.00000  -0.01123   1.59953
   A29        1.65352  -0.00097  -0.01813   0.00000  -0.01770   1.63582
   A30        1.92890  -0.00120  -0.02315   0.00000  -0.02265   1.90626
   A31        1.68218   0.00041   0.00782   0.00000   0.00778   1.68997
   A32        1.64080   0.00146   0.02849   0.00000   0.02807   1.66887
   A33        1.87459  -0.00077  -0.01609   0.00000  -0.01583   1.85876
   A34        1.56028  -0.00077  -0.01532   0.00000  -0.01507   1.54521
   A35        1.89719  -0.00118  -0.02354   0.00000  -0.02314   1.87405
   A36        1.58902  -0.00076  -0.01515   0.00000  -0.01496   1.57406
   A37        1.83651  -0.00086  -0.01751   0.00000  -0.01766   1.81885
   A38        2.12090  -0.00040  -0.00815   0.00000  -0.00870   2.11220
   A39        1.79008  -0.00079  -0.01539   0.00000  -0.01565   1.77443
   A40        2.39376  -0.00143  -0.02891   0.00000  -0.02860   2.36515
   A41        1.87052  -0.00022  -0.00397   0.00000  -0.00386   1.86666
   A42        1.57411   0.00062   0.01194   0.00000   0.01184   1.58595
[...]
     Eigenvalues --- 1000.000001000.000001000.000001000.000001000.00000
     Eigenvalues --- 1000.000001000.000001000.000001000.000001000.00000
     Eigenvalues --- 1000.000001000.000001000.000001000.000001000.00000
     Eigenvalues --- 1000.000001000.000001000.000001000.000001000.00000
     Eigenvalues --- 1000.000001000.000001000.000001000.000001000.00000
     Eigenvalues --- 1000.000001000.000001000.000001000.000001000.00000
     Eigenvalues --- 1000.000001000.000001000.000001000.000001000.00000
     Eigenvalues --- 1000.000001000.000001000.000001000.000001000.00000
     Eigenvalues --- 1000.000001000.000001000.000001000.000001000.00000
     Eigenvalues --- 1000.00000
 Angle between quadratic step and forces=  50.51 degrees.
 Linear search not attempted -- first point.
 Iteration  1 RMS(Cart)=  0.00075217 RMS(Int)=  0.00000127
 Iteration  2 RMS(Cart)=  0.00000055 RMS(Int)=  0.00000082
 Variable       Old X    -DE/DX   Delta X   Delta X   Delta X     New X
                                 (Linear)    (Quad)   (Total)
    R1        4.65889   0.00000   0.00000  -0.00011  -0.00011   4.65877
    R2        4.65999   0.00003   0.00000   0.00081   0.00081   4.66080
    R3        4.76591   0.00000   0.00000   0.00013   0.00013   4.76604
    R4        4.76739   0.00000   0.00000   0.00001   0.00001   4.76740
    R5        5.24102  -0.00003   0.00000   0.00124   0.00124   5.24226
    R6        4.45988   0.00000   0.00000  -0.00024  -0.00024   4.45964
    R7        4.79983  -0.00001   0.00000  -0.00056  -0.00055   4.79928
    R8        4.65978   0.00000   0.00000  -0.00050  -0.00050   4.65928
    R9        5.24309   0.00002   0.00000  -0.00141  -0.00141   5.24169
   R10        4.80081  -0.00001   0.00000  -0.00084  -0.00084   4.79997
   R11        4.66106  -0.00002   0.00000  -0.00222  -0.00222   4.65885
   R12        4.45980   0.00004   0.00000   0.00018   0.00018   4.45998
   R13        5.24200   0.00000   0.00000  -0.00058  -0.00058   5.24142
   R14        4.76358   0.00004   0.00000   0.00402   0.00401   4.76759
   R15        4.86053  -0.00003   0.00000  -0.00147  -0.00147   4.85906
   R16        4.85996  -0.00001   0.00000  -0.00011  -0.00010   4.85986
   R17        4.65858   0.00002   0.00000   0.00236   0.00236   4.66094
   R18        4.76847  -0.00005   0.00000  -0.00453  -0.00453   4.76394
   R19        4.45960  -0.00002   0.00000   0.00021   0.00021   4.45981
   R20        4.76719   0.00000   0.00000   0.00040   0.00040   4.76759
   R21        4.85941   0.00003   0.00000   0.00145   0.00145   4.86086
   R22        4.65967   0.00001   0.00000   0.00111   0.00111   4.66078
   R23        4.76661   0.00000   0.00000  -0.00094  -0.00094   4.76567
   R24        4.79958   0.00001   0.00000   0.00115   0.00115   4.80073
    A1        1.66252  -0.00001   0.00000  -0.00001  -0.00001   1.66251
    A2        1.66330  -0.00002   0.00000  -0.00056  -0.00056   1.66274
    A3        1.82773   0.00002   0.00000  -0.00097  -0.00097   1.82676
    A4        2.07292   0.00000   0.00000   0.00032   0.00032   2.07325
    A5        1.87322   0.00002   0.00000   0.00093   0.00093   1.87414
    A6        1.53185   0.00000   0.00000  -0.00048  -0.00048   1.53138
    A7        1.87391  -0.00001   0.00000  -0.00048  -0.00048   1.87343
    A8        2.35008   0.00001   0.00000   0.00059   0.00058   2.35066
    A9        1.82607  -0.00001   0.00000   0.00134   0.00134   1.82741
   A10        1.53077   0.00001   0.00000   0.00127   0.00127   1.53203
   A11        2.07136   0.00001   0.00000   0.00123   0.00123   2.07259
   A12        1.82744   0.00000   0.00000  -0.00135  -0.00135   1.82608
   A13        1.87323   0.00002   0.00000   0.00045   0.00044   1.87368
   A14        1.53046   0.00000   0.00000  -0.00010  -0.00010   1.53036
   A15        1.87313   0.00001   0.00000   0.00009   0.00009   1.87322
   A16        2.34880   0.00001   0.00000   0.00105   0.00104   2.34985
   A17        1.52993   0.00002   0.00000   0.00186   0.00186   1.53179
   A18        1.82677   0.00000   0.00000   0.00109   0.00109   1.82786
   A19        1.99972   0.00000   0.00000  -0.00069  -0.00069   1.99903
   A20        1.90892   0.00001   0.00000  -0.00019  -0.00019   1.90873
   A21        1.61099   0.00000   0.00000   0.00015   0.00015   1.61113
   A22        1.61150  -0.00002   0.00000  -0.00159  -0.00159   1.60990
   A23        1.90927   0.00000   0.00000  -0.00062  -0.00062   1.90865
   A24        1.66320  -0.00001   0.00000  -0.00032  -0.00032   1.66288
   A25        1.66276   0.00000   0.00000   0.00032   0.00032   1.66308
   A26        1.99870   0.00000   0.00000  -0.00004  -0.00004   1.99865
   A27        1.90865   0.00000   0.00000  -0.00062  -0.00062   1.90804
   A28        1.60989   0.00000   0.00000   0.00043   0.00043   1.61032
   A29        1.61078  -0.00001   0.00000  -0.00099  -0.00099   1.60979
   A30        1.90806   0.00000   0.00000   0.00034   0.00034   1.90840
   A31        1.66283   0.00000   0.00000  -0.00050  -0.00050   1.66233
   A32        1.66266   0.00001   0.00000   0.00065   0.00065   1.66331
   A33        1.87320  -0.00001   0.00000  -0.00038  -0.00038   1.87283
   A34        1.53086  -0.00001   0.00000  -0.00066  -0.00066   1.53020
   A35        1.87366  -0.00002   0.00000  -0.00039  -0.00039   1.87327
   A36        1.53206  -0.00002   0.00000  -0.00176  -0.00176   1.53030
   A37        1.82754   0.00001   0.00000  -0.00024  -0.00024   1.82730
   A38        2.07309  -0.00002   0.00000  -0.00180  -0.00180   2.07129
   A39        1.82618  -0.00001   0.00000   0.00075   0.00075   1.82693
   A40        2.35033  -0.00001   0.00000  -0.00139  -0.00139   2.34894
   A41        1.90839  -0.00001   0.00000   0.00033   0.00033   1.90872
   A42        1.60970   0.00002   0.00000   0.00149   0.00149   1.61120
   A43        1.90817   0.00001   0.00000   0.00101   0.00101   1.90918
   A44        1.99855   0.00001   0.00000   0.00129   0.00129   1.99984
   A45        1.61078   0.00001   0.00000   0.00039   0.00039   1.61117
    D1       -1.40060   0.00000   0.00000  -0.00171  -0.00171  -1.40231
    D2        0.62814   0.00000   0.00000  -0.00054  -0.00054   0.62759
    D3       -0.41785  -0.00001   0.00000  -0.00153  -0.00153  -0.41938
    D4       -0.62872   0.00000   0.00000   0.00107   0.00107  -0.62765
    D5        1.39982   0.00001   0.00000   0.00215   0.00214   1.40196
    D6        0.41696   0.00001   0.00000   0.00224   0.00224   0.41920
    D7        0.79974   0.00000   0.00000   0.00001   0.00001   0.79976
    D8       -0.32366   0.00001   0.00000   0.00190   0.00190  -0.32176
    D9       -0.79883   0.00000   0.00000  -0.00069  -0.00069  -0.79952
   D10        0.32343   0.00000   0.00000  -0.00141  -0.00141   0.32202
   D11        0.00018  -0.00001   0.00000  -0.00048  -0.00048  -0.00030
   D12        1.01254   0.00001   0.00000   0.00091   0.00091   1.01346
   D13       -1.01380  -0.00001   0.00000  -0.00065  -0.00065  -1.01445
   D14       -0.00143   0.00000   0.00000   0.00074   0.00074  -0.00069
   D15       -0.00017   0.00001   0.00000   0.00047   0.00047   0.00030
   D16       -1.04827   0.00001   0.00000   0.00051   0.00051  -1.04776
   D17        0.52536   0.00002   0.00000  -0.00179  -0.00180   0.52356
   D18       -0.52274   0.00002   0.00000  -0.00176  -0.00176  -0.52450
   D19        1.04791   0.00001   0.00000   0.00035   0.00035   1.04826
   D20       -0.00019   0.00001   0.00000   0.00038   0.00038   0.00019
   D21       -0.62741  -0.00002   0.00000  -0.00085  -0.00085  -0.62826
   D22        0.41937  -0.00001   0.00000  -0.00102  -0.00102   0.41835
   D23        1.40222   0.00000   0.00000  -0.00092  -0.00092   1.40130
   D24       -0.00021   0.00001   0.00000   0.00180   0.00180   0.00159
   D25        1.01407  -0.00001   0.00000  -0.00002  -0.00002   1.01406
   D26       -1.01409   0.00001   0.00000   0.00143   0.00143  -1.01266
   D27        0.00019  -0.00001   0.00000  -0.00039  -0.00039  -0.00020
   D28       -0.00017   0.00001   0.00000   0.00047   0.00047   0.00030
   D29        1.04777   0.00002   0.00000   0.00097   0.00097   1.04874
   D30       -0.52519   0.00001   0.00000   0.00309   0.00310  -0.52210
   D31        0.52275   0.00002   0.00000   0.00359   0.00359   0.52634
   D32       -1.04867   0.00000   0.00000   0.00090   0.00090  -1.04778
   D33       -0.00073   0.00001   0.00000   0.00140   0.00140   0.00067
   D34        0.62879   0.00001   0.00000  -0.00057  -0.00057   0.62821
   D35       -0.41718   0.00000   0.00000  -0.00038  -0.00038  -0.41755
   D36       -1.40011  -0.00001   0.00000  -0.00035  -0.00035  -1.40046
   D37        0.00187  -0.00002   0.00000  -0.00323  -0.00323  -0.00136
   D38       -1.01215  -0.00001   0.00000  -0.00208  -0.00208  -1.01423
   D39        1.01475  -0.00002   0.00000  -0.00256  -0.00256   1.01220
   D40        0.00074  -0.00001   0.00000  -0.00141  -0.00141  -0.00067
   D41       -0.79992   0.00000   0.00000   0.00095   0.00095  -0.79897
   D42        0.32294   0.00000   0.00000   0.00081   0.00081   0.32375
   D43        0.00019  -0.00001   0.00000  -0.00052  -0.00052  -0.00033
   D44        0.99622  -0.00001   0.00000  -0.00052  -0.00052   0.99571
   D45       -0.99671   0.00000   0.00000   0.00028   0.00028  -0.99644
   D46       -0.00068   0.00000   0.00000   0.00028   0.00028  -0.00040
   D47        0.00142  -0.00002   0.00000  -0.00260  -0.00260  -0.00118
   D48        0.99740  -0.00001   0.00000  -0.00182  -0.00182   0.99558
   D49       -0.99518  -0.00002   0.00000  -0.00231  -0.00231  -0.99749
   D50        0.00080  -0.00001   0.00000  -0.00152  -0.00152  -0.00073
   D51        0.41837  -0.00001   0.00000  -0.00138  -0.00138   0.41700
   D52        1.40118  -0.00001   0.00000  -0.00134  -0.00134   1.39984
   D53       -0.62765   0.00001   0.00000  -0.00110  -0.00110  -0.62875
   D54       -0.32351   0.00000   0.00000   0.00000   0.00000  -0.32351
   D55        0.79879   0.00000   0.00000   0.00059   0.00059   0.79938
   D56        0.79982   0.00000   0.00000  -0.00097  -0.00097   0.79885
   D57       -0.32188   0.00000   0.00000  -0.00130  -0.00131  -0.32318
   D58        0.00011   0.00000   0.00000   0.00082   0.00082   0.00093
   D59       -0.99582  -0.00001   0.00000  -0.00018  -0.00018  -0.99599
   D60        0.99613   0.00000   0.00000   0.00058   0.00058   0.99671
   D61        0.00021  -0.00001   0.00000  -0.00042  -0.00042  -0.00021
   D62       -0.41960   0.00001   0.00000   0.00233   0.00233  -0.41727
   D63        0.62724   0.00000   0.00000   0.00135   0.00135   0.62858
   D64       -1.40232   0.00001   0.00000   0.00210   0.00210  -1.40021
   D65        0.32155   0.00002   0.00000   0.00187   0.00187   0.32343
   D66       -0.79955   0.00000   0.00000  -0.00011  -0.00012  -0.79966
   D67       -1.04848   0.00002   0.00000   0.00085   0.00085  -1.04764
   D68       -0.00019   0.00001   0.00000   0.00038   0.00038   0.00019
   D69       -0.00073   0.00001   0.00000   0.00140   0.00140   0.00067
   D70        1.04757   0.00000   0.00000   0.00093   0.00093   1.04850
   D71       -0.52598   0.00001   0.00000   0.00226   0.00226  -0.52372
   D72        0.52232   0.00000   0.00000   0.00180   0.00179   0.52412
         Item               Value     Threshold  Converged?
 Maximum Force            0.000046     0.000450     YES
 RMS     Force            0.000013     0.000300     YES
 Maximum Displacement     0.003791     0.001800     NO 
 RMS     Displacement     0.000752     0.001200     YES
 Predicted change in Energy=-7.475989D-07
 GradGradGradGradGradGradGradGradGradGradGradGradGradGradGradGradGradGrad

 1\1\GINC-NODE32\Freq\RB3LYP\6-311+G(d)\Si10\TAM\04-Apr-2011\0\\#N Geom
 =AllCheck Guess=Read SCRF=Check GenChk RB3LYP/6-311+G(d) Freq\\si10-n\
 \0,1\Si,-1.4795614913,-1.4369289486,-1.2114332953\Si,-0.0743247083,-1.
 6429386462,0.8037467682\Si,0.7985518451,-0.5783539721,-1.6038748021\Si
 ,-1.1473350372,1.0495394313,-1.4715234848\Si,1.2408501676,1.8191268924
 ,-1.229413214\Si,2.1400162672,-1.6892985469,-0.0113986941\Si,-1.956816
 5881,0.0617037048,0.7610804561\Si,-0.0917361886,0.1882939791,2.4550158
 748\Si,1.7043299692,0.4864370332,0.7920731023\Si,-0.3082332354,2.03518
 1073,0.7507462888\\Version=AM64L-G03RevE.01\State=1-A\HF=-2895.1081696
 \RMSD=8.361e-10\RMSF=4.861e-05\ZeroPoint=0.0149554\Thermal=0.0289828\D
 ipole=0.2256994,-0.1884962,-0.0014312\DipoleDeriv=0.1381617,0.0850913,
 0.096363,0.0740562,0.078009,0.0715563,0.091343,0.0754212,0.043547,-0.1
 431761,-0.1246596,0.0699508,0.0013745,-0.066423,-0.0175154,0.0141402,0
 .0300101,-0.1231895,-0.074182,-0.0260506,-0.1004532,-0.0254,-0.0833859
 ,0.0836001,0.0117348,-0.0099217,-0.1763598,-0.039786,-0.012118,0.05315
 02,-0.0113359,-0.0450505,-0.0439443,0.150222,-0.1254766,-0.0041196,0.0
 51528,0.0577298,-0.0538684,0.0684131,0.1626546,-0.1086547,-0.0582639,-
 0.1044422,0.045371,0.1547319,0.0131655,-0.0002338,0.0132333,0.1594865,
 0.00001,0.0004337,-0.0005485,0.1707341,0.0884125,-0.0264669,-0.0422215
 ,0.0835154,-0.1350285,0.0040352,-0.0910407,0.0458334,-0.0409236,0.0102
 217,-0.0283501,-0.0406235,-0.02833,0.0002331,0.0353404,-0.0312568,0.02
 77327,0.2489073,-0.0474746,0.0188631,0.0291255,-0.1077504,-0.1626987,-
 0.0651907,-0.0271801,-0.0189093,-0.1227836,-0.1384371,0.0427954,-0.011
 1891,-0.0677763,0.0922035,0.0407632,-0.0601323,0.0803007,-0.0411833\Po
 lar=304.2702501,-5.8815425,302.1353475,-0.052734,0.0492947,297.2684517
 \PG=C01 [X(Si10)]\NImag=0\\0.06530019,0.02562448,0.06506512,0.02038424
 ,0.02014664,0.05663877,-0.01414923,0.00118103,-0.01781724,0.10453400,-
 0.00131209,-0.00310521,-0.00331685,-0.01346203,0.06891509,-0.01467023,
 -0.00052525,-0.02525238,-0.00877044,0.00348624,0.06730868,-0.03045900,
 -0.01259395,0.00436332,0.00833594,-0.00589811,0.00937736,0.08792037,-0
 .01328490,-0.01017191,0.00162236,-0.00386662,-0.00922171,0.00192112,-0
 .01880919,0.08098670,-0.00011906,0.00001604,-0.00178552,0.00516100,0.0
 0205146,-0.01415242,0.01328769,-0.01084784,0.07192890,-0.00277385,-0.0
 1074403,0.00094711,-0.00075410,0.00210959,0.00538376,-0.01975020,0.025
 68544,-0.00358231,0.06578834,-0.00529151,-0.02574106,0.00096332,0.0062
 5080,-0.00484515,0.00911355,0.02575956,-0.01062718,0.00287794,-0.00347
 845,0.06439171,-0.00204452,-0.00319175,0.00147342,0.00134769,0.0025295
 4,-0.00383499,-0.00152095,0.00117068,0.00146611,0.00996249,-0.00832205
 ,0.06296646,-0.00320366,-0.00205125,0.00194791,-0.00198957,0.00171242,
 -0.00153775,-0.00623963,-0.00814796,-0.00000456,-0.02233542,-0.0144720
 6,0.00308558,0.05604475,0.00075553,-0.00344452,0.00278878,-0.00577029,
 -0.00750057,0.00370943,-0.00886766,-0.03413005,0.00049902,-0.00892359,
 -0.00645627,0.00263427,0.02392798,0.07381910,-0.00239763,-0.00240163,-
 0.00345651,0.00177276,0.00088296,-0.00506586,-0.00084513,-0.00431131,-
 0.00176691,-0.00063227,-0.00090767,0.00142479,-0.01639697,-0.02401594,
 0.05719741,-0.00269495,0.00421343,0.00041936,-0.05830288,0.01093235,0.
 01618542,-0.02459359,0.01831338,-0.02119081,-0.00460074,-0.00100768,0.
 00244799,-0.00001088,-0.00352136,0.00205229,0.10021791,-0.00403850,0.0
 0009655,-0.00198663,0.00092588,0.00244642,-0.00253946,0.01826359,-0.01
 758958,0.01753028,-0.00102502,-0.00495006,-0.00202965,0.00468822,-0.00
 255293,-0.00006578,-0.04040612,0.08554138,-0.00322870,0.00100003,0.000
 54443,0.02065368,-0.00631040,-0.00742891,-0.03011767,0.02497045,-0.020
 99867,-0.00406912,0.00340819,-0.00435701,-0.00158856,0.00303623,0.0005
 2562,-0.00025620,0.00024464,0.05158685,-0.00000092,-0.00168979,-0.0046
 7155,-0.02583580,0.02075651,0.00480275,-0.00221091,0.00345166,0.002051
 60,-0.00686835,-0.00452541,0.00619352,-0.00623551,0.00171137,0.0011110
 5,-0.00501804,-0.00433219,0.00163656,0.07763310,0.00154941,-0.01025672
 ,-0.01479332,0.02285382,-0.01176664,0.00142405,0.00634510,-0.00125987,
 0.00011319,-0.00652699,-0.00144064,0.01388228,-0.00431384,-0.00239205,
 0.00211462,0.00299041,-0.00341111,-0.00218840,-0.00091448,0.05379160,0
 .00209386,-0.01379820,-0.01665166,0.00369559,0.00240335,0.00833971,0.0
 0930256,0.00417735,-0.00608773,0.00714924,0.00934133,-0.02460223,0.003
 78355,-0.00017255,-0.00267025,-0.00163551,0.00058325,-0.00544129,-0.00
 562250,0.00336695,0.06183976,-0.00328333,-0.00117647,-0.00314425,-0.00
 307291,-0.00039964,-0.00176690,-0.00293099,-0.00087960,0.00536522,-0.0
 0256823,0.00101626,-0.00460124,-0.00278822,0.00025754,0.00150211,-0.00
 040318,0.00144523,0.00482723,-0.00878129,-0.00177393,-0.01697909,0.039
 83047,0.00016963,-0.00295800,-0.00209926,0.00127115,-0.01686666,-0.019
 20978,-0.00091377,-0.00327919,-0.00451401,0.00105525,-0.00217465,0.003
 81454,-0.00107742,-0.00344355,0.00346675,0.00141277,0.00009180,-0.0040
 4994,0.00051690,0.00055245,-0.00284146,0.00024533,0.03996849,0.0030525
 8,0.00158229,-0.00385683,-0.00052718,-0.01485448,-0.02229568,-0.001269
 20,0.00103513,-0.00832189,0.00074046,-0.00066290,-0.00657640,-0.001016
 65,-0.00329330,-0.00385502,-0.00245177,0.00204117,-0.00172047,-0.00979
 402,-0.00204790,-0.01862472,-0.00343319,0.00321058,0.10700947,-0.00665
 950,0.00084804,-0.00055439,-0.00375615,-0.01369043,-0.00757118,-0.0071
 0202,-0.00858690,-0.00107039,-0.00651440,0.00125157,-0.00241984,-0.003
 36376,0.00066652,0.00009413,-0.00138103,0.02115076,0.00973573,-0.00976
 951,-0.00178606,-0.00609535,-0.01644561,-0.00269051,0.01446730,0.07465
 243,-0.00663185,-0.00286541,-0.00188274,-0.00956295,-0.00803436,0.0048
 0101,-0.00663034,0.00590524,-0.00567984,0.00531585,0.00041381,-0.00162
 497,0.00313638,-0.01362615,0.01811278,0.01109837,-0.05447370,-0.018917
 84,-0.00086812,-0.00528078,-0.00149081,-0.00103114,-0.00327603,0.00306
 217,-0.01879051,0.09930289,-0.00389241,0.00081037,-0.00503706,-0.00601
 976,0.00678141,-0.00304095,-0.00010959,-0.00973909,-0.01425514,-0.0079
 7672,-0.00697635,-0.00362145,-0.00214202,0.01451130,-0.02548332,0.0052
 7930,-0.01525624,-0.00725828,0.00189044,0.00180609,0.00548005,0.018574
 24,0.00504786,-0.02268882,-0.00516900,0.00774087,0.06723447,-0.0020757
 6,-0.00361149,-0.00187452,-0.00500930,-0.00074858,-0.00143281,-0.00296
 997,0.00612469,0.00010161,0.00037696,-0.00550307,-0.01245072,-0.009878
 10,-0.00023604,0.01373966,-0.00321263,0.00332816,0.00240706,-0.0129127
 7,-0.01842344,0.00430765,0.00044329,0.00001066,0.00023167,-0.01966045,
 0.02396431,-0.00043448,0.05489873,0.00245980,-0.00661884,-0.00144231,0
 .00017921,-0.01002120,-0.00218093,0.00334477,-0.00061246,-0.00204624,-
 0.00346803,-0.00857051,-0.00886291,-0.00340247,-0.00027301,0.00712522,
 -0.00402554,-0.00519876,-0.00119297,-0.01410645,-0.01853623,-0.0015692
 1,0.00229642,-0.00861466,0.00992724,0.02162751,-0.01806550,-0.00472622
 ,-0.00490521,0.07651115,0.00082186,-0.00363855,-0.00261666,0.00050390,
 0.00634677,0.00542280,-0.00246840,-0.00999885,-0.00602674,-0.00792264,
 -0.00883536,-0.02433871,0.01386948,0.00030276,-0.01684995,-0.00085008,
 0.00147842,-0.00545227,0.00240216,-0.00367759,-0.00158165,-0.00034413,
 0.01717471,-0.01906963,-0.00141701,-0.00412063,0.00867051,-0.00459514,
 0.00496832,0.06184229\\0.00004385,0.00002609,-0.00001075,0.00003028,-0
 .00000637,0.00006506,0.00002761,-0.00009353,-0.00002166,0.00009238,0.0
 0005384,-0.00004620,-0.00000866,-0.00000347,-0.00001040,-0.00000324,0.
 00002058,-0.00003087,-0.00000666,-0.00001523,-0.00001416,0.00002573,-0
 .00001032,-0.00000047,-0.00009147,0.00006220,-0.00003145,-0.00010982,-
 0.00003379,0.00010090\\\@


 BUT 'GLORY' DOESN'T MEAN 'A NICE KNOCK DOWN ARGUMENT', ALICE OBJECTED.
 WHEN I USE A WORD, HUMPTY DUMPTY SAID, IN A RATHER SCORNFUL TONE,
 IT MEANS JUST WHAT I CHOOSE IT TO MEAN....
 NEITHER MORE NOR LESS....
 THE QUESTION IS, SAID ALICE,
 WHETHER YOU CAN MAKE WORDS MEAN SO MANY DIFFERENT THINGS...
 THE QUESTION IS, SAID HUMPTY DUMPTY,
 WHICH IS TO BE MASTER....
 THAT IS ALL.....

 ALICE THROUGH THE LOOKING GLASS
 Job cpu time:  0 days  1 hours 37 minutes 31.8 seconds.
 File lengths (MBytes):  RWF=    173 Int=      0 D2E=      0 Chk=     12 Scr=      1
 Normal termination of Gaussian 03 at Mon Apr  4 18:03:37 2011.
