 Entering Gaussian System, Link 0=g03
 Initial command:
 /usr/local/chem/g03E01/l1.exe /temp0/tam/Gau-3657.inp -scrdir=/temp0/tam/
 Entering Link 1 = /usr/local/chem/g03E01/l1.exe PID=      3658.
  
 Copyright (c) 1988,1990,1992,1993,1995,1998,2003,2004,2007, Gaussian, Inc.
                  All Rights Reserved.
  
 This is the Gaussian(R) 03 program.  It is based on the
 the Gaussian(R) 98 system (copyright 1998, Gaussian, Inc.),
 the Gaussian(R) 94 system (copyright 1995, Gaussian, Inc.),
 the Gaussian 92(TM) system (copyright 1992, Gaussian, Inc.),
 the Gaussian 90(TM) system (copyright 1990, Gaussian, Inc.),
 the Gaussian 88(TM) system (copyright 1988, Gaussian, Inc.),
 the Gaussian 86(TM) system (copyright 1986, Carnegie Mellon
 University), and the Gaussian 82(TM) system (copyright 1983,
 Carnegie Mellon University). Gaussian is a federally registered
 trademark of Gaussian, Inc.
  
 This software contains proprietary and confidential information,
 including trade secrets, belonging to Gaussian, Inc.
  
 This software is provided under written license and may be
 used, copied, transmitted, or stored only in accord with that
 written license.
  
 The following legend is applicable only to US Government
 contracts under FAR:
  
                    RESTRICTED RIGHTS LEGEND
  
 Use, reproduction and disclosure by the US Government is
 subject to restrictions as set forth in subparagraphs (a)
 and (c) of the Commercial Computer Software - Restricted
 Rights clause in FAR 52.227-19.
  
 Gaussian, Inc.
 340 Quinnipiac St., Bldg. 40, Wallingford CT 06492
  
  
 ---------------------------------------------------------------
 Warning -- This program may not be used in any manner that
 competes with the business of Gaussian, Inc. or will provide
 assistance to any competitor of Gaussian, Inc.  The licensee
 of this program is prohibited from giving any competitor of
 Gaussian, Inc. access to this program.  By using this program,
 the user acknowledges that Gaussian, Inc. is engaged in the
 business of creating and licensing software in the field of
 computational chemistry and represents and warrants to the
 licensee that it is not a competitor of Gaussian, Inc. and that
 it will not use this program in any manner prohibited above.
 ---------------------------------------------------------------
  

 Cite this work as:
 Gaussian 03, Revision E.01,
 M. J. Frisch, G. W. Trucks, H. B. Schlegel, G. E. Scuseria, 
 M. A. Robb, J. R. Cheeseman, J. A. Montgomery, Jr., T. Vreven, 
 K. N. Kudin, J. C. Burant, J. M. Millam, S. S. Iyengar, J. Tomasi, 
 V. Barone, B. Mennucci, M. Cossi, G. Scalmani, N. Rega, 
 G. A. Petersson, H. Nakatsuji, M. Hada, M. Ehara, K. Toyota, 
 R. Fukuda, J. Hasegawa, M. Ishida, T. Nakajima, Y. Honda, O. Kitao, 
 H. Nakai, M. Klene, X. Li, J. E. Knox, H. P. Hratchian, J. B. Cross, 
 V. Bakken, C. Adamo, J. Jaramillo, R. Gomperts, R. E. Stratmann, 
 O. Yazyev, A. J. Austin, R. Cammi, C. Pomelli, J. W. Ochterski, 
 P. Y. Ayala, K. Morokuma, G. A. Voth, P. Salvador, J. J. Dannenberg, 
 V. G. Zakrzewski, S. Dapprich, A. D. Daniels, M. C. Strain, 
 O. Farkas, D. K. Malick, A. D. Rabuck, K. Raghavachari, 
 J. B. Foresman, J. V. Ortiz, Q. Cui, A. G. Baboul, S. Clifford, 
 J. Cioslowski, B. B. Stefanov, G. Liu, A. Liashenko, P. Piskorz, 
 I. Komaromi, R. L. Martin, D. J. Fox, T. Keith, M. A. Al-Laham, 
 C. Y. Peng, A. Nanayakkara, M. Challacombe, P. M. W. Gill, 
 B. Johnson, W. Chen, M. W. Wong, C. Gonzalez, and J. A. Pople, 
 Gaussian, Inc., Wallingford CT, 2004.
 
 ******************************************
 Gaussian 03:  AM64L-G03RevE.01 11-Sep-2007
                17-Jun-2011 
 ******************************************
 %NprocShared=4
 Will use up to    4 processors via shared memory.
 %mem=13750MB
 %chk=S9L-ne-d-01
 --------------------------------------
 # hf/6-311G(d) freq scfcyc=500 scf=xqc
 --------------------------------------
 1/10=4,30=1,38=1/1,3;
 2/17=6,18=5,40=1/2;
 3/5=4,6=6,7=1,11=9,16=1,25=1,30=1/1,2,3;
 4//1;
 5/5=2,7=500,8=3,13=1,38=5/2,8;
 8/6=4,10=90,11=11/1;
 10/13=10/2;
 11/6=2,8=1,9=11,15=111,16=1/1,2,10;
 10/6=1/2;
 6/7=2,8=2,9=2,10=2,18=1,28=1/1;
 7/8=1,10=1,25=1/1,2,3,16;
 1/10=4,30=1/3;
 99//99;
 ------
 si10-c
 ------
 Symbolic Z-matrix:
 Charge =  1 Multiplicity = 2
 Si                    0.24858  -1.42972  -1.99003 
 Si                   -0.94612   0.66055  -1.4594 
 Si                   -0.95134  -1.5923    0.15816 
 Si                    1.58663  -1.47996   0.14718 
 Si                    0.25006  -1.01007   2.23215 
 Si                   -2.68081   0.00577   0.00074 
 Si                    1.59111   0.60908  -1.35332 
 Si                    0.25453   2.43762  -0.24249 
 Si                   -0.94482   0.93504   1.30151 
 Si                    1.5922    0.86397   1.2055 
 

 GradGradGradGradGradGradGradGradGradGradGradGradGradGradGradGradGradGrad
 Berny optimization.
 Initialization pass.
 Trust Radius=3.00D-01 FncErr=1.00D-07 GrdErr=1.00D-07
 Number of steps in this run=   2 maximum allowed number of steps=   2.
 GradGradGradGradGradGradGradGradGradGradGradGradGradGradGradGradGradGrad

                          Input orientation:                          
 ---------------------------------------------------------------------
 Center     Atomic     Atomic              Coordinates (Angstroms)
 Number     Number      Type              X           Y           Z
 ---------------------------------------------------------------------
    1         14             0        0.248578   -1.429718   -1.990027
    2         14             0       -0.946115    0.660551   -1.459401
    3         14             0       -0.951342   -1.592304    0.158163
    4         14             0        1.586627   -1.479955    0.147178
    5         14             0        0.250056   -1.010069    2.232147
    6         14             0       -2.680812    0.005774    0.000739
    7         14             0        1.591108    0.609082   -1.353324
    8         14             0        0.254528    2.437623   -0.242487
    9         14             0       -0.944823    0.935044    1.301513
   10         14             0        1.592195    0.863971    1.205499
 ---------------------------------------------------------------------
                    Distance matrix (angstroms):
                    1          2          3          4          5
     1  Si   0.000000
     2  Si   2.465376   0.000000
     3  Si   2.465961   2.773427   0.000000
     4  Si   2.522012   3.684785   2.540478   0.000000
     5  Si   4.242978   4.224846   2.466529   2.520776   0.000000
     6  Si   3.821664   2.360067   2.360022   4.521048   3.821139
     7  Si   2.522793   2.539961   3.687105   2.572081   4.156401
     8  Si   4.243849   2.465848   4.225512   4.156169   4.243868
     9  Si   4.224990   2.774526   2.773947   3.684148   2.465214
    10  Si   4.156646   3.685931   3.687788   2.571782   2.523365
                    6          7          8          9         10
     6  Si   0.000000
     7  Si   4.521810   0.000000
     8  Si   3.819590   2.522690   0.000000
     9  Si   2.359918   3.685832   2.465790   0.000000
    10  Si   4.521785   2.571487   2.522379   2.539829   0.000000
 Stoichiometry    Si10(1+,2)
 Framework group  C1[X(Si10)]
 Deg. of freedom    24
 Full point group                 C1
 Largest Abelian subgroup         C1      NOp   1
 Largest concise Abelian subgroup C1      NOp   1
                         Standard orientation:                         
 ---------------------------------------------------------------------
 Center     Atomic     Atomic              Coordinates (Angstroms)
 Number     Number      Type              X           Y           Z
 ---------------------------------------------------------------------
    1         14             0        0.248578   -1.429718   -1.990027
    2         14             0       -0.946115    0.660551   -1.459401
    3         14             0       -0.951342   -1.592304    0.158163
    4         14             0        1.586627   -1.479955    0.147178
    5         14             0        0.250056   -1.010069    2.232147
    6         14             0       -2.680812    0.005775    0.000739
    7         14             0        1.591108    0.609082   -1.353324
    8         14             0        0.254529    2.437623   -0.242487
    9         14             0       -0.944823    0.935044    1.301513
   10         14             0        1.592195    0.863971    1.205499
 ---------------------------------------------------------------------
 Rotational constants (GHZ):      0.5589704      0.5342918      0.5342370
 Standard basis: 6-311G(d) (5D, 7F)
 There are   260 symmetry adapted basis functions of A   symmetry.
 Integral buffers will be    131072 words long.
 Raffenetti 2 integral format.
 Two-electron integral symmetry is turned on.
   260 basis functions,   460 primitive gaussians,   270 cartesian basis functions
    70 alpha electrons       69 beta electrons
       nuclear repulsion energy      1527.5208996478 Hartrees.
 NAtoms=   10 NActive=   10 NUniq=   10 SFac= 7.50D-01 NAtFMM=   80 NAOKFM=F Big=F
 One-electron integrals computed using PRISM.
 NBasis=   260 RedAO= T  NBF=   260
 NBsUse=   260 1.00D-06 NBFU=   260
 Harris functional with IExCor=  205 diagonalized for initial guess.
 ExpMin= 6.54D-02 ExpMax= 6.94D+04 ExpMxC= 2.33D+03 IAcc=2 IRadAn=         4 AccDes= 0.00D+00
 HarFok:  IExCor= 205 AccDes= 0.00D+00 IRadAn=         4 IDoV=1
 ScaDFX=  1.000000  1.000000  1.000000  1.000000
 Initial guess orbital symmetries:
 Alpha Orbitals:
       Occupied  (A) (A) (A) (A) (A) (A) (A) (A) (A) (A) (A) (A)
                 (A) (A) (A) (A) (A) (A) (A) (A) (A) (A) (A) (A)
                 (A) (A) (A) (A) (A) (A) (A) (A) (A) (A) (A) (A)
                 (A) (A) (A) (A) (A) (A) (A) (A) (A) (A) (A) (A)
                 (A) (A) (A) (A) (A) (A) (A) (A) (A) (A) (A) (A)
                 (A) (A) (A) (A) (A) (A) (A) (A) (A) (A)
       Virtual   (A) (A) (A) (A) (A) (A) (A) (A) (A) (A) (A) (A)
                 (A) (A) (A) (A) (A) (A) (A) (A) (A) (A) (A) (A)
                 (A) (A) (A) (A) (A) (A) (A) (A) (A) (A) (A) (A)
                 (A) (A) (A) (A) (A) (A) (A) (A) (A) (A) (A) (A)
                 (A) (A) (A) (A) (A) (A) (A) (A) (A) (A) (A) (A)
                 (A) (A) (A) (A) (A) (A) (A) (A) (A) (A) (A) (A)
                 (A) (A) (A) (A) (A) (A) (A) (A) (A) (A) (A) (A)
                 (A) (A) (A) (A) (A) (A) (A) (A) (A) (A) (A) (A)
                 (A) (A) (A) (A) (A) (A) (A) (A) (A) (A) (A) (A)
                 (A) (A) (A) (A) (A) (A) (A) (A) (A) (A) (A) (A)
                 (A) (A) (A) (A) (A) (A) (A) (A) (A) (A) (A) (A)
                 (A) (A) (A) (A) (A) (A) (A) (A) (A) (A) (A) (A)
                 (A) (A) (A) (A) (A) (A) (A) (A) (A) (A) (A) (A)
                 (A) (A) (A) (A) (A) (A) (A) (A) (A) (A) (A) (A)
                 (A) (A) (A) (A) (A) (A) (A) (A) (A) (A) (A) (A)
                 (A) (A) (A) (A) (A) (A) (A) (A) (A) (A)
 Beta  Orbitals:
       Occupied  (A) (A) (A) (A) (A) (A) (A) (A) (A) (A) (A) (A)
                 (A) (A) (A) (A) (A) (A) (A) (A) (A) (A) (A) (A)
                 (A) (A) (A) (A) (A) (A) (A) (A) (A) (A) (A) (A)
                 (A) (A) (A) (A) (A) (A) (A) (A) (A) (A) (A) (A)
                 (A) (A) (A) (A) (A) (A) (A) (A) (A) (A) (A) (A)
                 (A) (A) (A) (A) (A) (A) (A) (A) (A)
       Virtual   (A) (A) (A) (A) (A) (A) (A) (A) (A) (A) (A) (A)
                 (A) (A) (A) (A) (A) (A) (A) (A) (A) (A) (A) (A)
                 (A) (A) (A) (A) (A) (A) (A) (A) (A) (A) (A) (A)
                 (A) (A) (A) (A) (A) (A) (A) (A) (A) (A) (A) (A)
                 (A) (A) (A) (A) (A) (A) (A) (A) (A) (A) (A) (A)
                 (A) (A) (A) (A) (A) (A) (A) (A) (A) (A) (A) (A)
                 (A) (A) (A) (A) (A) (A) (A) (A) (A) (A) (A) (A)
                 (A) (A) (A) (A) (A) (A) (A) (A) (A) (A) (A) (A)
                 (A) (A) (A) (A) (A) (A) (A) (A) (A) (A) (A) (A)
                 (A) (A) (A) (A) (A) (A) (A) (A) (A) (A) (A) (A)
                 (A) (A) (A) (A) (A) (A) (A) (A) (A) (A) (A) (A)
                 (A) (A) (A) (A) (A) (A) (A) (A) (A) (A) (A) (A)
                 (A) (A) (A) (A) (A) (A) (A) (A) (A) (A) (A) (A)
                 (A) (A) (A) (A) (A) (A) (A) (A) (A) (A) (A) (A)
                 (A) (A) (A) (A) (A) (A) (A) (A) (A) (A) (A) (A)
                 (A) (A) (A) (A) (A) (A) (A) (A) (A) (A) (A)
 The electronic state of the initial guess is 2-A.
 <S**2> of initial guess= 0.7500
 Requested convergence on RMS density matrix=1.00D-08 within 128 cycles.
 Requested convergence on MAX density matrix=1.00D-06.
 Requested convergence on             energy=1.00D-06.
 No special actions if energy rises.
 Keep R1 and R2 integrals in memory in canonical form, NReq=  1349545437.
 Restarting incremental Fock formation.
 Restarting incremental Fock formation.
 SCF Done:  E(UHF) =  -2888.87730483     A.U. after   53 cycles
             Convg  =    0.4199D-08             -V/T =  1.9999
             S**2   =   0.8470
 Annihilation of the first spin contaminant:
 S**2 before annihilation     0.8470,   after     0.7576
 QCSCF skips out because SCF is already converged.
 Range of M.O.s used for correlation:     1   260
 NBasis=   260 NAE=    70 NBE=    69 NFC=     0 NFV=     0
 NROrb=    260 NOA=    70 NOB=    69 NVA=   190 NVB=   191
          Differentiating once with respect to electric field.
                with respect to dipole field.
          Electric field/nuclear overlap derivatives assumed to be zero.
          Store integrals in memory, NReq=  1339320425.
          There are   3 degrees of freedom in the 1st order CPHF.
     3 vectors were produced by pass  0.
 AX will form   3 AO Fock derivatives at one time.
     3 vectors were produced by pass  1.
     3 vectors were produced by pass  2.
     3 vectors were produced by pass  3.
     3 vectors were produced by pass  4.
     3 vectors were produced by pass  5.
     3 vectors were produced by pass  6.
     3 vectors were produced by pass  7.
     3 vectors were produced by pass  8.
     3 vectors were produced by pass  9.
     3 vectors were produced by pass 10.
     3 vectors were produced by pass 11.
     3 vectors were produced by pass 12.
     3 vectors were produced by pass 13.
     3 vectors were produced by pass 14.
     3 vectors were produced by pass 15.
     3 vectors were produced by pass 16.
     3 vectors were produced by pass 17.
     1 vectors were produced by pass 18.
 Inv2:  IOpt= 1 Iter= 1 AM= 1.15D-14 Conv= 1.00D-12.
 Inverted reduced A of dimension   55 with in-core refinement.
 End of Minotr Frequency-dependent properties file   721 does not exist.
 Symmetrizing basis deriv contribution to polar:
 IMax=3 JMax=2 DiffMx= 0.00D+00
 G2DrvN: will do   11 centers at a time, making    1 passes doing MaxLOS=2.
 FoFDir/FoFCou used for L=0 through L=2.
 DoAtom=TTTTTTTTTT
          Differentiating once with respect to electric field.
                with respect to dipole field.
          Differentiating once with respect to nuclear coordinates.
          Store integrals in memory, NReq=  1339320635.
          There are  33 degrees of freedom in the 1st order CPHF.
    30 vectors were produced by pass  0.
 AX will form  30 AO Fock derivatives at one time.
    30 vectors were produced by pass  1.
    30 vectors were produced by pass  2.
    30 vectors were produced by pass  3.
    30 vectors were produced by pass  4.
    30 vectors were produced by pass  5.
    30 vectors were produced by pass  6.
    30 vectors were produced by pass  7.
    30 vectors were produced by pass  8.
    30 vectors were produced by pass  9.
     7 vectors were produced by pass 10.
     3 vectors were produced by pass 11.
     3 vectors were produced by pass 12.
     1 vectors were produced by pass 13.
 Inv2:  IOpt= 1 Iter= 1 AM= 2.67D-14 Conv= 1.00D-12.
 Inverted reduced A of dimension  314 with in-core refinement.
 Isotropic polarizability for W=    0.000000      277.88 Bohr**3.
 End of Minotr Frequency-dependent properties file   721 does not exist.

 **********************************************************************

            Population analysis using the SCF density.

 **********************************************************************

 Orbital symmetries:
 Alpha Orbitals:
       Occupied  (A) (A) (A) (A) (A) (A) (A) (A) (A) (A) (A) (A)
                 (A) (A) (A) (A) (A) (A) (A) (A) (A) (A) (A) (A)
                 (A) (A) (A) (A) (A) (A) (A) (A) (A) (A) (A) (A)
                 (A) (A) (A) (A) (A) (A) (A) (A) (A) (A) (A) (A)
                 (A) (A) (A) (A) (A) (A) (A) (A) (A) (A) (A) (A)
                 (A) (A) (A) (A) (A) (A) (A) (A) (A) (A)
       Virtual   (A) (A) (A) (A) (A) (A) (A) (A) (A) (A) (A) (A)
                 (A) (A) (A) (A) (A) (A) (A) (A) (A) (A) (A) (A)
                 (A) (A) (A) (A) (A) (A) (A) (A) (A) (A) (A) (A)
                 (A) (A) (A) (A) (A) (A) (A) (A) (A) (A) (A) (A)
                 (A) (A) (A) (A) (A) (A) (A) (A) (A) (A) (A) (A)
                 (A) (A) (A) (A) (A) (A) (A) (A) (A) (A) (A) (A)
                 (A) (A) (A) (A) (A) (A) (A) (A) (A) (A) (A) (A)
                 (A) (A) (A) (A) (A) (A) (A) (A) (A) (A) (A) (A)
                 (A) (A) (A) (A) (A) (A) (A) (A) (A) (A) (A) (A)
                 (A) (A) (A) (A) (A) (A) (A) (A) (A) (A) (A) (A)
                 (A) (A) (A) (A) (A) (A) (A) (A) (A) (A) (A) (A)
                 (A) (A) (A) (A) (A) (A) (A) (A) (A) (A) (A) (A)
                 (A) (A) (A) (A) (A) (A) (A) (A) (A) (A) (A) (A)
                 (A) (A) (A) (A) (A) (A) (A) (A) (A) (A) (A) (A)
                 (A) (A) (A) (A) (A) (A) (A) (A) (A) (A) (A) (A)
                 (A) (A) (A) (A) (A) (A) (A) (A) (A) (A)
 Beta  Orbitals:
       Occupied  (A) (A) (A) (A) (A) (A) (A) (A) (A) (A) (A) (A)
                 (A) (A) (A) (A) (A) (A) (A) (A) (A) (A) (A) (A)
                 (A) (A) (A) (A) (A) (A) (A) (A) (A) (A) (A) (A)
                 (A) (A) (A) (A) (A) (A) (A) (A) (A) (A) (A) (A)
                 (A) (A) (A) (A) (A) (A) (A) (A) (A) (A) (A) (A)
                 (A) (A) (A) (A) (A) (A) (A) (A) (A)
       Virtual   (A) (A) (A) (A) (A) (A) (A) (A) (A) (A) (A) (A)
                 (A) (A) (A) (A) (A) (A) (A) (A) (A) (A) (A) (A)
                 (A) (A) (A) (A) (A) (A) (A) (A) (A) (A) (A) (A)
                 (A) (A) (A) (A) (A) (A) (A) (A) (A) (A) (A) (A)
                 (A) (A) (A) (A) (A) (A) (A) (A) (A) (A) (A) (A)
                 (A) (A) (A) (A) (A) (A) (A) (A) (A) (A) (A) (A)
                 (A) (A) (A) (A) (A) (A) (A) (A) (A) (A) (A) (A)
                 (A) (A) (A) (A) (A) (A) (A) (A) (A) (A) (A) (A)
                 (A) (A) (A) (A) (A) (A) (A) (A) (A) (A) (A) (A)
                 (A) (A) (A) (A) (A) (A) (A) (A) (A) (A) (A) (A)
                 (A) (A) (A) (A) (A) (A) (A) (A) (A) (A) (A) (A)
                 (A) (A) (A) (A) (A) (A) (A) (A) (A) (A) (A) (A)
                 (A) (A) (A) (A) (A) (A) (A) (A) (A) (A) (A) (A)
                 (A) (A) (A) (A) (A) (A) (A) (A) (A) (A) (A) (A)
                 (A) (A) (A) (A) (A) (A) (A) (A) (A) (A) (A) (A)
                 (A) (A) (A) (A) (A) (A) (A) (A) (A) (A) (A)
 The electronic state is 2-A.
 Alpha  occ. eigenvalues --  -68.98342 -68.98342 -68.98338 -68.98164 -68.96624
 Alpha  occ. eigenvalues --  -68.96621 -68.96620 -68.95938 -68.95932 -68.95932
 Alpha  occ. eigenvalues --   -6.32797  -6.32788  -6.32786  -6.32512  -6.31271
 Alpha  occ. eigenvalues --   -6.31266  -6.31263  -6.30313  -6.30309  -6.30307
 Alpha  occ. eigenvalues --   -4.43377  -4.43348  -4.43346  -4.42840  -4.42838
 Alpha  occ. eigenvalues --   -4.42837  -4.42828  -4.42827  -4.42826  -4.42824
 Alpha  occ. eigenvalues --   -4.42570  -4.42570  -4.41660  -4.41648  -4.41646
 Alpha  occ. eigenvalues --   -4.41588  -4.41584  -4.41581  -4.41557  -4.41553
 Alpha  occ. eigenvalues --   -4.41548  -4.40449  -4.40444  -4.40444  -4.40439
 Alpha  occ. eigenvalues --   -4.40435  -4.40434  -4.40415  -4.40410  -4.40409
 Alpha  occ. eigenvalues --   -1.07033  -0.93837  -0.92155  -0.92154  -0.75596
 Alpha  occ. eigenvalues --   -0.72297  -0.72291  -0.70804  -0.70802  -0.62009
 Alpha  occ. eigenvalues --   -0.50378  -0.50375  -0.49992  -0.49205  -0.48224
 Alpha  occ. eigenvalues --   -0.47292  -0.47281  -0.45928  -0.45926  -0.45764
 Alpha virt. eigenvalues --   -0.18706  -0.16225  -0.16214  -0.10190  -0.09353
 Alpha virt. eigenvalues --   -0.09349  -0.08328  -0.06933  -0.06930  -0.06703
 Alpha virt. eigenvalues --   -0.06690  -0.06503  -0.03698  -0.03685  -0.01128
 Alpha virt. eigenvalues --    0.03931   0.03939   0.05836   0.05837   0.05970
 Alpha virt. eigenvalues --    0.06541   0.07108   0.07109   0.07390   0.09783
 Alpha virt. eigenvalues --    0.09795   0.10164   0.11756   0.11899   0.11905
 Alpha virt. eigenvalues --    0.12431   0.14027   0.14030   0.16813   0.17070
 Alpha virt. eigenvalues --    0.17074   0.19250   0.19251   0.20166   0.20418
 Alpha virt. eigenvalues --    0.20425   0.20644   0.24406   0.24902   0.24916
 Alpha virt. eigenvalues --    0.27157   0.27168   0.29646   0.29648   0.30379
 Alpha virt. eigenvalues --    0.37614   0.39612   0.39614   0.41121   0.42295
 Alpha virt. eigenvalues --    0.42302   0.49374   0.51747   0.52315   0.52320
 Alpha virt. eigenvalues --    0.53030   0.55463   0.55467   0.56509   0.56950
 Alpha virt. eigenvalues --    0.56962   0.57957   0.57977   0.58205   0.59521
 Alpha virt. eigenvalues --    0.59530   0.62470   0.62481   0.62514   0.64244
 Alpha virt. eigenvalues --    0.67437   0.67931   0.67941   0.72471   0.72476
 Alpha virt. eigenvalues --    0.72572   0.74414   0.74421   0.77448   0.77457
 Alpha virt. eigenvalues --    0.77881   0.80600   0.83687   0.83692   0.84377
 Alpha virt. eigenvalues --    0.84381   0.87295   0.88526   0.88824   0.88827
 Alpha virt. eigenvalues --    0.90859   0.91148   0.91332   0.91366   0.92829
 Alpha virt. eigenvalues --    0.92847   0.94579   0.95861   0.95881   0.97314
 Alpha virt. eigenvalues --    0.97339   0.99220   1.00359   1.04590   1.04612
 Alpha virt. eigenvalues --    1.27081   1.31083   1.31086   1.33576   1.34767
 Alpha virt. eigenvalues --    1.34771   1.37622   1.37623   1.38528   1.39545
 Alpha virt. eigenvalues --    1.41179   1.41183   1.45728   1.45731   1.46062
 Alpha virt. eigenvalues --    1.50943   1.50949   1.52819   1.53912   1.54410
 Alpha virt. eigenvalues --    1.54415   1.55674   1.56907   1.57834   1.59042
 Alpha virt. eigenvalues --    1.59055   1.63776   1.63785   1.70673   1.70678
 Alpha virt. eigenvalues --    5.62125   5.73820   5.73828   5.75264   5.76898
 Alpha virt. eigenvalues --    5.78832   5.78836   5.81734   5.81737   5.92093
 Alpha virt. eigenvalues --   11.94627  11.95616  11.95617  11.97494  11.97501
 Alpha virt. eigenvalues --   11.98360  12.00554  12.01176  12.01179  12.01391
 Alpha virt. eigenvalues --   12.02244  12.02250  12.03954  12.03962  12.05378
 Alpha virt. eigenvalues --   12.05917  12.08174  12.08178  12.11940  12.11955
 Alpha virt. eigenvalues --   12.13186  12.15369  12.15373  12.16323  12.18226
 Alpha virt. eigenvalues --   12.20303  12.20550  12.20560  12.23346  12.23351
 Alpha virt. eigenvalues --  143.40127 143.51829 143.51839 143.52645 143.55475
 Alpha virt. eigenvalues --  143.57253 143.57255 143.62458 143.62462 143.72465
  Beta  occ. eigenvalues --  -68.98175 -68.98175 -68.98171 -68.98091 -68.96622
  Beta  occ. eigenvalues --  -68.96618 -68.96615 -68.95937 -68.95931 -68.95930
  Beta  occ. eigenvalues --   -6.32621  -6.32617  -6.32614  -6.32432  -6.31272
  Beta  occ. eigenvalues --   -6.31266  -6.31262  -6.30299  -6.30294  -6.30292
  Beta  occ. eigenvalues --   -4.42854  -4.42852  -4.42849  -4.42772  -4.42770
  Beta  occ. eigenvalues --   -4.42760  -4.42536  -4.42535  -4.42474  -4.42347
  Beta  occ. eigenvalues --   -4.42321  -4.42320  -4.41666  -4.41655  -4.41649
  Beta  occ. eigenvalues --   -4.41552  -4.41548  -4.41546  -4.41543  -4.41541
  Beta  occ. eigenvalues --   -4.41539  -4.40507  -4.40501  -4.40501  -4.40435
  Beta  occ. eigenvalues --   -4.40430  -4.40430  -4.40413  -4.40406  -4.40406
  Beta  occ. eigenvalues --   -1.05980  -0.92017  -0.91540  -0.91539  -0.73954
  Beta  occ. eigenvalues --   -0.71892  -0.71886  -0.68807  -0.68804  -0.60345
  Beta  occ. eigenvalues --   -0.50323  -0.50321  -0.48435  -0.48123  -0.46247
  Beta  occ. eigenvalues --   -0.46245  -0.46182  -0.44410  -0.44401
  Beta virt. eigenvalues --   -0.24223  -0.17898  -0.16147  -0.16142  -0.09452
  Beta virt. eigenvalues --   -0.07987  -0.07986  -0.07272  -0.06574  -0.06558
  Beta virt. eigenvalues --   -0.05558  -0.05429  -0.05424  -0.03357  -0.03345
  Beta virt. eigenvalues --   -0.00477   0.04330   0.04337   0.05927   0.06346
  Beta virt. eigenvalues --    0.06349   0.06744   0.07306   0.07307   0.08650
  Beta virt. eigenvalues --    0.10421   0.10434   0.10670   0.11970   0.11973
  Beta virt. eigenvalues --    0.11979   0.12773   0.14503   0.14506   0.16935
  Beta virt. eigenvalues --    0.17703   0.17712   0.19323   0.19324   0.20644
  Beta virt. eigenvalues --    0.20706   0.21095   0.21099   0.25102   0.25110
  Beta virt. eigenvalues --    0.25124   0.27199   0.27208   0.30022   0.30024
  Beta virt. eigenvalues --    0.30406   0.38269   0.39856   0.39857   0.41812
  Beta virt. eigenvalues --    0.42940   0.42947   0.50928   0.52551   0.52554
  Beta virt. eigenvalues --    0.52723   0.52916   0.55569   0.55574   0.56853
  Beta virt. eigenvalues --    0.57576   0.57582   0.58753   0.59006   0.59026
  Beta virt. eigenvalues --    0.59932   0.59942   0.62492   0.62911   0.62922
  Beta virt. eigenvalues --    0.65180   0.68107   0.68178   0.68188   0.72734
  Beta virt. eigenvalues --    0.72740   0.72784   0.75388   0.75393   0.77531
  Beta virt. eigenvalues --    0.77543   0.78056   0.80573   0.84111   0.84125
  Beta virt. eigenvalues --    0.85078   0.85085   0.88006   0.89237   0.89244
  Beta virt. eigenvalues --    0.89458   0.91057   0.91408   0.91685   0.91719
  Beta virt. eigenvalues --    0.93027   0.93045   0.94696   0.96049   0.96061
  Beta virt. eigenvalues --    0.97595   0.97616   0.99204   1.00712   1.04800
  Beta virt. eigenvalues --    1.04821   1.27221   1.31237   1.31240   1.34661
  Beta virt. eigenvalues --    1.34901   1.34905   1.37723   1.37725   1.38603
  Beta virt. eigenvalues --    1.39638   1.41456   1.41460   1.46134   1.46183
  Beta virt. eigenvalues --    1.46186   1.51151   1.51156   1.53228   1.54210
  Beta virt. eigenvalues --    1.54473   1.54477   1.55644   1.57434   1.57968
  Beta virt. eigenvalues --    1.59138   1.59150   1.64173   1.64182   1.70857
  Beta virt. eigenvalues --    1.70863   5.62230   5.74000   5.74009   5.75337
  Beta virt. eigenvalues --    5.77176   5.78854   5.78857   5.81846   5.81848
  Beta virt. eigenvalues --    5.92131  11.94675  11.95739  11.95741  11.97667
  Beta virt. eigenvalues --   11.97674  11.98442  12.00541  12.01191  12.01194
  Beta virt. eigenvalues --   12.01533  12.02441  12.02445  12.04063  12.04073
  Beta virt. eigenvalues --   12.05597  12.05975  12.08231  12.08235  12.11952
  Beta virt. eigenvalues --   12.11966  12.13206  12.15572  12.15576  12.16653
  Beta virt. eigenvalues --   12.18496  12.20342  12.20609  12.20618  12.23342
  Beta virt. eigenvalues --   12.23347 143.40157 143.51885 143.51895 143.52671
  Beta virt. eigenvalues --  143.55549 143.57263 143.57265 143.62488 143.62492
  Beta virt. eigenvalues --  143.72475
          Condensed to atoms (all electrons):
              1          2          3          4          5          6
     1  Si  13.554757   0.090872   0.091193   0.077633  -0.012921   0.006965
     2  Si   0.090872  13.967857  -0.033516  -0.022995  -0.024334   0.122109
     3  Si   0.091193  -0.033516  13.966823  -0.024034   0.091043   0.122297
     4  Si   0.077633  -0.022995  -0.024034  13.809713   0.077897  -0.011063
     5  Si  -0.012921  -0.024334   0.091043   0.077897  13.554969   0.006988
     6  Si   0.006965   0.122109   0.122297  -0.011063   0.006988  13.256471
     7  Si   0.077785  -0.024099  -0.023120  -0.000497  -0.022873  -0.010967
     8  Si  -0.012913   0.090842  -0.024295  -0.022969  -0.012915   0.007058
     9  Si  -0.024327  -0.033291  -0.033417  -0.023036   0.090886   0.122041
    10  Si  -0.022849  -0.023127  -0.023087  -0.000496   0.077544  -0.010950
              7          8          9         10
     1  Si   0.077785  -0.012913  -0.024327  -0.022849
     2  Si  -0.024099   0.090842  -0.033291  -0.023127
     3  Si  -0.023120  -0.024295  -0.033417  -0.023087
     4  Si  -0.000497  -0.022969  -0.023036  -0.000496
     5  Si  -0.022873  -0.012915   0.090886   0.077544
     6  Si  -0.010967   0.007058   0.122041  -0.010950
     7  Si  13.809225   0.077764  -0.023084  -0.000326
     8  Si   0.077764  13.555096   0.090715   0.077878
     9  Si  -0.023084   0.090715  13.967928  -0.024142
    10  Si  -0.000326   0.077878  -0.024142  13.809431
 Mulliken atomic charges:
              1
     1  Si   0.173805
     2  Si  -0.110317
     3  Si  -0.109887
     4  Si   0.139846
     5  Si   0.173716
     6  Si   0.389053
     7  Si   0.140193
     8  Si   0.173739
     9  Si  -0.110272
    10  Si   0.140124
 Sum of Mulliken charges=   1.00000
 Atomic charges with hydrogens summed into heavy atoms:
              1
     1  Si   0.173805
     2  Si  -0.110317
     3  Si  -0.109887
     4  Si   0.139846
     5  Si   0.173716
     6  Si   0.389053
     7  Si   0.140193
     8  Si   0.173739
     9  Si  -0.110272
    10  Si   0.140124
 Sum of Mulliken charges=   1.00000
          Atomic-Atomic Spin Densities.
              1          2          3          4          5          6
     1  Si  -0.001415   0.006016   0.005862  -0.011245   0.005386  -0.006685
     2  Si   0.006016  -0.000424  -0.015529  -0.009696   0.002693   0.030498
     3  Si   0.005862  -0.015529   0.001738   0.005874   0.005879   0.030315
     4  Si  -0.011245  -0.009696   0.005874   0.172706  -0.011325  -0.002678
     5  Si   0.005386   0.002693   0.005879  -0.011325  -0.001526  -0.006687
     6  Si  -0.006685   0.030498   0.030315  -0.002678  -0.006687   0.045083
     7  Si  -0.011425   0.005826  -0.009712   0.094562  -0.010290  -0.002666
     8  Si   0.005398   0.005765   0.002696  -0.010283   0.005400  -0.006685
     9  Si   0.002696  -0.015636  -0.015555  -0.009698   0.005922   0.030588
    10  Si  -0.010292  -0.009688  -0.009710   0.094606  -0.011321  -0.002667
              7          8          9         10
     1  Si  -0.011425   0.005398   0.002696  -0.010292
     2  Si   0.005826   0.005765  -0.015636  -0.009688
     3  Si  -0.009712   0.002696  -0.015555  -0.009710
     4  Si   0.094562  -0.010283  -0.009698   0.094606
     5  Si  -0.010290   0.005400   0.005922  -0.011321
     6  Si  -0.002666  -0.006685   0.030588  -0.002667
     7  Si   0.172756  -0.011203  -0.009677   0.094675
     8  Si  -0.011203  -0.002119   0.005848  -0.011300
     9  Si  -0.009677   0.005848  -0.001094   0.005836
    10  Si   0.094675  -0.011300   0.005836   0.172924
 Mulliken atomic spin densities:
              1
     1  Si  -0.015704
     2  Si  -0.000176
     3  Si   0.001858
     4  Si   0.312822
     5  Si  -0.015868
     6  Si   0.108416
     7  Si   0.312845
     8  Si  -0.016484
     9  Si  -0.000771
    10  Si   0.313062
 Sum of Mulliken spin densities=   1.00000
 APT atomic charges:
              1
     1  Si   0.239557
     2  Si  -0.314117
     3  Si  -0.314944
     4  Si   0.236025
     5  Si   0.239594
     6  Si   0.511570
     7  Si   0.237748
     8  Si   0.240305
     9  Si  -0.313819
    10  Si   0.238084
 Sum of APT charges=   1.00000
 APT Atomic charges with hydrogens summed into heavy atoms:
              1
     1  Si   0.239557
     2  Si  -0.314117
     3  Si  -0.314944
     4  Si   0.236025
     5  Si   0.239594
     6  Si   0.511570
     7  Si   0.237748
     8  Si   0.240305
     9  Si  -0.313819
    10  Si   0.238084
 Sum of APT charges=   1.00000
 Electronic spatial extent (au):  <R**2>=  2759.3295
 Charge=     1.0000 electrons
 Dipole moment (field-independent basis, Debye):
    X=    -0.7572    Y=     0.0056    Z=     0.0011  Tot=     0.7572
 Quadrupole moment (field-independent basis, Debye-Ang):
   XX=  -111.6881   YY=  -119.7458   ZZ=  -119.7581
   XY=    -0.0049   XZ=    -0.0021   YZ=     0.0018
 Traceless Quadrupole moment (field-independent basis, Debye-Ang):
   XX=     5.3759   YY=    -2.6818   ZZ=    -2.6941
   XY=    -0.0049   XZ=    -0.0021   YZ=     0.0018
 Octapole moment (field-independent basis, Debye-Ang**2):
  XXX=   -19.2603  YYY=    -9.7370  ZZZ=    -2.9907  XYY=    -2.8022
  XXY=     0.0358  XXZ=     0.0106  XZZ=    -2.7899  YZZ=     9.7874
  YYZ=     2.9963  XYZ=    -0.0014
 Hexadecapole moment (field-independent basis, Debye-Ang**3):
 XXXX= -1442.9460 YYYY= -1451.8132 ZZZZ= -1451.7047 XXXY=    -0.1272
 XXXZ=    -0.0260 YYYX=    -2.8577 YYYZ=     0.0041 ZZZX=    -0.8962
 ZZZY=     0.0111 XXYY=  -495.4999 XXZZ=  -495.4724 YYZZ=  -483.9032
 XXYZ=     0.0035 YYXZ=     0.8926 ZZXY=     2.8926
 N-N= 1.527520899648D+03 E-N=-9.926092049665D+03  KE= 2.889149904638D+03
  Exact polarizability: 291.661  -0.051 271.028  -0.011  -0.010 270.947
 Approx polarizability: 497.683  -0.051 468.083  -0.017  -0.008 467.942
                          Isotropic Fermi Contact Couplings
        Atom                 a.u.       MegaHertz       Gauss      10(-4) cm-1
     1  Si(29)             0.05344     -47.49074     -16.94588     -15.84121
     2  Si(29)            -0.01783      15.84366       5.65341       5.28488
     3  Si(29)            -0.01659      14.74461       5.26124       4.91827
     4  Si(29)            -0.05025      44.65924      15.93553      14.89672
     5  Si(29)             0.05350     -47.54903     -16.96668     -15.86065
     6  Si(29)             0.00321      -2.85090      -1.01727      -0.95096
     7  Si(29)            -0.05065      45.01848      16.06371      15.01655
     8  Si(29)             0.05326     -47.33045     -16.88868     -15.78774
     9  Si(29)            -0.01816      16.13683       5.75802       5.38267
    10  Si(29)            -0.05054      44.91725      16.02759      14.98278
 --------------------------------------------------------
       Center         ----  Spin Dipole Couplings  ----
                      3XX-RR        3YY-RR        3ZZ-RR
 --------------------------------------------------------
     1   Atom        0.056684     -0.020563     -0.036121
     2   Atom        0.040738     -0.016028     -0.024710
     3   Atom        0.039004     -0.024948     -0.014055
     4   Atom       -0.446123      0.776917     -0.330794
     5   Atom        0.056488     -0.011526     -0.044962
     6   Atom        0.260649     -0.130858     -0.129791
     7   Atom       -0.446869     -0.149281      0.596150
     8   Atom        0.055593     -0.053204     -0.002389
     9   Atom        0.041152     -0.018341     -0.022811
    10   Atom       -0.447127      0.042496      0.404631
 --------------------------------------------------------
                        XY            XZ            YZ
 --------------------------------------------------------
     1   Atom       -0.011518     -0.014602     -0.023957
     2   Atom       -0.017117      0.036955      0.006268
     3   Atom        0.041499     -0.004251      0.001098
     4   Atom       -0.086610      0.008862     -0.110707
     5   Atom       -0.007570      0.016412      0.019018
     6   Atom       -0.001544     -0.000134      0.000203
     7   Atom        0.037309     -0.081551     -0.424109
     8   Atom        0.016673     -0.002197      0.005262
     9   Atom       -0.023920     -0.032613     -0.007785
    10   Atom        0.053303      0.073420      0.534933
 --------------------------------------------------------


 ---------------------------------------------------------------------------------
              Anisotropic Spin Dipole Couplings in Principal Axis System
 ---------------------------------------------------------------------------------

       Atom             a.u.   MegaHertz   Gauss  10(-4) cm-1        Axes

              Baa    -0.0566     6.002     2.142     2.002  0.1619  0.5819  0.7970
     1 Si(29) Bbb    -0.0032     0.335     0.120     0.112  0.0110  0.8065 -0.5911
              Bcc     0.0597    -6.338    -2.261    -2.114  0.9867 -0.1045 -0.1242
 
              Baa    -0.0469     4.975     1.775     1.660 -0.4214 -0.3990  0.8144
     2 Si(29) Bbb    -0.0128     1.355     0.483     0.452 -0.0122  0.9004  0.4348
              Bcc     0.0597    -6.330    -2.259    -2.111  0.9068 -0.1732  0.3843
 
              Baa    -0.0456     4.840     1.727     1.614 -0.4421  0.8924 -0.0906
     3 Si(29) Bbb    -0.0139     1.479     0.528     0.493  0.0005  0.1012  0.9949
              Bcc     0.0596    -6.319    -2.255    -2.108  0.8969  0.4398 -0.0452
 
              Baa    -0.4522    47.975    17.119    16.003  0.9975  0.0694 -0.0095
     4 Si(29) Bbb    -0.3417    36.254    12.936    12.093  0.0026  0.0987  0.9951
              Bcc     0.7940   -84.229   -30.055   -28.096 -0.0700  0.9927 -0.0983
 
              Baa    -0.0565     5.989     2.137     1.998 -0.1580 -0.4074  0.8995
     5 Si(29) Bbb    -0.0029     0.310     0.111     0.103  0.0020  0.9108  0.4128
              Bcc     0.0594    -6.299    -2.248    -2.101  0.9874 -0.0670  0.1431
 
              Baa    -0.1309    13.887     4.955     4.632  0.0038  0.9838 -0.1794
     6 Si(29) Bbb    -0.1298    13.765     4.912     4.591  0.0010  0.1794  0.9838
              Bcc     0.2607   -27.651    -9.867    -9.223  1.0000 -0.0039 -0.0003
 
              Baa    -0.4533    48.093    17.161    16.042  0.9974 -0.0327  0.0643
     7 Si(29) Bbb    -0.3412    36.193    12.915    12.073  0.0033  0.9110  0.4125
              Bcc     0.7945   -84.286   -30.075   -28.115 -0.0721 -0.4112  0.9087
 
              Baa    -0.0563     5.969     2.130     1.991 -0.1486  0.9836 -0.1021
     8 Si(29) Bbb    -0.0019     0.197     0.070     0.066  0.0077  0.1044  0.9945
              Bcc     0.0581    -6.166    -2.200    -2.057  0.9889  0.1470 -0.0231
 
              Baa    -0.0472     5.006     1.786     1.670  0.4163  0.5421  0.7300
     9 Si(29) Bbb    -0.0125     1.324     0.472     0.442 -0.0033  0.8037 -0.5950
              Bcc     0.0597    -6.330    -2.259    -2.111  0.9092 -0.2452 -0.3364
 
              Baa    -0.4538    48.136    17.176    16.057  0.9973 -0.0462 -0.0565
    10 Si(29) Bbb    -0.3412    36.194    12.915    12.073  0.0046  0.8124 -0.5831
              Bcc     0.7949   -84.330   -30.091   -28.130  0.0729  0.5813  0.8104
 

 ---------------------------------------------------------------------------------

 Full mass-weighted force constant matrix:
 Low frequencies ---  -45.4391  -31.0183  -30.9663   -0.0023   -0.0019   -0.0007
 Low frequencies ---   81.0771   93.4236   93.7882
 Diagonal vibrational polarizability:
        4.5625438      27.0649830      27.0512557
 Diagonal vibrational hyperpolarizability:
      100.1249781     252.6271148      76.6184389
 Harmonic frequencies (cm**-1), IR intensities (KM/Mole), Raman scattering
 activities (A**4/AMU), depolarization ratios for plane and unpolarized
 incident light, reduced masses (AMU), force constants (mDyne/A),
 and normal coordinates:
                     1                      2                      3
                     A                      A                      A
 Frequencies --    77.4826                93.2538                93.6180
 Red. masses --    27.9769                27.9769                27.9769
 Frc consts  --     0.0990                 0.1433                 0.1445
 IR Inten    --     0.0003                 5.6956                 5.7201
 Raman Activ --     0.0004                 2.8018                 2.7938
 Depolar (P) --     0.4146                 0.7499                 0.7500
 Depolar (U) --     0.5862                 0.8571                 0.8571
 Atom AN      X      Y      Z        X      Y      Z        X      Y      Z
   1  14     0.00  -0.09   0.06     0.08  -0.15   0.09    -0.25  -0.02   0.07
   2  14     0.00  -0.26  -0.12     0.21  -0.29  -0.07     0.24   0.21   0.17
   3  14     0.00   0.03   0.28    -0.31  -0.08   0.09     0.07   0.06   0.38
   4  14     0.00  -0.05  -0.48    -0.23   0.10  -0.07     0.05  -0.05  -0.29
   5  14     0.00   0.10   0.04     0.17  -0.14  -0.03     0.20   0.10   0.08
   6  14     0.00   0.00   0.00     0.00   0.44  -0.14     0.00  -0.14  -0.44
   7  14     0.00   0.45   0.20     0.16   0.23   0.02     0.17  -0.14  -0.15
   8  14     0.00  -0.01  -0.11    -0.26  -0.04   0.04     0.06   0.03   0.18
   9  14     0.00   0.23  -0.17     0.10  -0.32   0.20    -0.30  -0.05   0.14
  10  14     0.00  -0.40   0.29     0.07   0.25  -0.14    -0.22   0.01  -0.13
                     4                      5                      6
                     A                      A                      A
 Frequencies --   147.2844               160.2315               160.2905
 Red. masses --    27.9769                27.9769                27.9769
 Frc consts  --     0.3576                 0.4232                 0.4235
 IR Inten    --     0.0471                 0.5213                 0.5243
 Raman Activ --     9.6489                 1.5075                 1.5142
 Depolar (P) --     0.1628                 0.7497                 0.7500
 Depolar (U) --     0.2801                 0.8569                 0.8571
 Atom AN      X      Y      Z        X      Y      Z        X      Y      Z
   1  14     0.44   0.01   0.01    -0.22  -0.26   0.15     0.20  -0.25   0.21
   2  14    -0.12  -0.08   0.18     0.00   0.01   0.02     0.02  -0.02   0.03
   3  14    -0.12   0.19  -0.02    -0.02  -0.03   0.01    -0.01  -0.01  -0.01
   4  14    -0.20  -0.13   0.01     0.40   0.40  -0.05     0.13   0.13   0.03
   5  14     0.43   0.01  -0.01    -0.06  -0.40  -0.17    -0.29   0.07   0.08
   6  14    -0.33   0.00   0.00     0.00   0.18   0.04     0.00   0.04  -0.19
   7  14    -0.20   0.05  -0.12    -0.09  -0.01  -0.10    -0.41   0.18  -0.37
   8  14     0.43  -0.02   0.00     0.29  -0.06  -0.13     0.09   0.03   0.42
   9  14    -0.12  -0.11  -0.16     0.01  -0.01  -0.03    -0.02   0.02   0.01
  10  14    -0.19   0.08   0.10    -0.31   0.16   0.27     0.28  -0.20  -0.21
                     7                      8                      9
                     A                      A                      A
 Frequencies --   235.4437               235.6010               252.3296
 Red. masses --    27.9769                27.9769                27.9769
 Frc consts  --     0.9137                 0.9150                 1.0495
 IR Inten    --     0.9180                 0.9067                 3.8025
 Raman Activ --    24.9551                24.9456                 0.0006
 Depolar (P) --     0.7500                 0.7500                 0.7409
 Depolar (U) --     0.8571                 0.8571                 0.8512
 Atom AN      X      Y      Z        X      Y      Z        X      Y      Z
   1  14     0.03   0.09  -0.11     0.17  -0.15  -0.16     0.49   0.08   0.06
   2  14    -0.13  -0.03  -0.42     0.12  -0.34   0.20    -0.02   0.18   0.17
   3  14     0.17   0.47   0.05     0.06   0.13  -0.31    -0.01   0.08   0.26
   4  14     0.31  -0.11   0.07     0.11  -0.05  -0.16    -0.07   0.03  -0.39
   5  14     0.13   0.02   0.19    -0.11   0.16  -0.09    -0.29  -0.23  -0.05
   6  14     0.00   0.26  -0.12     0.00   0.12   0.26     0.00   0.01   0.02
   7  14    -0.25  -0.14   0.03     0.21  -0.09  -0.13    -0.09  -0.35  -0.05
   8  14    -0.16  -0.21  -0.02    -0.06  -0.06   0.14    -0.20   0.01  -0.26
   9  14    -0.03  -0.19   0.25    -0.17   0.33   0.36     0.04   0.05   0.13
  10  14    -0.06  -0.16   0.08    -0.32  -0.05  -0.11     0.16   0.13   0.10
                    10                     11                     12
                     A                      A                      A
 Frequencies --   252.5028               266.7432               268.1631
 Red. masses --    27.9769                27.9769                27.9769
 Frc consts  --     1.0510                 1.1728                 1.1854
 IR Inten    --     3.7579                 0.0712                 0.1646
 Raman Activ --     0.0022                13.9332                 1.0781
 Depolar (P) --     0.6749                 0.5371                 0.7456
 Depolar (U) --     0.8059                 0.6989                 0.8542
 Atom AN      X      Y      Z        X      Y      Z        X      Y      Z
   1  14    -0.05   0.22  -0.18     0.13  -0.05  -0.05    -0.06  -0.30   0.19
   2  14    -0.03  -0.21   0.03     0.04   0.17  -0.37    -0.12   0.07  -0.27
   3  14     0.04  -0.11   0.13     0.05  -0.38   0.04     0.20   0.47  -0.04
   4  14     0.15  -0.17  -0.15    -0.32  -0.04   0.01    -0.30  -0.02  -0.04
   5  14    -0.40   0.12   0.14     0.14  -0.04   0.06    -0.09  -0.28  -0.09
   6  14     0.00  -0.02   0.01     0.39  -0.02   0.00    -0.02  -0.32   0.08
   7  14    -0.13   0.17   0.22    -0.30   0.03  -0.03     0.21   0.18   0.09
   8  14     0.45  -0.10  -0.11     0.15   0.07  -0.01     0.14  -0.05   0.06
   9  14    -0.01  -0.24   0.17     0.04   0.24   0.33    -0.07   0.05   0.15
  10  14    -0.02   0.33  -0.26    -0.30   0.03   0.02     0.12   0.19  -0.15
                    13                     14                     15
                     A                      A                      A
 Frequencies --   268.3914               289.3186               342.0514
 Red. masses --    27.9769                27.9769                27.9769
 Frc consts  --     1.1874                 1.3798                 1.9286
 IR Inten    --     0.1429                 0.1670                 1.9191
 Raman Activ --     1.0082                 4.2307                16.7961
 Depolar (P) --     0.7499                 0.0607                 0.6288
 Depolar (U) --     0.8571                 0.1145                 0.7721
 Atom AN      X      Y      Z        X      Y      Z        X      Y      Z
   1  14     0.14  -0.08   0.12     0.14   0.18   0.26     0.07  -0.21  -0.29
   2  14    -0.15   0.18  -0.32    -0.27   0.08  -0.17     0.00  -0.05   0.09
   3  14    -0.03  -0.07   0.07    -0.27  -0.18   0.02     0.00   0.10   0.00
   4  14     0.05  -0.03  -0.26     0.14   0.30  -0.03    -0.06   0.43  -0.04
   5  14    -0.12   0.20   0.13     0.14   0.13  -0.29     0.07  -0.15   0.33
   6  14     0.00   0.08   0.32    -0.03   0.00   0.00    -0.01   0.00   0.00
   7  14     0.24  -0.15  -0.06     0.14  -0.12   0.27    -0.07  -0.18   0.39
   8  14    -0.02   0.04   0.37     0.14  -0.31   0.03     0.07   0.36  -0.03
   9  14     0.18  -0.27  -0.33    -0.27   0.11   0.15     0.00  -0.05  -0.08
  10  14    -0.30   0.09  -0.05     0.14  -0.17  -0.24    -0.06  -0.25  -0.35
                    16                     17                     18
                     A                      A                      A
 Frequencies --   343.0354               362.8419               364.5340
 Red. masses --    27.9769                27.9769                27.9769
 Frc consts  --     1.9397                 2.1701                 2.1904
 IR Inten    --     0.0006                 2.9464                 0.3369
 Raman Activ --     0.0025               140.4578                 0.0882
 Depolar (P) --     0.5641                 0.0012                 0.4658
 Depolar (U) --     0.7213                 0.0025                 0.6356
 Atom AN      X      Y      Z        X      Y      Z        X      Y      Z
   1  14     0.00  -0.30   0.21    -0.05   0.17   0.24     0.05  -0.02  -0.20
   2  14     0.00   0.38   0.17     0.17  -0.10   0.24     0.45   0.11  -0.18
   3  14     0.00  -0.04  -0.41     0.19   0.25  -0.02    -0.19   0.12   0.27
   4  14     0.00  -0.01  -0.16    -0.26   0.16  -0.01     0.01   0.09   0.18
   5  14     0.00   0.33   0.16    -0.05   0.12  -0.27    -0.10   0.12  -0.30
   6  14     0.00   0.00   0.00     0.39   0.01   0.00     0.00  -0.15   0.40
   7  14     0.00   0.14   0.07    -0.26  -0.06   0.15    -0.04   0.08  -0.14
   8  14     0.00  -0.03  -0.37    -0.05  -0.31   0.03     0.04   0.12  -0.13
   9  14     0.00  -0.34   0.24     0.17  -0.15  -0.22    -0.25  -0.28   0.05
  10  14     0.00  -0.13   0.09    -0.26  -0.09  -0.14     0.02  -0.20   0.03
                    19                     20                     21
                     A                      A                      A
 Frequencies --   364.5982               379.3530               379.5580
 Red. masses --    27.9769                27.9769                27.9769
 Frc consts  --     2.1912                 2.3721                 2.3747
 IR Inten    --     0.3354                15.4785                15.4611
 Raman Activ --     0.2165                 2.1369                 2.1286
 Depolar (P) --     0.1443                 0.7500                 0.7500
 Depolar (U) --     0.2522                 0.8571                 0.8571
 Atom AN      X      Y      Z        X      Y      Z        X      Y      Z
   1  14     0.08  -0.22  -0.18    -0.01   0.01   0.30    -0.03   0.39   0.42
   2  14    -0.04   0.28   0.14    -0.19  -0.17  -0.02     0.26  -0.08  -0.12
   3  14     0.40  -0.18   0.16     0.31  -0.09   0.03     0.04  -0.03  -0.20
   4  14    -0.03  -0.14   0.11     0.03  -0.23   0.03     0.00  -0.03  -0.07
   5  14     0.01  -0.13  -0.02    -0.02   0.02  -0.40     0.02  -0.31   0.41
   6  14    -0.01   0.40   0.15     0.00   0.21  -0.05     0.00   0.05   0.22
   7  14     0.01   0.19   0.09    -0.02  -0.11   0.10     0.02   0.04  -0.18
   8  14    -0.09  -0.28  -0.03     0.03   0.62  -0.04     0.00   0.05  -0.18
   9  14    -0.38   0.05  -0.24    -0.13  -0.17   0.08    -0.29   0.02  -0.12
  10  14     0.04   0.02  -0.17    -0.01  -0.11  -0.04    -0.03  -0.10  -0.19
                    22                     23                     24
                     A                      A                      A
 Frequencies --   448.1760               474.6161               475.9599
 Red. masses --    27.9769                27.9769                27.9769
 Frc consts  --     3.3109                 3.7131                 3.7341
 IR Inten    --    25.2190                32.2683                32.5246
 Raman Activ --     5.2562                22.6506                23.3651
 Depolar (P) --     0.6835                 0.7499                 0.7500
 Depolar (U) --     0.8120                 0.8571                 0.8571
 Atom AN      X      Y      Z        X      Y      Z        X      Y      Z
   1  14     0.02  -0.06  -0.09    -0.07   0.13  -0.14     0.15   0.12   0.01
   2  14    -0.34  -0.07   0.15    -0.19  -0.20  -0.03    -0.28   0.09   0.13
   3  14    -0.33   0.16  -0.02     0.34  -0.10   0.03    -0.02   0.03   0.24
   4  14     0.08  -0.11   0.01    -0.37   0.42  -0.02     0.03   0.00   0.28
   5  14     0.02  -0.04   0.10    -0.09   0.14   0.12    -0.13  -0.14   0.02
   6  14     0.70   0.00   0.00     0.00   0.10  -0.02     0.00  -0.02  -0.10
   7  14     0.09   0.05  -0.10     0.21  -0.11  -0.31     0.31   0.29  -0.26
   8  14     0.02   0.11  -0.01     0.16  -0.09  -0.01    -0.01  -0.01  -0.21
   9  14    -0.34  -0.09  -0.13    -0.15  -0.20   0.09     0.30  -0.03   0.13
  10  14     0.09   0.06   0.09     0.16  -0.09   0.30    -0.34  -0.32  -0.24

 -------------------
 - Thermochemistry -
 -------------------
 Temperature   298.150 Kelvin.  Pressure   1.00000 Atm.
 Atom  1 has atomic number 14 and mass  27.97693
 Atom  2 has atomic number 14 and mass  27.97693
 Atom  3 has atomic number 14 and mass  27.97693
 Atom  4 has atomic number 14 and mass  27.97693
 Atom  5 has atomic number 14 and mass  27.97693
 Atom  6 has atomic number 14 and mass  27.97693
 Atom  7 has atomic number 14 and mass  27.97693
 Atom  8 has atomic number 14 and mass  27.97693
 Atom  9 has atomic number 14 and mass  27.97693
 Atom 10 has atomic number 14 and mass  27.97693
 Molecular mass:   279.76928 amu.
 Principal axes and moments of inertia in atomic units:
                           1         2         3
     EIGENVALUES --  3228.688183377.819433378.16577
           X            1.00000   0.00000   0.00000
           Y            0.00000   1.00000  -0.00027
           Z            0.00000   0.00027   1.00000
 This molecule is an asymmetric top.
 Rotational symmetry number  1.
 Warning -- assumption of classical behavior for rotation
           may cause significant error
 Rotational temperatures (Kelvin)      0.02683     0.02564     0.02564
 Rotational constants (GHZ):           0.55897     0.53429     0.53424
 Zero-point vibrational energy      40286.5 (Joules/Mol)
                                    9.62871 (Kcal/Mol)
 Warning -- explicit consideration of  24 degrees of freedom as
           vibrations may cause significant error
 Vibrational temperatures:    111.48   134.17   134.70   211.91   230.54
          (Kelvin)            230.62   338.75   338.98   363.05   363.29
                              383.78   385.83   386.15   416.26   492.14
                              493.55   522.05   524.48   524.57   545.80
                              546.10   644.82   682.87   684.80
 
 Zero-point correction=                           0.015344 (Hartree/Particle)
 Thermal correction to Energy=                    0.029338
 Thermal correction to Enthalpy=                  0.030283
 Thermal correction to Gibbs Free Energy=        -0.026031
 Sum of electronic and zero-point Energies=          -2888.861961
 Sum of electronic and thermal Energies=             -2888.847966
 Sum of electronic and thermal Enthalpies=           -2888.847022
 Sum of electronic and thermal Free Energies=        -2888.903336
 
                     E (Thermal)             CV                S
                      KCal/Mol        Cal/Mol-Kelvin    Cal/Mol-Kelvin
 Total                   18.410             46.325            118.522
 Electronic               0.000              0.000              1.377
 Translational            0.889              2.981             42.785
 Rotational               0.889              2.981             31.977
 Vibrational             16.633             40.363             42.383
 Vibration  1             0.599              1.964              3.954
 Vibration  2             0.602              1.954              3.591
 Vibration  3             0.603              1.954              3.583
 Vibration  4             0.617              1.906              2.707
 Vibration  5             0.622              1.891              2.547
 Vibration  6             0.622              1.891              2.546
 Vibration  7             0.655              1.787              1.837
 Vibration  8             0.655              1.786              1.836
 Vibration  9             0.664              1.759              1.714
 Vibration 10             0.664              1.759              1.713
 Vibration 11             0.672              1.734              1.617
 Vibration 12             0.673              1.732              1.608
 Vibration 13             0.673              1.731              1.607
 Vibration 14             0.686              1.694              1.478
 Vibration 15             0.721              1.591              1.203
 Vibration 16             0.722              1.589              1.198
 Vibration 17             0.737              1.549              1.110
 Vibration 18             0.738              1.545              1.103
 Vibration 19             0.738              1.545              1.102
 Vibration 20             0.749              1.514              1.042
 Vibration 21             0.750              1.514              1.041
 Vibration 22             0.807              1.365              0.801
 Vibration 23             0.831              1.306              0.725
 Vibration 24             0.833              1.303              0.721
                       Q            Log10(Q)             Ln(Q)
 Total Bot       0.940826D+12         11.973509         27.570024
 Total V=0       0.107496D+20         19.031392         43.821399
 Vib (Bot)       0.117708D-02         -2.929194         -6.744719
 Vib (Bot)  1    0.265895D+01          0.424711          0.977933
 Vib (Bot)  2    0.220352D+01          0.343117          0.790056
 Vib (Bot)  3    0.219480D+01          0.341395          0.786092
 Vib (Bot)  4    0.137779D+01          0.139182          0.320478
 Vib (Bot)  5    0.126162D+01          0.100928          0.232396
 Vib (Bot)  6    0.126113D+01          0.100761          0.232010
 Vib (Bot)  7    0.834529D+00         -0.078559         -0.180888
 Vib (Bot)  8    0.833913D+00         -0.078879         -0.181626
 Vib (Bot)  9    0.772622D+00         -0.112033         -0.257965
 Vib (Bot) 10    0.772028D+00         -0.112367         -0.258734
 Vib (Bot) 11    0.725720D+00         -0.139231         -0.320592
 Vib (Bot) 12    0.721359D+00         -0.141848         -0.326618
 Vib (Bot) 13    0.720663D+00         -0.142268         -0.327584
 Vib (Bot) 14    0.661224D+00         -0.179652         -0.413663
 Vib (Bot) 15    0.542152D+00         -0.265879         -0.612209
 Vib (Bot) 16    0.540258D+00         -0.267398         -0.615708
 Vib (Bot) 17    0.504195D+00         -0.297402         -0.684793
 Vib (Bot) 18    0.501284D+00         -0.299916         -0.690583
 Vib (Bot) 19    0.501174D+00         -0.300012         -0.690802
 Vib (Bot) 20    0.476831D+00         -0.321635         -0.740592
 Vib (Bot) 21    0.476506D+00         -0.321932         -0.741276
 Vib (Bot) 22    0.383200D+00         -0.416575         -0.959199
 Vib (Bot) 23    0.354006D+00         -0.450989         -1.038442
 Vib (Bot) 24    0.352603D+00         -0.452714         -1.042412
 Vib (V=0)       0.134489D+05          4.128688          9.506656
 Vib (V=0)  1    0.320556D+01          0.505904          1.164886
 Vib (V=0)  2    0.275954D+01          0.440836          1.015062
 Vib (V=0)  3    0.275103D+01          0.439496          1.011977
 Vib (V=0)  4    0.196571D+01          0.293519          0.675852
 Vib (V=0)  5    0.185709D+01          0.268832          0.619009
 Vib (V=0)  6    0.185663D+01          0.268726          0.618765
 Vib (V=0)  7    0.147285D+01          0.168159          0.387200
 Vib (V=0)  8    0.147232D+01          0.168003          0.386841
 Vib (V=0)  9    0.142030D+01          0.152379          0.350866
 Vib (V=0) 10    0.141980D+01          0.152226          0.350514
 Vib (V=0) 11    0.138129D+01          0.140284          0.323017
 Vib (V=0) 12    0.137770D+01          0.139155          0.320416
 Vib (V=0) 13    0.137713D+01          0.138974          0.320001
 Vib (V=0) 14    0.132899D+01          0.123520          0.284416
 Vib (V=0) 15    0.123752D+01          0.092551          0.213106
 Vib (V=0) 16    0.123612D+01          0.092062          0.211981
 Vib (V=0) 17    0.121008D+01          0.082814          0.190686
 Vib (V=0) 18    0.120802D+01          0.082072          0.188979
 Vib (V=0) 19    0.120794D+01          0.082044          0.188914
 Vib (V=0) 20    0.119092D+01          0.075882          0.174725
 Vib (V=0) 21    0.119069D+01          0.075800          0.174536
 Vib (V=0) 22    0.112995D+01          0.053061          0.122177
 Vib (V=0) 23    0.111263D+01          0.046352          0.106730
 Vib (V=0) 24    0.111182D+01          0.046036          0.106002
 Electronic      0.200000D+01          0.301030          0.693147
 Translational   0.183931D+09          8.264655         19.030072
 Rotational      0.217279D+07          6.337018         14.591523
 ***** Axes restored to original set *****
 -------------------------------------------------------------------
 Center     Atomic                   Forces (Hartrees/Bohr)
 Number     Number              X              Y              Z
 -------------------------------------------------------------------
    1         14          -0.001127333   -0.002468737   -0.003474603
    2         14           0.002052118   -0.000711054    0.001586075
    3         14           0.002184896    0.001718792   -0.000158205
    4         14           0.000821292   -0.016473825    0.001618497
    5         14          -0.001138869   -0.001733844    0.003914955
    6         14          -0.005499001    0.000043295   -0.000008106
    7         14           0.000853726    0.006806740   -0.015082851
    8         14          -0.001072641    0.004199799   -0.000423925
    9         14           0.002056614   -0.001029598   -0.001418365
   10         14           0.000869197    0.009648433    0.013446528
 -------------------------------------------------------------------
 Cartesian Forces:  Max     0.016473825 RMS     0.005581086
 ------------------------------------------------------------------------
           Internal Coordinate Forces (Hartree/Bohr or radian)
 Cent Atom N1     Length/X     N2     Alpha/Y      N3      Beta/Z       J
 ------------------------------------------------------------------------
   1  Si       -0.001127(   1)     -0.002469(  11)     -0.003475(  21)
   2  Si        0.002052(   2)     -0.000711(  12)      0.001586(  22)
   3  Si        0.002185(   3)      0.001719(  13)     -0.000158(  23)
   4  Si        0.000821(   4)     -0.016474(  14)      0.001618(  24)
   5  Si       -0.001139(   5)     -0.001734(  15)      0.003915(  25)
   6  Si       -0.005499(   6)      0.000043(  16)     -0.000008(  26)
   7  Si        0.000854(   7)      0.006807(  17)     -0.015083(  27)
   8  Si       -0.001073(   8)      0.004200(  18)     -0.000424(  28)
   9  Si        0.002057(   9)     -0.001030(  19)     -0.001418(  29)
  10  Si        0.000869(  10)      0.009648(  20)      0.013447(  30)
 ------------------------------------------------------------------------
 Internal  Forces:  Max     0.016473825 RMS     0.005581086

 GradGradGradGradGradGradGradGradGradGradGradGradGradGradGradGradGradGrad
 Berny optimization.
 Search for a local minimum.
 Step number   1 out of a maximum of   2
 All quantities printed in internal units (Hartrees-Bohrs-Radians)
 Second derivative matrix not updated -- analytic derivatives used.
     Eigenvalues ---    0.00636   0.00921   0.00928   0.02297   0.02718
     Eigenvalues ---    0.02720   0.05869   0.05877   0.06741   0.06750
     Eigenvalues ---    0.07533   0.07614   0.07627   0.08862   0.12387
     Eigenvalues ---    0.12459   0.13939   0.14069   0.14074   0.15236
     Eigenvalues ---    0.15253   0.21266   0.23849   0.23985
 Quadratic step=4.033D-01 exceeds max=3.000D-01 adjusted using Lamda=-1.584D-02.
 Angle between NR and scaled steps=  10.44 degrees.
 Angle between quadratic step and forces=  22.83 degrees.
 Linear search not attempted -- first point.
 TrRot=  0.000000  0.000000  0.000000  0.000000  0.000000  0.000000
 Variable       Old X    -DE/DX   Delta X   Delta X   Delta X     New X
                                 (Linear)    (Quad)   (Total)
    X1        0.46974  -0.00113   0.00000   0.03407   0.03407   0.50382
    Y1       -2.70178  -0.00247   0.00000  -0.02349  -0.02349  -2.72527
    Z1       -3.76061  -0.00347   0.00000  -0.03331  -0.03331  -3.79391
    X2       -1.78790   0.00205   0.00000   0.01670   0.01670  -1.77120
    Y2        1.24826  -0.00071   0.00000  -0.02013  -0.02013   1.22813
    Z2       -2.75787   0.00159   0.00000   0.04547   0.04547  -2.71240
    X3       -1.79778   0.00218   0.00000   0.01826   0.01826  -1.77952
    Y3       -3.00902   0.00172   0.00000   0.04960   0.04960  -2.95941
    Z3        0.29888  -0.00016   0.00000  -0.00453  -0.00453   0.29435
    X4        2.99829   0.00082   0.00000  -0.02451  -0.02451   2.97378
    Y4       -2.79671  -0.01647   0.00000  -0.14682  -0.14682  -2.94353
    Z4        0.27813   0.00162   0.00000   0.01411   0.01411   0.29224
    X5        0.47254  -0.00114   0.00000   0.03403   0.03403   0.50657
    Y5       -1.90875  -0.00173   0.00000  -0.01626  -0.01626  -1.92501
    Z5        4.21815   0.00391   0.00000   0.03763   0.03763   4.25577
    X6       -5.06600  -0.00550   0.00000  -0.08083  -0.08083  -5.14683
    Y6        0.01091   0.00004   0.00000  -0.00029  -0.00029   0.01062
    Z6        0.00140  -0.00001   0.00000  -0.00014  -0.00014   0.00126
    X7        3.00676   0.00085   0.00000  -0.02489  -0.02489   2.98187
    Y7        1.15100   0.00681   0.00000   0.06064   0.06064   1.21164
    Z7       -2.55741  -0.01508   0.00000  -0.13421  -0.13421  -2.69162
    X8        0.48099  -0.00107   0.00000   0.03532   0.03532   0.51631
    Y8        4.60644   0.00420   0.00000   0.04014   0.04014   4.64658
    Z8       -0.45823  -0.00042   0.00000  -0.00404  -0.00404  -0.46228
    X9       -1.78546   0.00206   0.00000   0.01657   0.01657  -1.76888
    Y9        1.76698  -0.00103   0.00000  -0.02883  -0.02883   1.73815
    Z9        2.45950  -0.00142   0.00000  -0.04077  -0.04077   2.41873
   X10        3.00881   0.00087   0.00000  -0.02474  -0.02474   2.98407
   Y10        1.63267   0.00965   0.00000   0.08543   0.08543   1.71810
   Z10        2.27806   0.01345   0.00000   0.11980   0.11980   2.39786
         Item               Value     Threshold  Converged?
 Maximum Force            0.016474     0.000450     NO 
 RMS     Force            0.005581     0.000300     NO 
 Maximum Displacement     0.146817     0.001800     NO 
 RMS     Displacement     0.054872     0.001200     NO 
 Predicted change in Energy=-4.949494D-03
 GradGradGradGradGradGradGradGradGradGradGradGradGradGradGradGradGradGrad

 1\1\GINC-NODE152\Freq\UHF\6-311G(d)\Si10(1+,2)\TAM\17-Jun-2011\0\\# hf
 /6-311G(d) freq scfcyc=500 scf=xqc\\si10-c\\1,2\Si,0.248578,-1.429718,
 -1.990027\Si,-0.946115,0.660551,-1.459401\Si,-0.951342,-1.592304,0.158
 163\Si,1.586627,-1.479955,0.147178\Si,0.250056,-1.010069,2.232147\Si,-
 2.680812,0.005774,0.000739\Si,1.591108,0.609082,-1.353324\Si,0.254528,
 2.437623,-0.242487\Si,-0.944823,0.935044,1.301513\Si,1.592195,0.863971
 ,1.205499\\Version=AM64L-G03RevE.01\State=2-A\HF=-2888.8773048\S2=0.84
 6974\S2-1=0.\S2A=0.757611\RMSD=4.199e-09\RMSF=5.581e-03\ZeroPoint=0.01
 53443\Thermal=0.0293384\Dipole=-0.2978976,0.0022083,0.0004232\DipoleDe
 riv=0.1114449,-0.1809285,-0.2511725,-0.0649305,0.2598723,0.1311249,-0.
 0904988,0.1320785,0.3473532,-0.2246953,-0.1354522,0.2984891,-0.0335124
 ,-0.4474779,-0.1025384,0.0715522,-0.1020146,-0.2701783,-0.2241579,0.32
 58589,-0.0324547,0.0789225,-0.2274717,-0.0264705,-0.0081229,-0.0264016
 ,-0.4932038,0.2577073,-0.3648583,0.0358691,-0.2644975,0.4249483,-0.040
 1051,0.0265117,-0.0401307,0.025418,0.1120176,-0.1274026,0.2818002,-0.0
 46097,0.2122651,-0.1030484,0.1012149,-0.1051437,0.3944982,0.5550321,0.
 0009373,0.0000785,-0.0008421,0.4899341,-0.0000109,-0.0001094,-0.000154
 5,0.4897424,0.2617796,0.1516955,-0.3375619,0.1098435,0.0900013,-0.1534
 992,-0.2442963,-0.1508845,0.3614631,0.1128899,0.305919,-0.0306971,0.11
 05818,0.4398308,-0.0274495,-0.0107262,-0.0277544,0.168193,-0.2249043,-
 0.1911958,-0.2661568,-0.0463778,-0.4014802,0.1281822,-0.0637226,0.1282
 443,-0.3150724,0.2628861,0.2154267,0.301806,0.1569096,0.1595779,0.1938
 149,0.2181973,0.1921612,0.2917867\Polar=291.6612206,-0.05065,271.02824
 57,-0.0109737,-0.0098934,270.9467261\PolarDeriv=5.4552466,0.4299706,4.
 3775992,0.6461387,0.3746942,4.7145304,-2.2469645,1.1161757,-16.1723029
 ,2.1574055,-7.4525276,-4.7255707,-3.1729342,2.0920223,-6.9875983,2.590
 1527,-5.0792553,-22.2299829,-5.2706483,1.7399958,0.1153565,-3.8719397,
 6.7790376,-11.8787748,1.8146286,4.5468659,5.5912365,4.2160883,-6.92190
 69,1.7653973,-3.9578934,4.2178959,-0.4883699,-2.8351998,4.6793807,-15.
 9069882,-5.3135563,-4.2107534,-14.7515399,0.4207113,1.7815676,2.950565
 4,-4.3675905,-4.6689514,-18.3349114,1.1029803,1.2187251,0.4742064,0.41
 72612,1.0994629,0.5160556,6.376989,-6.6402793,1.261183,9.74884,3.07466
 36,4.1615109,-0.298882,-0.3537927,0.8375488,-13.3518523,-3.8803597,-7.
 0535631,0.6593177,-0.0721616,0.3820724,1.3421829,0.6348994,-0.9760027,
 2.4615731,-8.2347186,1.6263224,5.4329962,0.2735665,4.2257458,-0.716791
 9,-0.2780097,4.8516563,-1.5669849,0.363241,-11.4996775,-1.7098291,8.57
 74825,-3.2292497,3.5580384,-1.64184,8.0568818,3.3778625,-3.4901626,24.
 6970001,-29.9715482,0.0388312,-3.6820001,0.0047951,-0.0073434,-3.72206
 63,0.0520978,-5.9479379,-1.527851,0.0047705,0.4775739,1.5712552,0.0062
 109,0.0039919,0.4788186,-5.935416,1.5642939,-0.4781714,9.8580889,-1.29
 92169,1.4621635,2.893114,-1.3512403,3.7575235,5.4999187,1.4350836,6.05
 15444,2.4648348,-6.1911988,-3.337411,-12.3640735,2.4266156,1.5139294,-
 2.9248604,0.2689632,-7.8480287,5.4471483,-0.6683746,4.9702709,0.072894
 8,-0.0781522,4.1198818,3.8078834,4.063932,26.6955947,-0.4374583,-0.797
 8536,8.9941976,-0.389184,-0.4304788,-0.7431414,-0.381601,9.6148635,-2.
 8083602,-5.2453574,2.4515208,-2.9724936,3.4496534,-8.57316,-8.7693864,
 2.4975112,2.6513168,8.5214587,-5.3183367,6.9593796,1.9132812,3.5589875
 ,-5.3094248,1.2430229,-0.9247591,6.0420392,13.4198857,9.8587901,-1.830
 2035,2.0933867,-2.5996938,1.7063988,3.1385214,7.8613526,0.3206341,7.72
 84717,-3.1397732,4.2024874,-3.8081785,11.0014043,-3.0931445,-2.613596,
 -1.8047407,1.2748754,8.2671402\HyperPolar=339.2515267,0.0132355,-136.2
 698428,74.3783519,0.0000572,-0.1826287,-21.5886518,-137.3989586,-70.64
 6056,21.8278729\PG=C01 [X(Si10)]\NImag=0\\0.03886402,-0.00244273,0.079
 04011,-0.00336761,0.02923668,0.09867562,-0.01189154,0.00557631,0.00487
 006,0.11252369,0.01718467,-0.03333934,0.00322694,0.00661246,0.07003975
 ,0.00565321,-0.00859651,-0.00621839,-0.01495840,-0.00140726,0.07269749
 ,-0.01196056,0.00283407,0.00684585,-0.00344111,-0.01197443,-0.00088067
 ,0.11240466,-0.00013016,-0.00744926,0.00016918,0.00299060,-0.01098238,
 0.00663441,-0.01641294,0.07344911,0.01813618,0.01205236,-0.03207533,-0
 .01162419,0.00558392,-0.00684340,0.00155956,-0.00042343,0.06937458,0.0
 0345439,-0.00641956,0.00450609,0.00001352,0.01132765,0.00054313,-0.048
 61597,0.00548622,-0.00053439,0.07514026,-0.00434854,0.00896088,-0.0226
 6805,-0.00126668,-0.01693339,-0.00164669,0.01586660,-0.00217034,0.0029
 0274,-0.04369826,0.09998971,-0.00267816,0.00689707,-0.01577471,-0.0084
 3084,0.00376209,0.00244331,-0.00156086,0.00286168,0.02670033,0.0042659
 5,-0.00498498,0.04990224,-0.00681851,-0.00763120,0.00389967,0.00420212
 ,0.00424949,-0.00948590,-0.01190016,-0.00370111,-0.01771526,0.00331586
 ,-0.00365805,0.00351887,0.03886856,-0.00827266,-0.01061800,-0.00955240
 ,0.00321444,-0.00025895,0.00166311,0.00143687,-0.01073480,-0.01633488,
 -0.00717236,0.01100761,-0.01233462,-0.00177470,0.06852550,-0.00236061,
 0.00885523,-0.01412195,-0.00702130,0.00176482,-0.00332038,-0.00725154,
 -0.00440533,-0.02865814,-0.00302990,0.01727110,-0.01798364,0.00371930,
 -0.02318259,0.10922217,0.00030131,-0.00146518,-0.00204485,-0.03731466,
 -0.01036501,0.02319257,-0.03714422,0.02534285,-0.00250602,-0.00931058,
 -0.00917978,0.00092529,0.00030000,-0.00102599,0.00229478,0.13873161,0.
 00481993,-0.00110127,-0.00138815,-0.01717533,-0.00204360,0.00875094,0.
 04179522,-0.02150868,0.00227316,0.00485589,-0.00615141,0.00006822,0.00
 340857,-0.00058031,0.00109550,-0.00025954,0.05159304,0.00672251,-0.001
 42940,-0.00201151,0.03824237,0.00867216,-0.01763591,-0.00412918,0.0023
 0084,0.00159672,-0.00046985,0.00007749,-0.00545110,-0.00754250,0.00114
 711,-0.00251142,-0.00001068,0.00002934,0.05162717,0.00340542,0.0064350
 4,-0.00458586,-0.04877895,-0.00211311,0.00498922,-0.00004337,-0.003162
 54,0.01105278,-0.00565961,0.01406517,0.01306250,-0.01279714,-0.0054066
 0,0.01177290,-0.00922999,-0.00199925,0.00440732,0.07556380,-0.00111032
 ,-0.00831196,0.00103708,-0.00646409,0.02195994,0.01104662,-0.00763213,
 -0.00014502,0.00945920,0.00776451,-0.02668518,0.03191771,-0.00860132,-
 0.01058227,0.00449611,0.00381603,-0.00555788,0.00026178,0.01819557,0.0
 5774866,-0.00499775,-0.02856672,0.00153896,0.01449570,0.01086731,0.002
 54982,-0.00380634,0.00401796,-0.01447471,0.01734675,-0.00811357,-0.018
 79957,0.01897145,0.00460434,-0.01836735,-0.00845453,0.00032919,-0.0060
 2251,-0.04024252,-0.01927120,0.09172559,-0.00674632,0.00616266,-0.0058
 7463,-0.01193222,-0.01555159,-0.00921890,0.00414652,-0.01034277,0.0010
 4664,-0.01261872,0.02058643,-0.00204926,-0.00672946,0.00717654,0.00456
 977,0.00028326,-0.00824247,0.00081863,0.00338188,0.00447765,-0.0023003
 4,0.03879648,0.00039333,-0.01356740,0.00781780,-0.00734595,-0.02065496
 ,-0.00780364,-0.00765030,-0.00401364,0.00045964,0.01276750,-0.02035204
 ,0.00116024,0.00202895,-0.01293158,-0.00745250,0.00248374,-0.00297130,
 0.00029389,-0.00079643,-0.01640848,0.00800938,0.00432826,0.11900821,-0
 .00859652,-0.01060460,-0.01114786,-0.00097880,-0.01968751,-0.01891995,
 0.00078411,0.00044561,0.00038671,-0.00128254,0.00112019,-0.00864912,0.
 00837536,0.01097637,-0.01180755,-0.00025199,0.00030596,-0.00005747,-0.
 00792738,-0.02149953,0.00972291,-0.00043276,-0.00607880,0.05865352,0.0
 0421415,0.00455168,0.00622710,-0.00340910,0.00853035,0.00844520,-0.003
 43368,0.00520135,0.01082156,0.00000175,0.00047964,0.00854046,-0.011935
 33,0.00451307,-0.00585199,-0.03739651,-0.02439613,-0.03411137,0.000063
 58,0.00791698,0.00307578,-0.01188895,-0.00701681,0.00241015,0.11259948
 ,0.00607520,-0.00104558,-0.00222882,0.00671676,-0.00271618,-0.00181393
 ,-0.01158905,-0.01313182,-0.00427969,0.01101387,-0.01661710,0.00009941
 ,0.01575205,-0.03130396,0.00178839,-0.01477048,-0.00600481,-0.01101009
 ,-0.00612034,-0.00157284,0.01047731,-0.01342072,-0.01527361,0.01898654
 ,0.00942570,0.07070169,0.00842741,-0.00215462,-0.00252769,-0.00995433,
 -0.00067040,-0.01514871,0.00318038,-0.00535743,-0.00467900,-0.00271117
 ,0.00545093,0.00206917,-0.00891261,0.01360261,-0.00830039,-0.02067667,
 -0.01108033,-0.01363059,0.00962824,0.00517001,-0.01305386,0.01208950,0
 .00709113,-0.02425521,0.01335526,0.00180790,0.07198765,-0.01282237,-0.
 00760109,-0.01047582,0.00002825,-0.00790048,-0.00827947,-0.00001210,-0
 .00527151,-0.01023687,-0.00572090,0.01115348,-0.01559396,0.00349406,0.
 00731138,0.00315858,-0.00922021,-0.00280690,-0.00392725,-0.00590561,-0
 .01836288,0.00591180,0.00330753,0.00080771,0.00790037,-0.04881538,-0.0
 0308299,-0.00442601,0.07566674,-0.01216873,-0.01256817,-0.00565027,0.0
 0714146,-0.00507088,-0.00682704,-0.00667391,-0.00331319,-0.01169302,0.
 00407454,-0.03104874,-0.02944682,-0.00007268,-0.00252324,-0.00023073,0
 .00542335,-0.00567378,-0.00034312,-0.01909751,-0.01044496,0.01764599,0
 .00482601,-0.01283520,0.02603578,-0.00920582,0.01696421,-0.01385979,0.
 02575328,0.06651396,-0.01693868,-0.00568948,-0.01633715,-0.00464028,-0
 .01211208,-0.00960388,0.00525869,-0.00624348,-0.01132775,-0.01863407,0
 .01059083,-0.01445689,0.00517163,0.02941095,-0.00415136,0.00753210,-0.
 00038383,-0.00590337,-0.00215722,-0.02261776,-0.03481929,0.00135136,-0
 .00349713,0.00607403,-0.01291214,-0.01382703,0.00753864,0.03596862,0.0
 2436901,0.08298702\\0.00112733,0.00246874,0.00347460,-0.00205212,0.000
 71105,-0.00158608,-0.00218490,-0.00171879,0.00015821,-0.00082129,0.016
 47383,-0.00161850,0.00113887,0.00173384,-0.00391495,0.00549900,-0.0000
 4330,0.00000811,-0.00085373,-0.00680674,0.01508285,0.00107264,-0.00419
 980,0.00042392,-0.00205661,0.00102960,0.00141836,-0.00086920,-0.009648
 43,-0.01344653\\\@


 Spring appears, and we are once more children.
                                  -- Anonymous
 Job cpu time:  0 days  2 hours 34 minutes 40.3 seconds.
 File lengths (MBytes):  RWF=    262 Int=      0 D2E=      0 Chk=     10 Scr=      1
 Normal termination of Gaussian 03 at Fri Jun 17 17:08:54 2011.
 Initial command:
 /usr/local/chem/g03E01/l1.exe /temp0/tam/Gau-3657.inp -scrdir=/temp0/tam/
 Entering Link 1 = /usr/local/chem/g03E01/l1.exe PID=      3736.
  
 Copyright (c) 1988,1990,1992,1993,1995,1998,2003,2004,2007, Gaussian, Inc.
                  All Rights Reserved.
  
 This is the Gaussian(R) 03 program.  It is based on the
 the Gaussian(R) 98 system (copyright 1998, Gaussian, Inc.),
 the Gaussian(R) 94 system (copyright 1995, Gaussian, Inc.),
 the Gaussian 92(TM) system (copyright 1992, Gaussian, Inc.),
 the Gaussian 90(TM) system (copyright 1990, Gaussian, Inc.),
 the Gaussian 88(TM) system (copyright 1988, Gaussian, Inc.),
 the Gaussian 86(TM) system (copyright 1986, Carnegie Mellon
 University), and the Gaussian 82(TM) system (copyright 1983,
 Carnegie Mellon University). Gaussian is a federally registered
 trademark of Gaussian, Inc.
  
 This software contains proprietary and confidential information,
 including trade secrets, belonging to Gaussian, Inc.
  
 This software is provided under written license and may be
 used, copied, transmitted, or stored only in accord with that
 written license.
  
 The following legend is applicable only to US Government
 contracts under FAR:
  
                    RESTRICTED RIGHTS LEGEND
  
 Use, reproduction and disclosure by the US Government is
 subject to restrictions as set forth in subparagraphs (a)
 and (c) of the Commercial Computer Software - Restricted
 Rights clause in FAR 52.227-19.
  
 Gaussian, Inc.
 340 Quinnipiac St., Bldg. 40, Wallingford CT 06492
  
  
 ---------------------------------------------------------------
 Warning -- This program may not be used in any manner that
 competes with the business of Gaussian, Inc. or will provide
 assistance to any competitor of Gaussian, Inc.  The licensee
 of this program is prohibited from giving any competitor of
 Gaussian, Inc. access to this program.  By using this program,
 the user acknowledges that Gaussian, Inc. is engaged in the
 business of creating and licensing software in the field of
 computational chemistry and represents and warrants to the
 licensee that it is not a competitor of Gaussian, Inc. and that
 it will not use this program in any manner prohibited above.
 ---------------------------------------------------------------
  

 Cite this work as:
 Gaussian 03, Revision E.01,
 M. J. Frisch, G. W. Trucks, H. B. Schlegel, G. E. Scuseria, 
 M. A. Robb, J. R. Cheeseman, J. A. Montgomery, Jr., T. Vreven, 
 K. N. Kudin, J. C. Burant, J. M. Millam, S. S. Iyengar, J. Tomasi, 
 V. Barone, B. Mennucci, M. Cossi, G. Scalmani, N. Rega, 
 G. A. Petersson, H. Nakatsuji, M. Hada, M. Ehara, K. Toyota, 
 R. Fukuda, J. Hasegawa, M. Ishida, T. Nakajima, Y. Honda, O. Kitao, 
 H. Nakai, M. Klene, X. Li, J. E. Knox, H. P. Hratchian, J. B. Cross, 
 V. Bakken, C. Adamo, J. Jaramillo, R. Gomperts, R. E. Stratmann, 
 O. Yazyev, A. J. Austin, R. Cammi, C. Pomelli, J. W. Ochterski, 
 P. Y. Ayala, K. Morokuma, G. A. Voth, P. Salvador, J. J. Dannenberg, 
 V. G. Zakrzewski, S. Dapprich, A. D. Daniels, M. C. Strain, 
 O. Farkas, D. K. Malick, A. D. Rabuck, K. Raghavachari, 
 J. B. Foresman, J. V. Ortiz, Q. Cui, A. G. Baboul, S. Clifford, 
 J. Cioslowski, B. B. Stefanov, G. Liu, A. Liashenko, P. Piskorz, 
 I. Komaromi, R. L. Martin, D. J. Fox, T. Keith, M. A. Al-Laham, 
 C. Y. Peng, A. Nanayakkara, M. Challacombe, P. M. W. Gill, 
 B. Johnson, W. Chen, M. W. Wong, C. Gonzalez, and J. A. Pople, 
 Gaussian, Inc., Wallingford CT, 2004.
 
 ******************************************
 Gaussian 03:  AM64L-G03RevE.01 11-Sep-2007
                17-Jun-2011 
 ******************************************
 %NprocShared=4
 Will use up to    4 processors via shared memory.
 %mem=19750MB
 %chk=S9L-ne-d-01
 ----------------------------------------------------------------------
 # b3lyp/6-311+G(d) opt=(readfc,noeigentest,maxcycle=500) freq scfcyc=5
 00 optcyc=500 scf=xqc geom=allcheck guess=read
 ----------------------------------------------------------------------
 1/6=500,10=3,11=1,14=-1,18=20,26=3,29=7,38=1/1,3;
 2/9=110,40=1/2;
 3/5=4,6=6,7=11,11=2,16=1,25=1,30=1,74=-5/1,2,3;
 4/5=1/1;
 5/5=2,7=500,8=3,13=1,38=6/2,8;
 6/7=2,8=2,9=2,10=2,28=1/1;
 7//1,2,3,16;
 1/6=500,11=1,14=-1,18=20/3(3);
 2/9=110/2;
 6/7=2,8=2,9=2,10=2,19=2,28=1/1;
 99//99;
 2/9=110/2;
 3/5=4,6=6,7=11,11=2,16=1,25=1,30=1,74=-5/1,2,3;
 4/5=5,16=3/1;
 5/5=2,7=500,8=3,13=1,38=5/2,8;
 7//1,2,3,16;
 1/6=500,11=1,14=-1,18=20/3(-5);
 2/9=110/2;
 6/7=2,8=2,9=2,10=2,19=2,28=1/1;
 99/9=1/99;
 ------
 si10-c
 ------
[...]
           D42         -0.02267
           D43          0.06856
           D44          0.09885
           D45          0.05296
           D46          0.08325
           D47         -0.06728
           D48         -0.01337
           D49         -0.10817
           D50         -0.05426
           D51          0.04158
           D52          0.04072
           D53          0.02850
           D54          0.07995
           D55          0.00209
           D56         -0.07747
           D57         -0.07015
           D58         -0.01562
           D59          0.05545
           D60         -0.08525
           D61         -0.01418
           D62          0.07995
           D63          0.10029
           D64          0.07627
           D65          0.08722
           D66          0.06003
           D67          0.05909
           D68          0.01290
           D69          0.04936
           D70          0.00317
           D71          0.03649
           D72         -0.00970
 Angle between quadratic step and forces=  44.44 degrees.
 Linear search not attempted -- first point.
 Iteration  1 RMS(Cart)=  0.00115525 RMS(Int)=  0.00000220
 Iteration  2 RMS(Cart)=  0.00000092 RMS(Int)=  0.00000144
 Variable       Old X    -DE/DX   Delta X   Delta X   Delta X     New X
                                 (Linear)    (Quad)   (Total)
    R1        4.73512   0.00002   0.00000   0.00213   0.00214   4.73725
    R2        4.73272  -0.00004   0.00000  -0.00026  -0.00026   4.73246
    R3        4.72103  -0.00007   0.00000  -0.00565  -0.00566   4.71538
    R4        4.71450   0.00005   0.00000   0.00454   0.00454   4.71904
    R5        5.17602   0.00004   0.00000   0.00400   0.00400   5.18001
    R6        4.52525   0.00001   0.00000   0.00003   0.00003   4.52529
    R7        4.70535  -0.00004   0.00000  -0.00181  -0.00181   4.70354
    R8        4.73211  -0.00005   0.00000  -0.00284  -0.00284   4.72927
    R9        5.17370  -0.00001   0.00000  -0.00114  -0.00115   5.17255
   R10        4.70595   0.00002   0.00000   0.00318   0.00318   4.70912
   R11        4.73477   0.00001   0.00000  -0.00398  -0.00398   4.73079
   R12        4.52504   0.00000   0.00000   0.00060   0.00059   4.52563
   R13        5.17442   0.00004   0.00000   0.00356   0.00356   5.17798
   R14        4.71480   0.00004   0.00000   0.00279   0.00279   4.71759
   R15        5.23710   0.00002   0.00000   0.00250   0.00250   5.23960
   R16        5.23572   0.00000   0.00000  -0.00040  -0.00040   5.23532
   R17        4.73299  -0.00002   0.00000   0.00444   0.00444   4.73743
   R18        4.72089  -0.00003   0.00000  -0.00228  -0.00228   4.71861
   R19        4.52483  -0.00001   0.00000  -0.00007  -0.00006   4.52477
   R20        4.72375  -0.00008   0.00000  -0.00385  -0.00384   4.71991
   R21        5.23410  -0.00005   0.00000  -0.00763  -0.00762   5.22647
   R22        4.73411   0.00003   0.00000  -0.00285  -0.00285   4.73125
   R23        4.71617   0.00003   0.00000   0.00479   0.00479   4.72096
   R24        4.70488  -0.00002   0.00000  -0.00176  -0.00176   4.70312
    A1        1.67324   0.00001   0.00000   0.00173   0.00173   1.67497
    A2        1.67393   0.00001   0.00000  -0.00010  -0.00010   1.67383
    A3        1.85960  -0.00002   0.00000  -0.00092  -0.00092   1.85868
    A4        2.04837   0.00001   0.00000   0.00065   0.00065   2.04901
    A5        1.88285  -0.00001   0.00000  -0.00043  -0.00043   1.88242
    A6        1.57670   0.00001   0.00000   0.00033   0.00032   1.57703
    A7        1.88402   0.00002   0.00000   0.00064   0.00064   1.88466
    A8        2.42788   0.00000   0.00000  -0.00059  -0.00059   2.42729
    A9        1.86047   0.00001   0.00000  -0.00017  -0.00017   1.86031
   A10        1.57785   0.00000   0.00000  -0.00085  -0.00086   1.57700
   A11        2.04749  -0.00001   0.00000  -0.00103  -0.00103   2.04646
   A12        1.86037   0.00000   0.00000  -0.00038  -0.00038   1.85999
   A13        1.88330  -0.00001   0.00000  -0.00112  -0.00112   1.88217
   A14        1.57787  -0.00001   0.00000  -0.00064  -0.00064   1.57723
   A15        1.88288  -0.00002   0.00000  -0.00030  -0.00030   1.88258
   A16        2.42805  -0.00001   0.00000  -0.00035  -0.00035   2.42770
   A17        1.57689   0.00000   0.00000   0.00079   0.00079   1.57768
   A18        1.86012  -0.00001   0.00000   0.00049   0.00049   1.86061
   A19        2.05856  -0.00001   0.00000  -0.00152  -0.00152   2.05704
   A20        1.87610   0.00000   0.00000  -0.00089  -0.00089   1.87521
   A21        1.56361   0.00000   0.00000  -0.00031  -0.00031   1.56330
   A22        1.56449   0.00000   0.00000  -0.00171  -0.00171   1.56278
   A23        1.87815  -0.00002   0.00000  -0.00247  -0.00247   1.87568
   A24        1.67260   0.00000   0.00000   0.00014   0.00014   1.67274
   A25        1.67375   0.00000   0.00000   0.00068   0.00068   1.67443
   A26        2.05850   0.00001   0.00000   0.00016   0.00016   2.05866
   A27        1.87830  -0.00002   0.00000  -0.00157  -0.00157   1.87673
   A28        1.56500   0.00000   0.00000   0.00064   0.00063   1.56563
   A29        1.56366   0.00000   0.00000   0.00086   0.00086   1.56452
   A30        1.87710   0.00002   0.00000   0.00274   0.00274   1.87984
   A31        1.67290  -0.00001   0.00000  -0.00166  -0.00166   1.67124
   A32        1.67215   0.00000   0.00000  -0.00002  -0.00002   1.67213
   A33        1.88402   0.00000   0.00000  -0.00113  -0.00113   1.88290
   A34        1.57658  -0.00001   0.00000  -0.00051  -0.00052   1.57606
   A35        1.88393   0.00000   0.00000   0.00076   0.00076   1.88470
   A36        1.57773   0.00000   0.00000  -0.00163  -0.00163   1.57610
   A37        1.86070   0.00000   0.00000  -0.00179  -0.00179   1.85891
   A38        2.04847   0.00000   0.00000   0.00083   0.00083   2.04929
   A39        1.86001  -0.00001   0.00000  -0.00014  -0.00014   1.85987
   A40        2.42785  -0.00001   0.00000  -0.00150  -0.00150   2.42634
   A41        1.87952   0.00000   0.00000   0.00125   0.00125   1.88077
   A42        1.56407   0.00001   0.00000   0.00256   0.00256   1.56663
   A43        1.87737   0.00002   0.00000   0.00175   0.00175   1.87912
   A44        2.05898   0.00001   0.00000   0.00051   0.00051   2.05949
   A45        1.56510   0.00000   0.00000   0.00051   0.00051   1.56561
    D1       -1.36344  -0.00001   0.00000  -0.00045  -0.00046  -1.36389
    D2        0.71863  -0.00001   0.00000  -0.00096  -0.00096   0.71767
    D3       -0.35224  -0.00002   0.00000  -0.00055  -0.00055  -0.35280
    D4       -0.71809   0.00000   0.00000  -0.00133  -0.00132  -0.71941
    D5        1.36355  -0.00003   0.00000  -0.00163  -0.00163   1.36192
    D6        0.35222  -0.00002   0.00000  -0.00081  -0.00081   0.35141
    D7        0.69023   0.00001   0.00000   0.00050   0.00050   0.69073
    D8       -0.36797   0.00002   0.00000   0.00179   0.00179  -0.36618
    D9       -0.69075   0.00000   0.00000  -0.00032  -0.00032  -0.69107
   D10        0.36651   0.00002   0.00000   0.00174   0.00174   0.36825
   D11        0.00179  -0.00001   0.00000  -0.00245  -0.00245  -0.00066
   D12        1.02062   0.00000   0.00000  -0.00179  -0.00179   1.01883
   D13       -1.01916   0.00000   0.00000  -0.00205  -0.00205  -1.02121
   D14       -0.00032   0.00000   0.00000  -0.00139  -0.00139  -0.00172
   D15       -0.00160   0.00001   0.00000   0.00220   0.00220   0.00059
   D16       -1.04885   0.00000   0.00000   0.00173   0.00173  -1.04712
   D17        0.52031   0.00002   0.00000   0.00312   0.00312   0.52343
   D18       -0.52694   0.00001   0.00000   0.00265   0.00265  -0.52429
   D19        1.04552   0.00001   0.00000   0.00267   0.00267   1.04819
   D20       -0.00173   0.00001   0.00000   0.00220   0.00220   0.00047
   D21       -0.71732   0.00000   0.00000   0.00156   0.00155  -0.71576
   D22        0.35304  -0.00001   0.00000   0.00101   0.00101   0.35405
   D23        1.36429  -0.00001   0.00000   0.00065   0.00065   1.36494
   D24        0.00062   0.00001   0.00000  -0.00062  -0.00062   0.00000
   D25        1.02071   0.00001   0.00000  -0.00155  -0.00155   1.01916
   D26       -1.01817  -0.00001   0.00000  -0.00152  -0.00152  -1.01969
   D27        0.00192  -0.00001   0.00000  -0.00245  -0.00245  -0.00053
   D28       -0.00160   0.00001   0.00000   0.00220   0.00220   0.00059
   D29        1.04511  -0.00001   0.00000   0.00030   0.00029   1.04540
   D30       -0.52603   0.00002   0.00000   0.00444   0.00443  -0.52159
   D31        0.52068   0.00000   0.00000   0.00253   0.00253   0.52322
   D32       -1.04849   0.00002   0.00000   0.00330   0.00330  -1.04519
   D33       -0.00178   0.00000   0.00000   0.00139   0.00139  -0.00038
   D34        0.71849  -0.00001   0.00000   0.00016   0.00016   0.71866
   D35       -0.35219   0.00000   0.00000   0.00036   0.00036  -0.35183
   D36       -1.36328   0.00001   0.00000   0.00093   0.00093  -1.36235
   D37        0.00085   0.00002   0.00000   0.00089   0.00089   0.00175
   D38       -1.01831   0.00001   0.00000  -0.00020  -0.00020  -1.01851
   D39        1.02114   0.00000   0.00000  -0.00045  -0.00045   1.02068
   D40        0.00198  -0.00001   0.00000  -0.00155  -0.00155   0.00043
   D41       -0.68984   0.00000   0.00000  -0.00075  -0.00075  -0.69059
   D42        0.36676   0.00000   0.00000  -0.00053  -0.00053   0.36623
   D43        0.00177  -0.00001   0.00000  -0.00242  -0.00242  -0.00065
   D44        1.02296  -0.00001   0.00000  -0.00273  -0.00273   1.02023
   D45       -1.02051  -0.00001   0.00000  -0.00097  -0.00097  -1.02148
   D46        0.00069  -0.00001   0.00000  -0.00128  -0.00128  -0.00059
   D47        0.00165  -0.00002   0.00000  -0.00129  -0.00129   0.00036
   D48        1.02360  -0.00001   0.00000  -0.00173  -0.00173   1.02187
   D49       -1.02000  -0.00002   0.00000  -0.00109  -0.00109  -1.02109
   D50        0.00195  -0.00001   0.00000  -0.00153  -0.00153   0.00042
   D51        0.35186  -0.00001   0.00000   0.00075   0.00075   0.35261
   D52        1.36358   0.00000   0.00000   0.00040   0.00041   1.36399
   D53       -0.71878   0.00001   0.00000   0.00142   0.00142  -0.71736
   D54       -0.36814   0.00001   0.00000   0.00041   0.00041  -0.36772
   D55        0.69149   0.00000   0.00000   0.00082   0.00082   0.69230
   D56        0.69090   0.00000   0.00000   0.00070   0.00070   0.69160
   D57       -0.36759   0.00002   0.00000   0.00180   0.00180  -0.36580
   D58        0.00129  -0.00002   0.00000  -0.00173  -0.00172  -0.00044
   D59       -1.02056  -0.00002   0.00000  -0.00326  -0.00326  -1.02382
   D60        1.02375  -0.00001   0.00000  -0.00089  -0.00089   1.02287
   D61        0.00190  -0.00001   0.00000  -0.00242  -0.00242  -0.00052
   D62       -0.35266  -0.00001   0.00000  -0.00113  -0.00113  -0.35379
   D63        0.71865  -0.00002   0.00000  -0.00275  -0.00275   0.71590
   D64       -1.36408  -0.00001   0.00000  -0.00086  -0.00086  -1.36494
   D65        0.36584   0.00001   0.00000   0.00032   0.00033   0.36616
   D66       -0.69168   0.00000   0.00000  -0.00126  -0.00126  -0.69293
   D67       -1.04943   0.00000   0.00000   0.00078   0.00078  -1.04866
   D68       -0.00173   0.00001   0.00000   0.00220   0.00220   0.00047
   D69       -0.00178   0.00000   0.00000   0.00139   0.00139  -0.00038
   D70        1.04593   0.00001   0.00000   0.00282   0.00282   1.04875
   D71       -0.52674   0.00001   0.00000   0.00299   0.00299  -0.52375
   D72        0.52096   0.00002   0.00000   0.00442   0.00442   0.52538
         Item               Value     Threshold  Converged?
 Maximum Force            0.000078     0.000450     YES
 RMS     Force            0.000018     0.000300     YES
 Maximum Displacement     0.004594     0.001800     NO 
 RMS     Displacement     0.001155     0.001200     YES
 Predicted change in Energy=-2.810814D-06
 GradGradGradGradGradGradGradGradGradGradGradGradGradGradGradGradGradGrad

 1\1\GINC-NODE152\Freq\UB3LYP\6-311+G(d)\Si10(1+,2)\TAM\17-Jun-2011\0\\
 #N Geom=AllCheck Guess=Read SCRF=Check GenChk UB3LYP/6-311+G(d) Freq\\
 si10-c\\1,2\Si,0.3091657965,-1.4409969193,-2.0068162027\Si,-0.94277619
 68,0.6542307657,-1.4400083909\Si,-0.946863104,-1.5718000492,0.15594288
 01\Si,1.5433027198,-1.5952478863,0.1598474666\Si,0.3108656141,-1.01857
 17322,2.2511157908\Si,-2.7422528469,0.004980718,0.0003950509\Si,1.5471
 176778,0.6544599887,-1.4585493695\Si,0.3154236053,2.4588967053,-0.2438
 688871\Si,-0.9418260067,0.9229567643,1.2845754788\Si,1.5478427408,0.93
 10906449,1.297366183\\Version=AM64L-G03RevE.01\State=2-A\HF=-2894.8201
 63\S2=0.756338\S2-1=0.\S2A=0.750037\RMSD=3.210e-09\RMSF=7.460e-05\Zero
 Point=0.0126304\Thermal=0.0264086\Dipole=-0.1961581,0.0009516,0.000206
 9\DipoleDeriv=0.0913388,-0.0400587,-0.0560136,-0.0343647,0.1506896,0.2
 504185,-0.0471624,0.2497427,0.3191577,-0.1529267,-0.09843,0.2190862,-0
 .0476352,-0.0370896,0.0472463,0.1073687,0.0476314,-0.1225899,-0.152505
 4,0.239701,-0.023695,0.1175941,-0.1429485,0.0127194,-0.0112662,0.01347
 55,-0.0168599,0.1892738,-0.1660367,0.0166371,-0.2053204,0.0659282,0.00
 25252,0.0213166,0.0026176,0.0908916,0.0910352,-0.0288785,0.0627898,-0.
 0259252,0.0607732,-0.1971611,0.0530185,-0.1984356,0.4094999,0.6194512,
 -0.0004988,0.0000845,-0.0003066,0.3009545,-0.0000427,0.0001951,0.00021
 66,0.3007858,0.1888394,0.0682841,-0.1515762,0.0833786,0.0857583,0.0105
 736,-0.1860614,0.0106481,0.0692038,0.0899254,0.0690156,-0.0064969,0.06
 1024,0.4949428,-0.051682,-0.0056602,-0.0524851,-0.0230894,-0.1530414,-
 0.1396476,-0.1953019,-0.0676727,-0.0599115,-0.0611304,-0.0959257,-0.06
 01811,-0.099951,0.1886097,0.0965496,0.134486,0.1192281,0.080903,-0.013
 4669,0.1641771,-0.0132302,0.0729514\Polar=287.9900197,-0.0513322,275.0
 720217,-0.0031251,-0.0324611,274.9864113\PG=C01 [X(Si10)]\NImag=2\\0.0
 2364675,-0.00271888,0.05592131,-0.00433977,0.02890915,0.07522688,-0.00
 479126,0.01325669,0.00127342,0.10285694,0.00547115,-0.02144385,-0.0090
 1555,0.00766441,0.04088039,-0.00062263,-0.00840378,-0.00780537,-0.0175
 7864,-0.00900006,0.05729137,-0.00489838,-0.00315323,0.01292355,0.00151
 026,-0.00170480,0.00143384,0.10249685,-0.00235014,-0.00384082,-0.00244
 344,0.00141005,-0.01030738,0.00671858,-0.01872201,0.06140050,0.0052152
 9,-0.00308858,-0.02556067,-0.00105450,0.00293258,-0.00711268,0.0017668
 8,-0.00241531,0.03710400,-0.00607464,0.00296690,-0.01273900,-0.0074615
 6,-0.00301957,-0.00159446,-0.04474621,0.00619366,-0.00069576,0.0631150
 6,0.00511958,-0.00603735,0.00251071,0.00283045,0.00190457,0.00690075,-
 0.00134377,0.00751337,0.00033114,-0.00826443,0.02232120,-0.01502980,-0
 .00078949,-0.02633814,-0.00261914,-0.00262823,-0.00392733,0.00014759,0
 .00022672,0.01038489,0.00057502,0.00212876,0.04420594,0.00001927,0.006
 35549,-0.00063673,-0.00282046,0.00276777,-0.00551587,-0.00506499,-0.00
 337861,-0.00455697,-0.00599893,0.00794585,0.01414242,0.02372801,0.0064
 5299,-0.00580993,0.00160990,-0.00124194,0.00854692,0.00803188,-0.00563
 089,-0.00361697,-0.00121786,0.00557604,-0.00707233,-0.00319132,-0.0024
 9114,0.04533769,-0.00052290,-0.00066127,-0.00125500,0.00278256,0.00781
 482,-0.00531052,-0.01206976,-0.00184837,-0.02570538,0.01219516,-0.0064
 7015,-0.02574562,0.00452597,-0.02291014,0.08603316,-0.00161028,-0.0014
 7639,-0.00208347,-0.03316212,-0.00902381,0.02005413,-0.03287138,0.0218
 6181,-0.00215583,-0.00543944,-0.00286062,0.00026434,-0.00158579,-0.000
 98439,0.00235064,0.12011373,0.00142371,-0.00015256,-0.00170079,-0.0151
 4403,-0.00418659,0.00765985,0.03668081,-0.02111121,0.00199980,0.001178
 18,-0.00054163,-0.00040338,0.00101197,0.00044123,0.00136194,-0.0001663
 9,0.04292508,0.00191970,-0.00173990,-0.00134197,0.03362021,0.00758545,
 -0.01786419,-0.00357541,0.00198702,-0.00099499,-0.00014452,-0.00038950
 ,-0.00470255,-0.00218094,0.00143694,-0.00190558,-0.00006995,0.00003401
 ,0.04294407,-0.00606133,-0.01354492,-0.00150195,-0.04521963,-0.0020682
 5,0.00526036,-0.00752544,-0.00079099,-0.00332257,0.00565592,-0.0017454
 1,0.00006609,0.00268623,0.00198848,-0.00429524,-0.00541330,-0.00051115
 ,0.00104926,0.06312012,-0.01616838,-0.02520944,-0.00730696,0.00058165,
 0.01005322,0.00097654,-0.00342071,-0.00453567,-0.00514961,0.00111061,-
 0.00699767,0.00520994,0.00130052,0.00473401,0.00258881,0.00122292,-0.0
 0395913,-0.00163590,0.00332866,0.04019533,-0.00009969,-0.00380672,-0.0
 0755627,-0.00125671,0.00089660,0.00804728,0.00164993,0.00472893,0.0028
 2081,-0.00203023,0.01490604,-0.00025577,-0.00271011,0.00254021,0.00018
 122,-0.00268177,-0.00159372,-0.00113885,-0.00647051,0.00878807,0.02541
 696,-0.00012618,-0.00275841,0.00577132,-0.00498595,-0.00352401,-0.0046
 9502,-0.00287927,-0.00615387,0.00052546,0.00265225,-0.00275262,0.00018
 705,-0.00019907,-0.00375560,-0.00509813,-0.00153341,-0.00241283,0.0002
 6319,-0.00585072,0.01029389,0.01196420,0.02375890,-0.00253556,-0.00197
 852,0.00061778,-0.00948690,-0.02245574,-0.00843858,0.00307894,-0.00866
 987,0.00208949,-0.00471812,-0.00106035,0.00066454,-0.00357351,-0.00276
 167,-0.00108413,0.00246141,-0.00249641,0.00033890,0.00929608,-0.020490
 72,-0.01104196,0.00534802,0.09570370,0.00587640,0.00282750,-0.00501467
 ,-0.00924892,-0.00774377,-0.00691822,-0.00028710,0.00202527,0.01195686
 ,0.00050102,0.00072377,0.00575034,-0.00536889,-0.00328484,-0.00418690,
 -0.00025694,0.00034931,0.00110216,0.00900693,-0.00741055,-0.01193353,-
 0.00018925,-0.00614208,0.03588314,-0.00280931,-0.00173051,-0.00248542,
 0.00161353,0.00024205,0.00214712,0.00144657,0.00186256,0.00072266,-0.0
 0745827,0.00309262,0.00213501,-0.00473540,0.01269518,-0.00381598,-0.03
 310161,-0.02134717,-0.02997622,-0.00740629,0.00080606,0.00372730,-0.00
 502241,-0.00752334,0.01092247,0.10268502,0.00355787,0.00498095,-0.0099
 9050,-0.00010282,-0.00381736,-0.00280793,-0.00201174,-0.01250763,-0.00
 192175,-0.00246990,0.00100593,0.00181035,0.00560118,-0.01771965,0.0111
 3796,-0.01275976,-0.00769046,-0.00966797,0.00294561,-0.00058910,-0.008
 54552,-0.00235866,-0.01889996,0.01001289,0.01105964,0.04585232,0.00503
 008,-0.00997455,-0.00175562,-0.00206959,0.00087301,-0.01390572,-0.0007
 9631,-0.00569537,-0.00536444,0.00209107,-0.00788223,-0.00282656,-0.000
 68042,0.01043780,-0.01167164,-0.01784405,-0.00973058,-0.01428349,-0.00
 169947,0.00124816,-0.00147085,0.00519376,0.01067924,-0.01057633,0.0155
 9022,0.01134738,0.05331475,0.00270537,0.00280326,0.00381806,-0.0075397
 5,0.00319505,0.00111117,-0.00746801,0.00006754,0.00355533,0.00575582,-
 0.00202167,0.00013142,-0.00602887,-0.01260873,0.00394768,-0.00539641,-
 0.00071308,-0.00090532,0.00601444,0.00094479,-0.00209243,-0.00581413,0
 .00765298,-0.01095571,-0.04521182,-0.00346142,-0.00481530,0.06298336,0
 .00174766,0.00357020,-0.00319031,0.00023243,0.00082581,-0.00163725,-0.
 00377260,-0.00432431,0.00644010,0.00144663,-0.01103574,-0.00302791,-0.
 01553952,-0.02207930,0.01007054,0.00172522,-0.00322832,0.00205095,0.00
 110190,0.00679917,-0.00687194,0.00807409,-0.01689045,0.00864249,0.0008
 4291,0.00938497,-0.00130287,0.00414128,0.03697798,0.00257333,-0.003272
 35,0.00140082,-0.00384870,0.00828515,-0.00249462,-0.00119321,-0.003284
 03,0.00247161,0.00184169,-0.01275930,0.00345480,0.00298155,0.00654743,
 -0.01043374,0.00242289,0.00202354,-0.00181460,0.00190710,0.00269149,-0
 .01411100,-0.01392258,0.01231678,-0.01606287,0.00103285,-0.00137491,0.
 00853991,0.00620508,-0.01117380,0.02904970\\-0.00000653,0.00006651,-0.
 00009065,-0.00008904,-0.00010668,-0.00001837,0.00004915,0.00009193,0.0
 0005436,-0.00002507,0.00003711,0.00015619,0.00002120,-0.00002649,-0.00
 000724,-0.00001293,-0.00000950,-0.00000105,0.00006453,-0.00020536,-0.0
 0012965,-0.00001392,0.00004952,0.00009237,-0.00002457,-0.00001657,-0.0
 0004346,0.00003716,0.00011953,-0.00001250\\\@


 THE POLHOLDE ROLLS WITHOUT SLIPPING ON THE HERPOLHOLDE LYING IN
 THE INVARIABLE PLANE.
 H.GOLDSTEIN, "CLASSICAL MECHANICS", PG 161
 Job cpu time:  0 days  3 hours 41 minutes 26.6 seconds.
 File lengths (MBytes):  RWF=    315 Int=      0 D2E=      0 Chk=     12 Scr=      1
 Normal termination of Gaussian 03 at Fri Jun 17 20:31:34 2011.
