 Entering Gaussian System, Link 0=g03
 Initial command:
 /usr/local/chem/g03E01/l1.exe /temp0/tam/Gau-22048.inp -scrdir=/temp0/tam/
 Entering Link 1 = /usr/local/chem/g03E01/l1.exe PID=     22049.
  
 Copyright (c) 1988,1990,1992,1993,1995,1998,2003,2004,2007, Gaussian, Inc.
                  All Rights Reserved.
  
 This is the Gaussian(R) 03 program.  It is based on the
 the Gaussian(R) 98 system (copyright 1998, Gaussian, Inc.),
 the Gaussian(R) 94 system (copyright 1995, Gaussian, Inc.),
 the Gaussian 92(TM) system (copyright 1992, Gaussian, Inc.),
 the Gaussian 90(TM) system (copyright 1990, Gaussian, Inc.),
 the Gaussian 88(TM) system (copyright 1988, Gaussian, Inc.),
 the Gaussian 86(TM) system (copyright 1986, Carnegie Mellon
 University), and the Gaussian 82(TM) system (copyright 1983,
 Carnegie Mellon University). Gaussian is a federally registered
 trademark of Gaussian, Inc.
  
 This software contains proprietary and confidential information,
 including trade secrets, belonging to Gaussian, Inc.
  
 This software is provided under written license and may be
 used, copied, transmitted, or stored only in accord with that
 written license.
  
 The following legend is applicable only to US Government
 contracts under FAR:
  
                    RESTRICTED RIGHTS LEGEND
  
 Use, reproduction and disclosure by the US Government is
 subject to restrictions as set forth in subparagraphs (a)
 and (c) of the Commercial Computer Software - Restricted
 Rights clause in FAR 52.227-19.
  
 Gaussian, Inc.
 340 Quinnipiac St., Bldg. 40, Wallingford CT 06492
  
  
 ---------------------------------------------------------------
 Warning -- This program may not be used in any manner that
 competes with the business of Gaussian, Inc. or will provide
 assistance to any competitor of Gaussian, Inc.  The licensee
 of this program is prohibited from giving any competitor of
 Gaussian, Inc. access to this program.  By using this program,
 the user acknowledges that Gaussian, Inc. is engaged in the
 business of creating and licensing software in the field of
 computational chemistry and represents and warrants to the
 licensee that it is not a competitor of Gaussian, Inc. and that
 it will not use this program in any manner prohibited above.
 ---------------------------------------------------------------
  

 Cite this work as:
 Gaussian 03, Revision E.01,
 M. J. Frisch, G. W. Trucks, H. B. Schlegel, G. E. Scuseria, 
 M. A. Robb, J. R. Cheeseman, J. A. Montgomery, Jr., T. Vreven, 
 K. N. Kudin, J. C. Burant, J. M. Millam, S. S. Iyengar, J. Tomasi, 
 V. Barone, B. Mennucci, M. Cossi, G. Scalmani, N. Rega, 
 G. A. Petersson, H. Nakatsuji, M. Hada, M. Ehara, K. Toyota, 
 R. Fukuda, J. Hasegawa, M. Ishida, T. Nakajima, Y. Honda, O. Kitao, 
 H. Nakai, M. Klene, X. Li, J. E. Knox, H. P. Hratchian, J. B. Cross, 
 V. Bakken, C. Adamo, J. Jaramillo, R. Gomperts, R. E. Stratmann, 
 O. Yazyev, A. J. Austin, R. Cammi, C. Pomelli, J. W. Ochterski, 
 P. Y. Ayala, K. Morokuma, G. A. Voth, P. Salvador, J. J. Dannenberg, 
 V. G. Zakrzewski, S. Dapprich, A. D. Daniels, M. C. Strain, 
 O. Farkas, D. K. Malick, A. D. Rabuck, K. Raghavachari, 
 J. B. Foresman, J. V. Ortiz, Q. Cui, A. G. Baboul, S. Clifford, 
 J. Cioslowski, B. B. Stefanov, G. Liu, A. Liashenko, P. Piskorz, 
 I. Komaromi, R. L. Martin, D. J. Fox, T. Keith, M. A. Al-Laham, 
 C. Y. Peng, A. Nanayakkara, M. Challacombe, P. M. W. Gill, 
 B. Johnson, W. Chen, M. W. Wong, C. Gonzalez, and J. A. Pople, 
 Gaussian, Inc., Wallingford CT, 2004.
 
 ******************************************
 Gaussian 03:  AM64L-G03RevE.01 11-Sep-2007
                17-Jun-2011 
 ******************************************
 %NprocShared=8
 Will use up to    8 processors via shared memory.
 %mem=13750MB
 %chk=S9L-ne-d-01
 --------------------------------------
 # hf/6-311G(d) freq scfcyc=500 scf=xqc
 --------------------------------------
 1/10=4,30=1,38=1/1,3;
 2/17=6,18=5,40=1/2;
 3/5=4,6=6,7=1,11=9,16=1,25=1,30=1/1,2,3;
 4//1;
 5/5=2,7=500,8=3,13=1,38=5/2,8;
 8/6=4,10=90,11=11/1;
 10/13=10/2;
 11/6=2,8=1,9=11,15=111,16=1/1,2,10;
 10/6=1/2;
 6/7=2,8=2,9=2,10=2,18=1,28=1/1;
 7/8=1,10=1,25=1/1,2,3,16;
 1/10=4,30=1/3;
 99//99;
 ------
 si11-c
 ------
 Symbolic Z-matrix:
 Charge =  1 Multiplicity = 2
 Si                   -3.27639   0.44085  -0.00001 
 Si                   -1.25066   1.90793  -0.00001 
 Si                    0.65657   1.19954   1.29482 
 Si                    2.10585  -0.90779   0.00001 
 Si                   -1.43897  -0.52536  -1.22094 
 Si                   -1.43897  -0.52535   1.22093 
 Si                    0.65657   1.19953  -1.29482 
 Si                    0.72117  -1.09378   2.17593 
 Si                    2.57232   1.62073  0. 
 Si                   -0.02866  -2.2225    0.00001 
 Si                    0.72118  -1.09379  -2.17592 
 

 GradGradGradGradGradGradGradGradGradGradGradGradGradGradGradGradGradGrad
 Berny optimization.
 Initialization pass.
 Trust Radius=3.00D-01 FncErr=1.00D-07 GrdErr=1.00D-07
 Number of steps in this run=   2 maximum allowed number of steps=   2.
 GradGradGradGradGradGradGradGradGradGradGradGradGradGradGradGradGradGrad

                          Input orientation:                          
 ---------------------------------------------------------------------
 Center     Atomic     Atomic              Coordinates (Angstroms)
 Number     Number      Type              X           Y           Z
 ---------------------------------------------------------------------
    1         14             0       -3.276393    0.440846   -0.000008
    2         14             0       -1.250661    1.907927   -0.000008
    3         14             0        0.656568    1.199538    1.294818
    4         14             0        2.105853   -0.907789    0.000013
    5         14             0       -1.438969   -0.525363   -1.220940
    6         14             0       -1.438972   -0.525353    1.220929
    7         14             0        0.656571    1.199528   -1.294819
    8         14             0        0.721165   -1.093780    2.175926
    9         14             0        2.572318    1.620734   -0.000001
   10         14             0       -0.028660   -2.222496    0.000005
   11         14             0        0.721179   -1.093792   -2.175915
 ---------------------------------------------------------------------
                    Distance matrix (angstroms):
                    1          2          3          4          5
     1  Si   0.000000
     2  Si   2.501183   0.000000
     3  Si   4.209557   2.411620   0.000000
     4  Si   5.548638   4.381146   2.866666   0.000000
     5  Si   2.408394   2.728926   3.700756   3.768652   0.000000
     6  Si   2.408390   2.728919   2.715142   3.768644   2.441869
     7  Si   4.209553   2.411617   2.589637   2.866669   2.715142
     8  Si   4.803149   4.199170   2.457607   2.585837   4.065461
     9  Si   5.966536   3.833751   2.350332   2.571190   4.710292
    10  Si   4.200138   4.307398   3.722418   2.506910   2.521892
    11  Si   4.803152   4.199171   4.160472   2.585843   2.429265
                    6          7          8          9         10
     6  Si   0.000000
     7  Si   3.700744   0.000000
     8  Si   2.429263   4.160469   0.000000
     9  Si   4.710287   2.350331   3.940814   0.000000
    10  Si   2.521890   3.722413   2.563371   4.640636   0.000000
    11  Si   4.065455   2.457605   4.351841   3.940808   2.563369
                   11
    11  Si   0.000000
 Stoichiometry    Si11(1+,2)
 Framework group  C1[X(Si11)]
 Deg. of freedom    27
 Full point group                 C1
 Largest Abelian subgroup         C1      NOp   1
 Largest concise Abelian subgroup C1      NOp   1
                         Standard orientation:                         
 ---------------------------------------------------------------------
 Center     Atomic     Atomic              Coordinates (Angstroms)
 Number     Number      Type              X           Y           Z
 ---------------------------------------------------------------------
    1         14             0       -3.276393    0.440847   -0.000008
    2         14             0       -1.250661    1.907927   -0.000008
    3         14             0        0.656568    1.199538    1.294818
    4         14             0        2.105853   -0.907789    0.000013
    5         14             0       -1.438969   -0.525363   -1.220940
    6         14             0       -1.438972   -0.525353    1.220929
    7         14             0        0.656571    1.199528   -1.294819
    8         14             0        0.721165   -1.093780    2.175926
    9         14             0        2.572318    1.620733    0.000000
   10         14             0       -0.028660   -2.222496    0.000005
   11         14             0        0.721179   -1.093792   -2.175915
 ---------------------------------------------------------------------
 Rotational constants (GHZ):      0.5336350      0.3996622      0.3807613
 Standard basis: 6-311G(d) (5D, 7F)
 There are   286 symmetry adapted basis functions of A   symmetry.
 Integral buffers will be    131072 words long.
 Raffenetti 2 integral format.
 Two-electron integral symmetry is turned on.
   286 basis functions,   506 primitive gaussians,   297 cartesian basis functions
    77 alpha electrons       76 beta electrons
       nuclear repulsion energy      1792.0944294304 Hartrees.
 NAtoms=   11 NActive=   11 NUniq=   11 SFac= 7.50D-01 NAtFMM=   80 NAOKFM=F Big=F
 One-electron integrals computed using PRISM.
 NBasis=   286 RedAO= T  NBF=   286
 NBsUse=   286 1.00D-06 NBFU=   286
 Harris functional with IExCor=  205 diagonalized for initial guess.
 ExpMin= 6.54D-02 ExpMax= 6.94D+04 ExpMxC= 2.33D+03 IAcc=2 IRadAn=         4 AccDes= 0.00D+00
 HarFok:  IExCor= 205 AccDes= 0.00D+00 IRadAn=         4 IDoV=1
 ScaDFX=  1.000000  1.000000  1.000000  1.000000
 Initial guess orbital symmetries:
 Alpha Orbitals:
       Occupied  (A) (A) (A) (A) (A) (A) (A) (A) (A) (A) (A) (A)
                 (A) (A) (A) (A) (A) (A) (A) (A) (A) (A) (A) (A)
                 (A) (A) (A) (A) (A) (A) (A) (A) (A) (A) (A) (A)
                 (A) (A) (A) (A) (A) (A) (A) (A) (A) (A) (A) (A)
                 (A) (A) (A) (A) (A) (A) (A) (A) (A) (A) (A) (A)
                 (A) (A) (A) (A) (A) (A) (A) (A) (A) (A) (A) (A)
                 (A) (A) (A) (A) (A)
       Virtual   (A) (A) (A) (A) (A) (A) (A) (A) (A) (A) (A) (A)
                 (A) (A) (A) (A) (A) (A) (A) (A) (A) (A) (A) (A)
                 (A) (A) (A) (A) (A) (A) (A) (A) (A) (A) (A) (A)
                 (A) (A) (A) (A) (A) (A) (A) (A) (A) (A) (A) (A)
                 (A) (A) (A) (A) (A) (A) (A) (A) (A) (A) (A) (A)
                 (A) (A) (A) (A) (A) (A) (A) (A) (A) (A) (A) (A)
                 (A) (A) (A) (A) (A) (A) (A) (A) (A) (A) (A) (A)
                 (A) (A) (A) (A) (A) (A) (A) (A) (A) (A) (A) (A)
                 (A) (A) (A) (A) (A) (A) (A) (A) (A) (A) (A) (A)
                 (A) (A) (A) (A) (A) (A) (A) (A) (A) (A) (A) (A)
                 (A) (A) (A) (A) (A) (A) (A) (A) (A) (A) (A) (A)
                 (A) (A) (A) (A) (A) (A) (A) (A) (A) (A) (A) (A)
                 (A) (A) (A) (A) (A) (A) (A) (A) (A) (A) (A) (A)
                 (A) (A) (A) (A) (A) (A) (A) (A) (A) (A) (A) (A)
                 (A) (A) (A) (A) (A) (A) (A) (A) (A) (A) (A) (A)
                 (A) (A) (A) (A) (A) (A) (A) (A) (A) (A) (A) (A)
                 (A) (A) (A) (A) (A) (A) (A) (A) (A) (A) (A) (A)
                 (A) (A) (A) (A) (A)
 Beta  Orbitals:
       Occupied  (A) (A) (A) (A) (A) (A) (A) (A) (A) (A) (A) (A)
                 (A) (A) (A) (A) (A) (A) (A) (A) (A) (A) (A) (A)
                 (A) (A) (A) (A) (A) (A) (A) (A) (A) (A) (A) (A)
                 (A) (A) (A) (A) (A) (A) (A) (A) (A) (A) (A) (A)
                 (A) (A) (A) (A) (A) (A) (A) (A) (A) (A) (A) (A)
                 (A) (A) (A) (A) (A) (A) (A) (A) (A) (A) (A) (A)
                 (A) (A) (A) (A)
       Virtual   (A) (A) (A) (A) (A) (A) (A) (A) (A) (A) (A) (A)
                 (A) (A) (A) (A) (A) (A) (A) (A) (A) (A) (A) (A)
                 (A) (A) (A) (A) (A) (A) (A) (A) (A) (A) (A) (A)
                 (A) (A) (A) (A) (A) (A) (A) (A) (A) (A) (A) (A)
                 (A) (A) (A) (A) (A) (A) (A) (A) (A) (A) (A) (A)
                 (A) (A) (A) (A) (A) (A) (A) (A) (A) (A) (A) (A)
                 (A) (A) (A) (A) (A) (A) (A) (A) (A) (A) (A) (A)
                 (A) (A) (A) (A) (A) (A) (A) (A) (A) (A) (A) (A)
                 (A) (A) (A) (A) (A) (A) (A) (A) (A) (A) (A) (A)
                 (A) (A) (A) (A) (A) (A) (A) (A) (A) (A) (A) (A)
                 (A) (A) (A) (A) (A) (A) (A) (A) (A) (A) (A) (A)
                 (A) (A) (A) (A) (A) (A) (A) (A) (A) (A) (A) (A)
                 (A) (A) (A) (A) (A) (A) (A) (A) (A) (A) (A) (A)
                 (A) (A) (A) (A) (A) (A) (A) (A) (A) (A) (A) (A)
                 (A) (A) (A) (A) (A) (A) (A) (A) (A) (A) (A) (A)
                 (A) (A) (A) (A) (A) (A) (A) (A) (A) (A) (A) (A)
                 (A) (A) (A) (A) (A) (A) (A) (A) (A) (A) (A) (A)
                 (A) (A) (A) (A) (A) (A)
 The electronic state of the initial guess is 2-A.
 <S**2> of initial guess= 0.7500
 Requested convergence on RMS density matrix=1.00D-08 within 128 cycles.
 Requested convergence on MAX density matrix=1.00D-06.
 Requested convergence on             energy=1.00D-06.
 No special actions if energy rises.
 Integral accuracy reduced to 1.0D-05 until final iterations.
 Initial convergence to 1.0D-05 achieved.  Increase integral accuracy.
 Restarting incremental Fock formation.
 SCF Done:  E(UHF) =  -3177.83753397     A.U. after   41 cycles
             Convg  =    0.5001D-08             -V/T =  2.0000
             S**2   =   0.9004
 Annihilation of the first spin contaminant:
 S**2 before annihilation     0.9004,   after     0.7662
 QCSCF skips out because SCF is already converged.
 Range of M.O.s used for correlation:     1   286
 NBasis=   286 NAE=    77 NBE=    76 NFC=     0 NFV=     0
 NROrb=    286 NOA=    77 NOB=    76 NVA=   209 NVB=   210
          Differentiating once with respect to electric field.
                with respect to dipole field.
          Electric field/nuclear overlap derivatives assumed to be zero.
 Integrals replicated using symmetry in FoFDir.
 MinBra= 0 MaxBra= 2 Meth= 1.
 IRaf=       0 NMat=   3 IRICut=       1 DoRegI=T DoRafI=F ISym2E= 2 JSym2E=2.
          There are   3 degrees of freedom in the 1st order CPHF.
     3 vectors were produced by pass  0.
 AX will form   3 AO Fock derivatives at one time.
     3 vectors were produced by pass  1.
     3 vectors were produced by pass  2.
     3 vectors were produced by pass  3.
     3 vectors were produced by pass  4.
     3 vectors were produced by pass  5.
     3 vectors were produced by pass  6.
     3 vectors were produced by pass  7.
     3 vectors were produced by pass  8.
     3 vectors were produced by pass  9.
     3 vectors were produced by pass 10.
     3 vectors were produced by pass 11.
     3 vectors were produced by pass 12.
     3 vectors were produced by pass 13.
     3 vectors were produced by pass 14.
     3 vectors were produced by pass 15.
     3 vectors were produced by pass 16.
     1 vectors were produced by pass 17.
     1 vectors were produced by pass 18.
 Inv2:  IOpt= 1 Iter= 1 AM= 5.14D-15 Conv= 1.00D-12.
 Inverted reduced A of dimension   53 with in-core refinement.
 End of Minotr Frequency-dependent properties file   721 does not exist.
 Symmetrizing basis deriv contribution to polar:
 IMax=3 JMax=2 DiffMx= 0.00D+00
 G2DrvN: will do   12 centers at a time, making    1 passes doing MaxLOS=2.
 FoFDir/FoFCou used for L=0 through L=2.
 DoAtom=TTTTTTTTTTT
          Differentiating once with respect to electric field.
                with respect to dipole field.
          Differentiating once with respect to nuclear coordinates.
 Integrals replicated using symmetry in FoFDir.
 MinBra= 0 MaxBra= 2 Meth= 1.
 IRaf=       0 NMat=  36 IRICut=      36 DoRegI=T DoRafI=T ISym2E= 2 JSym2E=2.
          There are  36 degrees of freedom in the 1st order CPHF.
    33 vectors were produced by pass  0.
 AX will form  33 AO Fock derivatives at one time.
    33 vectors were produced by pass  1.
    33 vectors were produced by pass  2.
    33 vectors were produced by pass  3.
    33 vectors were produced by pass  4.
    33 vectors were produced by pass  5.
    33 vectors were produced by pass  6.
    33 vectors were produced by pass  7.
    33 vectors were produced by pass  8.
    33 vectors were produced by pass  9.
     8 vectors were produced by pass 10.
     3 vectors were produced by pass 11.
     3 vectors were produced by pass 12.
 Inv2:  IOpt= 1 Iter= 1 AM= 1.01D-14 Conv= 1.00D-12.
 Inverted reduced A of dimension  344 with in-core refinement.
 Isotropic polarizability for W=    0.000000      310.08 Bohr**3.
 End of Minotr Frequency-dependent properties file   721 does not exist.

 **********************************************************************

            Population analysis using the SCF density.

 **********************************************************************

 Orbital symmetries:
 Alpha Orbitals:
       Occupied  (A) (A) (A) (A) (A) (A) (A) (A) (A) (A) (A) (A)
                 (A) (A) (A) (A) (A) (A) (A) (A) (A) (A) (A) (A)
                 (A) (A) (A) (A) (A) (A) (A) (A) (A) (A) (A) (A)
                 (A) (A) (A) (A) (A) (A) (A) (A) (A) (A) (A) (A)
                 (A) (A) (A) (A) (A) (A) (A) (A) (A) (A) (A) (A)
                 (A) (A) (A) (A) (A) (A) (A) (A) (A) (A) (A) (A)
                 (A) (A) (A) (A) (A)
       Virtual   (A) (A) (A) (A) (A) (A) (A) (A) (A) (A) (A) (A)
                 (A) (A) (A) (A) (A) (A) (A) (A) (A) (A) (A) (A)
                 (A) (A) (A) (A) (A) (A) (A) (A) (A) (A) (A) (A)
                 (A) (A) (A) (A) (A) (A) (A) (A) (A) (A) (A) (A)
                 (A) (A) (A) (A) (A) (A) (A) (A) (A) (A) (A) (A)
                 (A) (A) (A) (A) (A) (A) (A) (A) (A) (A) (A) (A)
                 (A) (A) (A) (A) (A) (A) (A) (A) (A) (A) (A) (A)
                 (A) (A) (A) (A) (A) (A) (A) (A) (A) (A) (A) (A)
                 (A) (A) (A) (A) (A) (A) (A) (A) (A) (A) (A) (A)
                 (A) (A) (A) (A) (A) (A) (A) (A) (A) (A) (A) (A)
                 (A) (A) (A) (A) (A) (A) (A) (A) (A) (A) (A) (A)
                 (A) (A) (A) (A) (A) (A) (A) (A) (A) (A) (A) (A)
                 (A) (A) (A) (A) (A) (A) (A) (A) (A) (A) (A) (A)
                 (A) (A) (A) (A) (A) (A) (A) (A) (A) (A) (A) (A)
                 (A) (A) (A) (A) (A) (A) (A) (A) (A) (A) (A) (A)
                 (A) (A) (A) (A) (A) (A) (A) (A) (A) (A) (A) (A)
                 (A) (A) (A) (A) (A) (A) (A) (A) (A) (A) (A) (A)
                 (A) (A) (A) (A) (A)
 Beta  Orbitals:
       Occupied  (A) (A) (A) (A) (A) (A) (A) (A) (A) (A) (A) (A)
                 (A) (A) (A) (A) (A) (A) (A) (A) (A) (A) (A) (A)
                 (A) (A) (A) (A) (A) (A) (A) (A) (A) (A) (A) (A)
                 (A) (A) (A) (A) (A) (A) (A) (A) (A) (A) (A) (A)
                 (A) (A) (A) (A) (A) (A) (A) (A) (A) (A) (A) (A)
                 (A) (A) (A) (A) (A) (A) (A) (A) (A) (A) (A) (A)
                 (A) (A) (A) (A)
       Virtual   (A) (A) (A) (A) (A) (A) (A) (A) (A) (A) (A) (A)
                 (A) (A) (A) (A) (A) (A) (A) (A) (A) (A) (A) (A)
                 (A) (A) (A) (A) (A) (A) (A) (A) (A) (A) (A) (A)
                 (A) (A) (A) (A) (A) (A) (A) (A) (A) (A) (A) (A)
                 (A) (A) (A) (A) (A) (A) (A) (A) (A) (A) (A) (A)
                 (A) (A) (A) (A) (A) (A) (A) (A) (A) (A) (A) (A)
                 (A) (A) (A) (A) (A) (A) (A) (A) (A) (A) (A) (A)
                 (A) (A) (A) (A) (A) (A) (A) (A) (A) (A) (A) (A)
                 (A) (A) (A) (A) (A) (A) (A) (A) (A) (A) (A) (A)
                 (A) (A) (A) (A) (A) (A) (A) (A) (A) (A) (A) (A)
                 (A) (A) (A) (A) (A) (A) (A) (A) (A) (A) (A) (A)
                 (A) (A) (A) (A) (A) (A) (A) (A) (A) (A) (A) (A)
                 (A) (A) (A) (A) (A) (A) (A) (A) (A) (A) (A) (A)
                 (A) (A) (A) (A) (A) (A) (A) (A) (A) (A) (A) (A)
                 (A) (A) (A) (A) (A) (A) (A) (A) (A) (A) (A) (A)
                 (A) (A) (A) (A) (A) (A) (A) (A) (A) (A) (A) (A)
                 (A) (A) (A) (A) (A) (A) (A) (A) (A) (A) (A) (A)
                 (A) (A) (A) (A) (A) (A)
 The electronic state is 2-A.
 Alpha  occ. eigenvalues --  -68.98051 -68.98043 -68.97110 -68.97109 -68.96191
 Alpha  occ. eigenvalues --  -68.96021 -68.95993 -68.95993 -68.95588 -68.95159
 Alpha  occ. eigenvalues --  -68.95159  -6.32400  -6.32192  -6.31675  -6.31665
 Alpha  occ. eigenvalues --   -6.30513  -6.30504  -6.30476  -6.30470  -6.30059
 Alpha  occ. eigenvalues --   -6.29539  -6.29538  -4.43213  -4.42573  -4.42498
 Alpha  occ. eigenvalues --   -4.42462  -4.42221  -4.42198  -4.42070  -4.42053
 Alpha  occ. eigenvalues --   -4.42042  -4.42015  -4.41981  -4.41972  -4.41054
 Alpha  occ. eigenvalues --   -4.40954  -4.40931  -4.40919  -4.40912  -4.40822
 Alpha  occ. eigenvalues --   -4.40806  -4.40776  -4.40729  -4.40646  -4.40605
 Alpha  occ. eigenvalues --   -4.40585  -4.40253  -4.40197  -4.40118  -4.39697
 Alpha  occ. eigenvalues --   -4.39697  -4.39669  -4.39669  -4.39635  -4.39635
 Alpha  occ. eigenvalues --   -1.05768  -0.95379  -0.92377  -0.89989  -0.80186
 Alpha  occ. eigenvalues --   -0.76805  -0.71463  -0.70150  -0.68900  -0.65170
 Alpha  occ. eigenvalues --   -0.60075  -0.55156  -0.50818  -0.50779  -0.49017
 Alpha  occ. eigenvalues --   -0.48523  -0.46671  -0.46380  -0.45090  -0.44714
 Alpha  occ. eigenvalues --   -0.44370  -0.43077
 Alpha virt. eigenvalues --   -0.16013  -0.15729  -0.13728  -0.13483  -0.11249
 Alpha virt. eigenvalues --   -0.08976  -0.07660  -0.07474  -0.06862  -0.06429
 Alpha virt. eigenvalues --   -0.05889  -0.05789  -0.03728  -0.03625  -0.00371
 Alpha virt. eigenvalues --   -0.00272   0.02591   0.02930   0.04236   0.04671
 Alpha virt. eigenvalues --    0.04707   0.06545   0.07003   0.07412   0.08279
 Alpha virt. eigenvalues --    0.08985   0.09512   0.11005   0.11375   0.11929
 Alpha virt. eigenvalues --    0.12756   0.12862   0.13831   0.14271   0.15616
 Alpha virt. eigenvalues --    0.16424   0.16620   0.16801   0.18911   0.19140
 Alpha virt. eigenvalues --    0.19936   0.20235   0.21611   0.21962   0.22535
 Alpha virt. eigenvalues --    0.22608   0.23580   0.24792   0.25939   0.27372
 Alpha virt. eigenvalues --    0.27542   0.28677   0.29686   0.29688   0.30730
 Alpha virt. eigenvalues --    0.37863   0.40467   0.41446   0.41960   0.42830
 Alpha virt. eigenvalues --    0.45659   0.48676   0.50347   0.50473   0.51994
 Alpha virt. eigenvalues --    0.52691   0.52783   0.56021   0.56361   0.56521
 Alpha virt. eigenvalues --    0.56744   0.57845   0.58736   0.59699   0.60409
 Alpha virt. eigenvalues --    0.60787   0.61691   0.62206   0.62240   0.63503
 Alpha virt. eigenvalues --    0.64502   0.64665   0.68659   0.69374   0.69976
 Alpha virt. eigenvalues --    0.71577   0.72358   0.74402   0.74603   0.75934
 Alpha virt. eigenvalues --    0.76587   0.76856   0.77494   0.78661   0.79717
 Alpha virt. eigenvalues --    0.80383   0.82017   0.82082   0.83939   0.84532
 Alpha virt. eigenvalues --    0.86070   0.86475   0.88167   0.88839   0.89911
 Alpha virt. eigenvalues --    0.90098   0.90958   0.91318   0.92611   0.93334
 Alpha virt. eigenvalues --    0.94775   0.96871   0.96892   0.97631   0.97792
 Alpha virt. eigenvalues --    0.99925   1.00561   1.04608   1.05363   1.08528
 Alpha virt. eigenvalues --    1.10573   1.27682   1.28556   1.31020   1.31719
 Alpha virt. eigenvalues --    1.32710   1.34883   1.36259   1.37203   1.38472
 Alpha virt. eigenvalues --    1.38587   1.39213   1.41859   1.43581   1.43911
 Alpha virt. eigenvalues --    1.46677   1.46851   1.49214   1.49723   1.50772
 Alpha virt. eigenvalues --    1.52956   1.52956   1.53751   1.55557   1.56690
 Alpha virt. eigenvalues --    1.57852   1.59030   1.59902   1.62012   1.65362
 Alpha virt. eigenvalues --    1.66193   1.67310   1.72214   1.72511   5.64234
 Alpha virt. eigenvalues --    5.73056   5.75091   5.76638   5.78474   5.79228
 Alpha virt. eigenvalues --    5.80681   5.81175   5.83473   5.87372   5.93653
 Alpha virt. eigenvalues --   11.94983  11.95638  11.96517  11.96708  11.97825
 Alpha virt. eigenvalues --   11.98700  11.98888  11.99913  12.01042  12.01058
 Alpha virt. eigenvalues --   12.02689  12.02765  12.02986  12.04314  12.04830
 Alpha virt. eigenvalues --   12.06262  12.06412  12.06430  12.09203  12.10432
 Alpha virt. eigenvalues --   12.11359  12.13154  12.13745  12.16010  12.16758
 Alpha virt. eigenvalues --   12.17230  12.17726  12.17811  12.21274  12.22546
 Alpha virt. eigenvalues --   12.25310  12.26572  12.31618 143.42075 143.50264
 Alpha virt. eigenvalues --  143.53474 143.54888 143.56401 143.58305 143.59246
 Alpha virt. eigenvalues --  143.59786 143.63461 143.67557 143.74916
  Beta  occ. eigenvalues --  -68.97937 -68.97616 -68.97132 -68.97132 -68.96074
  Beta  occ. eigenvalues --  -68.96051 -68.96051 -68.95760 -68.95609 -68.95131
  Beta  occ. eigenvalues --  -68.95131  -6.32070  -6.31820  -6.31718  -6.31708
  Beta  occ. eigenvalues --   -6.30584  -6.30577  -6.30341  -6.30095  -6.30073
  Beta  occ. eigenvalues --   -6.29507  -6.29506  -4.42283  -4.42271  -4.42210
  Beta  occ. eigenvalues --   -4.42145  -4.42142  -4.42126  -4.42081  -4.42041
  Beta  occ. eigenvalues --   -4.41933  -4.41903  -4.41897  -4.41624  -4.41155
  Beta  occ. eigenvalues --   -4.41138  -4.40938  -4.40928  -4.40870  -4.40867
  Beta  occ. eigenvalues --   -4.40552  -4.40530  -4.40472  -4.40454  -4.40311
  Beta  occ. eigenvalues --   -4.40310  -4.40293  -4.40251  -4.40176  -4.39667
  Beta  occ. eigenvalues --   -4.39667  -4.39621  -4.39621  -4.39547  -4.39547
  Beta  occ. eigenvalues --   -1.05349  -0.94395  -0.91732  -0.89936  -0.78679
  Beta  occ. eigenvalues --   -0.74442  -0.70920  -0.70386  -0.68824  -0.63549
  Beta  occ. eigenvalues --   -0.58194  -0.51024  -0.50117  -0.49057  -0.48549
  Beta  occ. eigenvalues --   -0.47566  -0.46587  -0.46305  -0.44816  -0.44313
  Beta  occ. eigenvalues --   -0.43007
  Beta virt. eigenvalues --   -0.19782  -0.15514  -0.15245  -0.13959  -0.11132
  Beta virt. eigenvalues --   -0.10173  -0.08016  -0.07677  -0.07247  -0.06541
  Beta virt. eigenvalues --   -0.06060  -0.05645  -0.05440  -0.03786  -0.02818
  Beta virt. eigenvalues --    0.00216   0.00527   0.03366   0.03698   0.04825
  Beta virt. eigenvalues --    0.05121   0.05621   0.06664   0.07328   0.07711
  Beta virt. eigenvalues --    0.08271   0.09683   0.10644   0.11335   0.11408
  Beta virt. eigenvalues --    0.12331   0.12928   0.12930   0.14446   0.15043
  Beta virt. eigenvalues --    0.15693   0.16447   0.17229   0.17653   0.18770
  Beta virt. eigenvalues --    0.19248   0.20345   0.20561   0.21644   0.22305
  Beta virt. eigenvalues --    0.22774   0.23267   0.23835   0.24915   0.26247
  Beta virt. eigenvalues --    0.27499   0.27954   0.29080   0.29836   0.29997
  Beta virt. eigenvalues --    0.30749   0.38457   0.41215   0.41833   0.42357
  Beta virt. eigenvalues --    0.43320   0.45907   0.48982   0.50723   0.50946
  Beta virt. eigenvalues --    0.53123   0.53455   0.53762   0.56703   0.56740
  Beta virt. eigenvalues --    0.56831   0.57400   0.58356   0.59429   0.59854
  Beta virt. eigenvalues --    0.60754   0.61051   0.62029   0.62461   0.62925
  Beta virt. eigenvalues --    0.63920   0.64830   0.65185   0.69555   0.69557
  Beta virt. eigenvalues --    0.70560   0.71775   0.72803   0.74919   0.75285
  Beta virt. eigenvalues --    0.76212   0.76771   0.77754   0.78326   0.78883
  Beta virt. eigenvalues --    0.79916   0.80846   0.82375   0.82469   0.84591
  Beta virt. eigenvalues --    0.84748   0.86323   0.86988   0.88598   0.88986
  Beta virt. eigenvalues --    0.90182   0.90713   0.91319   0.91381   0.92895
  Beta virt. eigenvalues --    0.93287   0.95021   0.96921   0.97656   0.97749
  Beta virt. eigenvalues --    0.97992   1.00231   1.00769   1.04996   1.05612
  Beta virt. eigenvalues --    1.08740   1.10731   1.28006   1.28827   1.31372
  Beta virt. eigenvalues --    1.31975   1.33170   1.35141   1.36653   1.37493
  Beta virt. eigenvalues --    1.38500   1.38678   1.39325   1.41912   1.43950
  Beta virt. eigenvalues --    1.44196   1.46930   1.46974   1.49578   1.49688
  Beta virt. eigenvalues --    1.51002   1.53324   1.53391   1.54025   1.55959
  Beta virt. eigenvalues --    1.56698   1.58022   1.59031   1.60231   1.62106
  Beta virt. eigenvalues --    1.65422   1.66495   1.67541   1.72311   1.73016
  Beta virt. eigenvalues --    5.64382   5.73278   5.75485   5.76587   5.78477
  Beta virt. eigenvalues --    5.79853   5.80705   5.81350   5.83404   5.87451
  Beta virt. eigenvalues --    5.93716  11.95248  11.95708  11.96590  11.96851
  Beta virt. eigenvalues --   11.98056  11.98759  11.98941  12.00184  12.01161
  Beta virt. eigenvalues --   12.01203  12.02792  12.02886  12.03041  12.04357
  Beta virt. eigenvalues --   12.04944  12.06338  12.06431  12.06515  12.09124
  Beta virt. eigenvalues --   12.10670  12.11279  12.13116  12.14001  12.16219
  Beta virt. eigenvalues --   12.17023  12.17313  12.17761  12.17871  12.21357
  Beta virt. eigenvalues --   12.22682  12.25321  12.26627  12.31647 143.42128
  Beta virt. eigenvalues --  143.50339 143.53636 143.54865 143.56402 143.58540
  Beta virt. eigenvalues --  143.59245 143.59854 143.63432 143.67580 143.74929
          Condensed to atoms (all electrons):
              1          2          3          4          5          6
     1  Si  13.232637   0.210874  -0.012029   0.003805   0.098300   0.098298
     2  Si   0.210874  13.688565   0.119483  -0.008398  -0.042243  -0.042244
     3  Si  -0.012029   0.119483  13.905848  -0.049064  -0.013281  -0.012590
     4  Si   0.003805  -0.008398  -0.049064  13.839967  -0.063364  -0.063365
     5  Si   0.098300  -0.042243  -0.013281  -0.063364  13.972024  -0.054648
     6  Si   0.098298  -0.042244  -0.012590  -0.063365  -0.054648  13.972031
     7  Si  -0.012029   0.119482  -0.088543  -0.049064  -0.012590  -0.013280
     8  Si   0.002771  -0.018230   0.109036   0.095621  -0.023853   0.126703
     9  Si   0.003101  -0.007253   0.160833   0.106949  -0.006549  -0.006549
    10  Si  -0.010232  -0.018638  -0.021412   0.051605   0.046726   0.046725
    11  Si   0.002771  -0.018230  -0.028566   0.095620   0.126703  -0.023854
              7          8          9         10         11
     1  Si  -0.012029   0.002771   0.003101  -0.010232   0.002771
     2  Si   0.119482  -0.018230  -0.007253  -0.018638  -0.018230
     3  Si  -0.088543   0.109036   0.160833  -0.021412  -0.028566
     4  Si  -0.049064   0.095621   0.106949   0.051605   0.095620
     5  Si  -0.012590  -0.023853  -0.006549   0.046726   0.126703
     6  Si  -0.013280   0.126703  -0.006549   0.046725  -0.023854
     7  Si  13.905851  -0.028566   0.160832  -0.021412   0.109035
     8  Si  -0.028566  13.527438  -0.006553   0.059593  -0.011647
     9  Si   0.160832  -0.006553  13.286754  -0.013069  -0.006552
    10  Si  -0.021412   0.059593  -0.013069  13.728317   0.059593
    11  Si   0.109035  -0.011647  -0.006552   0.059593  13.527438
 Mulliken atomic charges:
              1
     1  Si   0.381733
     2  Si   0.016831
     3  Si  -0.069716
     4  Si   0.039687
     5  Si  -0.027224
     6  Si  -0.027226
     7  Si  -0.069717
     8  Si   0.167686
     9  Si   0.328055
    10  Si   0.092204
    11  Si   0.167687
 Sum of Mulliken charges=   1.00000
 Atomic charges with hydrogens summed into heavy atoms:
              1
     1  Si   0.381733
     2  Si   0.016831
     3  Si  -0.069716
     4  Si   0.039687
     5  Si  -0.027224
     6  Si  -0.027226
     7  Si  -0.069717
     8  Si   0.167686
     9  Si   0.328055
    10  Si   0.092204
    11  Si   0.167687
 Sum of Mulliken charges=   1.00000
          Atomic-Atomic Spin Densities.
              1          2          3          4          5          6
     1  Si   0.113641  -0.018052  -0.000886   0.001763   0.030405   0.030406
     2  Si  -0.018052   0.372165  -0.015595  -0.001971   0.011043   0.011043
     3  Si  -0.000886  -0.015595  -0.158946   0.058750  -0.003135  -0.024043
     4  Si   0.001763  -0.001971   0.058750   0.645177  -0.017135  -0.017135
     5  Si   0.030405   0.011043  -0.003135  -0.017135  -0.008986   0.008107
     6  Si   0.030406   0.011043  -0.024043  -0.017135   0.008107  -0.008985
     7  Si  -0.000886  -0.015595  -0.039938   0.058750  -0.024043  -0.003136
     8  Si   0.000768  -0.005741   0.026232  -0.016185  -0.001372  -0.006750
     9  Si   0.000446  -0.016880   0.042299  -0.072551   0.003194   0.003194
    10  Si  -0.004726   0.002433  -0.001942   0.007838  -0.008534  -0.008535
    11  Si   0.000768  -0.005741   0.004294  -0.016185  -0.006750  -0.001372
              7          8          9         10         11
     1  Si  -0.000886   0.000768   0.000446  -0.004726   0.000768
     2  Si  -0.015595  -0.005741  -0.016880   0.002433  -0.005741
     3  Si  -0.039938   0.026232   0.042299  -0.001942   0.004294
     4  Si   0.058750  -0.016185  -0.072551   0.007838  -0.016185
     5  Si  -0.024043  -0.001372   0.003194  -0.008534  -0.006750
     6  Si  -0.003136  -0.006750   0.003194  -0.008535  -0.001372
     7  Si  -0.158944   0.004294   0.042299  -0.001942   0.026232
     8  Si   0.004294   0.034211  -0.000303   0.000190   0.002188
     9  Si   0.042299  -0.000303   0.146583   0.000825  -0.000303
    10  Si  -0.001942   0.000190   0.000825  -0.051312   0.000190
    11  Si   0.026232   0.002188  -0.000303   0.000190   0.034211
 Mulliken atomic spin densities:
              1
     1  Si   0.153648
     2  Si   0.317109
     3  Si  -0.112910
     4  Si   0.631117
     5  Si  -0.017205
     6  Si  -0.017204
     7  Si  -0.112907
     8  Si   0.037531
     9  Si   0.148805
    10  Si  -0.065515
    11  Si   0.037532
 Sum of Mulliken spin densities=   1.00000
 APT atomic charges:
              1
     1  Si   0.595515
     2  Si  -0.091039
     3  Si  -0.113874
     4  Si  -0.125590
     5  Si  -0.109608
     6  Si  -0.109608
     7  Si  -0.113873
     8  Si   0.313554
     9  Si   0.313825
    10  Si   0.127141
    11  Si   0.313556
 Sum of APT charges=   1.00000
 APT Atomic charges with hydrogens summed into heavy atoms:
              1
     1  Si   0.595515
     2  Si  -0.091039
     3  Si  -0.113874
     4  Si  -0.125590
     5  Si  -0.109608
     6  Si  -0.109608
     7  Si  -0.113873
     8  Si   0.313554
     9  Si   0.313825
    10  Si   0.127141
    11  Si   0.313556
 Sum of APT charges=   1.00000
 Electronic spatial extent (au):  <R**2>=  3447.8259
 Charge=     1.0000 electrons
 Dipole moment (field-independent basis, Debye):
    X=    -0.9134    Y=     1.3771    Z=     0.0000  Tot=     1.6525
 Quadrupole moment (field-independent basis, Debye-Ang):
   XX=  -117.6499   YY=  -131.9441   ZZ=  -134.8889
   XY=    -0.0978   XZ=     0.0001   YZ=     0.0000
 Traceless Quadrupole moment (field-independent basis, Debye-Ang):
   XX=    10.5111   YY=    -3.7831   ZZ=    -6.7280
   XY=    -0.0978   XZ=     0.0001   YZ=     0.0000
 Octapole moment (field-independent basis, Debye-Ang**2):
  XXX=   -17.7618  YYY=    21.7193  ZZZ=    -0.0002  XYY=     2.7124
  XXY=     5.2900  XXZ=     0.0000  XZZ=    -4.3549  YZZ=     9.0574
  YYZ=    -0.0001  XYZ=    -0.0001
 Hexadecapole moment (field-independent basis, Debye-Ang**3):
 XXXX= -2326.6884 YYYY= -1633.7013 ZZZZ= -1479.4028 XXXY=   -13.7206
 XXXZ=    -0.0014 YYYX=     6.4409 YYYZ=     0.0001 ZZZX=    -0.0016
 ZZZY=     0.0001 XXYY=  -635.9405 XXZZ=  -638.4883 YYZZ=  -515.7172
 XXYZ=     0.0000 YYXZ=    -0.0004 ZZXY=     6.1593
 N-N= 1.792094429430D+03 E-N=-1.114319355623D+04  KE= 3.177758161938D+03
  Exact polarizability: 361.446   3.707 291.017   0.000   0.000 277.788
 Approx polarizability: 554.580  10.703 479.610   0.000   0.000 475.348
                          Isotropic Fermi Contact Couplings
        Atom                 a.u.       MegaHertz       Gauss      10(-4) cm-1
     1  Si(29)             0.01782     -15.83875      -5.65166      -5.28324
     2  Si(29)             0.38190    -339.40868    -121.10945    -113.21455
     3  Si(29)            -0.04597      40.85923      14.57959      13.62917
     4  Si(29)             0.43369    -385.43101    -137.53136    -128.56595
     5  Si(29)            -0.08181      72.70928      25.94448      24.25321
     6  Si(29)            -0.08181      72.70908      25.94440      24.25314
     7  Si(29)            -0.04597      40.85843      14.57930      13.62890
     8  Si(29)             0.00161      -1.43241      -0.51112      -0.47780
     9  Si(29)             0.03903     -34.68613     -12.37687     -11.57005
    10  Si(29)             0.02842     -25.25768      -9.01257      -8.42506
    11  Si(29)             0.00161      -1.43170      -0.51086      -0.47756
 --------------------------------------------------------
       Center         ----  Spin Dipole Couplings  ----
                      3XX-RR        3YY-RR        3ZZ-RR
 --------------------------------------------------------
     1   Atom       -0.146961      0.284141     -0.137180
     2   Atom       -0.291837      0.415977     -0.124141
     3   Atom        0.050576     -0.002206     -0.048370
     4   Atom        0.441561      0.034747     -0.476308
     5   Atom        0.171768     -0.140344     -0.031424
     6   Atom        0.171767     -0.140342     -0.031425
     7   Atom        0.050575     -0.002203     -0.048372
     8   Atom       -0.033346      0.049157     -0.015811
     9   Atom        0.281070     -0.154314     -0.126756
    10   Atom        0.102223     -0.094972     -0.007251
    11   Atom       -0.033346      0.049159     -0.015813
 --------------------------------------------------------
                        XY            XZ            YZ
 --------------------------------------------------------
     1   Atom       -0.220897      0.000001     -0.000004
     2   Atom        0.073577      0.000000      0.000000
     3   Atom        0.131015      0.056323     -0.149984
     4   Atom       -0.791713      0.000005     -0.000003
     5   Atom       -0.033282      0.022272     -0.047777
     6   Atom       -0.033282     -0.022271      0.047776
     7   Atom        0.131014     -0.056323      0.149982
     8   Atom        0.056607     -0.036201     -0.048427
     9   Atom       -0.096961      0.000003      0.000001
    10   Atom        0.116480      0.000000      0.000000
    11   Atom        0.056608      0.036201      0.048429
 --------------------------------------------------------


 ---------------------------------------------------------------------------------
              Anisotropic Spin Dipole Couplings in Principal Axis System
 ---------------------------------------------------------------------------------

       Atom             a.u.   MegaHertz   Gauss  10(-4) cm-1        Axes

              Baa    -0.2400    25.465     9.087     8.494  0.9215  0.3883  0.0000
     1 Si(29) Bbb    -0.1372    14.553     5.193     4.854  0.0000  0.0000  1.0000
              Bcc     0.3772   -40.018   -14.279   -13.349 -0.3883  0.9215  0.0000
 
              Baa    -0.2994    31.762    11.333    10.595  0.9948 -0.1023  0.0000
     2 Si(29) Bbb    -0.1241    13.169     4.699     4.393  0.0000  0.0000  1.0000
              Bcc     0.4235   -44.931   -16.033   -14.987  0.1023  0.9948  0.0000
 
              Baa    -0.2364    25.080     8.949     8.366 -0.4196  0.6442  0.6395
     3 Si(29) Bbb     0.0602    -6.388    -2.280    -2.131  0.6759 -0.2485  0.6938
              Bcc     0.1762   -18.692    -6.670    -6.235  0.6059  0.7233 -0.3311
 
              Baa    -0.5793    61.451    21.927    20.498  0.6128  0.7902  0.0000
     4 Si(29) Bbb    -0.4763    50.529    18.030    16.855  0.0000  0.0000  1.0000
              Bcc     1.0556  -111.980   -39.957   -37.353  0.7902 -0.6128  0.0000
 
              Baa    -0.1600    16.974     6.057     5.662  0.0716  0.9390  0.3365
     5 Si(29) Bbb    -0.0189     2.004     0.715     0.668 -0.1650 -0.3215  0.9324
              Bcc     0.1789   -18.978    -6.772    -6.330  0.9837 -0.1223  0.1320
 
              Baa    -0.1600    16.974     6.057     5.662  0.0716  0.9390 -0.3365
     6 Si(29) Bbb    -0.0189     2.004     0.715     0.668  0.1650  0.3216  0.9324
              Bcc     0.1789   -18.978    -6.772    -6.330  0.9837 -0.1223 -0.1319
 
              Baa    -0.2364    25.080     8.949     8.366 -0.4196  0.6442 -0.6395
     7 Si(29) Bbb     0.0602    -6.388    -2.279    -2.131 -0.6759  0.2485  0.6938
              Bcc     0.1762   -18.692    -6.670    -6.235  0.6059  0.7233  0.3311
 
              Baa    -0.0663     7.029     2.508     2.344  0.8869 -0.2812  0.3665
     8 Si(29) Bbb    -0.0407     4.322     1.542     1.442 -0.1659  0.5466  0.8208
              Bcc     0.1070   -11.351    -4.050    -3.786  0.4312  0.7888 -0.4381
 
              Baa    -0.1749    18.557     6.622     6.190  0.2080  0.9781  0.0000
     9 Si(29) Bbb    -0.1268    13.447     4.798     4.485  0.0000  0.0000  1.0000
              Bcc     0.3017   -32.004   -11.420   -10.675  0.9781 -0.2080  0.0000
 
              Baa    -0.1490    15.805     5.639     5.272 -0.4207  0.9072  0.0000
    10 Si(29) Bbb    -0.0073     0.769     0.274     0.257  0.0000  0.0000  1.0000
              Bcc     0.1562   -16.574    -5.914    -5.528  0.9072  0.4207  0.0000
 
              Baa    -0.0663     7.029     2.508     2.345  0.8869 -0.2812 -0.3665
    11 Si(29) Bbb    -0.0407     4.323     1.542     1.442  0.1659 -0.5466  0.8208
              Bcc     0.1070   -11.351    -4.050    -3.786  0.4312  0.7888  0.4381
 

 ---------------------------------------------------------------------------------

 Full mass-weighted force constant matrix:
 Low frequencies ---  -35.5971    0.0010    0.0011    0.0012   19.0759   35.6449
 Low frequencies ---   99.8945  112.5230  128.6260
 Diagonal vibrational polarizability:
       16.6677160       7.5608095      12.2959549
 Diagonal vibrational hyperpolarizability:
     -183.9129123     -63.9472278      -0.0008335
 Harmonic frequencies (cm**-1), IR intensities (KM/Mole), Raman scattering
 activities (A**4/AMU), depolarization ratios for plane and unpolarized
 incident light, reduced masses (AMU), force constants (mDyne/A),
 and normal coordinates:
                     1                      2                      3
                     A                      A                      A
 Frequencies --    99.1432               112.5170               128.3009
 Red. masses --    27.9769                27.9769                27.9769
 Frc consts  --     0.1620                 0.2087                 0.2713
 IR Inten    --     0.3299                 1.3923                 0.8729
 Raman Activ --     0.2656                 4.0165                 1.6708
 Depolar (P) --     0.7500                 0.3359                 0.7500
 Depolar (U) --     0.8571                 0.5029                 0.8571
 Atom AN      X      Y      Z        X      Y      Z        X      Y      Z
   1  14     0.00   0.00   0.32    -0.05   0.19   0.00     0.00   0.00   0.44
   2  14     0.00   0.00   0.14     0.12  -0.05   0.00     0.00   0.00  -0.41
   3  14     0.20   0.07   0.09     0.14  -0.28   0.02    -0.27   0.03  -0.07
   4  14     0.00   0.00   0.47     0.10   0.42   0.00     0.00   0.00   0.09
   5  14    -0.15  -0.03  -0.35    -0.14   0.05   0.02    -0.28  -0.22  -0.08
   6  14     0.15   0.03  -0.35    -0.14   0.05  -0.02     0.28   0.22  -0.08
   7  14    -0.20  -0.07   0.09     0.14  -0.28  -0.02     0.27  -0.03  -0.07
   8  14    -0.17   0.01   0.09    -0.20  -0.31   0.00     0.08  -0.10  -0.07
   9  14     0.00   0.00  -0.35    -0.04   0.39   0.00     0.00   0.00   0.39
  10  14     0.00   0.00  -0.23     0.27   0.12   0.00     0.00   0.00  -0.07
  11  14     0.17  -0.01   0.09    -0.20  -0.31   0.00    -0.08   0.10  -0.07
                     4                      5                      6
                     A                      A                      A
 Frequencies --   133.5211               159.5695               162.4304
 Red. masses --    27.9769                27.9769                27.9769
 Frc consts  --     0.2939                 0.4197                 0.4349
 IR Inten    --     0.8758                 0.4926                 1.3545
 Raman Activ --    15.1207                11.8083                 0.6175
 Depolar (P) --     0.3244                 0.6739                 0.7500
 Depolar (U) --     0.4898                 0.8052                 0.8571
 Atom AN      X      Y      Z        X      Y      Z        X      Y      Z
   1  14     0.11   0.22   0.00    -0.02  -0.10   0.00     0.00   0.00   0.32
   2  14     0.17  -0.12   0.00     0.10  -0.16   0.00     0.00   0.00   0.01
   3  14     0.11   0.08  -0.05     0.21   0.02  -0.03    -0.14   0.09  -0.10
   4  14    -0.09  -0.05   0.00    -0.52   0.13   0.00     0.00   0.00  -0.04
   5  14    -0.20  -0.36   0.04    -0.04  -0.05   0.01     0.11   0.49  -0.15
   6  14    -0.20  -0.36  -0.04    -0.04  -0.05  -0.01    -0.11  -0.49  -0.15
   7  14     0.11   0.08   0.05     0.21   0.02   0.03     0.14  -0.09  -0.10
   8  14    -0.22   0.32   0.17     0.20  -0.02  -0.10     0.08   0.33   0.04
   9  14     0.19   0.08   0.00     0.16   0.43   0.00     0.00   0.00   0.20
  10  14     0.26  -0.20   0.00    -0.46  -0.21   0.00     0.00   0.00  -0.06
  11  14    -0.22   0.32  -0.17     0.20  -0.02   0.10    -0.08  -0.33   0.04
                     7                      8                      9
                     A                      A                      A
 Frequencies --   171.9977               219.2948               225.3839
 Red. masses --    27.9769                27.9769                27.9769
 Frc consts  --     0.4876                 0.7927                 0.8373
 IR Inten    --     1.6461                 1.3328                 1.5322
 Raman Activ --     3.2844                 9.9222                16.9386
 Depolar (P) --     0.6362                 0.7500                 0.4762
 Depolar (U) --     0.7776                 0.8571                 0.6452
 Atom AN      X      Y      Z        X      Y      Z        X      Y      Z
   1  14     0.06   0.61   0.00     0.00   0.00   0.21     0.17   0.15   0.00
   2  14     0.03  -0.08   0.00     0.00   0.00  -0.16    -0.03   0.21   0.00
   3  14    -0.16  -0.07   0.07     0.02  -0.22  -0.37    -0.08   0.31   0.06
   4  14     0.22  -0.05   0.00     0.00   0.00   0.29    -0.28   0.38   0.00
   5  14    -0.12  -0.20  -0.03     0.15   0.11   0.30     0.06  -0.17   0.04
   6  14    -0.12  -0.20   0.03    -0.15  -0.11   0.30     0.06  -0.17  -0.04
   7  14    -0.16  -0.07  -0.07    -0.02   0.22  -0.37    -0.08   0.31  -0.06
   8  14     0.34   0.00  -0.12    -0.25  -0.15   0.05    -0.04  -0.26  -0.22
   9  14    -0.31   0.08   0.00     0.00   0.00  -0.09     0.07  -0.30   0.00
  10  14    -0.13   0.00   0.00     0.00   0.00  -0.20     0.19  -0.20   0.00
  11  14     0.34   0.00   0.12     0.25   0.15   0.05    -0.04  -0.26   0.22
                    10                     11                     12
                     A                      A                      A
 Frequencies --   229.9760               231.1862               251.2038
 Red. masses --    27.9769                27.9769                27.9769
 Frc consts  --     0.8718                 0.8810                 1.0402
 IR Inten    --     1.5765                 0.5458                 6.3563
 Raman Activ --     7.0725                 7.1838                38.5701
 Depolar (P) --     0.7500                 0.7438                 0.3592
 Depolar (U) --     0.8571                 0.8531                 0.5285
 Atom AN      X      Y      Z        X      Y      Z        X      Y      Z
   1  14     0.00   0.00  -0.30     0.42   0.04   0.00    -0.17  -0.06   0.00
   2  14     0.00   0.00  -0.24     0.05   0.13   0.00    -0.07  -0.32   0.00
   3  14    -0.01   0.10   0.12    -0.12   0.12  -0.03     0.10   0.31   0.03
   4  14     0.00   0.00   0.50     0.08  -0.38   0.00     0.41  -0.20   0.00
   5  14    -0.04   0.13   0.17     0.21   0.01  -0.07    -0.18  -0.04  -0.09
   6  14     0.04  -0.13   0.17     0.21   0.01   0.07    -0.18  -0.04   0.09
   7  14     0.01  -0.10   0.12    -0.12   0.12   0.03     0.10   0.31  -0.03
   8  14     0.39  -0.02  -0.03    -0.23  -0.15   0.02    -0.10  -0.12  -0.28
   9  14     0.00   0.00  -0.09    -0.18   0.49   0.00     0.30   0.10   0.00
  10  14     0.00   0.00  -0.38    -0.10  -0.24   0.00    -0.10   0.19   0.00
  11  14    -0.39   0.02  -0.03    -0.23  -0.15  -0.02    -0.10  -0.12   0.28
                    13                     14                     15
                     A                      A                      A
 Frequencies --   254.6019               265.6221               283.2799
 Red. masses --    27.9769                27.9769                27.9769
 Frc consts  --     1.0685                 1.1630                 1.3228
 IR Inten    --     0.0123                 1.4891                 2.2062
 Raman Activ --     9.7734                10.6961                33.4595
 Depolar (P) --     0.7500                 0.2799                 0.3635
 Depolar (U) --     0.8571                 0.4374                 0.5332
 Atom AN      X      Y      Z        X      Y      Z        X      Y      Z
   1  14     0.00   0.00   0.20     0.11  -0.24   0.00     0.43  -0.07   0.00
   2  14     0.00   0.00  -0.27     0.04   0.67   0.00     0.12  -0.31   0.00
   3  14     0.01   0.36   0.28     0.00  -0.10  -0.23    -0.05   0.03   0.12
   4  14     0.00   0.00  -0.23     0.10  -0.02   0.00    -0.10   0.22   0.00
   5  14     0.14  -0.01   0.21    -0.21  -0.22  -0.16     0.05  -0.11  -0.26
   6  14    -0.14   0.01   0.21    -0.21  -0.22   0.16     0.05  -0.11   0.26
   7  14    -0.01  -0.36   0.28     0.00  -0.10   0.23    -0.05   0.03  -0.12
   8  14    -0.27   0.03  -0.15     0.07  -0.03  -0.07    -0.07  -0.03   0.19
   9  14     0.00   0.00  -0.09     0.13   0.06   0.00    -0.04  -0.14   0.00
  10  14     0.00   0.00  -0.30    -0.10   0.23   0.00    -0.27   0.52   0.00
  11  14     0.27  -0.03  -0.15     0.07  -0.03   0.07    -0.07  -0.03  -0.19
                    16                     17                     18
                     A                      A                      A
 Frequencies --   291.7547               316.4294               320.3822
 Red. masses --    27.9769                27.9769                27.9769
 Frc consts  --     1.4031                 1.6505                 1.6919
 IR Inten    --     2.8861                 0.0099                 1.1054
 Raman Activ --     7.5645                 1.5548                 8.7077
 Depolar (P) --     0.7500                 0.7500                 0.3242
 Depolar (U) --     0.8571                 0.8571                 0.4897
 Atom AN      X      Y      Z        X      Y      Z        X      Y      Z
   1  14     0.00   0.00  -0.05     0.00   0.00  -0.06    -0.22  -0.19   0.00
   2  14     0.00   0.00   0.57     0.00   0.00  -0.23     0.39   0.24   0.00
   3  14    -0.10   0.09  -0.16     0.25  -0.29   0.09     0.09   0.14   0.40
   4  14     0.00   0.00   0.15     0.00   0.00  -0.26    -0.03  -0.18   0.00
   5  14     0.04  -0.27   0.10    -0.12  -0.08   0.04    -0.05  -0.12   0.23
   6  14    -0.04   0.27   0.10     0.12   0.08   0.04    -0.05  -0.12  -0.23
   7  14     0.10  -0.09  -0.16    -0.25   0.29   0.09     0.09   0.14  -0.40
   8  14    -0.02   0.26  -0.20    -0.02   0.29   0.25     0.03  -0.09   0.12
   9  14     0.00   0.00   0.21     0.00   0.00   0.21    -0.26   0.07   0.00
  10  14     0.00   0.00  -0.37     0.00   0.00  -0.42    -0.02   0.19   0.00
  11  14     0.02  -0.26  -0.20     0.02  -0.29   0.25     0.03  -0.09  -0.12
                    19                     20                     21
                     A                      A                      A
 Frequencies --   340.1101               343.8405               352.0238
 Red. masses --    27.9769                27.9769                27.9769
 Frc consts  --     1.9067                 1.9488                 2.0427
 IR Inten    --     0.3406                 1.5441                 4.8760
 Raman Activ --    66.9478                 0.6652                44.2534
 Depolar (P) --     0.0444                 0.7500                 0.0098
 Depolar (U) --     0.0850                 0.8571                 0.0193
 Atom AN      X      Y      Z        X      Y      Z        X      Y      Z
   1  14    -0.21   0.22   0.00     0.00   0.00   0.07    -0.05  -0.03   0.00
   2  14    -0.42   0.06   0.00     0.00   0.00  -0.17    -0.09   0.15   0.00
   3  14     0.02   0.13  -0.04     0.45  -0.01  -0.01     0.04   0.02   0.14
   4  14    -0.13  -0.17   0.00     0.00   0.00   0.23     0.50   0.40   0.00
   5  14     0.02  -0.05  -0.05     0.10   0.00  -0.03     0.02  -0.04   0.01
   6  14     0.02  -0.05   0.05    -0.10   0.00  -0.03     0.02  -0.04  -0.01
   7  14     0.02   0.13   0.04    -0.45   0.01  -0.01     0.04   0.02  -0.14
   8  14     0.16  -0.25   0.42     0.03   0.07  -0.35    -0.06   0.01   0.21
   9  14     0.26   0.12   0.00     0.00   0.00   0.39     0.11  -0.06   0.00
  10  14     0.10   0.11   0.00     0.00   0.00   0.28    -0.46  -0.42   0.00
  11  14     0.16  -0.25  -0.42    -0.03  -0.07  -0.35    -0.06   0.01  -0.21
                    22                     23                     24
                     A                      A                      A
 Frequencies --   371.4986               392.3999               428.8045
 Red. masses --    27.9769                27.9769                27.9769
 Frc consts  --     2.2749                 2.5381                 3.0309
 IR Inten    --     8.5423                 6.5719                19.5627
 Raman Activ --    51.8157                 1.1598                 7.0606
 Depolar (P) --     0.0222                 0.7500                 0.1873
 Depolar (U) --     0.0434                 0.8571                 0.3155
 Atom AN      X      Y      Z        X      Y      Z        X      Y      Z
   1  14    -0.01   0.10   0.00     0.00   0.00   0.22    -0.29  -0.04   0.00
   2  14    -0.07  -0.05   0.00     0.00   0.00  -0.12     0.59  -0.14   0.00
   3  14    -0.03  -0.03  -0.25    -0.21  -0.36   0.24    -0.15   0.19  -0.37
   4  14     0.07   0.06   0.00     0.00   0.00   0.10     0.07   0.11   0.00
   5  14     0.23  -0.18   0.49     0.31  -0.15  -0.06    -0.01   0.06  -0.08
   6  14     0.23  -0.18  -0.49    -0.31   0.15  -0.06    -0.01   0.06   0.08
   7  14    -0.03  -0.03   0.25     0.21   0.36   0.24    -0.15   0.19   0.37
   8  14    -0.10  -0.01  -0.03     0.09   0.17  -0.17     0.05  -0.12   0.16
   9  14     0.07   0.01   0.00     0.00   0.00  -0.29    -0.14  -0.07   0.00
  10  14    -0.25   0.34   0.00     0.00   0.00   0.07    -0.01  -0.10   0.00
  11  14    -0.10  -0.01   0.03    -0.09  -0.17  -0.17     0.05  -0.12  -0.16
                    25                     26                     27
                     A                      A                      A
 Frequencies --   434.9759               466.1283               475.3438
 Red. masses --    27.9769                27.9769                27.9769
 Frc consts  --     3.1188                 3.5815                 3.7245
 IR Inten    --    32.4522                 3.8504                53.6521
 Raman Activ --     1.6725                 1.2316                 0.6514
 Depolar (P) --     0.7500                 0.2836                 0.2102
 Depolar (U) --     0.8571                 0.4419                 0.3474
 Atom AN      X      Y      Z        X      Y      Z        X      Y      Z
   1  14     0.00   0.00   0.16     0.02   0.03   0.00     0.53  -0.16   0.00
   2  14     0.00   0.00  -0.01    -0.24   0.01   0.00    -0.06  -0.11   0.00
   3  14     0.12   0.16  -0.11     0.46   0.12  -0.19    -0.03   0.09  -0.07
   4  14     0.00   0.00  -0.10     0.03   0.00   0.00     0.07  -0.01   0.00
   5  14     0.43  -0.20  -0.16     0.00  -0.04  -0.07    -0.38   0.20   0.30
   6  14    -0.43   0.20  -0.16     0.00  -0.04   0.07    -0.38   0.20  -0.30
   7  14    -0.12  -0.16  -0.11     0.46   0.12   0.19    -0.03   0.09   0.07
   8  14     0.24  -0.18   0.26    -0.04  -0.02   0.01     0.14  -0.09   0.12
   9  14     0.00   0.00   0.13    -0.61  -0.16   0.00    -0.03  -0.05   0.00
  10  14     0.00   0.00  -0.18    -0.03  -0.01   0.00     0.04  -0.07   0.00
  11  14    -0.24   0.18   0.26    -0.04  -0.02  -0.01     0.14  -0.09  -0.12

 -------------------
 - Thermochemistry -
 -------------------
 Temperature   298.150 Kelvin.  Pressure   1.00000 Atm.
 Atom  1 has atomic number 14 and mass  27.97693
 Atom  2 has atomic number 14 and mass  27.97693
 Atom  3 has atomic number 14 and mass  27.97693
 Atom  4 has atomic number 14 and mass  27.97693
 Atom  5 has atomic number 14 and mass  27.97693
 Atom  6 has atomic number 14 and mass  27.97693
 Atom  7 has atomic number 14 and mass  27.97693
 Atom  8 has atomic number 14 and mass  27.97693
 Atom  9 has atomic number 14 and mass  27.97693
 Atom 10 has atomic number 14 and mass  27.97693
 Atom 11 has atomic number 14 and mass  27.97693
 Molecular mass:   307.74621 amu.
 Principal axes and moments of inertia in atomic units:
                           1         2         3
     EIGENVALUES --  3381.976994515.666944739.82356
           X            1.00000   0.00000   0.00000
           Y            0.00000   1.00000   0.00000
           Z            0.00000   0.00000   1.00000
 This molecule is an asymmetric top.
 Rotational symmetry number  1.
 Warning -- assumption of classical behavior for rotation
           may cause significant error
 Rotational temperatures (Kelvin)      0.02561     0.01918     0.01827
 Rotational constants (GHZ):           0.53363     0.39966     0.38076
 Zero-point vibrational energy      44631.0 (Joules/Mol)
                                   10.66706 (Kcal/Mol)
 Warning -- explicit consideration of  27 degrees of freedom as
           vibrations may cause significant error
 Vibrational temperatures:    142.64   161.89   184.60   192.11   229.58
          (Kelvin)            233.70   247.47   315.52   324.28   330.88
                              332.62   361.43   366.31   382.17   407.58
                              419.77   455.27   460.96   489.34   494.71
                              506.48   534.50   564.58   616.95   625.83
                              670.65   683.91
 
 Zero-point correction=                           0.016999 (Hartree/Particle)
 Thermal correction to Energy=                    0.032474
 Thermal correction to Enthalpy=                  0.033418
 Thermal correction to Gibbs Free Energy=        -0.025612
 Sum of electronic and zero-point Energies=          -3177.820535
 Sum of electronic and thermal Energies=             -3177.805060
 Sum of electronic and thermal Enthalpies=           -3177.804116
 Sum of electronic and thermal Free Energies=        -3177.863146
 
                     E (Thermal)             CV                S
                      KCal/Mol        Cal/Mol-Kelvin    Cal/Mol-Kelvin
 Total                   20.378             51.680            124.239
 Electronic               0.000              0.000              1.377
 Translational            0.889              2.981             43.069
 Rotational               0.889              2.981             32.648
 Vibrational             18.600             45.719             47.144
 Vibration  1             0.604              1.950              3.471
 Vibration  2             0.607              1.939              3.225
 Vibration  3             0.611              1.925              2.971
 Vibration  4             0.613              1.920              2.895
 Vibration  5             0.621              1.892              2.555
 Vibration  6             0.623              1.889              2.521
 Vibration  7             0.626              1.877              2.414
 Vibration  8             0.647              1.812              1.965
 Vibration  9             0.650              1.802              1.915
 Vibration 10             0.652              1.795              1.879
 Vibration 11             0.653              1.793              1.870
 Vibration 12             0.663              1.761              1.722
 Vibration 13             0.665              1.755              1.699
 Vibration 14             0.671              1.736              1.625
 Vibration 15             0.682              1.705              1.514
 Vibration 16             0.687              1.689              1.464
 Vibration 17             0.703              1.642              1.328
 Vibration 18             0.706              1.635              1.308
 Vibration 19             0.720              1.595              1.212
 Vibration 20             0.723              1.588              1.194
 Vibration 21             0.729              1.571              1.157
 Vibration 22             0.743              1.531              1.074
 Vibration 23             0.760              1.486              0.991
 Vibration 24             0.790              1.408              0.863
 Vibration 25             0.796              1.394              0.843
 Vibration 26             0.823              1.325              0.748
 Vibration 27             0.832              1.305              0.723
                       Q            Log10(Q)             Ln(Q)
 Total Bot       0.603328D+12         11.780553         27.125726
 Total V=0       0.397701D+20         19.599557         45.129648
 Vib (Bot)       0.466772D-03         -3.330895         -7.669669
 Vib (Bot)  1    0.207035D+01          0.316045          0.727720
 Vib (Bot)  2    0.181929D+01          0.259902          0.598446
 Vib (Bot)  3    0.158963D+01          0.201297          0.463504
 Vib (Bot)  4    0.152548D+01          0.183405          0.422306
 Vib (Bot)  5    0.126711D+01          0.102815          0.236740
 Vib (Bot)  6    0.124369D+01          0.094713          0.218085
 Vib (Bot)  7    0.117091D+01          0.068524          0.157782
 Vib (Bot)  8    0.902266D+00         -0.044666         -0.102846
 Vib (Bot)  9    0.875629D+00         -0.057680         -0.132813
 Vib (Bot) 10    0.856439D+00         -0.067303         -0.154972
 Vib (Bot) 11    0.851504D+00         -0.069813         -0.160751
 Vib (Bot) 12    0.776502D+00         -0.109858         -0.252956
 Vib (Bot) 13    0.764892D+00         -0.116400         -0.268021
 Vib (Bot) 14    0.729194D+00         -0.137157         -0.315816
 Vib (Bot) 15    0.677519D+00         -0.169078         -0.389317
 Vib (Bot) 16    0.654831D+00         -0.183871         -0.423378
 Vib (Bot) 17    0.595337D+00         -0.225237         -0.518628
 Vib (Bot) 18    0.586610D+00         -0.231650         -0.533394
 Vib (Bot) 19    0.545918D+00         -0.262873         -0.605287
 Vib (Bot) 20    0.538717D+00         -0.268640         -0.618566
 Vib (Bot) 21    0.523421D+00         -0.281149         -0.647369
 Vib (Bot) 22    0.489565D+00         -0.310190         -0.714239
 Vib (Bot) 23    0.456734D+00         -0.340337         -0.783655
 Vib (Bot) 24    0.406715D+00         -0.390710         -0.899643
 Vib (Bot) 25    0.399011D+00         -0.399015         -0.918766
 Vib (Bot) 26    0.363040D+00         -0.440045         -1.013242
 Vib (Bot) 27    0.353245D+00         -0.451924         -1.040592
 Vib (V=0)       0.307687D+05          4.488109         10.334253
 Vib (V=0)  1    0.262987D+01          0.419935          0.966936
 Vib (V=0)  2    0.238675D+01          0.377806          0.869931
 Vib (V=0)  3    0.216642D+01          0.335742          0.773074
 Vib (V=0)  4    0.210533D+01          0.323320          0.744471
 Vib (V=0)  5    0.186219D+01          0.270025          0.621755
 Vib (V=0)  6    0.184044D+01          0.264921          0.610003
 Vib (V=0)  7    0.177320D+01          0.248757          0.572784
 Vib (V=0)  8    0.153154D+01          0.185130          0.426277
 Vib (V=0)  9    0.150833D+01          0.178496          0.411002
 Vib (V=0) 10    0.149171D+01          0.173684          0.399923
 Vib (V=0) 11    0.148745D+01          0.172443          0.397064
 Vib (V=0) 12    0.142356D+01          0.153374          0.353158
 Vib (V=0) 13    0.141382D+01          0.150393          0.346292
 Vib (V=0) 14    0.138415D+01          0.141184          0.325087
 Vib (V=0) 15    0.134204D+01          0.127766          0.294191
 Vib (V=0) 16    0.132390D+01          0.121854          0.280578
 Vib (V=0) 17    0.127745D+01          0.106343          0.244864
 Vib (V=0) 18    0.127079D+01          0.104073          0.239636
 Vib (V=0) 19    0.124029D+01          0.093523          0.215344
 Vib (V=0) 20    0.123499D+01          0.091665          0.211066
 Vib (V=0) 21    0.122386D+01          0.087731          0.202008
 Vib (V=0) 22    0.119977D+01          0.079097          0.182127
 Vib (V=0) 23    0.117720D+01          0.070852          0.163142
 Vib (V=0) 24    0.114453D+01          0.058627          0.134993
 Vib (V=0) 25    0.113970D+01          0.056789          0.130761
 Vib (V=0) 26    0.111790D+01          0.048402          0.111450
 Vib (V=0) 27    0.111219D+01          0.046181          0.106335
 Electronic      0.200000D+01          0.301030          0.693147
 Translational   0.212199D+09          8.326744         19.173037
 Rotational      0.304561D+07          6.483674         14.929211
 ***** Axes restored to original set *****
 -------------------------------------------------------------------
 Center     Atomic                   Forces (Hartrees/Bohr)
 Number     Number              X              Y              Z
 -------------------------------------------------------------------
    1         14           0.002647386    0.005152071    0.000000008
    2         14           0.015753530   -0.008632362    0.000000032
    3         14          -0.008976777    0.004588333    0.000346927
    4         14          -0.020019424    0.010511935   -0.000000240
    5         14           0.012510218    0.000507612   -0.005102971
    6         14           0.012510112    0.000507518    0.005103212
    7         14          -0.008976486    0.004588602   -0.000347020
    8         14          -0.001646046   -0.001015238    0.014039243
    9         14          -0.004509745   -0.005309327   -0.000000079
   10         14           0.002353162   -0.009883736   -0.000000003
   11         14          -0.001645930   -0.001015409   -0.014039109
 -------------------------------------------------------------------
 Cartesian Forces:  Max     0.020019424 RMS     0.007765633
 ------------------------------------------------------------------------
           Internal Coordinate Forces (Hartree/Bohr or radian)
 Cent Atom N1     Length/X     N2     Alpha/Y      N3      Beta/Z       J
 ------------------------------------------------------------------------
   1  Si        0.002647(   1)      0.005152(  12)      0.000000(  23)
   2  Si        0.015754(   2)     -0.008632(  13)      0.000000(  24)
   3  Si       -0.008977(   3)      0.004588(  14)      0.000347(  25)
   4  Si       -0.020019(   4)      0.010512(  15)      0.000000(  26)
   5  Si        0.012510(   5)      0.000508(  16)     -0.005103(  27)
   6  Si        0.012510(   6)      0.000508(  17)      0.005103(  28)
   7  Si       -0.008976(   7)      0.004589(  18)     -0.000347(  29)
   8  Si       -0.001646(   8)     -0.001015(  19)      0.014039(  30)
   9  Si       -0.004510(   9)     -0.005309(  20)      0.000000(  31)
  10  Si        0.002353(  10)     -0.009884(  21)      0.000000(  32)
  11  Si       -0.001646(  11)     -0.001015(  22)     -0.014039(  33)
 ------------------------------------------------------------------------
 Internal  Forces:  Max     0.020019424 RMS     0.007765633

 GradGradGradGradGradGradGradGradGradGradGradGradGradGradGradGradGradGrad
 Berny optimization.
 Search for a local minimum.
 Step number   1 out of a maximum of   2
 All quantities printed in internal units (Hartrees-Bohrs-Radians)
 Second derivative matrix not updated -- analytic derivatives used.
     Eigenvalues ---    0.01041   0.01340   0.01743   0.01888   0.02696
     Eigenvalues ---    0.02793   0.03132   0.05092   0.05378   0.05600
     Eigenvalues ---    0.05659   0.06681   0.06863   0.07470   0.08496
     Eigenvalues ---    0.09012   0.10601   0.10867   0.12247   0.12517
     Eigenvalues ---    0.13120   0.14612   0.16302   0.19467   0.20032
     Eigenvalues ---    0.23004   0.23923
 Quadratic step=7.229D-01 exceeds max=3.000D-01 adjusted using Lamda=-6.709D-02.
 Angle between NR and scaled steps=  22.52 degrees.
 Angle between quadratic step and forces=  16.61 degrees.
 Linear search not attempted -- first point.
 TrRot=  0.000000  0.000000  0.000000  0.000000  0.000000  0.000000
 Variable       Old X    -DE/DX   Delta X   Delta X   Delta X     New X
                                 (Linear)    (Quad)   (Total)
    X1       -6.19149   0.00265   0.00000   0.06234   0.06234  -6.12914
    Y1        0.83308   0.00515   0.00000   0.02817   0.02817   0.86125
    Z1       -0.00002   0.00000   0.00000   0.00000   0.00000  -0.00002
    X2       -2.36341   0.01575   0.00000   0.06970   0.06970  -2.29371
    Y2        3.60546  -0.00863   0.00000  -0.04922  -0.04922   3.55624
    Z2       -0.00002   0.00000   0.00000   0.00000   0.00000  -0.00001
    X3        1.24073  -0.00898   0.00000  -0.04101  -0.04101   1.19973
    Y3        2.26680   0.00459   0.00000   0.03583   0.03583   2.30263
    Z3        2.44685   0.00035   0.00000   0.01456   0.01456   2.46142
    X4        3.97949  -0.02002   0.00000  -0.16253  -0.16253   3.81695
    Y4       -1.71547   0.01051   0.00000   0.06438   0.06438  -1.65109
    Z4        0.00002   0.00000   0.00000   0.00000   0.00000   0.00002
    X5       -2.71926   0.01251   0.00000   0.08285   0.08285  -2.63641
    Y5       -0.99279   0.00051   0.00000  -0.00621  -0.00621  -0.99900
    Z5       -2.30724  -0.00510   0.00000  -0.01299  -0.01299  -2.32023
    X6       -2.71926   0.01251   0.00000   0.08284   0.08284  -2.63642
    Y6       -0.99277   0.00051   0.00000  -0.00621  -0.00621  -0.99899
    Z6        2.30722   0.00510   0.00000   0.01299   0.01299   2.32022
    X7        1.24074  -0.00898   0.00000  -0.04101  -0.04101   1.19973
    Y7        2.26678   0.00459   0.00000   0.03583   0.03583   2.30261
    Z7       -2.44685  -0.00035   0.00000  -0.01457  -0.01457  -2.46142
    X8        1.36280  -0.00165   0.00000  -0.01864  -0.01864   1.34416
    Y8       -2.06694  -0.00102   0.00000   0.01121   0.01121  -2.05574
    Z8        4.11190   0.01404   0.00000   0.09114   0.09114   4.20304
    X9        4.86098  -0.00451   0.00000  -0.03098  -0.03098   4.83000
    Y9        3.06274  -0.00531   0.00000  -0.04223  -0.04223   3.02051
    Z9        0.00000   0.00000   0.00000   0.00000   0.00000   0.00000
   X10       -0.05416   0.00235   0.00000   0.01508   0.01508  -0.03908
   Y10       -4.19991  -0.00988   0.00000  -0.08276  -0.08276  -4.28267
   Z10        0.00001   0.00000   0.00000   0.00000   0.00000   0.00001
   X11        1.36283  -0.00165   0.00000  -0.01864  -0.01864   1.34419
   Y11       -2.06697  -0.00102   0.00000   0.01121   0.01121  -2.05576
   Z11       -4.11188  -0.01404   0.00000  -0.09114  -0.09114  -4.20302
         Item               Value     Threshold  Converged?
 Maximum Force            0.020019     0.000450     NO 
 RMS     Force            0.007766     0.000300     NO 
 Maximum Displacement     0.162532     0.001800     NO 
 RMS     Displacement     0.052338     0.001200     NO 
 Predicted change in Energy=-9.458923D-03
 GradGradGradGradGradGradGradGradGradGradGradGradGradGradGradGradGradGrad

 1\1\GINC-NODE190\Freq\UHF\6-311G(d)\Si11(1+,2)\TAM\17-Jun-2011\0\\# hf
 /6-311G(d) freq scfcyc=500 scf=xqc\\si11-c\\1,2\Si,-3.276393,0.440846,
 -0.000008\Si,-1.250661,1.907927,-0.000008\Si,0.656568,1.199538,1.29481
 8\Si,2.105853,-0.907789,0.000013\Si,-1.438969,-0.525363,-1.22094\Si,-1
 .438972,-0.525353,1.220929\Si,0.656571,1.199528,-1.294819\Si,0.721165,
 -1.09378,2.175926\Si,2.572318,1.620734,0.\Si,-0.02866,-2.222496,0.0000
 05\Si,0.721179,-1.093792,-2.175915\\Version=AM64L-G03RevE.01\State=2-A
 \HF=-3177.837534\S2=0.900419\S2-1=0.\S2A=0.766179\RMSD=5.001e-09\RMSF=
 7.766e-03\ZeroPoint=0.016999\Thermal=0.032474\Dipole=-0.3593617,0.5417
 911,-0.0000048\DipoleDeriv=1.021633,-0.2062956,0.0000024,-0.2107125,0.
 3899593,-0.0000004,0.0000018,-0.0000003,0.3749533,-0.2470852,-0.294338
 3,0.0000008,0.1056829,-0.0041866,0.0000012,0.0000001,-0.0000012,-0.021
 8438,-0.0236665,0.0268029,0.0564936,-0.2702937,-0.1138354,0.2261405,0.
 0287936,0.0934959,-0.2041216,0.0459396,-0.1489904,0.0000024,0.1465047,
 -0.1810801,0.,0.0000018,-0.000001,-0.2416299,-0.1865789,0.2630238,0.27
 56367,0.2407107,-0.0980962,0.0234607,0.402863,0.0830755,-0.0441475,-0.
 1865762,0.2630236,-0.2756369,0.2407114,-0.0980975,-0.0234605,-0.402863
 8,-0.0830736,-0.0441494,-0.0236643,0.0268045,-0.0564922,-0.2702935,-0.
 1138376,-0.2261425,-0.0287909,-0.093495,-0.2041187,0.1843591,-0.041323
 5,0.1177736,-0.1040785,0.2197917,-0.340018,0.2337267,-0.2592526,0.5365
 124,0.2880772,0.1976997,-0.0000009,0.1219553,0.314404,0.000001,-0.0000
 016,-0.0000005,0.3389928,-0.0568014,-0.0450802,0.0000006,0.1038936,0.4
 65183,-0.0000007,-0.0000011,-0.0000015,-0.0269578,0.1843635,-0.0413264
 ,-0.1177801,-0.1040804,0.2197953,0.3400187,-0.2337294,0.2592543,0.5365
 1\Polar=361.4464612,3.7074146,291.0171824,0.0002463,0.0000222,277.7875
 615\PolarDeriv=-23.8718992,2.6647502,-6.6962472,-0.0000138,0.0000091,-
 5.1069613,-3.7551436,-7.263895,3.4278165,-0.0000469,-0.000018,1.783226
 5,-0.0001414,-0.000003,-0.0000147,-8.8006227,1.6241037,-0.0000722,-15.
 8803006,5.9770473,-8.936319,0.000019,0.0000167,-4.7793977,0.3070557,-8
 .1226932,22.6419875,0.0000689,-0.0000731,3.0569557,0.0002012,-0.000024
 1,-0.0000406,-5.2791539,3.7326808,-0.0000538,16.3061643,1.8727501,1.44
 59672,-0.3223299,0.6319165,1.4450109,0.5818344,0.2744545,2.0034533,1.0
 560856,4.4232482,7.4617492,4.3357375,0.0165424,5.5326765,2.213591,5.43
 56774,15.1592147,17.3442837,-1.0586688,6.9297831,0.0000205,-0.0000204,
 5.7643198,-9.8885882,9.3521699,0.7807486,-0.0000163,0.0000197,-3.18633
 54,0.0001643,-0.00007,-0.0000216,4.4670772,-3.895586,0.0001529,-20.463
 3705,-2.4605479,-3.6881882,-2.8666052,-0.5260779,-4.1510065,-1.4157837
 ,-3.7478944,-2.930023,-0.9905304,-3.1939185,-0.368447,-10.2490634,0.14
 23325,-3.5069233,-4.4896708,-0.8982331,-11.3726014,-20.4634588,-2.4604
 45,-3.688232,2.8664494,0.5260628,-4.1508641,-1.4158136,-3.7479529,-2.9
 299065,0.9904956,3.1939122,-0.3685079,10.2490984,-0.1422996,3.5068883,
 -4.4895848,-0.8982733,11.3725398,16.3063412,1.8727797,1.4459994,0.3224
 155,-0.6318974,1.4450815,0.5817087,0.2744855,2.0032371,-1.0561262,-4.4
 232043,7.461645,-4.3357833,-0.0165007,-5.5326618,2.2137595,5.4356058,-
 15.1593895,-0.762052,-2.404778,3.2219168,7.7042681,-1.8825818,3.298320
 6,4.9168387,3.0793764,-9.009643,-2.6182435,6.7789534,-5.2549256,2.8395
 322,-2.3258848,4.9698888,3.9691061,-4.7434506,22.5369884,30.8174606,4.
 701222,6.638721,-0.0000323,-0.0000234,2.9099273,17.5648542,6.0452086,1
 0.7992494,0.0000171,0.0000074,0.6192743,-0.000136,-0.0000362,0.0000373
 ,6.8230641,4.6025758,0.0000172,1.4287992,-6.2993561,0.1046255,0.000030
 4,0.0000032,0.0271287,-12.3937214,0.7772452,-17.777236,-0.0000185,0.00
 00287,-5.9497555,0.0000526,0.0000176,0.0000091,-0.5967108,-5.6516444,0
 .000073,-0.7619678,-2.4047536,3.2219734,-7.7042217,1.8825925,3.2984407
 ,4.9167587,3.0794955,-9.009684,2.6183147,-6.7789558,-5.2548793,-2.8396
 621,2.325926,-4.9698381,3.9691449,-4.7434561,-22.536869\HyperPolar=557
 .7813247,162.2571737,-67.9268623,225.5246835,-0.0009367,-0.0000928,-0.
 0013029,63.3833043,-75.9753472,-0.0001368\PG=C01 [X(Si11)]\NImag=0\\0.
 12385836,-0.01976255,0.03748760,0.00000054,-0.00000017,0.03223373,-0.0
 3379848,-0.02254963,0.,0.12534702,-0.01108747,-0.00779629,-0.00000004,
 -0.00880075,0.07012937,-0.00000001,-0.00000003,-0.01069241,-0.00000021
 ,-0.00000008,0.05465456,-0.00331719,-0.00103027,-0.00289226,-0.0403693
 5,0.00581367,-0.01518258,0.10346464,-0.00256945,-0.00292825,-0.0042771
 0,0.01015367,-0.01005489,0.01179615,0.01496347,0.07973065,0.00449604,-
 0.00397103,0.00127530,-0.01122073,0.01178307,-0.01779975,-0.00960386,-
 0.02008061,0.09890078,-0.00188471,-0.00670981,0.00000005,0.00033843,0.
 00117738,0.00000001,0.00171864,0.00569318,-0.00416050,0.06509156,0.002
 75299,-0.00100965,0.,0.00929590,-0.00377480,0.00000008,-0.00266490,-0.
 00207911,-0.00548938,0.01524165,0.05732572,-0.00000001,0.,-0.00386419,
 -0.00000002,0.,0.00150179,-0.00122477,-0.00621160,-0.00486787,-0.00000
 035,-0.00000008,0.04577307,-0.03982939,0.02162220,0.02973846,-0.001307
 98,0.00282921,-0.00556575,0.00171626,-0.00826596,0.00017208,-0.0101186
 6,0.00429906,0.00097832,0.11321839,0.01894992,-0.01111458,-0.00875046,
 0.00323528,-0.01706386,-0.00920661,-0.00777013,0.00399121,-0.00380740,
 0.00078256,-0.00432373,0.00438159,-0.04025273,0.05576301,0.02614349,-0
 .00651168,-0.00748085,-0.00565207,-0.00324785,-0.00215847,-0.00848965,
 0.00174535,-0.00369387,0.00701511,-0.00247756,0.00518739,-0.02347726,0
 .00962939,0.09111507,-0.03983003,0.02162234,-0.02973893,-0.00130786,0.
 00282929,0.00556576,-0.00448107,-0.01032211,-0.00051931,-0.01011874,0.
 00429903,-0.00097848,-0.00794469,0.00215791,0.00168230,0.11321919,0.01
 895013,-0.01111463,0.00875065,0.00323526,-0.01706422,0.00920687,-0.007
 04977,-0.00314752,-0.00136273,0.00078255,-0.00432376,-0.00438156,0.002
 15795,0.00102854,-0.00235900,-0.04025326,0.05576364,-0.02614405,0.0065
 1187,-0.00748130,0.00565211,0.00324816,-0.00215860,0.00355320,-0.00120
 005,0.00286139,-0.00701520,0.00247761,0.00518740,-0.00168230,0.0023585
 8,-0.05472972,0.02347815,-0.00962941,0.09111572,-0.00331725,-0.0010302
 1,0.00289227,-0.04037000,0.00581411,0.01518276,0.01444238,0.00177157,0
 .00362999,0.00171875,-0.00266492,0.00122492,-0.00448105,-0.00704990,-0
 .00355320,0.00171619,-0.00777010,0.00848963,0.10346496,-0.00256950,-0.
 00292822,0.00427714,0.01015409,-0.01005509,-0.01179634,0.00177155,-0.0
 1719419,-0.00015028,0.00569327,-0.00207882,0.00621156,-0.01032220,-0.0
 0314755,0.00119994,-0.00826604,0.00399136,-0.00174539,0.01496307,0.079
 73118,-0.00449601,0.00397106,0.00127520,0.01122092,-0.01178322,-0.0177
 9961,-0.00362981,0.00015003,-0.04235092,0.00416047,0.00548930,-0.00486
 797,0.00051921,0.00136259,0.00286134,-0.00017200,0.00380733,-0.0036937
 8,0.00960347,0.02008124,0.09890070,0.00397376,-0.00017598,-0.00131727,
 0.00053543,0.00045769,-0.00218127,-0.00434016,0.00287774,-0.00242332,-
 0.00711673,-0.00387500,0.00823945,0.00159907,-0.00036757,-0.00830177,-
 0.04020824,0.01655724,-0.01668688,-0.00749449,0.00141064,0.00271039,0.
 05049073,-0.00111866,-0.00168278,-0.00065016,-0.00174301,-0.00088077,0
 .00407118,0.00084282,-0.03817265,0.01991585,0.00083330,0.00231573,0.00
 077577,-0.00195719,-0.00324387,0.00008181,0.01502007,0.00028175,0.0077
 6547,0.00469539,0.00177829,0.00404144,-0.01189758,0.05324972,-0.000646
 69,0.00021012,-0.00242699,0.00067584,-0.00131160,-0.00259708,-0.001648
 58,0.01552437,-0.01453903,0.00494823,0.00513448,-0.02523773,-0.0020696
 1,0.00191601,-0.00590330,-0.01128995,0.00681083,-0.01025831,-0.0031251
 8,0.00487742,-0.00556338,0.02073974,-0.02854810,0.09614433,-0.00743337
 ,0.00257493,0.,-0.00888003,0.00086822,0.00000003,-0.05638895,-0.016562
 17,0.02127604,0.00097812,0.00349458,-0.00000006,-0.00026213,0.00000063
 ,0.00538742,-0.00026215,0.00000057,-0.00538743,-0.05638869,-0.01656226
 ,-0.02127608,0.00347921,-0.00030209,-0.00049428,0.12265178,-0.00458651
 ,0.00361695,-0.00000003,0.00151370,0.00634372,0.,-0.01124503,-0.006725
 04,0.00883814,-0.00273076,-0.02525085,0.00000016,0.00531378,-0.0018579
[...]
 ! A17   A(8,4,9)              104.7099         -DE/DX =    0.0                 !
 ! A18   A(8,4,11)             122.5298         -DE/DX =    0.0                 !
 ! A19   A(9,4,10)             144.3699         -DE/DX =    0.0                 !
 ! A20   A(9,4,11)             104.7097         -DE/DX =    0.0                 !
 ! A21   A(1,5,7)              110.8024         -DE/DX =    0.0                 !
 ! A22   A(1,5,10)             114.9325         -DE/DX =    0.0                 !
 ! A23   A(1,5,11)             169.1046         -DE/DX =    0.0                 !
 ! A24   A(2,5,10)             111.6984         -DE/DX =    0.0                 !
 ! A25   A(2,5,11)             111.7942         -DE/DX =    0.0                 !
 ! A26   A(6,5,7)               91.923          -DE/DX =    0.0                 !
 ! A27   A(6,5,11)             114.4342         -DE/DX =    0.0                 !
 ! A28   A(7,5,10)              94.4701         -DE/DX =    0.0                 !
 ! A29   A(1,6,3)              110.8029         -DE/DX =    0.0                 !
 ! A30   A(1,6,8)              169.1054         -DE/DX =    0.0                 !
 ! A31   A(1,6,10)             114.9326         -DE/DX =    0.0                 !
 ! A32   A(2,6,8)              111.7949         -DE/DX =    0.0                 !
 ! A33   A(2,6,10)             111.6984         -DE/DX =    0.0                 !
 ! A34   A(3,6,5)               91.9238         -DE/DX =    0.0                 !
 ! A35   A(3,6,10)              94.4705         -DE/DX =    0.0                 !
 ! A36   A(5,6,8)              114.4346         -DE/DX =    0.0                 !
 ! A37   A(2,7,4)              106.8248         -DE/DX =    0.0                 !
 ! A38   A(2,7,9)              106.8295         -DE/DX =    0.0                 !
 ! A39   A(2,7,11)             118.5001         -DE/DX =    0.0                 !
 ! A40   A(3,7,5)               88.0766         -DE/DX =    0.0                 !
 ! A41   A(3,7,11)             111.1365         -DE/DX =    0.0                 !
 ! A42   A(4,7,5)               81.7721         -DE/DX =    0.0                 !
 ! A43   A(5,7,9)              134.252          -DE/DX =    0.0                 !
 ! A44   A(9,7,11)             108.2753         -DE/DX =    0.0                 !
 ! A45   A(3,8,10)              96.135          -DE/DX =    0.0                 !
 ! A46   A(4,8,6)               90.5046         -DE/DX =    0.0                 !
 ! A47   A(4,10,5)              88.5409         -DE/DX =    0.0                 !
 ! A48   A(4,10,6)              88.5405         -DE/DX =    0.0                 !
 ! A49   A(5,10,8)             103.9546         -DE/DX =    0.0                 !
 ! A50   A(6,10,11)            103.9543         -DE/DX =    0.0                 !
 ! A51   A(8,10,11)            115.2725         -DE/DX =    0.0                 !
 ! A52   A(4,11,5)              90.5047         -DE/DX =    0.0                 !
 ! A53   A(7,11,10)             96.135          -DE/DX =    0.0                 !
 ! A54   L(1,2,3,4,-1)         143.6232         -DE/DX =    0.0                 !
 ! A55   L(1,2,3,4,-2)         241.6516         -DE/DX =    0.0                 !
 ! D1    D(1,2,3,4)             76.8382         -DE/DX =    0.0                 !
 ! D2    D(1,2,3,8)             14.2925         -DE/DX =    0.0                 !
 ! D3    D(1,2,3,9)            136.7734         -DE/DX =    0.0                 !
 ! D4    D(5,2,3,4)             23.8812         -DE/DX =    0.0                 !
 ! D5    D(5,2,3,8)            -38.6644         -DE/DX =    0.0                 !
 ! D6    D(5,2,3,9)             83.8165         -DE/DX =    0.0                 !
 ! D7    D(3,2,5,10)            16.1066         -DE/DX =    0.0                 !
 ! D8    D(3,2,5,11)           -53.7933         -DE/DX =    0.0                 !
 ! D9    D(7,2,6,8)             53.7927         -DE/DX =    0.0                 !
 ! D10   D(7,2,6,10)           -16.1073         -DE/DX =    0.0                 !
 ! D11   D(1,2,7,4)            -76.8374         -DE/DX =    0.0                 !
 ! D12   D(1,2,7,9)           -136.7727         -DE/DX =    0.0                 !
 ! D13   D(1,2,7,11)           -14.2914         -DE/DX =    0.0                 !
 ! D14   D(6,2,7,4)            -23.8808         -DE/DX =    0.0                 !
 ! D15   D(6,2,7,9)            -83.8161         -DE/DX =    0.0                 !
 ! D16   D(6,2,7,11)            38.6652         -DE/DX =    0.0                 !
 ! D17   D(2,3,4,10)           -59.9307         -DE/DX =    0.0                 !
 ! D18   D(2,3,4,11)             3.9999         -DE/DX =    0.0                 !
 ! D19   D(6,3,4,10)            -0.5098         -DE/DX =    0.0                 !
 ! D20   D(6,3,4,11)            63.4208         -DE/DX =    0.0                 !
 ! D21   D(4,3,6,1)           -118.3282         -DE/DX =    0.0                 !
 ! D22   D(4,3,6,5)            -60.6108         -DE/DX =    0.0                 !
 ! D23   D(4,3,6,10)             0.4898         -DE/DX =    0.0                 !
 ! D24   D(7,3,6,1)            -57.7174         -DE/DX =    0.0                 !
 ! D25   D(7,3,6,5)              0.0            -DE/DX =    0.0                 !
 ! D26   D(7,3,6,10)            61.1007         -DE/DX =    0.0                 !
 ! D27   D(9,3,6,1)            -93.3617         -DE/DX =    0.0                 !
 ! D28   D(9,3,6,5)            -35.6444         -DE/DX =    0.0                 !
 ! D29   D(9,3,6,10)            25.4563         -DE/DX =    0.0                 !
 ! D30   D(6,3,7,5)              0.0            -DE/DX =    0.0                 !
 ! D31   D(6,3,7,11)           -51.451          -DE/DX =    0.0                 !
 ! D32   D(8,3,7,5)             51.4511         -DE/DX =    0.0                 !
 ! D33   D(8,3,7,11)             0.0001         -DE/DX =    0.0                 !
 ! D34   D(2,3,8,10)            44.1767         -DE/DX =    0.0                 !
 ! D35   D(7,3,8,10)           -17.7566         -DE/DX =    0.0                 !
 ! D36   D(9,3,8,10)           -77.5756         -DE/DX =    0.0                 !
 ! D37   D(8,4,7,2)             -3.9999         -DE/DX =    0.0                 !
 ! D38   D(8,4,7,5)            -63.4207         -DE/DX =    0.0                 !
 ! D39   D(10,4,7,2)            59.9307         -DE/DX =    0.0                 !
 ! D40   D(10,4,7,5)             0.5099         -DE/DX =    0.0                 !
 ! D41   D(7,4,8,6)             32.7729         -DE/DX =    0.0                 !
 ! D42   D(9,4,8,6)             89.8319         -DE/DX =    0.0                 !
 ! D43   D(11,4,8,6)           -28.7764         -DE/DX =    0.0                 !
 ! D44   D(3,4,10,5)            58.4555         -DE/DX =    0.0                 !
 ! D45   D(3,4,10,6)             0.5219         -DE/DX =    0.0                 !
 ! D46   D(7,4,10,5)            -0.522          -DE/DX =    0.0                 !
 ! D47   D(7,4,10,6)           -58.4557         -DE/DX =    0.0                 !
 ! D48   D(9,4,10,5)            28.9666         -DE/DX =    0.0                 !
 ! D49   D(9,4,10,6)           -28.9671         -DE/DX =    0.0                 !
 ! D50   D(3,4,11,5)           -32.7733         -DE/DX =    0.0                 !
 ! D51   D(8,4,11,5)            28.7761         -DE/DX =    0.0                 !
 ! D52   D(9,4,11,5)           -89.8323         -DE/DX =    0.0                 !
 ! D53   D(7,5,6,3)              0.0            -DE/DX =    0.0                 !
 ! D54   D(7,5,6,8)            -56.7854         -DE/DX =    0.0                 !
 ! D55   D(11,5,6,3)            56.7847         -DE/DX =    0.0                 !
 ! D56   D(11,5,6,8)            -0.0007         -DE/DX =    0.0                 !
 ! D57   D(1,5,7,3)             57.7169         -DE/DX =    0.0                 !
 ! D58   D(1,5,7,4)            118.3277         -DE/DX =    0.0                 !
 ! D59   D(1,5,7,9)             93.3613         -DE/DX =    0.0                 !
 ! D60   D(6,5,7,3)              0.0            -DE/DX =    0.0                 !
 ! D61   D(6,5,7,4)             60.6108         -DE/DX =    0.0                 !
 ! D62   D(6,5,7,9)             35.6444         -DE/DX =    0.0                 !
 ! D63   D(10,5,7,3)           -61.1007         -DE/DX =    0.0                 !
 ! D64   D(10,5,7,4)            -0.49           -DE/DX =    0.0                 !
 ! D65   D(10,5,7,9)           -25.4564         -DE/DX =    0.0                 !
 ! D66   D(1,5,10,4)          -114.882          -DE/DX =    0.0                 !
 ! D67   D(1,5,10,8)           -56.6847         -DE/DX =    0.0                 !
 ! D68   D(2,5,10,4)           -51.5003         -DE/DX =    0.0                 !
 ! D69   D(2,5,10,8)             6.697          -DE/DX =    0.0                 !
 ! D70   D(7,5,10,4)             0.5338         -DE/DX =    0.0                 !
 ! D71   D(7,5,10,8)            58.7311         -DE/DX =    0.0                 !
 ! D72   D(1,5,11,4)            37.787          -DE/DX =    0.0                 !
 ! D73   D(2,5,11,4)            53.7067         -DE/DX =    0.0                 !
 ! D74   D(6,5,11,4)           -14.7258         -DE/DX =    0.0                 !
 ! D75   D(1,6,8,4)            -37.7866         -DE/DX =    0.0                 !
 ! D76   D(2,6,8,4)            -53.7062         -DE/DX =    0.0                 !
 ! D77   D(5,6,8,4)             14.7267         -DE/DX =    0.0                 !
 ! D78   D(1,6,10,4)           114.8829         -DE/DX =    0.0                 !
 ! D79   D(1,6,10,11)           56.6854         -DE/DX =    0.0                 !
 ! D80   D(2,6,10,4)            51.501          -DE/DX =    0.0                 !
 ! D81   D(2,6,10,11)           -6.6965         -DE/DX =    0.0                 !
 ! D82   D(3,6,10,4)            -0.5336         -DE/DX =    0.0                 !
 ! D83   D(3,6,10,11)          -58.7311         -DE/DX =    0.0                 !
 ! D84   D(2,7,11,10)          -44.1772         -DE/DX =    0.0                 !
 ! D85   D(3,7,11,10)           17.7563         -DE/DX =    0.0                 !
 ! D86   D(9,7,11,10)           77.5755         -DE/DX =    0.0                 !
 ! D87   D(3,8,10,5)           -25.2259         -DE/DX =    0.0                 !
 ! D88   D(3,8,10,11)           32.1002         -DE/DX =    0.0                 !
 ! D89   D(6,10,11,7)           25.2258         -DE/DX =    0.0                 !
 ! D90   D(8,10,11,7)          -32.1001         -DE/DX =    0.0                 !
 --------------------------------------------------------------------------------
 GradGradGradGradGradGradGradGradGradGradGradGradGradGradGradGradGradGrad

 1\1\GINC-NODE190\Freq\UB3LYP\6-311+G(d)\Si11(1+,2)\TAM\17-Jun-2011\0\\
 #N Geom=AllCheck Guess=Read SCRF=Check GenChk UB3LYP/6-311+G(d) Freq\\
 si11-c\\1,2\Si,-3.2458637601,0.4273652515,0.000000225\Si,-1.2285438919
 ,1.8668693195,-0.0000127812\Si,0.6472631862,1.2233444106,1.3325280331\
 Si,1.9077735908,-0.78272694,0.0000091401\Si,-1.3708710361,-0.500520054
 2,-1.2433976602\Si,-1.3708661255,-0.5005044033,1.243391659\Si,0.647271
 1815,1.2233387099,-1.332528776\Si,0.7269970472,-1.1132418819,2.2363746
 349\Si,2.5953654006,1.5772109624,0.0000043578\Si,-0.0355307904,-2.3078
 885819,0.0000024112\Si,0.7270041978,-1.1132467926,-2.2363702439\\Versi
 on=AM64L-G03RevE.01\State=2-A\HF=-3184.35633\S2=0.761671\S2-1=0.\S2A=0
 .75009\RMSD=2.531e-09\RMSF=2.678e-05\ZeroPoint=0.0161933\Thermal=0.032
 0833\Dipole=-0.221464,0.1597146,-0.000001\DipoleDeriv=0.7645778,-0.174
 8847,-0.0000007,-0.0707792,0.2813737,0.0000005,0.0000012,0.0000001,0.2
 508462,-0.1537616,-0.2086829,0.0000015,0.0093382,0.0043307,-0.0000012,
 0.0000016,-0.0000004,-0.0549332,-0.1346153,0.0566232,0.0773697,-0.1230
 116,0.006326,0.11674,0.1404767,0.034626,-0.0843209,0.0382998,-0.077251
 2,0.0000013,0.0848335,-0.2050043,0.0000017,0.0000021,0.0000016,-0.1471
 848,-0.0262864,0.1532882,0.1846366,0.1084715,-0.0881199,0.0109253,0.18
 72719,0.0379763,-0.0347161,-0.0262898,0.1532862,-0.1846334,0.1084736,-
 0.0881174,-0.0109263,-0.1872723,-0.0379752,-0.0347156,-0.1346126,0.056
 6253,-0.0773707,-0.1230106,0.0063255,-0.116741,-0.1404781,-0.0346258,-
 0.0843198,0.1494809,-0.0648311,0.1445818,-0.0738938,0.1454349,-0.24405
 31,0.2003133,-0.1993535,0.4760687,0.4219366,0.1917357,0.0000009,0.0969
 204,0.3175326,0.0000002,-0.0000003,-0.0000007,0.2411294,-0.0482125,-0.
 0210751,-0.0000016,0.0565527,0.4744807,-0.0000002,-0.0000018,-0.000002
 2,-0.0039214,0.1494831,-0.0648334,-0.1445853,-0.0738949,0.1454375,0.24
 40541,-0.2003142,0.1993537,0.4760675\Polar=354.7335063,3.7348613,290.5
 443921,0.0001762,0.0000636,281.4908174\PG=C01 [X(Si11)]\NImag=0\\0.105
 62162,-0.00867581,0.03376623,0.00000045,-0.00000024,0.02747270,-0.0322
 6555,-0.02452263,0.00000025,0.12239703,-0.01624915,-0.00853521,0.00000
 005,-0.00693569,0.06118019,0.00000015,0.00000003,-0.00653220,-0.000000
 77,-0.00000012,0.05472302,-0.00378009,-0.00273996,-0.00309011,-0.03774
 099,0.00918466,-0.02370039,0.10427148,-0.00093223,-0.00193299,-0.00161
 814,0.01275329,-0.00588051,0.01229998,0.00552222,0.06568946,0.00418328
 ,-0.00196652,0.00232248,-0.01683650,0.01029131,-0.01694400,-0.00130589
 ,-0.01097908,0.07573477,-0.00040974,-0.00380134,-0.00000004,-0.0023274
 3,-0.00027106,-0.00000001,-0.00367811,0.00680291,0.00115130,0.06413766
 ,0.00024398,-0.00147155,0.,0.00764519,-0.00341267,0.00000007,0.0034967
 1,-0.00265825,-0.01154424,0.03064073,0.07336931,0.00000001,0.,-0.00298
 578,-0.00000003,-0.00000006,-0.00188691,0.00221924,-0.00862288,-0.0046
 3389,-0.00000064,-0.00000021,0.04812224,-0.03184107,0.01838860,0.02268
 089,-0.00124343,0.00132867,-0.00372430,-0.00133696,-0.00459973,0.00071
 432,-0.00979548,0.00145069,-0.00214779,0.10441968,0.01535436,-0.008889
 27,-0.00884215,0.00167922,-0.01717373,-0.00918059,-0.00717921,0.001545
 88,-0.00494138,0.00052298,-0.00189058,0.00501002,-0.03119714,0.0526236
 7,0.02070193,-0.00769389,-0.00831406,-0.00353851,-0.00166262,-0.002835
 77,-0.00512274,-0.00012979,-0.00699857,0.00282674,0.00037167,0.0038973
 2,-0.02793613,0.01460418,0.07886607,-0.03184234,0.01838903,-0.02268147
 ,-0.00124348,0.00132881,0.00372421,-0.00857390,-0.01105099,-0.00172150
 ,-0.00979540,0.00145061,0.00214769,-0.00016840,0.00172264,-0.00038115,
 0.10442199,0.01535457,-0.00888924,0.00884224,0.00167943,-0.01717386,0.
 00918106,-0.00987647,-0.00422570,-0.00031143,0.00052305,-0.00189056,-0
 .00501001,0.00172262,0.00268001,-0.00380155,-0.03119716,0.05262434,-0.
 02070250,0.00769406,-0.00831420,0.00353846,0.00166290,-0.00283594,0.00
 060636,-0.00129835,0.00235822,-0.00282672,-0.00037165,0.00389743,0.000
 38099,0.00380112,-0.04094336,0.02793752,-0.01460452,0.07886636,-0.0037
 8006,-0.00273977,0.00309014,-0.03774268,0.00918527,0.02370103,0.009543
 47,-0.00116786,0.00076835,-0.00367793,0.00349657,-0.00221911,-0.008573
 05,-0.00987587,-0.00060649,-0.00133703,-0.00717923,0.00512274,0.104272
 01,-0.00093224,-0.00193301,0.00161822,0.01275402,-0.00588057,-0.012300
 30,-0.00116796,-0.01224301,0.00001995,0.00680288,-0.00265800,0.0086229
 5,-0.01105028,-0.00422534,0.00129813,-0.00459970,0.00154606,0.00012987
 ,0.00552086,0.06568946,-0.00418327,0.00196658,0.00232240,0.01683700,-0
 .01029148,-0.01694382,-0.00076821,-0.00002012,-0.02587682,-0.00115123,
 0.01154420,-0.00463395,0.00172147,0.00031122,0.00235807,-0.00071422,0.
 00494135,-0.00699857,0.00130543,0.01097975,0.07573515,0.00302755,-0.00
 067626,-0.00141380,-0.00073566,0.00109045,-0.00235120,-0.00073350,0.00
 165281,-0.00134121,-0.00577497,-0.00272385,0.00808933,-0.00154963,-0.0
 0002165,-0.00532628,-0.04255964,0.01676177,-0.02344682,-0.00459149,0.0
 0097881,0.00427937,0.05405406,-0.00099529,-0.00175258,-0.00074406,-0.0
 0136756,-0.00107710,0.00449377,0.00169751,-0.02627298,0.01427100,0.000
 56675,-0.00097808,0.00223768,-0.00290393,-0.00372980,-0.00058418,0.014
 30662,-0.00108125,0.00853902,0.00545842,-0.00216701,0.00416746,-0.0124
 6654,0.04343719,0.00027932,-0.00085279,-0.00205328,0.00116350,-0.00187
 072,-0.00155533,-0.00117933,0.01021476,-0.00917224,0.00528908,0.005595
 79,-0.02528727,-0.00139494,0.00210760,-0.00561386,-0.01861324,0.008787
 89,-0.00999680,-0.00127557,0.00176270,-0.00562038,0.02073472,-0.026061
 54,0.07854750,-0.00663139,0.00284333,-0.00000002,-0.00814577,-0.000526
 40,0.,-0.04718774,-0.00929711,0.01728941,0.00720465,-0.01452354,0.,-0.
 00054270,0.00069203,0.00234916,-0.00054284,0.00069196,-0.00234911,-0.0
 4718757,-0.00929700,-0.01728965,0.00117835,-0.00131483,-0.00105638,0.1
 0034059,-0.00402519,0.00273881,0.00000001,0.00095057,0.00511905,0.0000
 0002,-0.00570069,-0.00437617,0.00810995,-0.01571743,-0.03999490,0.0000
 0015,0.00442680,-0.00267872,-0.00047824,0.00442671,-0.00267878,0.00047
 823,-0.00570078,-0.00437637,-0.00811008,-0.00198025,-0.00162305,-0.000
 96933,0.02639743,0.05182940,0.,0.,-0.00269528,0.00000002,-0.00000001,0
 .00050958,0.02979615,0.01048808,-0.01190154,0.00000003,0.00000006,-0.0
 0096252,-0.00301427,-0.00355283,-0.00314310,0.00301427,0.00355281,-0.0
 0314322,-0.02979641,-0.01048813,-0.01190179,0.00338057,0.00314171,-0.0
 0085951,0.00000014,0.,0.03989254,-0.00112642,0.00421113,-0.00000002,-0
 .00021642,0.00077393,0.00000003,-0.00619210,-0.00066217,0.00137781,-0.
 03010865,-0.02845340,-0.00000012,-0.00680960,0.01154109,-0.00641299,-0
 .00680934,0.01154109,0.00641274,-0.00619207,-0.00066218,-0.00137782,0.
 00353055,-0.00235798,-0.00370394,0.00033603,-0.00109689,0.00000002,0.0
 5005749,0.00185233,-0.00134862,0.,-0.00326837,-0.00608851,-0.00000005,
 0.00130469,-0.00747881,0.00121791,-0.02663632,-0.01743654,-0.00000009,
 0.00812750,-0.01718099,0.00661494,0.00812741,-0.01718115,-0.00661476,0
 .00130470,-0.00747880,-0.00121779,-0.00199211,-0.00053373,-0.00128413,
 0.00564903,-0.00233624,0.,0.00752332,0.07759725,0.00000002,0.,0.000830
 65,-0.00000001,0.00000005,-0.00414343,0.00126946,-0.00857177,0.0007319
 8,-0.00000012,-0.00000002,0.00975974,-0.00589307,0.00947038,-0.0072763
 5,0.00589282,-0.00947019,-0.00727612,-0.00126938,0.00857174,0.00073195
 ,-0.00284783,-0.00689110,-0.01538541,0.,0.,-0.00493565,0.00000032,-0.0
 0000019,0.04234795,0.00302750,-0.00067631,0.00141373,-0.00073561,0.001
 09051,0.00235126,-0.00459156,0.00097887,-0.00427936,-0.00577459,-0.002
 72368,-0.00808857,-0.04255935,0.01676155,0.02344646,-0.00154961,-0.000
 02164,0.00532634,-0.00073359,0.00165279,0.00134113,-0.00584561,-0.0006
 2316,-0.00024322,0.00117840,-0.00198029,-0.00338051,0.00353054,-0.0019
 9217,0.00284778,0.05405349,-0.00099533,-0.00175258,0.00074406,-0.00136
 747,-0.00107710,-0.00449388,0.00545852,-0.00216692,-0.00416747,0.00056
 684,-0.00097818,-0.00223755,0.01430620,-0.00108114,-0.00853866,-0.0029
 0398,-0.00372987,0.00058407,0.00169769,-0.02627341,-0.01427109,-0.0006
 2317,-0.00422161,0.00256977,-0.00131489,-0.00162302,-0.00314167,-0.002
 35794,-0.00053387,0.00689110,-0.01246647,0.04343768,-0.00027937,0.0008
 5277,-0.00205343,-0.00116341,0.00187071,-0.00155521,0.00127546,-0.0017
 6269,-0.00562038,-0.00528838,-0.00559568,-0.02528641,0.01861283,-0.008
 78758,-0.00999640,0.00139510,-0.00210766,-0.00561382,0.00117927,-0.010
 21488,-0.00917225,0.00024315,-0.00256977,-0.00300343,0.00105644,0.0009
 6929,-0.00085952,0.00370396,0.00128417,-0.01538531,-0.02073505,0.02606
 132,0.07854614\\-0.00003661,-0.00000583,0.00000027,-0.00002593,-0.0000
 1975,-0.00000046,0.00003415,-0.00000792,0.00001389,-0.00005483,-0.0000
 6190,0.00000032,0.00002040,0.00000566,-0.00004108,0.00002068,0.0000062
 2,0.00004090,0.00003396,-0.00000749,-0.00001340,-0.00001619,0.00000286
 ,0.00001642,0.00004287,0.00006170,0.00000010,-0.00000223,0.00002373,0.
 00000001,-0.00001625,0.00000273,-0.00001697\\\@


 TO ERR IS HUMAN - AND TO BLAME IT ON A COMPUTER IS EVEN MORE SO.
 Job cpu time:  0 days  3 hours 19 minutes  7.5 seconds.
 File lengths (MBytes):  RWF=    435 Int=      0 D2E=      0 Chk=     14 Scr=      1
 Normal termination of Gaussian 03 at Fri Jun 17 18:09:56 2011.
