 Entering Gaussian System, Link 0=g03
 Initial command:
 /usr/local/chem/g03E01/l1.exe /temp0/tam/Gau-7794.inp -scrdir=/temp0/tam/
 Entering Link 1 = /usr/local/chem/g03E01/l1.exe PID=      7795.
  
 Copyright (c) 1988,1990,1992,1993,1995,1998,2003,2004,2007, Gaussian, Inc.
                  All Rights Reserved.
  
 This is the Gaussian(R) 03 program.  It is based on the
 the Gaussian(R) 98 system (copyright 1998, Gaussian, Inc.),
 the Gaussian(R) 94 system (copyright 1995, Gaussian, Inc.),
 the Gaussian 92(TM) system (copyright 1992, Gaussian, Inc.),
 the Gaussian 90(TM) system (copyright 1990, Gaussian, Inc.),
 the Gaussian 88(TM) system (copyright 1988, Gaussian, Inc.),
 the Gaussian 86(TM) system (copyright 1986, Carnegie Mellon
 University), and the Gaussian 82(TM) system (copyright 1983,
 Carnegie Mellon University). Gaussian is a federally registered
 trademark of Gaussian, Inc.
  
 This software contains proprietary and confidential information,
 including trade secrets, belonging to Gaussian, Inc.
  
 This software is provided under written license and may be
 used, copied, transmitted, or stored only in accord with that
 written license.
  
 The following legend is applicable only to US Government
 contracts under FAR:
  
                    RESTRICTED RIGHTS LEGEND
  
 Use, reproduction and disclosure by the US Government is
 subject to restrictions as set forth in subparagraphs (a)
 and (c) of the Commercial Computer Software - Restricted
 Rights clause in FAR 52.227-19.
  
 Gaussian, Inc.
 340 Quinnipiac St., Bldg. 40, Wallingford CT 06492
  
  
 ---------------------------------------------------------------
 Warning -- This program may not be used in any manner that
 competes with the business of Gaussian, Inc. or will provide
 assistance to any competitor of Gaussian, Inc.  The licensee
 of this program is prohibited from giving any competitor of
 Gaussian, Inc. access to this program.  By using this program,
 the user acknowledges that Gaussian, Inc. is engaged in the
 business of creating and licensing software in the field of
 computational chemistry and represents and warrants to the
 licensee that it is not a competitor of Gaussian, Inc. and that
 it will not use this program in any manner prohibited above.
 ---------------------------------------------------------------
  

 Cite this work as:
 Gaussian 03, Revision E.01,
 M. J. Frisch, G. W. Trucks, H. B. Schlegel, G. E. Scuseria, 
 M. A. Robb, J. R. Cheeseman, J. A. Montgomery, Jr., T. Vreven, 
 K. N. Kudin, J. C. Burant, J. M. Millam, S. S. Iyengar, J. Tomasi, 
 V. Barone, B. Mennucci, M. Cossi, G. Scalmani, N. Rega, 
 G. A. Petersson, H. Nakatsuji, M. Hada, M. Ehara, K. Toyota, 
 R. Fukuda, J. Hasegawa, M. Ishida, T. Nakajima, Y. Honda, O. Kitao, 
 H. Nakai, M. Klene, X. Li, J. E. Knox, H. P. Hratchian, J. B. Cross, 
 V. Bakken, C. Adamo, J. Jaramillo, R. Gomperts, R. E. Stratmann, 
 O. Yazyev, A. J. Austin, R. Cammi, C. Pomelli, J. W. Ochterski, 
 P. Y. Ayala, K. Morokuma, G. A. Voth, P. Salvador, J. J. Dannenberg, 
 V. G. Zakrzewski, S. Dapprich, A. D. Daniels, M. C. Strain, 
 O. Farkas, D. K. Malick, A. D. Rabuck, K. Raghavachari, 
 J. B. Foresman, J. V. Ortiz, Q. Cui, A. G. Baboul, S. Clifford, 
 J. Cioslowski, B. B. Stefanov, G. Liu, A. Liashenko, P. Piskorz, 
 I. Komaromi, R. L. Martin, D. J. Fox, T. Keith, M. A. Al-Laham, 
 C. Y. Peng, A. Nanayakkara, M. Challacombe, P. M. W. Gill, 
 B. Johnson, W. Chen, M. W. Wong, C. Gonzalez, and J. A. Pople, 
 Gaussian, Inc., Wallingford CT, 2004.
 
 ******************************************
 Gaussian 03:  AM64L-G03RevE.01 11-Sep-2007
                 4-Apr-2011 
 ******************************************
 %NprocShared=4
 Will use up to    4 processors via shared memory.
 %mem=3750MB
 %chk=S9L-ne-d-01
 ----------------------------------------------------------------------
 # b3lyp/LANL2DZ opt=(calcall,noeigentest,maxcycle=500) scfcyc=500 scf=
 xqc
 ----------------------------------------------------------------------
 1/6=500,10=4,11=1,14=-1,18=20,26=3,38=1/1,3;
 2/9=110,17=6,18=5,40=1/2;
 3/5=6,6=3,11=2,16=1,25=1,30=1,74=-5/1,2,3;
 4//1;
 5/5=2,7=500,8=3,13=1,38=5/2,8;
 8/6=4,10=90,11=11/1;
 11/6=1,8=1,9=11,15=111,16=1/1,2,10;
 10/6=1/2;
 6/7=2,8=2,9=2,10=2,18=1,28=1/1;
 7/10=1,25=1/1,2,3,16;
 1/6=500,10=4,11=1,14=-1,18=20/3(3);
 2/9=110/2;
 7/8=1,9=1,25=1,44=-1/16;
 99//99;
 2/9=110/2;
 3/5=6,6=3,11=2,16=1,25=1,30=1,74=-5/1,2,3;
 4/5=5,16=3/1;
 5/5=2,7=500,8=3,13=1,38=5/2,8;
 8/6=4,10=90,11=11/1;
 11/6=1,8=1,9=11,15=111,16=1/1,2,10;
 10/6=1/2;
 7/10=1,25=1/1,2,3,16;
 1/6=500,10=4,11=1,14=-1,18=20/3(-8);
 2/9=110/2;
 6/7=2,8=2,9=2,10=2,18=1,19=2,28=1/1;
 7/8=1,9=1,25=1,44=-1/16;
 99//99;
 ------
 si11-n
 ------
 Symbolic Z-matrix:
 Charge =  0 Multiplicity = 1
 Si                   -3.33311   0.46946   0. 
 Si                   -1.29708   1.9129   0. 
 Si                    0.58079   1.19706   1.30953 
 Si                    1.94256  -0.88227   0. 
 Si                   -1.51006  -0.53333  -1.22527 
 Si                   -1.51006  -0.53333   1.22527 
 Si                    0.58079   1.19706  -1.30953 
 Si                    0.62537  -1.10503   2.21383 
 Si                    2.44663   1.67677  0. 
 Si                   -0.08983  -2.25673   0. 
 Si                    0.62537  -1.10503  -2.21382 
 

 GradGradGradGradGradGradGradGradGradGradGradGradGradGradGradGradGradGrad
 Berny optimization.
 Initialization pass.
                           ----------------------------
                           !    Initial Parameters    !
                           ! (Angstroms and Degrees)  !
 --------------------------                            --------------------------
 ! Name  Definition              Value          Derivative Info.                !
 --------------------------------------------------------------------------------
 ! R1    R(1,2)                  2.4958         calculate D2E/DX2 analytically  !
 ! R2    R(1,5)                  2.4146         calculate D2E/DX2 analytically  !
 ! R3    R(1,6)                  2.4146         calculate D2E/DX2 analytically  !
 ! R4    R(2,3)                  2.3987         calculate D2E/DX2 analytically  !
 ! R5    R(2,5)                  2.7442         calculate D2E/DX2 analytically  !
 ! R6    R(2,6)                  2.7442         calculate D2E/DX2 analytically  !
 ! R7    R(2,7)                  2.3987         calculate D2E/DX2 analytically  !
 ! R8    R(3,4)                  2.8094         calculate D2E/DX2 analytically  !
 ! R9    R(3,6)                  2.7153         calculate D2E/DX2 analytically  !
 ! R10   R(3,7)                  2.6191         calculate D2E/DX2 analytically  !
 ! R11   R(3,8)                  2.4737         calculate D2E/DX2 analytically  !
 ! R12   R(3,9)                  2.3294         calculate D2E/DX2 analytically  !
 ! R13   R(4,7)                  2.8094         calculate D2E/DX2 analytically  !
 ! R14   R(4,8)                  2.5857         calculate D2E/DX2 analytically  !
 ! R15   R(4,9)                  2.6082         calculate D2E/DX2 analytically  !
 ! R16   R(4,10)                 2.4535         calculate D2E/DX2 analytically  !
 ! R17   R(4,11)                 2.5857         calculate D2E/DX2 analytically  !
 ! R18   R(5,6)                  2.4505         calculate D2E/DX2 analytically  !
 ! R19   R(5,7)                  2.7153         calculate D2E/DX2 analytically  !
 ! R20   R(5,10)                 2.5473         calculate D2E/DX2 analytically  !
 ! R21   R(5,11)                 2.4216         calculate D2E/DX2 analytically  !
 ! R22   R(6,8)                  2.4216         calculate D2E/DX2 analytically  !
 ! R23   R(6,10)                 2.5473         calculate D2E/DX2 analytically  !
 ! R24   R(7,9)                  2.3294         calculate D2E/DX2 analytically  !
 ! R25   R(7,11)                 2.4737         calculate D2E/DX2 analytically  !
 ! R26   R(8,10)                 2.5959         calculate D2E/DX2 analytically  !
 ! R27   R(10,11)                2.596          calculate D2E/DX2 analytically  !
 ! A1    A(1,2,3)              117.7791         calculate D2E/DX2 analytically  !
 ! A2    A(1,2,7)              117.7792         calculate D2E/DX2 analytically  !
 ! A3    A(3,2,5)               92.206          calculate D2E/DX2 analytically  !
 ! A4    A(6,2,7)               92.206          calculate D2E/DX2 analytically  !
 ! A5    A(2,3,4)              110.2352         calculate D2E/DX2 analytically  !
 ! A6    A(2,3,8)              119.4327         calculate D2E/DX2 analytically  !
 ! A7    A(2,3,9)              104.9933         calculate D2E/DX2 analytically  !
 ! A8    A(4,3,6)               83.5185         calculate D2E/DX2 analytically  !
 ! A9    A(6,3,7)               88.2218         calculate D2E/DX2 analytically  !
 ! A10   A(6,3,9)              136.9331         calculate D2E/DX2 analytically  !
 ! A11   A(7,3,8)              111.442          calculate D2E/DX2 analytically  !
 ! A12   A(8,3,9)              112.5018         calculate D2E/DX2 analytically  !
 ! A13   A(3,4,10)              90.7507         calculate D2E/DX2 analytically  !
 ! A14   A(3,4,11)             102.4698         calculate D2E/DX2 analytically  !
 ! A15   A(7,4,8)              102.4698         calculate D2E/DX2 analytically  !
 ! A16   A(7,4,10)              90.7507         calculate D2E/DX2 analytically  !
 ! A17   A(8,4,9)              100.5433         calculate D2E/DX2 analytically  !
 ! A18   A(8,4,11)             117.7836         calculate D2E/DX2 analytically  !
 ! A19   A(9,4,10)             135.2128         calculate D2E/DX2 analytically  !
 ! A20   A(9,4,11)             100.5433         calculate D2E/DX2 analytically  !
 ! A21   A(1,5,7)              109.418          calculate D2E/DX2 analytically  !
 ! A22   A(1,5,10)             117.2487         calculate D2E/DX2 analytically  !
 ! A23   A(1,5,11)             166.1623         calculate D2E/DX2 analytically  !
 ! A24   A(2,5,10)             110.1859         calculate D2E/DX2 analytically  !
 ! A25   A(2,5,11)             108.9218         calculate D2E/DX2 analytically  !
 ! A26   A(6,5,7)               91.7782         calculate D2E/DX2 analytically  !
 ! A27   A(6,5,11)             114.0933         calculate D2E/DX2 analytically  !
 ! A28   A(7,5,10)              90.9601         calculate D2E/DX2 analytically  !
 ! A29   A(1,6,3)              109.418          calculate D2E/DX2 analytically  !
 ! A30   A(1,6,8)              166.1623         calculate D2E/DX2 analytically  !
 ! A31   A(1,6,10)             117.2487         calculate D2E/DX2 analytically  !
 ! A32   A(2,6,8)              108.9218         calculate D2E/DX2 analytically  !
 ! A33   A(2,6,10)             110.1859         calculate D2E/DX2 analytically  !
 ! A34   A(3,6,5)               91.7782         calculate D2E/DX2 analytically  !
 ! A35   A(3,6,10)              90.9601         calculate D2E/DX2 analytically  !
 ! A36   A(5,6,8)              114.0933         calculate D2E/DX2 analytically  !
 ! A37   A(2,7,4)              110.2352         calculate D2E/DX2 analytically  !
 ! A38   A(2,7,9)              104.9934         calculate D2E/DX2 analytically  !
 ! A39   A(2,7,11)             119.4327         calculate D2E/DX2 analytically  !
 ! A40   A(3,7,5)               88.2218         calculate D2E/DX2 analytically  !
 ! A41   A(3,7,11)             111.442          calculate D2E/DX2 analytically  !
 ! A42   A(4,7,5)               83.5185         calculate D2E/DX2 analytically  !
 ! A43   A(5,7,9)              136.9331         calculate D2E/DX2 analytically  !
 ! A44   A(9,7,11)             112.5018         calculate D2E/DX2 analytically  !
 ! A45   A(3,8,10)              95.5179         calculate D2E/DX2 analytically  !
 ! A46   A(4,8,6)               94.552          calculate D2E/DX2 analytically  !
 ! A47   A(4,10,5)              94.7517         calculate D2E/DX2 analytically  !
 ! A48   A(4,10,6)              94.7517         calculate D2E/DX2 analytically  !
 ! A49   A(5,10,8)             105.287          calculate D2E/DX2 analytically  !
 ! A50   A(6,10,11)            105.287          calculate D2E/DX2 analytically  !
 ! A51   A(8,10,11)            117.035          calculate D2E/DX2 analytically  !
 ! A52   A(4,11,5)              94.552          calculate D2E/DX2 analytically  !
 ! A53   A(7,11,10)             95.5179         calculate D2E/DX2 analytically  !
 ! A54   L(1,2,7,4,-1)         141.9072         calculate D2E/DX2 analytically  !
 ! A55   L(1,2,7,4,-2)         117.6051         calculate D2E/DX2 analytically  !
 ! D1    D(1,2,3,4)             76.4975         calculate D2E/DX2 analytically  !
 ! D2    D(1,2,3,8)             12.4133         calculate D2E/DX2 analytically  !
 ! D3    D(1,2,3,9)            139.7162         calculate D2E/DX2 analytically  !
 ! D4    D(5,2,3,4)             25.8776         calculate D2E/DX2 analytically  !
 ! D5    D(5,2,3,8)            -38.2066         calculate D2E/DX2 analytically  !
 ! D6    D(5,2,3,9)             89.0963         calculate D2E/DX2 analytically  !
 ! D7    D(3,2,5,10)            12.8776         calculate D2E/DX2 analytically  !
 ! D8    D(3,2,5,11)           -54.387          calculate D2E/DX2 analytically  !
 ! D9    D(7,2,6,8)             54.3869         calculate D2E/DX2 analytically  !
 ! D10   D(7,2,6,10)           -12.8776         calculate D2E/DX2 analytically  !
 ! D11   D(1,2,7,4)            -76.4975         calculate D2E/DX2 analytically  !
 ! D12   D(1,2,7,9)           -139.7161         calculate D2E/DX2 analytically  !
 ! D13   D(1,2,7,11)           -12.4133         calculate D2E/DX2 analytically  !
 ! D14   D(6,2,7,4)            -25.8776         calculate D2E/DX2 analytically  !
 ! D15   D(6,2,7,9)            -89.0962         calculate D2E/DX2 analytically  !
 ! D16   D(6,2,7,11)            38.2066         calculate D2E/DX2 analytically  !
 ! D17   D(2,3,4,10)           -58.8114         calculate D2E/DX2 analytically  !
 ! D18   D(2,3,4,11)             2.5848         calculate D2E/DX2 analytically  !
 ! D19   D(6,3,4,10)             1.0115         calculate D2E/DX2 analytically  !
 ! D20   D(6,3,4,11)            62.4077         calculate D2E/DX2 analytically  !
 ! D21   D(4,3,6,1)           -120.4099         calculate D2E/DX2 analytically  !
 ! D22   D(4,3,6,5)            -62.237          calculate D2E/DX2 analytically  !
 ! D23   D(4,3,6,10)            -0.9743         calculate D2E/DX2 analytically  !
 ! D24   D(7,3,6,1)            -58.1729         calculate D2E/DX2 analytically  !
 ! D25   D(7,3,6,5)              0.0            calculate D2E/DX2 analytically  !
 ! D26   D(7,3,6,10)            61.2627         calculate D2E/DX2 analytically  !
 ! D27   D(9,3,6,1)            -89.2062         calculate D2E/DX2 analytically  !
 ! D28   D(9,3,6,5)            -31.0333         calculate D2E/DX2 analytically  !
 ! D29   D(9,3,6,10)            30.2294         calculate D2E/DX2 analytically  !
 ! D30   D(6,3,7,5)              0.0            calculate D2E/DX2 analytically  !
 ! D31   D(6,3,7,11)           -51.4983         calculate D2E/DX2 analytically  !
 ! D32   D(8,3,7,5)             51.4982         calculate D2E/DX2 analytically  !
 ! D33   D(8,3,7,11)             0.0            calculate D2E/DX2 analytically  !
 ! D34   D(2,3,8,10)            46.5565         calculate D2E/DX2 analytically  !
 ! D35   D(7,3,8,10)           -16.5807         calculate D2E/DX2 analytically  !
 ! D36   D(9,3,8,10)           -77.1717         calculate D2E/DX2 analytically  !
 ! D37   D(8,4,7,2)             -2.5848         calculate D2E/DX2 analytically  !
 ! D38   D(8,4,7,5)            -62.4077         calculate D2E/DX2 analytically  !
 ! D39   D(10,4,7,2)            58.8114         calculate D2E/DX2 analytically  !
 ! D40   D(10,4,7,5)            -1.0115         calculate D2E/DX2 analytically  !
 ! D41   D(7,4,8,6)             33.7194         calculate D2E/DX2 analytically  !
 ! D42   D(9,4,8,6)             85.568          calculate D2E/DX2 analytically  !
 ! D43   D(11,4,8,6)           -22.397          calculate D2E/DX2 analytically  !
 ! D44   D(3,4,10,5)            56.6454         calculate D2E/DX2 analytically  !
 ! D45   D(3,4,10,6)            -1.075          calculate D2E/DX2 analytically  !
 ! D46   D(7,4,10,5)             1.075          calculate D2E/DX2 analytically  !
 ! D47   D(7,4,10,6)           -56.6454         calculate D2E/DX2 analytically  !
 ! D48   D(9,4,10,5)            28.8603         calculate D2E/DX2 analytically  !
 ! D49   D(9,4,10,6)           -28.8602         calculate D2E/DX2 analytically  !
 ! D50   D(3,4,11,5)           -33.7194         calculate D2E/DX2 analytically  !
 ! D51   D(8,4,11,5)            22.397          calculate D2E/DX2 analytically  !
 ! D52   D(9,4,11,5)           -85.568          calculate D2E/DX2 analytically  !
 ! D53   D(7,5,6,3)              0.0            calculate D2E/DX2 analytically  !
 ! D54   D(7,5,6,8)            -54.5989         calculate D2E/DX2 analytically  !
 ! D55   D(11,5,6,3)            54.5989         calculate D2E/DX2 analytically  !
 ! D56   D(11,5,6,8)             0.0            calculate D2E/DX2 analytically  !
 ! D57   D(1,5,7,3)             58.1728         calculate D2E/DX2 analytically  !
 ! D58   D(1,5,7,4)            120.4098         calculate D2E/DX2 analytically  !
 ! D59   D(1,5,7,9)             89.2061         calculate D2E/DX2 analytically  !
 ! D60   D(6,5,7,3)              0.0            calculate D2E/DX2 analytically  !
 ! D61   D(6,5,7,4)             62.237          calculate D2E/DX2 analytically  !
 ! D62   D(6,5,7,9)             31.0333         calculate D2E/DX2 analytically  !
 ! D63   D(10,5,7,3)           -61.2627         calculate D2E/DX2 analytically  !
 ! D64   D(10,5,7,4)             0.9743         calculate D2E/DX2 analytically  !
 ! D65   D(10,5,7,9)           -30.2294         calculate D2E/DX2 analytically  !
 ! D66   D(1,5,10,4)          -113.6096         calculate D2E/DX2 analytically  !
 ! D67   D(1,5,10,8)           -51.8534         calculate D2E/DX2 analytically  !
 ! D68   D(2,5,10,4)           -50.7149         calculate D2E/DX2 analytically  !
 ! D69   D(2,5,10,8)            11.0412         calculate D2E/DX2 analytically  !
 ! D70   D(7,5,10,4)            -1.1124         calculate D2E/DX2 analytically  !
 ! D71   D(7,5,10,8)            60.6438         calculate D2E/DX2 analytically  !
 ! D72   D(1,5,11,4)            46.9711         calculate D2E/DX2 analytically  !
 ! D73   D(2,5,11,4)            56.2162         calculate D2E/DX2 analytically  !
 ! D74   D(6,5,11,4)           -12.4533         calculate D2E/DX2 analytically  !
 ! D75   D(1,6,8,4)            -46.9711         calculate D2E/DX2 analytically  !
 ! D76   D(2,6,8,4)            -56.2161         calculate D2E/DX2 analytically  !
 ! D77   D(5,6,8,4)             12.4533         calculate D2E/DX2 analytically  !
 ! D78   D(1,6,10,4)           113.6096         calculate D2E/DX2 analytically  !
 ! D79   D(1,6,10,11)           51.8535         calculate D2E/DX2 analytically  !
 ! D80   D(2,6,10,4)            50.7149         calculate D2E/DX2 analytically  !
 ! D81   D(2,6,10,11)          -11.0412         calculate D2E/DX2 analytically  !
 ! D82   D(3,6,10,4)             1.1123         calculate D2E/DX2 analytically  !
 ! D83   D(3,6,10,11)          -60.6438         calculate D2E/DX2 analytically  !
 ! D84   D(2,7,11,10)          -46.5565         calculate D2E/DX2 analytically  !
 ! D85   D(3,7,11,10)           16.5807         calculate D2E/DX2 analytically  !
 ! D86   D(9,7,11,10)           77.1717         calculate D2E/DX2 analytically  !
 ! D87   D(3,8,10,5)           -28.8636         calculate D2E/DX2 analytically  !
 ! D88   D(3,8,10,11)           30.5712         calculate D2E/DX2 analytically  !
 ! D89   D(6,10,11,7)           28.8635         calculate D2E/DX2 analytically  !
 ! D90   D(8,10,11,7)          -30.5712         calculate D2E/DX2 analytically  !
 --------------------------------------------------------------------------------
 Trust Radius=3.00D-01 FncErr=1.00D-07 GrdErr=1.00D-06
 Number of steps in this run= 100 maximum allowed number of steps= 100.
 GradGradGradGradGradGradGradGradGradGradGradGradGradGradGradGradGradGrad

                          Input orientation:                          
 ---------------------------------------------------------------------
 Center     Atomic     Atomic              Coordinates (Angstroms)
 Number     Number      Type              X           Y           Z
 ---------------------------------------------------------------------
    1         14             0       -3.333109    0.469461    0.000000
    2         14             0       -1.297084    1.912897   -0.000003
    3         14             0        0.580791    1.197064    1.309526
    4         14             0        1.942564   -0.882270    0.000001
    5         14             0       -1.510064   -0.533329   -1.225267
    6         14             0       -1.510064   -0.533326    1.225268
    7         14             0        0.580791    1.197061   -1.309529
    8         14             0        0.625370   -1.105025    2.213826
    9         14             0        2.446628    1.676770   -0.000002
   10         14             0       -0.089827   -2.256734    0.000003
   11         14             0        0.625371   -1.105030   -2.213824
 ---------------------------------------------------------------------
                    Distance matrix (angstroms):
                    1          2          3          4          5
     1  Si   0.000000
     2  Si   2.495777   0.000000
     3  Si   4.190809   2.398687   0.000000
     4  Si   5.446091   4.278817   2.809433   0.000000
     5  Si   2.414614   2.744204   3.713638   3.680174   0.000000
     6  Si   2.414613   2.744204   2.715331   3.680174   2.450535
     7  Si   4.190809   2.398686   2.619055   2.809433   2.715331
     8  Si   4.800999   4.207698   2.473734   2.585661   4.088310
     9  Si   5.904486   3.751151   2.329448   2.608211   4.694808
    10  Si   4.236864   4.340886   3.754104   2.453521   2.547250
    11  Si   4.801000   4.207698   4.208993   2.585661   2.421605
                    6          7          8          9         10
     6  Si   0.000000
     7  Si   3.713638   0.000000
     8  Si   2.421604   4.208992   0.000000
     9  Si   4.694808   2.329448   3.994546   0.000000
    10  Si   2.547250   3.754105   2.595949   4.680391   0.000000
    11  Si   4.088310   2.473734   4.427650   3.994546   2.595951
                   11
    11  Si   0.000000
 Stoichiometry    Si11
 Framework group  C1[X(Si11)]
 Deg. of freedom    27
 Full point group                 C1
 Largest Abelian subgroup         C1      NOp   1
 Largest concise Abelian subgroup C1      NOp   1
                         Standard orientation:                         
 ---------------------------------------------------------------------
 Center     Atomic     Atomic              Coordinates (Angstroms)
 Number     Number      Type              X           Y           Z
 ---------------------------------------------------------------------
    1         14             0        3.239564   -0.520092    0.000000
    2         14             0        1.179773   -1.929407   -0.000003
    3         14             0       -0.685915   -1.182388    1.309526
    4         14             0       -2.012857    0.919345    0.000001
    5         14             0        1.433478    0.512931   -1.225267
    6         14             0        1.433478    0.512928    1.225268
    7         14             0       -0.685915   -1.182385   -1.309529
    8         14             0       -0.692135    1.120124    2.213826
    9         14             0       -2.559485   -1.630942   -0.000002
   10         14             0        0.042150    2.259758    0.000003
   11         14             0       -0.692136    1.120129   -2.213824
 ---------------------------------------------------------------------
 Rotational constants (GHZ):      0.5210195      0.4038115      0.3848660
 Standard basis: LANL2DZ (5D, 7F)
 There are    88 symmetry adapted basis functions of A   symmetry.
 Integral buffers will be    131072 words long.
 Raffenetti 2 integral format.
 Two-electron integral symmetry is turned on.
    88 basis functions,   132 primitive gaussians,    88 cartesian basis functions
    22 alpha electrons       22 beta electrons
       nuclear repulsion energy       146.2820669165 Hartrees.
 NAtoms=   11 NActive=   11 NUniq=   11 SFac= 7.50D-01 NAtFMM=   80 NAOKFM=F Big=F
 One-electron integrals computed using PRISM.
   1 Symmetry operations used in ECPInt.
 ECPInt:  NShTT=     990 NPrTT=    2233 LenC2=     991 LenP2D=    2163.
 LDataN:  DoStor=F MaxTD1= 3 Len=   28
 LDataN:  DoStor=T MaxTD1= 3 Len=   28
 NBasis=    88 RedAO= T  NBF=    88
 NBsUse=    88 1.00D-06 NBFU=    88
 Harris functional with IExCor=  402 diagonalized for initial guess.
 ExpMin= 8.85D-02 ExpMax= 2.58D+00 ExpMxC= 2.58D+00 IAcc=2 IRadAn=         4 AccDes= 0.00D+00
 HarFok:  IExCor= 402 AccDes= 0.00D+00 IRadAn=         4 IDoV=1
 ScaDFX=  1.000000  1.000000  1.000000  1.000000
 Initial guess orbital symmetries:
       Occupied  (A) (A) (A) (A) (A) (A) (A) (A) (A) (A) (A) (A)
                 (A) (A) (A) (A) (A) (A) (A) (A) (A) (A)
       Virtual   (A) (A) (A) (A) (A) (A) (A) (A) (A) (A) (A) (A)
                 (A) (A) (A) (A) (A) (A) (A) (A) (A) (A) (A) (A)
                 (A) (A) (A) (A) (A) (A) (A) (A) (A) (A) (A) (A)
                 (A) (A) (A) (A) (A) (A) (A) (A) (A) (A) (A) (A)
                 (A) (A) (A) (A) (A) (A) (A) (A) (A) (A) (A) (A)
                 (A) (A) (A) (A) (A) (A)
 The electronic state of the initial guess is 1-A.
 Requested convergence on RMS density matrix=1.00D-08 within 128 cycles.
 Requested convergence on MAX density matrix=1.00D-06.
 Requested convergence on             energy=1.00D-06.
 No special actions if energy rises.
 Keep R1 integrals in memory in canonical form, NReq=     9511927.
 Integral accuracy reduced to 1.0D-05 until final iterations.
 Initial convergence to 1.0D-05 achieved.  Increase integral accuracy.
 SCF Done:  E(RB+HF-LYP) =  -42.4124341511     A.U. after   19 cycles
             Convg  =    0.4227D-08             -V/T =  3.5426
             S**2   =   0.0000
 QCSCF skips out because SCF is already converged.
 Range of M.O.s used for correlation:     1    88
 NBasis=    88 NAE=    22 NBE=    22 NFC=     0 NFV=     0
 NROrb=     88 NOA=    22 NOB=    22 NVA=    66 NVB=    66

 **** Warning!!: The smallest alpha delta epsilon is  0.77885878D-01

   1 Symmetry operations used in ECPInt.
 ECPInt:  NShTT=     990 NPrTT=    2233 LenC2=     991 LenP2D=    2163.
 LDataN:  DoStor=F MaxTD1= 4 Len=   56
 LDataN:  DoStor=T MaxTD1= 4 Len=   56
 Symmetrizing basis deriv contribution to polar:
 IMax=3 JMax=2 DiffMx= 0.00D+00
 G2DrvN: will do   12 centers at a time, making    1 passes doing MaxLOS=1.
 FoFDir/FoFCou used for L=0 through L=1.
 DoAtom=TTTTTTTTTTT
          Differentiating once with respect to electric field.
                with respect to dipole field.
          Differentiating once with respect to nuclear coordinates.
          Store integrals in memory, NReq=     8472569.
          There are  36 degrees of freedom in the 1st order CPHF.
    33 vectors were produced by pass  0.
 AX will form  33 AO Fock derivatives at one time.
    33 vectors were produced by pass  1.
    33 vectors were produced by pass  2.
    33 vectors were produced by pass  3.
    33 vectors were produced by pass  4.
    33 vectors were produced by pass  5.
    28 vectors were produced by pass  6.
     5 vectors were produced by pass  7.
     3 vectors were produced by pass  8.
 Inv2:  IOpt= 1 Iter= 1 AM= 2.33D-15 Conv= 1.00D-12.
 Inverted reduced A of dimension  234 with in-core refinement.
 Isotropic polarizability for W=    0.000000      314.59 Bohr**3.
 End of Minotr Frequency-dependent properties file   721 does not exist.

 **********************************************************************

            Population analysis using the SCF density.

 **********************************************************************

 Orbital symmetries:
       Occupied  (A) (A) (A) (A) (A) (A) (A) (A) (A) (A) (A) (A)
                 (A) (A) (A) (A) (A) (A) (A) (A) (A) (A)
       Virtual   (A) (A) (A) (A) (A) (A) (A) (A) (A) (A) (A) (A)
                 (A) (A) (A) (A) (A) (A) (A) (A) (A) (A) (A) (A)
                 (A) (A) (A) (A) (A) (A) (A) (A) (A) (A) (A) (A)
                 (A) (A) (A) (A) (A) (A) (A) (A) (A) (A) (A) (A)
                 (A) (A) (A) (A) (A) (A) (A) (A) (A) (A) (A) (A)
                 (A) (A) (A) (A) (A) (A)
 The electronic state is 1-A.
 Alpha  occ. eigenvalues --   -0.75144  -0.65785  -0.63980  -0.62089  -0.52674
 Alpha  occ. eigenvalues --   -0.49967  -0.47176  -0.45870  -0.44696  -0.41128
 Alpha  occ. eigenvalues --   -0.36331  -0.32412  -0.31416  -0.30603  -0.30288
 Alpha  occ. eigenvalues --   -0.28886  -0.28631  -0.27961  -0.26928  -0.26459
 Alpha  occ. eigenvalues --   -0.24854  -0.20979
 Alpha virt. eigenvalues --   -0.13190  -0.13093  -0.11420  -0.10684  -0.08632
 Alpha virt. eigenvalues --   -0.07842  -0.07167  -0.06805  -0.06017  -0.05313
 Alpha virt. eigenvalues --   -0.04696  -0.04157  -0.02127  -0.01711   0.01989
 Alpha virt. eigenvalues --    0.02526   0.04214   0.04973   0.06155   0.06695
 Alpha virt. eigenvalues --    0.07099   0.08692   0.26610   0.26918   0.27112
 Alpha virt. eigenvalues --    0.27826   0.28087   0.28861   0.29320   0.29919
 Alpha virt. eigenvalues --    0.30074   0.30604   0.30892   0.31142   0.31887
 Alpha virt. eigenvalues --    0.32183   0.32693   0.34236   0.34381   0.34435
 Alpha virt. eigenvalues --    0.35982   0.36053   0.36316   0.37291   0.39117
 Alpha virt. eigenvalues --    0.39580   0.39773   0.42130   0.42446   0.42767
 Alpha virt. eigenvalues --    0.42850   0.43860   0.45307   0.48573   0.51326
 Alpha virt. eigenvalues --    8.38049  10.47106  11.16790  11.74622  12.08729
 Alpha virt. eigenvalues --   12.33128  12.56491  12.85052  13.32856  13.61861
 Alpha virt. eigenvalues --   14.07538
          Condensed to atoms (all electrons):
              1          2          3          4          5          6
     1  Si   3.645601   0.091185  -0.018022   0.003636   0.023840   0.023839
     2  Si   0.091185   4.104384   0.021141  -0.008236  -0.072739  -0.072739
     3  Si  -0.018022   0.021141   4.364411  -0.052615  -0.066365  -0.070216
     4  Si   0.003636  -0.008236  -0.052615   4.276316  -0.102919  -0.102919
     5  Si   0.023840  -0.072739  -0.066365  -0.102919   4.632337  -0.092512
     6  Si   0.023839  -0.072739  -0.070216  -0.102919  -0.092512   4.632339
     7  Si  -0.018022   0.021141  -0.087136  -0.052615  -0.070216  -0.066365
     8  Si   0.009730  -0.020943   0.049381   0.052743  -0.038276  -0.001743
     9  Si   0.002755  -0.068790   0.090455   0.055277   0.011310   0.011310
    10  Si  -0.011795  -0.014130  -0.036780   0.027769  -0.037519  -0.037519
    11  Si   0.009730  -0.020943  -0.014151   0.052743  -0.001742  -0.038276
              7          8          9         10         11
     1  Si  -0.018022   0.009730   0.002755  -0.011795   0.009730
     2  Si   0.021141  -0.020943  -0.068790  -0.014130  -0.020943
     3  Si  -0.087136   0.049381   0.090455  -0.036780  -0.014151
     4  Si  -0.052615   0.052743   0.055277   0.027769   0.052743
     5  Si  -0.070216  -0.038276   0.011310  -0.037519  -0.001742
     6  Si  -0.066365  -0.001743   0.011310  -0.037519  -0.038276
     7  Si   4.364411  -0.014151   0.090455  -0.036780   0.049381
     8  Si  -0.014151   3.812073  -0.037414   0.014731  -0.004426
     9  Si   0.090455  -0.037414   3.672735  -0.010093  -0.037414
    10  Si  -0.036780   0.014731  -0.010093   4.101801   0.014731
    11  Si   0.049381  -0.004426  -0.037414   0.014731   3.812073
 Mulliken atomic charges:
              1
     1  Si   0.237524
     2  Si   0.040670
     3  Si  -0.180101
     4  Si  -0.149180
     5  Si  -0.185199
     6  Si  -0.185199
     7  Si  -0.180102
     8  Si   0.178294
     9  Si   0.219415
    10  Si   0.025583
    11  Si   0.178294
 Sum of Mulliken charges=   0.00000
 Atomic charges with hydrogens summed into heavy atoms:
              1
     1  Si   0.237524
     2  Si   0.040670
     3  Si  -0.180101
     4  Si  -0.149180
     5  Si  -0.185199
     6  Si  -0.185199
     7  Si  -0.180102
     8  Si   0.178294
     9  Si   0.219415
    10  Si   0.025583
    11  Si   0.178294
 Sum of Mulliken charges=   0.00000
 APT atomic charges:
              1
     1  Si   0.364705
     2  Si  -0.152790
     3  Si  -0.157146
     4  Si  -0.187723
     5  Si  -0.160674
     6  Si  -0.160674
     7  Si  -0.157146
     8  Si   0.163878
     9  Si   0.232742
    10  Si   0.050950
    11  Si   0.163879
 Sum of APT charges=   0.00000
 APT Atomic charges with hydrogens summed into heavy atoms:
              1
     1  Si   0.364705
     2  Si  -0.152790
     3  Si  -0.157146
     4  Si  -0.187723
     5  Si  -0.160674
     6  Si  -0.160674
     7  Si  -0.157146
     8  Si   0.163878
     9  Si   0.232742
    10  Si   0.050950
    11  Si   0.163879
 Sum of APT charges=   0.00000
 Electronic spatial extent (au):  <R**2>=  1217.1298
 Charge=     0.0000 electrons
 Dipole moment (field-independent basis, Debye):
    X=     1.1878    Y=    -0.6548    Z=     0.0000  Tot=     1.3563
 Quadrupole moment (field-independent basis, Debye-Ang):
   XX=  -143.5541   YY=  -141.5152   ZZ=  -138.3286
   XY=     1.6509   XZ=     0.0000   YZ=     0.0000
 Traceless Quadrupole moment (field-independent basis, Debye-Ang):
   XX=    -2.4215   YY=    -0.3826   ZZ=     2.8041
   XY=     1.6509   XZ=     0.0000   YZ=     0.0000
 Octapole moment (field-independent basis, Debye-Ang**2):
  XXX=    18.4527  YYY=   -12.2788  ZZZ=     0.0000  XYY=     3.0107
  XXY=    -2.9603  XXZ=     0.0000  XZZ=     0.9978  YZZ=    -6.3284
  YYZ=     0.0000  XYZ=     0.0000
 Hexadecapole moment (field-independent basis, Debye-Ang**3):
 XXXX= -2525.8370 YYYY= -1693.9933 ZZZZ= -1507.2838 XXXY=     9.5443
 XXXZ=    -0.0001 YYYX=    17.2260 YYYZ=    -0.0002 ZZZX=    -0.0001
 ZZZY=    -0.0002 XXYY=  -679.9124 XXZZ=  -628.8016 YYZZ=  -531.7658
 XXYZ=    -0.0001 YYXZ=     0.0000 ZZXY=    -3.2710
 N-N= 1.462820669165D+02 E-N=-3.689111931847D+02  KE= 1.668062523437D+01
  Exact polarizability: 358.309  -2.260 300.870   0.000   0.000 284.583
 Approx polarizability:1203.568 -28.8711085.768   0.000   0.0001023.233
   1 Symmetry operations used in ECPInt.
 ECPInt:  NShTT=     990 NPrTT=    2233 LenC2=     991 LenP2D=    2233.
 LDataN:  DoStor=F MaxTD1= 5 Len=  102
 LDataN:  DoStor=T MaxTD1= 5 Len=  102
 ***** Axes restored to original set *****
 -------------------------------------------------------------------
 Center     Atomic                   Forces (Hartrees/Bohr)
 Number     Number              X              Y              Z
 -------------------------------------------------------------------
    1         14          -0.023942038    0.001236709   -0.000000039
    2         14          -0.003686236    0.021141615    0.000000040
    3         14          -0.001125537    0.014502618    0.020610206
    4         14           0.032106508   -0.011990747    0.000000001
    5         14          -0.016043502   -0.009175006   -0.015324413
    6         14          -0.016043526   -0.009174930    0.015324401
    7         14          -0.001125478    0.014502511   -0.020610284
    8         14           0.004663595   -0.001083529    0.017815468
    9         14           0.026843608    0.010511885   -0.000000006
   10         14          -0.006310876   -0.029387546   -0.000000050
   11         14           0.004663482   -0.001083580   -0.017815325
 -------------------------------------------------------------------
 Cartesian Forces:  Max     0.032106508 RMS     0.014616967

 GradGradGradGradGradGradGradGradGradGradGradGradGradGradGradGradGradGrad
 Berny optimization.
 Internal  Forces:  Max     0.014038068 RMS     0.003775249
 Search for a local minimum.
 Step number   1 out of a maximum of 100
 All quantities printed in internal units (Hartrees-Bohrs-Radians)
 Second derivative matrix not updated -- analytic derivatives used.
     Eigenvalues ---    0.00142   0.00198   0.00407   0.00448   0.00622
     Eigenvalues ---    0.00765   0.00931   0.01366   0.01414   0.01649
     Eigenvalues ---    0.01794   0.01975   0.02100   0.02730   0.02847
     Eigenvalues ---    0.03025   0.03057   0.03913   0.03996   0.04300
     Eigenvalues ---    0.04699   0.04864   0.05391   0.05628   0.06209
     Eigenvalues ---    0.06783   0.086251000.000001000.000001000.00000
     Eigenvalues --- 1000.000001000.000001000.000001000.000001000.00000
     Eigenvalues --- 1000.000001000.000001000.000001000.000001000.00000
     Eigenvalues --- 1000.000001000.000001000.000001000.000001000.00000
     Eigenvalues --- 1000.000001000.000001000.000001000.000001000.00000
     Eigenvalues --- 1000.000001000.000001000.000001000.000001000.00000
     Eigenvalues --- 1000.000001000.000001000.000001000.000001000.00000
     Eigenvalues --- 1000.000001000.000001000.000001000.000001000.00000
     Eigenvalues --- 1000.000001000.000001000.000001000.000001000.00000
     Eigenvalues --- 1000.000001000.000001000.000001000.000001000.00000
     Eigenvalues --- 1000.000001000.000001000.000001000.000001000.00000
     Eigenvalues --- 1000.000001000.000001000.000001000.000001000.00000
     Eigenvalues --- 1000.000001000.000001000.000001000.000001000.00000
     Eigenvalues --- 1000.000001000.000001000.000001000.000001000.00000
     Eigenvalues --- 1000.000001000.000001000.000001000.000001000.00000
     Eigenvalues --- 1000.000001000.000001000.000001000.000001000.00000
     Eigenvalues --- 1000.000001000.000001000.000001000.000001000.00000
     Eigenvalues --- 1000.000001000.000001000.000001000.000001000.00000
     Eigenvalues --- 1000.000001000.000001000.000001000.000001000.00000
     Eigenvalues --- 1000.000001000.000001000.000001000.000001000.00000
     Eigenvalues --- 1000.000001000.000001000.000001000.000001000.00000
     Eigenvalues --- 1000.000001000.000001000.000001000.000001000.00000
     Eigenvalues --- 1000.000001000.000001000.000001000.000001000.00000
     Eigenvalues --- 1000.000001000.000001000.000001000.000001000.00000
     Eigenvalues --- 1000.000001000.000001000.000001000.000001000.00000
     Eigenvalues --- 1000.000001000.000001000.000001000.000001000.00000
     Eigenvalues --- 1000.000001000.000001000.000001000.000001000.00000
     Eigenvalues --- 1000.000001000.000001000.000001000.000001000.00000
     Eigenvalues --- 1000.000001000.000001000.000001000.000001000.00000
     Eigenvalues --- 1000.000001000.00000
 RFO step:  Lambda=-3.14734218D-02.
 Linear search not attempted -- first point.
 Maximum step size (   0.300) exceeded in Quadratic search.
    -- Step size scaled by   0.450
 Iteration  1 RMS(Cart)=  0.01335373 RMS(Int)=  0.00007578
 Iteration  2 RMS(Cart)=  0.00003727 RMS(Int)=  0.00004780
 Iteration  3 RMS(Cart)=  0.00000000 RMS(Int)=  0.00004780
 Variable       Old X    -DE/DX   Delta X   Delta X   Delta X     New X
                                 (Linear)    (Quad)   (Total)
    R1        4.71634   0.01091   0.00000   0.05973   0.05970   4.77604
    R2        4.56296   0.00884   0.00000   0.03916   0.03920   4.60215
    R3        4.56296   0.00886   0.00000   0.03921   0.03925   4.60220
    R4        4.53286   0.00875   0.00000   0.04121   0.04114   4.57400
    R5        5.18579   0.00681   0.00000   0.06018   0.06022   5.24601
    R6        5.18579   0.00679   0.00000   0.06015   0.06018   5.24598
    R7        4.53286   0.00874   0.00000   0.04121   0.04114   4.57400
    R8        5.30906   0.00948   0.00000   0.08165   0.08178   5.39084
    R9        5.13123   0.01162   0.00000   0.07669   0.07677   5.20800
   R10        4.94930   0.00716   0.00000   0.05454   0.05441   5.00370
   R11        4.67468   0.00456   0.00000   0.03043   0.03027   4.70495
   R12        4.40202   0.01396   0.00000   0.05236   0.05238   4.45440
   R13        5.30906   0.00939   0.00000   0.08149   0.08162   5.39068
   R14        4.88619   0.00901   0.00000   0.05683   0.05692   4.94311
   R15        4.92881   0.00691   0.00000   0.04165   0.04157   4.97037
   R16        4.63648   0.01404   0.00000   0.07262   0.07259   4.70908
   R17        4.88619   0.00898   0.00000   0.05677   0.05686   4.94305
   R18        4.63084   0.00677   0.00000   0.04894   0.04883   4.67967
   R19        5.13123   0.01158   0.00000   0.07663   0.07670   5.20794
   R20        4.81361   0.00952   0.00000   0.05940   0.05940   4.87301
   R21        4.57617   0.00844   0.00000   0.04228   0.04225   4.61842
   R22        4.57617   0.00844   0.00000   0.04228   0.04225   4.61842
   R23        4.81360   0.00953   0.00000   0.05941   0.05941   4.87301
   R24        4.40202   0.01395   0.00000   0.05233   0.05236   4.45438
   R25        4.67468   0.00455   0.00000   0.03040   0.03024   4.70492
   R26        4.90563   0.00819   0.00000   0.05719   0.05720   4.96283
   R27        4.90564   0.00817   0.00000   0.05719   0.05720   4.96283
    A1        2.05563   0.00115   0.00000   0.00175   0.00177   2.05740
    A2        2.05563   0.00113   0.00000   0.00172   0.00173   2.05737
    A3        1.60930   0.00065   0.00000   0.00526   0.00522   1.61451
    A4        1.60930   0.00063   0.00000   0.00523   0.00519   1.61448
    A5        1.92397   0.00046   0.00000   0.00070   0.00069   1.92466
    A6        2.08449  -0.00098   0.00000  -0.00409  -0.00409   2.08040
    A7        1.83248   0.00193   0.00000   0.00378   0.00376   1.83624
    A8        1.45767   0.00121   0.00000   0.00133   0.00130   1.45897
    A9        1.53976   0.00002   0.00000  -0.00011  -0.00010   1.53966
   A10        2.38993   0.00076   0.00000  -0.00402  -0.00402   2.38591
   A11        1.94503  -0.00011   0.00000  -0.00104  -0.00106   1.94397
   A12        1.96353  -0.00068   0.00000  -0.00546  -0.00545   1.95808
   A13        1.58390  -0.00103   0.00000  -0.00466  -0.00460   1.57930
   A14        1.78844  -0.00153   0.00000  -0.01275  -0.01268   1.77576
   A15        1.78844  -0.00155   0.00000  -0.01277  -0.01270   1.77573
   A16        1.58390  -0.00103   0.00000  -0.00466  -0.00460   1.57930
   A17        1.75481   0.00042   0.00000  -0.00666  -0.00665   1.74816
   A18        2.05571  -0.00226   0.00000  -0.01160  -0.01164   2.04407
   A19        2.35991   0.00078   0.00000  -0.00490  -0.00486   2.35505
   A20        1.75481   0.00044   0.00000  -0.00663  -0.00662   1.74819
   A21        1.90970   0.00101   0.00000  -0.00168  -0.00170   1.90800
   A22        2.04638   0.00039   0.00000   0.00077   0.00080   2.04718
   A23        2.90008  -0.00023   0.00000  -0.00857  -0.00857   2.89151
   A24        1.92311  -0.00016   0.00000  -0.00239  -0.00238   1.92073
   A25        1.90104  -0.00110   0.00000  -0.01112  -0.01107   1.88998
   A26        1.60183  -0.00004   0.00000   0.00007   0.00007   1.60190
   A27        1.99130  -0.00048   0.00000  -0.00185  -0.00187   1.98943
   A28        1.58755  -0.00064   0.00000  -0.00104  -0.00104   1.58652
   A29        1.90970   0.00102   0.00000  -0.00169  -0.00170   1.90800
   A30        2.90008  -0.00024   0.00000  -0.00858  -0.00858   2.89150
   A31        2.04638   0.00038   0.00000   0.00075   0.00078   2.04716
   A32        1.90104  -0.00111   0.00000  -0.01112  -0.01108   1.88997
   A33        1.92311  -0.00015   0.00000  -0.00239  -0.00237   1.92074
   A34        1.60183  -0.00002   0.00000   0.00009   0.00009   1.60192
   A35        1.58755  -0.00063   0.00000  -0.00102  -0.00102   1.58654
   A36        1.99130  -0.00048   0.00000  -0.00185  -0.00187   1.98943
   A37        1.92397   0.00049   0.00000   0.00075   0.00074   1.92471
   A38        1.83248   0.00193   0.00000   0.00379   0.00377   1.83625
   A39        2.08449  -0.00096   0.00000  -0.00406  -0.00406   2.08043
   A40        1.53976   0.00005   0.00000  -0.00006  -0.00005   1.53971
   A41        1.94503  -0.00007   0.00000  -0.00098  -0.00099   1.94404
   A42        1.45767   0.00123   0.00000   0.00136   0.00133   1.45900
   A43        2.38993   0.00079   0.00000  -0.00396  -0.00397   2.38597
   A44        1.96353  -0.00067   0.00000  -0.00543  -0.00542   1.95811
   A45        1.66710   0.00107   0.00000   0.00888   0.00886   1.67596
   A46        1.65024   0.00184   0.00000   0.01174   0.01166   1.66191
   A47        1.65373   0.00045   0.00000   0.00428   0.00425   1.65798
   A48        1.65373   0.00045   0.00000   0.00429   0.00426   1.65799
   A49        1.83760  -0.00085   0.00000  -0.00704  -0.00701   1.83059
   A50        1.83760  -0.00085   0.00000  -0.00704  -0.00701   1.83059
   A51        2.04265  -0.00167   0.00000  -0.01154  -0.01153   2.03112
   A52        1.65024   0.00184   0.00000   0.01174   0.01167   1.66191
   A53        1.66710   0.00105   0.00000   0.00885   0.00883   1.67593
   A54        2.47675   0.00111   0.00000   0.00295   0.00295   2.47970
   A55        2.05260   0.00013   0.00000   0.00060   0.00062   2.05322
    D1        1.33513   0.00071   0.00000   0.00120   0.00118   1.33632
    D2        0.21665   0.00018   0.00000   0.00209   0.00209   0.21875
    D3        2.43851   0.00024   0.00000  -0.00514  -0.00512   2.43338
    D4        0.45165   0.00044   0.00000   0.00273   0.00269   0.45434
    D5       -0.66683  -0.00010   0.00000   0.00361   0.00360  -0.66324
    D6        1.55502  -0.00003   0.00000  -0.00361  -0.00362   1.55140
    D7        0.22476   0.00017   0.00000  -0.00318  -0.00316   0.22160
    D8       -0.94923   0.00082   0.00000  -0.00079  -0.00078  -0.95001
    D9        0.94923  -0.00082   0.00000   0.00079   0.00078   0.95001
   D10       -0.22476  -0.00017   0.00000   0.00318   0.00316  -0.22160
   D11       -1.33513  -0.00072   0.00000  -0.00122  -0.00120  -1.33633
   D12       -2.43851  -0.00027   0.00000   0.00509   0.00507  -2.43344
   D13       -0.21665  -0.00015   0.00000  -0.00206  -0.00207  -0.21873
   D14       -0.45165  -0.00044   0.00000  -0.00274  -0.00269  -0.45434
   D15       -1.55502   0.00001   0.00000   0.00357   0.00358  -1.55145
   D16        0.66683   0.00012   0.00000  -0.00358  -0.00356   0.66327
   D17       -1.02645   0.00065   0.00000   0.00247   0.00246  -1.02399
   D18        0.04511  -0.00031   0.00000   0.00047   0.00051   0.04562
   D19        0.01765  -0.00009   0.00000   0.00138   0.00137   0.01902
   D20        1.08922  -0.00106   0.00000  -0.00062  -0.00059   1.08863
   D21       -2.10155  -0.00030   0.00000  -0.00141  -0.00143  -2.10298
   D22       -1.08624  -0.00019   0.00000  -0.00233  -0.00232  -1.08856
   D23       -0.01700   0.00007   0.00000  -0.00139  -0.00138  -0.01838
   D24       -1.01531  -0.00011   0.00000   0.00091   0.00088  -1.01443
   D25        0.00000  -0.00001   0.00000  -0.00001  -0.00001  -0.00001
   D26        1.06924   0.00026   0.00000   0.00093   0.00093   1.07017
   D27       -1.55694  -0.00151   0.00000  -0.00764  -0.00761  -1.56455
   D28       -0.54163  -0.00141   0.00000  -0.00856  -0.00850  -0.55013
   D29        0.52760  -0.00114   0.00000  -0.00761  -0.00755   0.52005
   D30        0.00000   0.00001   0.00000   0.00001   0.00001   0.00001
   D31       -0.89881  -0.00015   0.00000   0.00255   0.00256  -0.89626
   D32        0.89881   0.00016   0.00000  -0.00254  -0.00254   0.89627
   D33        0.00000   0.00000   0.00000   0.00000   0.00000   0.00000
   D34        0.81256   0.00016   0.00000  -0.00055  -0.00051   0.81205
   D35       -0.28939   0.00000   0.00000   0.00200   0.00201  -0.28738
   D36       -1.34690  -0.00111   0.00000   0.00280   0.00280  -1.34410
   D37       -0.04511   0.00031   0.00000  -0.00048  -0.00051  -0.04562
   D38       -1.08922   0.00104   0.00000   0.00060   0.00057  -1.08865
   D39        1.02645  -0.00066   0.00000  -0.00248  -0.00247   1.02398
   D40       -0.01765   0.00008   0.00000  -0.00141  -0.00139  -0.01905
   D41        0.58851  -0.00014   0.00000   0.00635   0.00641   0.59493
   D42        1.49344   0.00134   0.00000   0.00396   0.00403   1.49748
   D43       -0.39090   0.00138   0.00000   0.02018   0.02000  -0.37090
   D44        0.98865  -0.00044   0.00000  -0.00309  -0.00307   0.98558
   D45       -0.01876   0.00009   0.00000  -0.00153  -0.00151  -0.02028
   D46        0.01876  -0.00008   0.00000   0.00155   0.00154   0.02030
   D47       -0.98865   0.00045   0.00000   0.00312   0.00310  -0.98555
   D48        0.50371  -0.00025   0.00000  -0.00076  -0.00075   0.50295
   D49       -0.50371   0.00028   0.00000   0.00081   0.00080  -0.50290
   D50       -0.58852   0.00014   0.00000  -0.00635  -0.00640  -0.59492
   D51        0.39090  -0.00138   0.00000  -0.02018  -0.02000   0.37090
   D52       -1.49344  -0.00133   0.00000  -0.00395  -0.00402  -1.49746
   D53        0.00000   0.00001   0.00000   0.00001   0.00001   0.00001
   D54       -0.95293   0.00130   0.00000   0.00731   0.00728  -0.94565
   D55        0.95293  -0.00129   0.00000  -0.00730  -0.00726   0.94567
   D56        0.00000   0.00000   0.00000   0.00000   0.00000   0.00000
   D57        1.01531   0.00010   0.00000  -0.00092  -0.00089   1.01442
   D58        2.10155   0.00031   0.00000   0.00145   0.00147   2.10302
   D59        1.55694   0.00151   0.00000   0.00764   0.00762   1.56456
   D60        0.00000  -0.00001   0.00000  -0.00001  -0.00001  -0.00001
   D61        1.08624   0.00021   0.00000   0.00236   0.00235   1.08859
   D62        0.54163   0.00140   0.00000   0.00855   0.00849   0.55013
   D63       -1.06924  -0.00028   0.00000  -0.00096  -0.00096  -1.07020
   D64        0.01701  -0.00006   0.00000   0.00141   0.00140   0.01841
   D65       -0.52760   0.00113   0.00000   0.00761   0.00755  -0.52005
   D66       -1.98286  -0.00080   0.00000   0.00073   0.00075  -1.98211
   D67       -0.90501  -0.00117   0.00000  -0.00002   0.00000  -0.90502
   D68       -0.88514   0.00018   0.00000   0.00264   0.00262  -0.88252
   D69        0.19271  -0.00020   0.00000   0.00189   0.00187   0.19458
   D70       -0.01941   0.00009   0.00000  -0.00162  -0.00160  -0.02102
   D71        1.05843  -0.00028   0.00000  -0.00236  -0.00236   1.05607
   D72        0.81980  -0.00001   0.00000   0.01143   0.01135   0.83115
   D73        0.98116  -0.00019   0.00000   0.00523   0.00529   0.98645
   D74       -0.21735   0.00037   0.00000   0.00887   0.00891  -0.20845
   D75       -0.81980   0.00003   0.00000  -0.01136  -0.01128  -0.83108
   D76       -0.98116   0.00018   0.00000  -0.00525  -0.00531  -0.98646
   D77        0.21735  -0.00038   0.00000  -0.00888  -0.00891   0.20844
   D78        1.98286   0.00080   0.00000  -0.00075  -0.00077   1.98209
   D79        0.90501   0.00117   0.00000   0.00001  -0.00001   0.90501
   D80        0.88514  -0.00018   0.00000  -0.00266  -0.00265   0.88250
   D81       -0.19271   0.00020   0.00000  -0.00190  -0.00188  -0.19459
   D82        0.01941  -0.00010   0.00000   0.00159   0.00158   0.02099
   D83       -1.05843   0.00028   0.00000   0.00234   0.00234  -1.05609
   D84       -0.81256  -0.00019   0.00000   0.00051   0.00048  -0.81209
   D85        0.28939   0.00000   0.00000  -0.00200  -0.00201   0.28738
   D86        1.34690   0.00113   0.00000  -0.00277  -0.00277   1.34413
   D87       -0.50376  -0.00042   0.00000  -0.00278  -0.00279  -0.50655
   D88        0.53357  -0.00078   0.00000  -0.00929  -0.00918   0.52438
   D89        0.50376   0.00042   0.00000   0.00279   0.00280   0.50656
   D90       -0.53357   0.00078   0.00000   0.00930   0.00919  -0.52437
         Item               Value     Threshold  Converged?
 Maximum Force            0.014038     0.000450     NO 
 RMS     Force            0.003775     0.000300     NO 
 Maximum Displacement     0.067632     0.001800     NO 
 RMS     Displacement     0.013353     0.001200     NO 
 Predicted change in Energy=-1.239973D-02
 GradGradGradGradGradGradGradGradGradGradGradGradGradGradGradGradGradGrad

                          Input orientation:                          
 ---------------------------------------------------------------------
 Center     Atomic     Atomic              Coordinates (Angstroms)
 Number     Number      Type              X           Y           Z
 ---------------------------------------------------------------------
    1         14             0       -3.368898    0.469261   -0.000026
    2         14             0       -1.307065    1.930919    0.000011
    3         14             0        0.588300    1.214400    1.323946
    4         14             0        1.977600   -0.896264   -0.000026
    5         14             0       -1.532518   -0.543468   -1.238187
    6         14             0       -1.532515   -0.543459    1.238187
    7         14             0        0.588295    1.214344   -1.323899
    8         14             0        0.628996   -1.103617    2.231693
    9         14             0        2.480814    1.685356   -0.000003
   10         14             0       -0.090625   -2.286296    0.000003
   11         14             0        0.628984   -1.103636   -2.231700
 ---------------------------------------------------------------------
                    Distance matrix (angstroms):
                    1          2          3          4          5
     1  Si   0.000000
     2  Si   2.527370   0.000000
     3  Si   4.238815   2.420458   0.000000
     4  Si   5.518125   4.333819   2.852711   0.000000
     5  Si   2.435355   2.776068   3.761981   3.738775   0.000000
     6  Si   2.435381   2.776051   2.755954   3.738790   2.476374
     7  Si   4.238769   2.420456   2.647845   2.852626   2.755921
     8  Si   4.841247   4.235227   2.489752   2.615779   4.126255
     9  Si   5.974782   3.795830   2.357169   2.630207   4.754744
    10  Si   4.282543   4.389150   3.803767   2.491936   2.578686
    11  Si   4.841222   4.235250   4.244710   2.615748   2.443961
                    6          7          8          9         10
     6  Si   0.000000
     7  Si   3.761914   0.000000
     8  Si   2.443963   4.244625   0.000000
     9  Si   4.754738   2.357156   4.023440   0.000000
    10  Si   2.578687   3.803700   2.626219   4.731419   0.000000
    11  Si   4.126256   2.489737   4.463393   4.023460   2.626218
                   11
    11  Si   0.000000
 Stoichiometry    Si11
 Framework group  C1[X(Si11)]
 Deg. of freedom    27
 Full point group                 C1
 Largest Abelian subgroup         C1      NOp   1
 Largest concise Abelian subgroup C1      NOp   1
                         Standard orientation:                         
 ---------------------------------------------------------------------
 Center     Atomic     Atomic              Coordinates (Angstroms)
 Number     Number      Type              X           Y           Z
 ---------------------------------------------------------------------
    1         14             0        3.273001   -0.535070   -0.000026
    2         14             0        1.180768   -1.952871    0.000011
    3         14             0       -0.699048   -1.196495    1.323946
    4         14             0       -2.043476    0.943030   -0.000026
    5         14             0        1.458412    0.516205   -1.238187
    6         14             0        1.458408    0.516196    1.238188
    7         14             0       -0.699041   -1.196439   -1.323899
    8         14             0       -0.690794    1.121865    2.231693
    9         14             0       -2.601082   -1.627391   -0.000002
   10         14             0        0.053636    2.289087    0.000003
   11         14             0       -0.690782    1.121883   -2.231700
 ---------------------------------------------------------------------
 Rotational constants (GHZ):      0.5113911      0.3946774      0.3761207
 Standard basis: LANL2DZ (5D, 7F)
 There are    88 symmetry adapted basis functions of A   symmetry.
 Integral buffers will be    131072 words long.
 Raffenetti 2 integral format.
 Two-electron integral symmetry is turned on.
    88 basis functions,   132 primitive gaussians,    88 cartesian basis functions
    22 alpha electrons       22 beta electrons
       nuclear repulsion energy       144.6807308351 Hartrees.
 NAtoms=   11 NActive=   11 NUniq=   11 SFac= 7.50D-01 NAtFMM=   80 NAOKFM=F Big=F
 One-electron integrals computed using PRISM.
   1 Symmetry operations used in ECPInt.
 ECPInt:  NShTT=     990 NPrTT=    2233 LenC2=     991 LenP2D=    2163.
 LDataN:  DoStor=F MaxTD1= 3 Len=   28
 LDataN:  DoStor=T MaxTD1= 3 Len=   28
 NBasis=    88 RedAO= T  NBF=    88
 NBsUse=    88 1.00D-06 NBFU=    88
 Initial guess read from the read-write file:
 Initial guess orbital symmetries:
       Occupied  (A) (A) (A) (A) (A) (A) (A) (A) (A) (A) (A) (A)
                 (A) (A) (A) (A) (A) (A) (A) (A) (A) (A)
       Virtual   (A) (A) (A) (A) (A) (A) (A) (A) (A) (A) (A) (A)
                 (A) (A) (A) (A) (A) (A) (A) (A) (A) (A) (A) (A)
                 (A) (A) (A) (A) (A) (A) (A) (A) (A) (A) (A) (A)
                 (A) (A) (A) (A) (A) (A) (A) (A) (A) (A) (A) (A)
                 (A) (A) (A) (A) (A) (A) (A) (A) (A) (A) (A) (A)
                 (A) (A) (A) (A) (A) (A)
 Harris functional with IExCor=  402 diagonalized for initial guess.
 ExpMin= 8.85D-02 ExpMax= 2.58D+00 ExpMxC= 2.58D+00 IAcc=2 IRadAn=         4 AccDes= 0.00D+00
 HarFok:  IExCor= 402 AccDes= 0.00D+00 IRadAn=         4 IDoV=1
 ScaDFX=  1.000000  1.000000  1.000000  1.000000
 Requested convergence on RMS density matrix=1.00D-08 within 128 cycles.
 Requested convergence on MAX density matrix=1.00D-06.
 Requested convergence on             energy=1.00D-06.
 No special actions if energy rises.
 Keep R1 integrals in memory in canonical form, NReq=     9511927.
 Integral accuracy reduced to 1.0D-05 until final iterations.
 Initial convergence to 1.0D-05 achieved.  Increase integral accuracy.
 SCF Done:  E(RB+HF-LYP) =  -42.4248898965     A.U. after   17 cycles
             Convg  =    0.7371D-08             -V/T =  3.5692
             S**2   =   0.0000
 QCSCF skips out because SCF is already converged.
 Range of M.O.s used for correlation:     1    88
 NBasis=    88 NAE=    22 NBE=    22 NFC=     0 NFV=     0
 NROrb=     88 NOA=    22 NOB=    22 NVA=    66 NVB=    66

 **** Warning!!: The smallest alpha delta epsilon is  0.78018185D-01

   1 Symmetry operations used in ECPInt.
 ECPInt:  NShTT=     990 NPrTT=    2233 LenC2=     991 LenP2D=    2163.
 LDataN:  DoStor=F MaxTD1= 4 Len=   56
 LDataN:  DoStor=T MaxTD1= 4 Len=   56
 Symmetrizing basis deriv contribution to polar:
 IMax=3 JMax=2 DiffMx= 0.00D+00
 G2DrvN: will do   12 centers at a time, making    1 passes doing MaxLOS=1.
 FoFDir/FoFCou used for L=0 through L=1.
 DoAtom=TTTTTTTTTTT
          Differentiating once with respect to electric field.
                with respect to dipole field.
          Differentiating once with respect to nuclear coordinates.
          Store integrals in memory, NReq=     8472576.
          There are  36 degrees of freedom in the 1st order CPHF.
    33 vectors were produced by pass  0.
 AX will form  33 AO Fock derivatives at one time.
    33 vectors were produced by pass  1.
    33 vectors were produced by pass  2.
    33 vectors were produced by pass  3.
    33 vectors were produced by pass  4.
    33 vectors were produced by pass  5.
    29 vectors were produced by pass  6.
     6 vectors were produced by pass  7.
     3 vectors were produced by pass  8.
 Inv2:  IOpt= 1 Iter= 1 AM= 2.66D-15 Conv= 1.00D-12.
 Inverted reduced A of dimension  236 with in-core refinement.
 Isotropic polarizability for W=    0.000000      320.24 Bohr**3.
 End of Minotr Frequency-dependent properties file   721 does not exist.
   1 Symmetry operations used in ECPInt.
 ECPInt:  NShTT=     990 NPrTT=    2233 LenC2=     991 LenP2D=    2233.
 LDataN:  DoStor=F MaxTD1= 5 Len=  102
 LDataN:  DoStor=T MaxTD1= 5 Len=  102
 ***** Axes restored to original set *****
 -------------------------------------------------------------------
 Center     Atomic                   Forces (Hartrees/Bohr)
 Number     Number              X              Y              Z
 -------------------------------------------------------------------
    1         14          -0.016899619    0.001128001    0.000001037
    2         14          -0.002019107    0.016881452   -0.000001413
    3         14          -0.000553065    0.012257326    0.015699332
    4         14           0.024705547   -0.011317380    0.000001482
    5         14          -0.012515879   -0.008307003   -0.011455607
    6         14          -0.012517185   -0.008307411    0.011456217
    7         14          -0.000552232    0.012263641   -0.015701677
    8         14           0.003076010    0.000176969    0.013824334
    9         14           0.018331036    0.007225418   -0.000000731
   10         14          -0.004131408   -0.022178972    0.000001563
   11         14           0.003075902    0.000177958   -0.013824537
 -------------------------------------------------------------------
 Cartesian Forces:  Max     0.024705547 RMS     0.011174763

 GradGradGradGradGradGradGradGradGradGradGradGradGradGradGradGradGradGrad
 Berny optimization.
 Internal  Forces:  Max     0.010236965 RMS     0.002816827
 Search for a local minimum.
 Step number   2 out of a maximum of 100
 All quantities printed in internal units (Hartrees-Bohrs-Radians)
 Second derivative matrix not updated -- analytic derivatives used.
 Trust test= 1.00D+00 RLast= 3.00D-01 DXMaxT set to 4.24D-01
 Maximum step size (   0.424) exceeded in linear search.
    -- Step size scaled by   0.707
 Quartic linear search produced a step of  1.41422.
 Iteration  1 RMS(Cart)=  0.01887210 RMS(Int)=  0.00019541
 Iteration  2 RMS(Cart)=  0.00007263 RMS(Int)=  0.00015994
 Iteration  3 RMS(Cart)=  0.00000001 RMS(Int)=  0.00015994
 Variable       Old X    -DE/DX   Delta X   Delta X   Delta X     New X
                                 (Linear)    (Quad)   (Total)
    R1        4.77604   0.00802   0.08443   0.00000   0.08434   4.86038
    R2        4.60215   0.00618   0.05543   0.00000   0.05555   4.65770
    R3        4.60220   0.00620   0.05550   0.00000   0.05563   4.65783
    R4        4.57400   0.00621   0.05818   0.00000   0.05794   4.63194
    R5        5.24601   0.00569   0.08516   0.00000   0.08529   5.33130
    R6        5.24598   0.00568   0.08511   0.00000   0.08523   5.33120
    R7        4.57400   0.00621   0.05818   0.00000   0.05794   4.63194
    R8        5.39084   0.00787   0.11566   0.00000   0.11612   5.50696
    R9        5.20800   0.00896   0.10856   0.00000   0.10883   5.31682
   R10        5.00370   0.00569   0.07694   0.00000   0.07651   5.08021
   R11        4.70495   0.00346   0.04281   0.00000   0.04227   4.74722
   R12        4.45440   0.00957   0.07408   0.00000   0.07417   4.52857
   R13        5.39068   0.00781   0.11543   0.00000   0.11589   5.50657
   R14        4.94311   0.00687   0.08049   0.00000   0.08079   5.02389
   R15        4.97037   0.00515   0.05878   0.00000   0.05850   5.02888
   R16        4.70908   0.01024   0.10266   0.00000   0.10257   4.81165
   R17        4.94305   0.00685   0.08041   0.00000   0.08071   5.02376
   R18        4.67967   0.00532   0.06906   0.00000   0.06870   4.74837
   R19        5.20794   0.00894   0.10847   0.00000   0.10873   5.31667
   R20        4.87301   0.00721   0.08401   0.00000   0.08402   4.95703
   R21        4.61842   0.00608   0.05975   0.00000   0.05966   4.67807
   R22        4.61842   0.00608   0.05976   0.00000   0.05967   4.67809
   R23        4.87301   0.00722   0.08402   0.00000   0.08402   4.95704
   R24        4.45438   0.00956   0.07405   0.00000   0.07413   4.52851
   R25        4.70492   0.00346   0.04277   0.00000   0.04223   4.74715
   R26        4.96283   0.00640   0.08090   0.00000   0.08092   5.04375
   R27        4.96283   0.00638   0.08089   0.00000   0.08091   5.04374
    A1        2.05740   0.00070   0.00250   0.00000   0.00256   2.05997
    A2        2.05737   0.00069   0.00245   0.00000   0.00250   2.05987
    A3        1.61451   0.00052   0.00738   0.00000   0.00723   1.62175
    A4        1.61448   0.00051   0.00733   0.00000   0.00719   1.62167
    A5        1.92466   0.00028   0.00098   0.00000   0.00094   1.92560
    A6        2.08040  -0.00068  -0.00579   0.00000  -0.00580   2.07460
    A7        1.83624   0.00120   0.00531   0.00000   0.00525   1.84148
    A8        1.45897   0.00072   0.00183   0.00000   0.00171   1.46068
    A9        1.53966   0.00001  -0.00014   0.00000  -0.00013   1.53953
   A10        2.38591   0.00031  -0.00569   0.00000  -0.00570   2.38022
   A11        1.94397  -0.00010  -0.00150   0.00000  -0.00155   1.94242
   A12        1.95808  -0.00054  -0.00770   0.00000  -0.00765   1.95043
   A13        1.57930  -0.00071  -0.00650   0.00000  -0.00629   1.57301
   A14        1.77576  -0.00124  -0.01793   0.00000  -0.01769   1.75807
   A15        1.77573  -0.00125  -0.01796   0.00000  -0.01772   1.75801
   A16        1.57930  -0.00072  -0.00650   0.00000  -0.00630   1.57300
   A17        1.74816   0.00005  -0.00940   0.00000  -0.00938   1.73878
   A18        2.04407  -0.00164  -0.01646   0.00000  -0.01657   2.02750
   A19        2.35505   0.00030  -0.00687   0.00000  -0.00673   2.34833
   A20        1.74819   0.00006  -0.00937   0.00000  -0.00934   1.73885
   A21        1.90800   0.00052  -0.00241   0.00000  -0.00247   1.90554
   A22        2.04718   0.00024   0.00113   0.00000   0.00122   2.04840
   A23        2.89151  -0.00039  -0.01211   0.00000  -0.01209   2.87942
   A24        1.92073  -0.00016  -0.00336   0.00000  -0.00330   1.91743
   A25        1.88998  -0.00096  -0.01565   0.00000  -0.01549   1.87449
   A26        1.60190  -0.00002   0.00009   0.00000   0.00008   1.60198
   A27        1.98943  -0.00033  -0.00264   0.00000  -0.00271   1.98673
   A28        1.58652  -0.00040  -0.00147   0.00000  -0.00145   1.58506
   A29        1.90800   0.00052  -0.00241   0.00000  -0.00247   1.90553
   A30        2.89150  -0.00040  -0.01213   0.00000  -0.01211   2.87940
   A31        2.04716   0.00024   0.00111   0.00000   0.00120   2.04835
   A32        1.88997  -0.00096  -0.01566   0.00000  -0.01550   1.87447
   A33        1.92074  -0.00016  -0.00335   0.00000  -0.00328   1.91746
   A34        1.60192  -0.00001   0.00013   0.00000   0.00011   1.60204
   A35        1.58654  -0.00039  -0.00144   0.00000  -0.00142   1.58512
   A36        1.98943  -0.00033  -0.00265   0.00000  -0.00271   1.98672
   A37        1.92471   0.00030   0.00105   0.00000   0.00101   1.92572
   A38        1.83625   0.00120   0.00533   0.00000   0.00525   1.84150
   A39        2.08043  -0.00067  -0.00575   0.00000  -0.00576   2.07467
   A40        1.53971   0.00003  -0.00008   0.00000  -0.00006   1.53964
   A41        1.94404  -0.00007  -0.00140   0.00000  -0.00145   1.94259
   A42        1.45900   0.00074   0.00188   0.00000   0.00175   1.46075
   A43        2.38597   0.00033  -0.00561   0.00000  -0.00562   2.38034
   A44        1.95811  -0.00053  -0.00766   0.00000  -0.00761   1.95051
   A45        1.67596   0.00087   0.01253   0.00000   0.01247   1.68843
   A46        1.66191   0.00139   0.01649   0.00000   0.01623   1.67813
   A47        1.65798   0.00038   0.00601   0.00000   0.00591   1.66390
   A48        1.65799   0.00038   0.00602   0.00000   0.00592   1.66391
   A49        1.83059  -0.00069  -0.00992   0.00000  -0.00982   1.82077
   A50        1.83059  -0.00069  -0.00991   0.00000  -0.00982   1.82077
   A51        2.03112  -0.00130  -0.01630   0.00000  -0.01624   2.01488
   A52        1.66191   0.00140   0.01650   0.00000   0.01624   1.67815
   A53        1.67593   0.00086   0.01248   0.00000   0.01242   1.68835
   A54        2.47970   0.00071   0.00417   0.00000   0.00416   2.48386
   A55        2.05322   0.00010   0.00088   0.00000   0.00096   2.05418
    D1        1.33632   0.00044   0.00167   0.00000   0.00160   1.33792
    D2        0.21875   0.00016   0.00296   0.00000   0.00298   0.22173
    D3        2.43338  -0.00001  -0.00724   0.00000  -0.00718   2.42620
    D4        0.45434   0.00033   0.00380   0.00000   0.00364   0.45798
    D5       -0.66324   0.00005   0.00508   0.00000   0.00502  -0.65821
    D6        1.55140  -0.00012  -0.00512   0.00000  -0.00514   1.54626
    D7        0.22160   0.00000  -0.00447   0.00000  -0.00440   0.21720
    D8       -0.95001   0.00044  -0.00110   0.00000  -0.00107  -0.95109
    D9        0.95001  -0.00044   0.00111   0.00000   0.00108   0.95109
   D10       -0.22160   0.00000   0.00447   0.00000   0.00441  -0.21719
   D11       -1.33633  -0.00044  -0.00170   0.00000  -0.00164  -1.33797
   D12       -2.43344   0.00000   0.00717   0.00000   0.00709  -2.42634
   D13       -0.21873  -0.00015  -0.00293   0.00000  -0.00297  -0.22169
   D14       -0.45434  -0.00033  -0.00381   0.00000  -0.00365  -0.45800
   D15       -1.55145   0.00011   0.00506   0.00000   0.00508  -1.54637
   D16        0.66327  -0.00004  -0.00504   0.00000  -0.00498   0.65828
   D17       -1.02399   0.00044   0.00348   0.00000   0.00346  -1.02053
   D18        0.04562  -0.00016   0.00072   0.00000   0.00084   0.04646
   D19        0.01902  -0.00001   0.00193   0.00000   0.00188   0.02090
   D20        1.08863  -0.00061  -0.00083   0.00000  -0.00074   1.08789
   D21       -2.10298  -0.00021  -0.00203   0.00000  -0.00209  -2.10507
   D22       -1.08856  -0.00018  -0.00328   0.00000  -0.00324  -1.09181
   D23       -0.01838   0.00000  -0.00195   0.00000  -0.00191  -0.02029
   D24       -1.01443  -0.00004   0.00124   0.00000   0.00114  -1.01329
   D25       -0.00001   0.00000  -0.00002   0.00000  -0.00002  -0.00003
   D26        1.07017   0.00017   0.00132   0.00000   0.00132   1.07149
   D27       -1.56455  -0.00107  -0.01076   0.00000  -0.01066  -1.57521
   D28       -0.55013  -0.00104  -0.01202   0.00000  -0.01181  -0.56195
   D29        0.52005  -0.00087  -0.01068   0.00000  -0.01048   0.50958
   D30        0.00001   0.00000   0.00002   0.00000   0.00002   0.00003
   D31       -0.89626  -0.00001   0.00362   0.00000   0.00363  -0.89263
   D32        0.89627   0.00001  -0.00360   0.00000  -0.00361   0.89266
   D33        0.00000   0.00000   0.00000   0.00000   0.00000   0.00000
   D34        0.81205   0.00008  -0.00073   0.00000  -0.00062   0.81143
   D35       -0.28738   0.00006   0.00284   0.00000   0.00288  -0.28450
   D36       -1.34410  -0.00055   0.00396   0.00000   0.00396  -1.34015
   D37       -0.04562   0.00016  -0.00072   0.00000  -0.00084  -0.04647
   D38       -1.08865   0.00060   0.00080   0.00000   0.00071  -1.08795
   D39        1.02398  -0.00044  -0.00350   0.00000  -0.00346   1.02052
   D40       -0.01905   0.00001  -0.00197   0.00000  -0.00192  -0.02096
   D41        0.59493   0.00012   0.00907   0.00000   0.00925   0.60418
   D42        1.49748   0.00089   0.00570   0.00000   0.00595   1.50342
   D43       -0.37090   0.00136   0.02829   0.00000   0.02769  -0.34320
   D44        0.98558  -0.00034  -0.00434   0.00000  -0.00428   0.98130
   D45       -0.02028   0.00001  -0.00214   0.00000  -0.00210  -0.02238
   D46        0.02030   0.00000   0.00218   0.00000   0.00214   0.02244
   D47       -0.98555   0.00034   0.00438   0.00000   0.00432  -0.98123
   D48        0.50295  -0.00016  -0.00106   0.00000  -0.00105   0.50190
   D49       -0.50290   0.00018   0.00114   0.00000   0.00113  -0.50177
   D50       -0.59492  -0.00012  -0.00905   0.00000  -0.00924  -0.60415
   D51        0.37090  -0.00136  -0.02829   0.00000  -0.02769   0.34321
   D52       -1.49746  -0.00088  -0.00568   0.00000  -0.00592  -1.50338
   D53        0.00001   0.00000   0.00002   0.00000   0.00002   0.00003
   D54       -0.94565   0.00096   0.01029   0.00000   0.01017  -0.93548
   D55        0.94567  -0.00095  -0.01027   0.00000  -0.01015   0.93552
   D56        0.00000   0.00000   0.00000   0.00000   0.00000   0.00001
   D57        1.01442   0.00003  -0.00126   0.00000  -0.00116   1.01326
   D58        2.10302   0.00022   0.00208   0.00000   0.00214   2.10516
   D59        1.56456   0.00107   0.01077   0.00000   0.01067   1.57523
   D60       -0.00001   0.00000  -0.00002   0.00000  -0.00002  -0.00003
   D61        1.08859   0.00019   0.00332   0.00000   0.00328   1.09187
   D62        0.55013   0.00104   0.01201   0.00000   0.01181   0.56194
   D63       -1.07020  -0.00018  -0.00136   0.00000  -0.00136  -1.07155
   D64        0.01841   0.00001   0.00198   0.00000   0.00194   0.02035
   D65       -0.52005   0.00086   0.01067   0.00000   0.01047  -0.50958
   D66       -1.98211  -0.00043   0.00106   0.00000   0.00114  -1.98097
   D67       -0.90502  -0.00067   0.00000   0.00000   0.00004  -0.90498
   D68       -0.88252   0.00018   0.00371   0.00000   0.00366  -0.87885
   D69        0.19458  -0.00006   0.00264   0.00000   0.00256   0.19713
   D70       -0.02102   0.00000  -0.00227   0.00000  -0.00223  -0.02325
   D71        1.05607  -0.00024  -0.00334   0.00000  -0.00334   1.05274
   D72        0.83115   0.00033   0.01605   0.00000   0.01578   0.84693
   D73        0.98645   0.00006   0.00748   0.00000   0.00768   0.99413
   D74       -0.20845   0.00048   0.01259   0.00000   0.01270  -0.19574
   D75       -0.83108  -0.00032  -0.01596   0.00000  -0.01568  -0.84676
   D76       -0.98646  -0.00007  -0.00751   0.00000  -0.00770  -0.99417
   D77        0.20844  -0.00049  -0.01260   0.00000  -0.01271   0.19573
   D78        1.98209   0.00042  -0.00109   0.00000  -0.00118   1.98091
   D79        0.90501   0.00067  -0.00001   0.00000  -0.00005   0.90495
   D80        0.88250  -0.00019  -0.00374   0.00000  -0.00370   0.87880
   D81       -0.19459   0.00006  -0.00266   0.00000  -0.00257  -0.19716
   D82        0.02099  -0.00001   0.00223   0.00000   0.00219   0.02318
   D83       -1.05609   0.00023   0.00331   0.00000   0.00331  -1.05278
   D84       -0.81209  -0.00010   0.00068   0.00000   0.00058  -0.81151
   D85        0.28738  -0.00006  -0.00284   0.00000  -0.00288   0.28449
   D86        1.34413   0.00056  -0.00391   0.00000  -0.00391   1.34022
   D87       -0.50655  -0.00033  -0.00394   0.00000  -0.00398  -0.51053
   D88        0.52438  -0.00071  -0.01299   0.00000  -0.01264   0.51174
   D89        0.50656   0.00033   0.00396   0.00000   0.00400   0.51056
   D90       -0.52437   0.00071   0.01300   0.00000   0.01266  -0.51172
         Item               Value     Threshold  Converged?
 Maximum Force            0.010237     0.000450     NO 
 RMS     Force            0.002817     0.000300     NO 
 Maximum Displacement     0.095712     0.001800     NO 
 RMS     Displacement     0.018872     0.001200     NO 
 Predicted change in Energy=-1.203047D-02
 GradGradGradGradGradGradGradGradGradGradGradGradGradGradGradGradGradGrad

                          Input orientation:                          
 ---------------------------------------------------------------------
 Center     Atomic     Atomic              Coordinates (Angstroms)
 Number     Number      Type              X           Y           Z
 ---------------------------------------------------------------------
    1         14             0       -3.419547    0.469056   -0.000069
    2         14             0       -1.321156    1.956318    0.000035
    3         14             0        0.598896    1.239007    1.344225
    4         14             0        2.027269   -0.916207   -0.000064
    5         14             0       -1.564290   -0.557944   -1.256366
    6         14             0       -1.564279   -0.557927    1.256365
    7         14             0        0.598880    1.238872   -1.344106
    8         14             0        0.634035   -1.101323    2.256573
    9         14             0        2.529160    1.697203   -0.000003
   10         14             0       -0.091603   -2.328152    0.000002
   11         14             0        0.634002   -1.101364   -2.256594
 ---------------------------------------------------------------------
                    Distance matrix (angstroms):
                    1          2          3          4          5
     1  Si   0.000000
     2  Si   2.572001   0.000000
     3  Si   4.306720   2.451118   0.000000
     4  Si   5.620210   4.411729   2.914157   0.000000
     5  Si   2.464749   2.821200   3.830337   3.821773   0.000000
     6  Si   2.464820   2.821152   2.813542   3.821806   2.512731
     7  Si   4.306600   2.451119   2.688331   2.913951   2.813459
     8  Si   4.897964   4.273629   2.512123   2.658531   4.179550
     9  Si   6.074163   3.859025   2.396416   2.661166   4.839470
    10  Si   4.347365   4.457407   3.874060   2.546214   2.623148
    11  Si   4.897896   4.273691   4.294702   2.658458   2.475531
                    6          7          8          9         10
     6  Si   0.000000
     7  Si   3.830169   0.000000
     8  Si   2.475537   4.294490   0.000000
     9  Si   4.839454   2.396385   4.063912   0.000000
    10  Si   2.623151   3.873893   2.669039   4.803319   0.000000
    11  Si   4.179551   2.512085   4.513167   4.063964   2.669033
                   11
    11  Si   0.000000
 Stoichiometry    Si11
 Framework group  C1[X(Si11)]
 Deg. of freedom    27
 Full point group                 C1
 Largest Abelian subgroup         C1      NOp   1
 Largest concise Abelian subgroup C1      NOp   1
                         Standard orientation:                         
 ---------------------------------------------------------------------
 Center     Atomic     Atomic              Coordinates (Angstroms)
 Number     Number      Type              X           Y           Z
 ---------------------------------------------------------------------
    1         14             0        3.320474   -0.555228   -0.000140
    2         14             0        1.182808   -1.985464   -0.000406
    3         14             0       -0.717263   -1.217041    1.343929
    4         14             0       -2.087079    0.976155    0.000126
    5         14             0        1.493557    0.521634   -1.256218
    6         14             0        1.493502    0.521031    1.256513
    7         14             0       -0.717196   -1.216280   -1.344402
    8         14             0       -0.689406    1.123175    2.256823
    9         14             0       -2.659138   -1.622797   -0.000427
   10         14             0        0.069034    2.330550    0.000546
   11         14             0       -0.689293    1.124265   -2.256344
 ---------------------------------------------------------------------
 Rotational constants (GHZ):      0.4982856      0.3822970      0.3642365
 Standard basis: LANL2DZ (5D, 7F)
 There are    88 symmetry adapted basis functions of A   symmetry.
 Integral buffers will be    131072 words long.
 Raffenetti 2 integral format.
 Two-electron integral symmetry is turned on.
    88 basis functions,   132 primitive gaussians,    88 cartesian basis functions
    22 alpha electrons       22 beta electrons
       nuclear repulsion energy       142.4803960978 Hartrees.
 NAtoms=   11 NActive=   11 NUniq=   11 SFac= 7.50D-01 NAtFMM=   80 NAOKFM=F Big=F
 One-electron integrals computed using PRISM.
   1 Symmetry operations used in ECPInt.
 ECPInt:  NShTT=     990 NPrTT=    2233 LenC2=     991 LenP2D=    2156.
 LDataN:  DoStor=F MaxTD1= 3 Len=   28
 LDataN:  DoStor=T MaxTD1= 3 Len=   28
 NBasis=    88 RedAO= T  NBF=    88
 NBsUse=    88 1.00D-06 NBFU=    88
 Initial guess read from the read-write file:
 Initial guess orbital symmetries:
       Occupied  (A) (A) (A) (A) (A) (A) (A) (A) (A) (A) (A) (A)
                 (A) (A) (A) (A) (A) (A) (A) (A) (A) (A)
       Virtual   (A) (A) (A) (A) (A) (A) (A) (A) (A) (A) (A) (A)
                 (A) (A) (A) (A) (A) (A) (A) (A) (A) (A) (A) (A)
                 (A) (A) (A) (A) (A) (A) (A) (A) (A) (A) (A) (A)
                 (A) (A) (A) (A) (A) (A) (A) (A) (A) (A) (A) (A)
                 (A) (A) (A) (A) (A) (A) (A) (A) (A) (A) (A) (A)
[...]
 ! A18   A(8,4,11)             114.5925         -DE/DX =    0.0                 !
 ! A19   A(9,4,10)             132.0826         -DE/DX =    0.0                 !
 ! A20   A(9,4,11)              99.6646         -DE/DX =    0.0                 !
 ! A21   A(1,5,7)              110.3498         -DE/DX =    0.0                 !
 ! A22   A(1,5,10)             116.8204         -DE/DX =    0.0                 !
 ! A23   A(1,5,11)             166.3048         -DE/DX =    0.0                 !
 ! A24   A(2,5,10)             110.1733         -DE/DX =    0.0                 !
 ! A25   A(2,5,11)             108.8543         -DE/DX =    0.0                 !
 ! A26   A(6,5,7)               91.5591         -DE/DX =    0.0                 !
 ! A27   A(6,5,11)             113.1484         -DE/DX =    0.0                 !
 ! A28   A(7,5,10)              90.5206         -DE/DX =    0.0                 !
 ! A29   A(1,6,3)              110.3501         -DE/DX =    0.0                 !
 ! A30   A(1,6,8)              166.3052         -DE/DX =    0.0                 !
 ! A31   A(1,6,10)             116.8206         -DE/DX =    0.0                 !
 ! A32   A(2,6,8)              108.8545         -DE/DX =    0.0                 !
 ! A33   A(2,6,10)             110.1736         -DE/DX =    0.0                 !
 ! A34   A(3,6,5)               91.5595         -DE/DX =    0.0                 !
 ! A35   A(3,6,10)              90.5208         -DE/DX =    0.0                 !
 ! A36   A(5,6,8)              113.1488         -DE/DX =    0.0                 !
 ! A37   A(2,7,4)              111.916          -DE/DX =    0.0                 !
 ! A38   A(2,7,9)              107.2291         -DE/DX =    0.0                 !
 ! A39   A(2,7,11)             119.1691         -DE/DX =    0.0                 !
 ! A40   A(3,7,5)               88.4409         -DE/DX =    0.0                 !
 ! A41   A(3,7,11)             111.0094         -DE/DX =    0.0                 !
 ! A42   A(4,7,5)               84.888          -DE/DX =    0.0                 !
 ! A43   A(5,7,9)              136.7148         -DE/DX =    0.0                 !
 ! A44   A(9,7,11)             110.0789         -DE/DX =    0.0                 !
 ! A45   A(3,8,10)              95.674          -DE/DX =    0.0                 !
 ! A46   A(4,8,6)               97.3848         -DE/DX =    0.0                 !
 ! A47   A(4,10,5)              97.0787         -DE/DX =    0.0                 !
 ! A48   A(4,10,6)              97.0785         -DE/DX =    0.0                 !
 ! A49   A(5,10,8)             106.1542         -DE/DX =    0.0                 !
 ! A50   A(6,10,11)            106.1541         -DE/DX =    0.0                 !
 ! A51   A(8,10,11)            116.174          -DE/DX =    0.0                 !
 ! A52   A(4,11,5)              97.3849         -DE/DX =    0.0                 !
 ! A53   A(7,11,10)             95.674          -DE/DX =    0.0                 !
 ! A54   L(1,2,7,4,-1)         141.4697         -DE/DX =    0.0                 !
 ! A55   L(1,2,7,4,-2)         117.8123         -DE/DX =    0.0                 !
 ! D1    D(1,2,3,4)             76.1318         -DE/DX =    0.0                 !
 ! D2    D(1,2,3,8)             12.1548         -DE/DX =    0.0                 !
 ! D3    D(1,2,3,9)            137.9393         -DE/DX =    0.0                 !
 ! D4    D(5,2,3,4)             25.7804         -DE/DX =    0.0                 !
 ! D5    D(5,2,3,8)            -38.1966         -DE/DX =    0.0                 !
 ! D6    D(5,2,3,9)             87.5879         -DE/DX =    0.0                 !
 ! D7    D(3,2,5,10)            13.7619         -DE/DX =    0.0                 !
 ! D8    D(3,2,5,11)           -52.8245         -DE/DX =    0.0                 !
 ! D9    D(7,2,6,8)             52.8248         -DE/DX =    0.0                 !
 ! D10   D(7,2,6,10)           -13.7619         -DE/DX =    0.0                 !
 ! D11   D(1,2,7,4)            -76.1319         -DE/DX =    0.0                 !
 ! D12   D(1,2,7,9)           -137.9394         -DE/DX =    0.0                 !
 ! D13   D(1,2,7,11)           -12.1548         -DE/DX =    0.0                 !
 ! D14   D(6,2,7,4)            -25.7807         -DE/DX =    0.0                 !
 ! D15   D(6,2,7,9)            -87.5881         -DE/DX =    0.0                 !
 ! D16   D(6,2,7,11)            38.1965         -DE/DX =    0.0                 !
 ! D17   D(2,3,4,10)           -57.1634         -DE/DX =    0.0                 !
 ! D18   D(2,3,4,11)             2.293          -DE/DX =    0.0                 !
 ! D19   D(6,3,4,10)             2.1457         -DE/DX =    0.0                 !
 ! D20   D(6,3,4,11)            61.6021         -DE/DX =    0.0                 !
 ! D21   D(4,3,6,1)           -121.1188         -DE/DX =    0.0                 !
 ! D22   D(4,3,6,5)            -63.1783         -DE/DX =    0.0                 !
 ! D23   D(4,3,6,10)            -2.1309         -DE/DX =    0.0                 !
 ! D24   D(7,3,6,1)            -57.9406         -DE/DX =    0.0                 !
 ! D25   D(7,3,6,5)              0.0            -DE/DX =    0.0                 !
 ! D26   D(7,3,6,10)            61.0474         -DE/DX =    0.0                 !
 ! D27   D(9,3,6,1)            -91.5629         -DE/DX =    0.0                 !
 ! D28   D(9,3,6,5)            -33.6223         -DE/DX =    0.0                 !
 ! D29   D(9,3,6,10)            27.4251         -DE/DX =    0.0                 !
 ! D30   D(6,3,7,5)              0.0            -DE/DX =    0.0                 !
 ! D31   D(6,3,7,11)           -52.155          -DE/DX =    0.0                 !
 ! D32   D(8,3,7,5)             52.1548         -DE/DX =    0.0                 !
 ! D33   D(8,3,7,11)            -0.0002         -DE/DX =    0.0                 !
 ! D34   D(2,3,8,10)            45.7846         -DE/DX =    0.0                 !
 ! D35   D(7,3,8,10)           -17.8364         -DE/DX =    0.0                 !
 ! D36   D(9,3,8,10)           -78.6306         -DE/DX =    0.0                 !
 ! D37   D(8,4,7,2)             -2.2927         -DE/DX =    0.0                 !
 ! D38   D(8,4,7,5)            -61.6021         -DE/DX =    0.0                 !
 ! D39   D(10,4,7,2)            57.1638         -DE/DX =    0.0                 !
 ! D40   D(10,4,7,5)            -2.1456         -DE/DX =    0.0                 !
 ! D41   D(7,4,8,6)             33.0766         -DE/DX =    0.0                 !
 ! D42   D(9,4,8,6)             84.6962         -DE/DX =    0.0                 !
 ! D43   D(11,4,8,6)           -20.6844         -DE/DX =    0.0                 !
 ! D44   D(3,4,10,5)            56.0804         -DE/DX =    0.0                 !
 ! D45   D(3,4,10,6)            -2.3187         -DE/DX =    0.0                 !
 ! D46   D(7,4,10,5)             2.3186         -DE/DX =    0.0                 !
 ! D47   D(7,4,10,6)           -56.0805         -DE/DX =    0.0                 !
 ! D48   D(9,4,10,5)            29.1992         -DE/DX =    0.0                 !
 ! D49   D(9,4,10,6)           -29.1999         -DE/DX =    0.0                 !
 ! D50   D(3,4,11,5)           -33.0768         -DE/DX =    0.0                 !
 ! D51   D(8,4,11,5)            20.6843         -DE/DX =    0.0                 !
 ! D52   D(9,4,11,5)           -84.6965         -DE/DX =    0.0                 !
 ! D53   D(7,5,6,3)              0.0            -DE/DX =    0.0                 !
 ! D54   D(7,5,6,8)            -54.2015         -DE/DX =    0.0                 !
 ! D55   D(11,5,6,3)            54.2014         -DE/DX =    0.0                 !
 ! D56   D(11,5,6,8)            -0.0002         -DE/DX =    0.0                 !
 ! D57   D(1,5,7,3)             57.9403         -DE/DX =    0.0                 !
 ! D58   D(1,5,7,4)            121.1184         -DE/DX =    0.0                 !
 ! D59   D(1,5,7,9)             91.5629         -DE/DX =    0.0                 !
 ! D60   D(6,5,7,3)              0.0            -DE/DX =    0.0                 !
 ! D61   D(6,5,7,4)             63.1781         -DE/DX =    0.0                 !
 ! D62   D(6,5,7,9)             33.6226         -DE/DX =    0.0                 !
 ! D63   D(10,5,7,3)           -61.0473         -DE/DX =    0.0                 !
 ! D64   D(10,5,7,4)             2.1308         -DE/DX =    0.0                 !
 ! D65   D(10,5,7,9)           -27.4247         -DE/DX =    0.0                 !
 ! D66   D(1,5,10,4)          -115.6668         -DE/DX =    0.0                 !
 ! D67   D(1,5,10,8)           -53.5444         -DE/DX =    0.0                 !
 ! D68   D(2,5,10,4)           -52.3594         -DE/DX =    0.0                 !
 ! D69   D(2,5,10,8)             9.763          -DE/DX =    0.0                 !
 ! D70   D(7,5,10,4)            -2.4457         -DE/DX =    0.0                 !
 ! D71   D(7,5,10,8)            59.6766         -DE/DX =    0.0                 !
 ! D72   D(1,5,11,4)            42.9735         -DE/DX =    0.0                 !
 ! D73   D(2,5,11,4)            56.4181         -DE/DX =    0.0                 !
 ! D74   D(6,5,11,4)           -11.9789         -DE/DX =    0.0                 !
 ! D75   D(1,6,8,4)            -42.9745         -DE/DX =    0.0                 !
 ! D76   D(2,6,8,4)            -56.4183         -DE/DX =    0.0                 !
 ! D77   D(5,6,8,4)             11.9791         -DE/DX =    0.0                 !
 ! D78   D(1,6,10,4)           115.6673         -DE/DX =    0.0                 !
 ! D79   D(1,6,10,11)           53.5448         -DE/DX =    0.0                 !
 ! D80   D(2,6,10,4)            52.3596         -DE/DX =    0.0                 !
 ! D81   D(2,6,10,11)           -9.7629         -DE/DX =    0.0                 !
 ! D82   D(3,6,10,4)             2.4458         -DE/DX =    0.0                 !
 ! D83   D(3,6,10,11)          -59.6767         -DE/DX =    0.0                 !
 ! D84   D(2,7,11,10)          -45.7845         -DE/DX =    0.0                 !
 ! D85   D(3,7,11,10)           17.8367         -DE/DX =    0.0                 !
 ! D86   D(9,7,11,10)           78.631          -DE/DX =    0.0                 !
 ! D87   D(3,8,10,5)           -28.0225         -DE/DX =    0.0                 !
 ! D88   D(3,8,10,11)           32.7452         -DE/DX =    0.0                 !
 ! D89   D(6,10,11,7)           28.0222         -DE/DX =    0.0                 !
 ! D90   D(8,10,11,7)          -32.7453         -DE/DX =    0.0                 !
 --------------------------------------------------------------------------------
 GradGradGradGradGradGradGradGradGradGradGradGradGradGradGradGradGradGrad

 1\1\GINC-NODE24\Freq\RB3LYP\6-311+G(d)\Si11\TAM\04-Apr-2011\0\\#N Geom
 =AllCheck Guess=Read SCRF=Check GenChk RB3LYP/6-311+G(d) Freq\\si11-n\
 \0,1\Si,-3.3618309122,0.4434573237,-0.0000084296\Si,-1.3364578032,1.91
 1033775,-0.0000081884\Si,0.5709438139,1.203111308,1.2948182647\Si,2.02
 07445628,-0.9038615703,0.0000129473\Si,-1.5241705765,-0.522302337,-1.2
 209402787\Si,-1.5241733115,-0.5222926335,1.2209288626\Si,0.5709476165,
 1.2031014881,-1.2948192354\Si,0.6361023811,-1.090190685,2.1759263765\S
 i,2.4865911421,1.6247753092,-0.0000012964\Si,-0.1134466549,-2.21909010
 96,0.0000048579\Si,0.636116742,-1.0902028686,-2.1759149715\\Version=AM
 64L-G03RevE.01\State=1-A\HF=-3184.5969007\RMSD=5.868e-09\RMSF=1.018e-0
 5\ZeroPoint=0.0162415\Thermal=0.0321276\Dipole=-0.4195203,0.2192525,-0
 .0000032\DipoleDeriv=0.4815936,-0.1526263,0.0000012,-0.1343814,0.23466
 18,-0.0000007,0.0000004,-0.0000006,0.1642375,-0.2522351,-0.1779995,0.0
 000007,0.0740217,-0.1299766,0.0000006,0.0000007,-0.000001,-0.1199012,-
 0.1242472,-0.0133894,0.0796731,-0.133224,-0.0244139,0.069078,0.1523894
 ,-0.0406936,-0.1795864,-0.0624782,-0.019871,0.0000007,0.075134,-0.2857
 188,0.0000006,0.,0.0000005,-0.1407474,-0.0910343,0.1661979,0.1179349,0
 .1074145,-0.1176459,-0.0043708,0.0931102,0.0002239,-0.0820345,-0.09103
 17,0.1661986,-0.1179347,0.1074154,-0.1176455,0.0043704,-0.0931099,-0.0
 002226,-0.0820362,-0.1242448,-0.0133896,-0.0796724,-0.133226,-0.024413
 5,-0.0690793,-0.1523883,0.0406941,-0.1795883,0.0549905,-0.0436899,0.10
 04718,-0.0323953,0.0510117,-0.1862367,0.1571634,-0.1629389,0.2624748,0
 .3325248,0.1305884,0.0000002,0.1197934,0.1243728,0.0000008,-0.0000012,
 -0.0000005,0.1701492,-0.1788316,0.0016726,-0.0000003,-0.0181564,0.2387
 541,-0.0000006,-0.0000002,-0.0000013,-0.0754405,0.054994,-0.0436916,-0
 .1004751,-0.0323959,0.0510137,0.1862376,-0.1571645,0.16294,0.2624729\P
 olar=392.8821176,-2.0548609,319.3564631,0.0002849,-0.0000263,299.89398
 1\PG=C01 [X(Si11)]\NImag=0\\0.11527754,-0.01786249,0.03987970,0.000000
 45,-0.00000015,0.02688305,-0.02731341,-0.02111474,0.00000002,0.1080141
 3,-0.01933674,-0.01236475,-0.00000004,-0.00315541,0.06080144,0.0000000
 3,-0.00000003,-0.00853607,-0.00000016,-0.00000006,0.05109498,-0.003832
 36,-0.00197348,-0.00323787,-0.03492860,0.00771755,-0.02168287,0.106479
 69,0.00080652,-0.00060409,-0.00286407,0.00998863,-0.00829424,0.0132089
 2,0.01045359,0.06989541,0.00347572,-0.00201674,0.00326085,-0.01344734,
 0.00886576,-0.01538635,-0.00612270,-0.01909198,0.08256475,-0.00738533,
 -0.00386686,0.,0.00262659,-0.00103292,0.,-0.00303142,0.00168420,0.0013
 4154,0.06268782,0.00006424,0.00043759,0.,0.00917003,-0.00515907,0.0000
 0005,0.00057930,0.00137150,-0.00724093,0.02018662,0.04915063,-0.000000
 03,-0.00000002,-0.00413954,-0.00000002,0.00000002,-0.00223894,0.000383
 27,-0.00408696,-0.00196900,-0.00000026,-0.00000007,0.03324009,-0.03806
 998,0.02165172,0.02220574,-0.00165049,0.00109080,-0.00535236,-0.001366
 54,-0.00438262,0.00190420,-0.00923523,0.00294904,-0.00544241,0.1015358
 9,0.01912765,-0.01365993,-0.01088913,0.00127014,-0.01187662,-0.0072042
 5,-0.00573756,-0.00027239,-0.00393603,0.00038827,-0.00229341,0.0048517
 8,-0.03731247,0.05020893,0.02259388,-0.00735389,-0.00784428,-0.0043698
 4,-0.00082673,-0.00220685,-0.00516105,-0.00050105,-0.00629811,0.006263
 96,0.00080887,0.00388400,-0.02036695,0.01107443,0.08318671,-0.03807046
 ,0.02165183,-0.02220617,-0.00165041,0.00109087,0.00535235,-0.00421627,
 -0.00833803,-0.00231242,-0.00923528,0.00294904,0.00544230,0.00302769,0
 .00095825,-0.00145097,0.10153667,0.01912775,-0.01365996,0.01088930,0.0
 0127014,-0.01187690,0.00720448,-0.00856967,-0.00318375,0.00062666,0.00
 038825,-0.00229344,-0.00485176,0.00095825,0.00377844,-0.00376749,-0.03
 731286,0.05020956,-0.02259432,0.00735408,-0.00784474,0.00436985,0.0008
 2694,-0.00220692,0.00124702,-0.00041996,0.00221222,-0.00626401,-0.0008
 0887,0.00388402,0.00145093,0.00376712,-0.04812367,0.02036782,-0.011074
 43,0.08318753,-0.00383240,-0.00197342,0.00323789,-0.03492922,0.0077179
 2,0.02168302,0.01043725,0.00063730,-0.00046494,-0.00303130,0.00057919,
 -0.00038322,-0.00421618,-0.00856970,-0.00124704,-0.00136661,-0.0057375
 0,0.00516107,0.10648061,0.00080648,-0.00060408,0.00286411,0.00998896,-
 0.00829440,-0.01320909,0.00063726,-0.01121172,-0.00009852,0.00168419,0
 .00137176,0.00408690,-0.00833804,-0.00318373,0.00041989,-0.00438268,-0
 .00027229,0.00050104,0.01045345,0.06989590,-0.00347575,0.00201678,0.00
 326077,0.01344744,-0.00886588,-0.01538609,0.00046504,0.00009835,-0.033
 76761,-0.00134153,0.00724084,-0.00196909,0.00231232,-0.00062680,0.0022
 1222,-0.00190408,0.00393597,-0.00629808,0.00612276,0.01909252,0.082564
 68,0.00303029,-0.00119517,-0.00085372,0.00005155,0.00130040,-0.0032525
 4,-0.00134765,0.00148495,-0.00144532,-0.00495895,-0.00174545,0.0070725
 9,-0.00198238,0.00024042,-0.00639829,-0.03639959,0.01450260,-0.0177292
 9,-0.00424849,0.00078078,0.00438251,0.04834614,-0.00136843,-0.00162450
 ,-0.00079418,-0.00134965,-0.00114198,0.00367327,0.00308591,-0.03409134
 ,0.01800324,0.00299896,-0.00070110,0.00053853,-0.00252588,-0.00284367,
 -0.00054009,0.01199018,0.00002667,0.00623476,0.00454792,-0.00120315,0.
 00454525,-0.01001826,0.05184186,0.00103952,-0.00045018,-0.00177783,0.0
 0126481,-0.00213979,-0.00105459,-0.00197684,0.01414953,-0.01171973,0.0
 0323551,0.00319549,-0.01879475,-0.00086993,0.00197772,-0.00621204,-0.0
 1501429,0.00625482,-0.00754170,-0.00087439,0.00333991,-0.00616614,0.02
 101490,-0.02388540,0.08178463,-0.00256960,0.00421055,-0.00000003,-0.01
 046745,-0.00185865,-0.00000001,-0.05748542,-0.01028134,0.02057800,0.01
 075461,-0.00929666,0.00000002,-0.00021805,0.00059905,0.00109300,-0.000
 21808,0.00059897,-0.00109297,-0.05748587,-0.01028156,-0.02057837,0.000
 43613,-0.00296021,-0.00169515,0.11645284,-0.00036410,0.00459917,-0.000
 00004,-0.00300206,0.00465810,0.,-0.01036376,-0.00333944,0.00874830,-0.
 00426216,-0.03031013,0.00000017,0.00389428,-0.00274296,-0.00100148,0.0
 0389431,-0.00274294,0.00100153,-0.01036414,-0.00333961,-0.00874850,-0.
 00214069,-0.00278806,-0.00111600,0.02672177,0.04137238,0.,-0.00000004,
 -0.00177220,0.00000003,-0.00000006,-0.00053706,0.03397898,0.01095605,-
 0.01372202,0.00000001,0.00000014,-0.00013280,-0.00203765,-0.00311055,-
 0.00310730,0.00203767,0.00311059,-0.00310735,-0.03397939,-0.01095616,-
 0.01372213,0.00321868,0.00371849,-0.00165437,0.00000031,0.00000007,0.0
 4362736,-0.00026457,0.00166725,-0.00000002,0.00019575,0.00516575,0.,-0
 .00646019,-0.00283394,0.00087578,-0.03423285,-0.02368997,-0.00000012,-
 0.01142511,0.01453333,-0.00868550,-0.01142522,0.01453363,0.00868547,-0
 .00646016,-0.00283397,-0.00087576,0.00396354,-0.00335010,-0.00563044,0
 .00036473,-0.00187274,-0.00000001,0.06178065,0.00036757,-0.00077466,0.
 00000001,-0.00171639,-0.00530960,-0.00000002,-0.00037715,-0.00906681,0
 .00068547,-0.02116755,-0.01087322,-0.00000001,0.01002472,-0.01714131,0
 .00792217,0.01002496,-0.01714169,-0.00792225,-0.00037717,-0.00906680,-
 0.00068533,-0.00215908,-0.00222554,-0.00341089,0.00550831,-0.00257842,
 -0.00000004,0.00203096,0.07640366,0.,0.00000001,0.00028796,-0.00000003
 ,0.00000002,-0.00248753,0.00123268,-0.00810892,0.00099110,-0.00000010,
 0.00000002,0.00703048,-0.00881772,0.01035041,-0.00794951,0.00881771,-0
 .01035040,-0.00794933,-0.00123269,0.00810891,0.00099100,-0.00650317,-0
 .00940906,-0.02264636,0.00000003,-0.00000003,-0.00421778,-0.00000013,-
 0.00000007,0.05859655,0.00303027,-0.00119520,0.00085373,0.00005157,0.0
 0130043,0.00325252,-0.00424848,0.00078074,-0.00438252,-0.00495866,-0.0
 0174538,-0.00707212,-0.03639962,0.01450261,0.01772880,-0.00198245,0.00
 024046,0.00639842,-0.00134763,0.00148513,0.00144543,-0.00689059,-0.001
 05043,-0.00049370,0.00043617,-0.00214071,-0.00321862,0.00396342,-0.002
 15917,0.00650343,0.04834599,-0.00136845,-0.00162449,0.00079417,-0.0013
 4964,-0.00114197,-0.00367327,0.00454802,-0.00120312,-0.00454524,0.0029
 9902,-0.00070110,-0.00053858,0.01199020,0.00002666,-0.00623463,-0.0025
 2587,-0.00284371,0.00054003,0.00308613,-0.03409189,-0.01800321,-0.0010
 5049,-0.00524920,0.00208479,-0.00296023,-0.00278808,-0.00371849,-0.003
 35022,-0.00222560,0.00940911,-0.01001847,0.05184251,-0.00103951,0.0004
 5017,-0.00177797,-0.00126476,0.00213981,-0.00105457,0.00087432,-0.0033
 3990,-0.00616611,-0.00323512,-0.00319555,-0.01879447,0.01501385,-0.006
 25470,-0.00754116,0.00087009,-0.00197777,-0.00621197,0.00197692,-0.014
 14952,-0.01171953,0.00049366,-0.00208480,-0.00421709,0.00169517,0.0011
 1598,-0.00165433,0.00563075,0.00341096,-0.02264658,-0.02101537,0.02388
 532,0.08178379\\0.00000458,0.00001368,0.00000002,-0.00000156,0.0000083
 9,0.,0.00000330,-0.00001055,0.00000779,-0.00001131,-0.00002079,0.00000
 012,-0.00000366,-0.00000266,-0.00000114,-0.00000340,-0.00000257,0.0000
 0090,0.00000324,-0.00001074,-0.00000758,-0.00000737,0.00000324,0.00000
 015,0.00003505,-0.00000655,-0.00000005,-0.00001148,0.00002528,0.,-0.00
 000741,0.00000328,-0.00000021\\\@


 WAR ES EIN GOTT DER DIESE ZEICHEN SCHRIEB?
          - LUDWIG BOLTZMANN, QUOTING GOETHE, ABOUT MAXWELL'S EQUATIONS.
 Job cpu time:  0 days  2 hours 25 minutes 47.1 seconds.
 File lengths (MBytes):  RWF=    220 Int=      0 D2E=      0 Chk=     14 Scr=      1
 Normal termination of Gaussian 03 at Mon Apr  4 18:22:00 2011.
