 Entering Gaussian System, Link 0=g16
 Input=Si11-anion-doublet.com
 Output=Si11-anion-doublet.log
 Initial command:
 /cm/shared/apps/spack/cpu/opt/spack/linux-centos8-zen/gcc-8.3.1/gaussian-16.C.01-po5bqktfeugvmjyga3v7eigbecnokxng/g16/l1.exe "/scratch/gridchem/job_39134909/Gau-2290601.inp" -scrdir="/scratch/gridchem/job_39134909/"
 Entering Link 1 = /cm/shared/apps/spack/cpu/opt/spack/linux-centos8-zen/gcc-8.3.1/gaussian-16.C.01-po5bqktfeugvmjyga3v7eigbecnokxng/g16/l1.exe PID=   2290602.
  
 Copyright (c) 1988-2019, Gaussian, Inc.  All Rights Reserved.
  
 This is part of the Gaussian(R) 16 program.  It is based on
 the Gaussian(R) 09 system (copyright 2009, Gaussian, Inc.),
 the Gaussian(R) 03 system (copyright 2003, Gaussian, Inc.),
 the Gaussian(R) 98 system (copyright 1998, Gaussian, Inc.),
 the Gaussian(R) 94 system (copyright 1995, Gaussian, Inc.),
 the Gaussian 92(TM) system (copyright 1992, Gaussian, Inc.),
 the Gaussian 90(TM) system (copyright 1990, Gaussian, Inc.),
 the Gaussian 88(TM) system (copyright 1988, Gaussian, Inc.),
 the Gaussian 86(TM) system (copyright 1986, Carnegie Mellon
 University), and the Gaussian 82(TM) system (copyright 1983,
 Carnegie Mellon University). Gaussian is a federally registered
 trademark of Gaussian, Inc.
  
 This software contains proprietary and confidential information,
 including trade secrets, belonging to Gaussian, Inc.
  
 This software is provided under written license and may be
 used, copied, transmitted, or stored only in accord with that
 written license.
  
 The following legend is applicable only to US Government
 contracts under FAR:
  
                    RESTRICTED RIGHTS LEGEND
  
 Use, reproduction and disclosure by the US Government is
 subject to restrictions as set forth in subparagraphs (a)
 and (c) of the Commercial Computer Software - Restricted
 Rights clause in FAR 52.227-19.
  
 Gaussian, Inc.
 340 Quinnipiac St., Bldg. 40, Wallingford CT 06492
  
  
 ---------------------------------------------------------------
 Warning -- This program may not be used in any manner that
 competes with the business of Gaussian, Inc. or will provide
 assistance to any competitor of Gaussian, Inc.  The licensee
 of this program is prohibited from giving any competitor of
 Gaussian, Inc. access to this program.  By using this program,
 the user acknowledges that Gaussian, Inc. is engaged in the
 business of creating and licensing software in the field of
 computational chemistry and represents and warrants to the
 licensee that it is not a competitor of Gaussian, Inc. and that
 it will not use this program in any manner prohibited above.
 ---------------------------------------------------------------
  

 Cite this work as:
 Gaussian 16, Revision C.01,
 M. J. Frisch, G. W. Trucks, H. B. Schlegel, G. E. Scuseria, 
 M. A. Robb, J. R. Cheeseman, G. Scalmani, V. Barone, 
 G. A. Petersson, H. Nakatsuji, X. Li, M. Caricato, A. V. Marenich, 
 J. Bloino, B. G. Janesko, R. Gomperts, B. Mennucci, H. P. Hratchian, 
 J. V. Ortiz, A. F. Izmaylov, J. L. Sonnenberg, D. Williams-Young, 
 F. Ding, F. Lipparini, F. Egidi, J. Goings, B. Peng, A. Petrone, 
 T. Henderson, D. Ranasinghe, V. G. Zakrzewski, J. Gao, N. Rega, 
 G. Zheng, W. Liang, M. Hada, M. Ehara, K. Toyota, R. Fukuda, 
 J. Hasegawa, M. Ishida, T. Nakajima, Y. Honda, O. Kitao, H. Nakai, 
 T. Vreven, K. Throssell, J. A. Montgomery, Jr., J. E. Peralta, 
 F. Ogliaro, M. J. Bearpark, J. J. Heyd, E. N. Brothers, K. N. Kudin, 
 V. N. Staroverov, T. A. Keith, R. Kobayashi, J. Normand, 
 K. Raghavachari, A. P. Rendell, J. C. Burant, S. S. Iyengar, 
 J. Tomasi, M. Cossi, J. M. Millam, M. Klene, C. Adamo, R. Cammi, 
 J. W. Ochterski, R. L. Martin, K. Morokuma, O. Farkas, 
 J. B. Foresman, and D. J. Fox, Gaussian, Inc., Wallingford CT, 2019.
 
 ******************************************
 Gaussian 16:  ES64L-G16RevC.01  3-Jul-2019
                 6-May-2025 
 ******************************************
 --------------------------------------------------
 #p b3lyp opt=(noeigentest) freq 6-311+g(d) scf=xqc
 --------------------------------------------------
 1/11=1,18=20,19=15,26=3,38=1/1,3;
 2/9=110,12=2,17=6,18=5,40=1/2;
 3/5=4,6=6,7=11,11=2,25=1,30=1,71=1,74=-5/1,2,3;
 4//1;
 5/5=2,8=3,13=1,38=5/2,8;
 6/7=2,8=2,9=2,10=2,28=1/1;
 7//1,2,3,16;
 1/11=1,18=20,19=15,26=3/3(2);
 2/9=110/2;
 99//99;
 2/9=110/2;
 3/5=4,6=6,7=11,11=2,25=1,30=1,71=1,74=-5/1,2,3;
 4/5=5,16=3,69=1/1;
 5/5=2,8=3,13=1,38=5/2,8;
 7//1,2,3,16;
 1/11=1,18=20,19=15,26=3/3(-5);
 2/9=110/2;
 6/7=2,8=2,9=2,10=2,19=2,28=1/1;
 99/9=1/99;
 Leave Link    1 at Tue May  6 03:56:32 2025, MaxMem=           0 cpu:               0.0 elap:               0.0
 (Enter /cm/shared/apps/spack/cpu/opt/spack/linux-centos8-zen/gcc-8.3.1/gaussian-16.C.01-po5bqktfeugvmjyga3v7eigbecnokxng/g16/l101.exe)
 ------------------
 Si11-anion-doublet
 ------------------
 Symbolic Z-matrix:
 Charge = -1 Multiplicity = 2
 Si                    0.12964  -3.24493   0. 
 Si                   -1.75566  -1.69416   0. 
 Si                   -1.67805   0.33629   1.33743 
 Si                    1.52274   2.34602   0. 
 Si                    0.5639   -1.23014  -1.26168 
 Si                    0.5639   -1.23014   1.26168 
 Si                   -1.67805   0.33629  -1.33743 
 Si                    0.5639    1.06817   1.97399 
 Si                   -1.0017    2.2294    0. 
 Si                    2.20548   0.01503   0. 
 Si                    0.5639    1.06817  -1.97399 
 
 Add atom      1 valence  3 ND=      0 dihedral       2      1      5      6
 ITRead=  0  0  0  0  0  0  0  0  0  0  0
 MicOpt= -1 -1 -1 -1 -1 -1 -1 -1 -1 -1 -1
 NAtoms=     11 NQM=       11 NQMF=       0 NMMI=      0 NMMIF=      0
                NMic=       0 NMicF=      0.
                    Isotopes and Nuclear Properties:
 (Nuclear quadrupole moments (NQMom) in fm**2, nuclear magnetic moments (NMagM)
  in nuclear magnetons)

  Atom         1           2           3           4           5           6           7           8           9          10
 IAtWgt=          28          28          28          28          28          28          28          28          28          28
 AtmWgt=  27.9769284  27.9769284  27.9769284  27.9769284  27.9769284  27.9769284  27.9769284  27.9769284  27.9769284  27.9769284
 NucSpn=           0           0           0           0           0           0           0           0           0           0
 AtZEff=  -0.0000000  -0.0000000  -0.0000000  -0.0000000  -0.0000000  -0.0000000  -0.0000000  -0.0000000  -0.0000000  -0.0000000
 NQMom=    0.0000000   0.0000000   0.0000000   0.0000000   0.0000000   0.0000000   0.0000000   0.0000000   0.0000000   0.0000000
 NMagM=    0.0000000   0.0000000   0.0000000   0.0000000   0.0000000   0.0000000   0.0000000   0.0000000   0.0000000   0.0000000
 AtZNuc=  14.0000000  14.0000000  14.0000000  14.0000000  14.0000000  14.0000000  14.0000000  14.0000000  14.0000000  14.0000000

  Atom        11
 IAtWgt=          28
 AtmWgt=  27.9769284
 NucSpn=           0
 AtZEff=  -0.0000000
 NQMom=    0.0000000
 NMagM=    0.0000000
 AtZNuc=  14.0000000
 Leave Link  101 at Tue May  6 03:56:33 2025, MaxMem=   104857600 cpu:               0.1 elap:               0.0
 (Enter /cm/shared/apps/spack/cpu/opt/spack/linux-centos8-zen/gcc-8.3.1/gaussian-16.C.01-po5bqktfeugvmjyga3v7eigbecnokxng/g16/l103.exe)

 GradGradGradGradGradGradGradGradGradGradGradGradGradGradGradGradGradGrad
 Berny optimization.
 Initialization pass.
                           ----------------------------
                           !    Initial Parameters    !
                           ! (Angstroms and Degrees)  !
 --------------------------                            --------------------------
 ! Name  Definition              Value          Derivative Info.                !
 --------------------------------------------------------------------------------
 ! R1    R(1,2)                  2.4412         estimate D2E/DX2                !
 ! R2    R(1,5)                  2.4166         estimate D2E/DX2                !
 ! R3    R(1,6)                  2.4166         estimate D2E/DX2                !
 ! R4    R(2,3)                  2.4326         estimate D2E/DX2                !
 ! R5    R(2,5)                  2.681          estimate D2E/DX2                !
 ! R6    R(2,6)                  2.681          estimate D2E/DX2                !
 ! R7    R(2,7)                  2.4326         estimate D2E/DX2                !
 ! R8    R(3,6)                  2.736          estimate D2E/DX2                !
 ! R9    R(3,7)                  2.6749         estimate D2E/DX2                !
 ! R10   R(3,8)                  2.4428         estimate D2E/DX2                !
 ! R11   R(3,9)                  2.4145         estimate D2E/DX2                !
 ! R12   R(4,8)                  2.5395         estimate D2E/DX2                !
 ! R13   R(4,9)                  2.5271         estimate D2E/DX2                !
 ! R14   R(4,10)                 2.4289         estimate D2E/DX2                !
 ! R15   R(4,11)                 2.5395         estimate D2E/DX2                !
 ! R16   R(5,6)                  2.5234         estimate D2E/DX2                !
 ! R17   R(5,7)                  2.736          estimate D2E/DX2                !
 ! R18   R(5,10)                 2.416          estimate D2E/DX2                !
 ! R19   R(5,11)                 2.4062         estimate D2E/DX2                !
 ! R20   R(6,8)                  2.4062         estimate D2E/DX2                !
 ! R21   R(6,10)                 2.416          estimate D2E/DX2                !
 ! R22   R(7,9)                  2.4145         estimate D2E/DX2                !
 ! R23   R(7,11)                 2.4428         estimate D2E/DX2                !
 ! R24   R(8,9)                  2.7742         estimate D2E/DX2                !
 ! R25   R(8,10)                 2.775          estimate D2E/DX2                !
 ! R26   R(9,11)                 2.7742         estimate D2E/DX2                !
 ! R27   R(10,11)                2.775          estimate D2E/DX2                !
 ! A1    A(1,2,3)              120.3714         estimate D2E/DX2                !
 ! A2    A(1,2,7)              120.3714         estimate D2E/DX2                !
 ! A3    A(3,2,5)               94.9717         estimate D2E/DX2                !
 ! A4    A(6,2,7)               94.9717         estimate D2E/DX2                !
 ! A5    A(2,3,8)              115.0011         estimate D2E/DX2                !
 ! A6    A(2,3,9)              111.0289         estimate D2E/DX2                !
 ! A7    A(6,3,7)               88.4136         estimate D2E/DX2                !
 ! A8    A(6,3,9)              101.7721         estimate D2E/DX2                !
 ! A9    A(7,3,8)              105.1051         estimate D2E/DX2                !
 ! A10   A(8,4,11)             102.0324         estimate D2E/DX2                !
 ! A11   A(9,4,10)             103.6802         estimate D2E/DX2                !
 ! A12   A(1,5,7)              110.1536         estimate D2E/DX2                !
 ! A13   A(1,5,10)             106.2094         estimate D2E/DX2                !
 ! A14   A(1,5,11)             161.9764         estimate D2E/DX2                !
 ! A15   A(2,5,10)             115.5509         estimate D2E/DX2                !
 ! A16   A(2,5,11)             107.7365         estimate D2E/DX2                !
 ! A17   A(6,5,7)               91.5864         estimate D2E/DX2                !
 ! A18   A(6,5,11)             107.2197         estimate D2E/DX2                !
 ! A19   A(7,5,10)             106.0307         estimate D2E/DX2                !
 ! A20   A(1,6,3)              110.1536         estimate D2E/DX2                !
 ! A21   A(1,6,8)              161.9764         estimate D2E/DX2                !
 ! A22   A(1,6,10)             106.2094         estimate D2E/DX2                !
 ! A23   A(2,6,8)              107.7365         estimate D2E/DX2                !
 ! A24   A(2,6,10)             115.5509         estimate D2E/DX2                !
 ! A25   A(3,6,5)               91.5864         estimate D2E/DX2                !
 ! A26   A(3,6,10)             106.0307         estimate D2E/DX2                !
 ! A27   A(5,6,8)              107.2197         estimate D2E/DX2                !
 ! A28   A(2,7,9)              111.0289         estimate D2E/DX2                !
 ! A29   A(2,7,11)             115.0011         estimate D2E/DX2                !
 ! A30   A(3,7,5)               88.4136         estimate D2E/DX2                !
 ! A31   A(3,7,11)             105.1051         estimate D2E/DX2                !
 ! A32   A(5,7,9)              101.7721         estimate D2E/DX2                !
 ! A33   A(3,8,4)              107.1413         estimate D2E/DX2                !
 ! A34   A(3,8,10)             104.1138         estimate D2E/DX2                !
 ! A35   A(4,8,6)              104.5085         estimate D2E/DX2                !
 ! A36   A(6,8,9)              100.9046         estimate D2E/DX2                !
 ! A37   A(9,8,10)              89.2286         estimate D2E/DX2                !
 ! A38   A(3,9,4)              108.4208         estimate D2E/DX2                !
 ! A39   A(3,9,11)             102.9454         estimate D2E/DX2                !
 ! A40   A(4,9,7)              108.4208         estimate D2E/DX2                !
 ! A41   A(7,9,8)              102.9454         estimate D2E/DX2                !
 ! A42   A(8,9,11)              90.7227         estimate D2E/DX2                !
 ! A43   A(4,10,5)             107.675          estimate D2E/DX2                !
 ! A44   A(4,10,6)             107.675          estimate D2E/DX2                !
 ! A45   A(5,10,8)              99.5049         estimate D2E/DX2                !
 ! A46   A(6,10,11)             99.5049         estimate D2E/DX2                !
 ! A47   A(8,10,11)             90.6902         estimate D2E/DX2                !
 ! A48   A(4,11,5)             104.5085         estimate D2E/DX2                !
 ! A49   A(4,11,7)             107.1413         estimate D2E/DX2                !
 ! A50   A(5,11,9)             100.9046         estimate D2E/DX2                !
 ! A51   A(7,11,10)            104.1138         estimate D2E/DX2                !
 ! A52   A(9,11,10)             89.2286         estimate D2E/DX2                !
 ! D1    D(2,1,5,6)             74.9334         estimate D2E/DX2                !
 ! D2    D(1,2,3,8)             20.5517         estimate D2E/DX2                !
 ! D3    D(1,2,3,9)             97.1556         estimate D2E/DX2                !
 ! D4    D(5,2,3,8)            -32.6856         estimate D2E/DX2                !
 ! D5    D(5,2,3,9)             43.9182         estimate D2E/DX2                !
 ! D6    D(3,2,5,10)            30.2582         estimate D2E/DX2                !
 ! D7    D(3,2,5,11)           -45.8515         estimate D2E/DX2                !
 ! D8    D(7,2,6,8)             45.8515         estimate D2E/DX2                !
 ! D9    D(7,2,6,10)           -30.2582         estimate D2E/DX2                !
 ! D10   D(1,2,7,9)            -97.1556         estimate D2E/DX2                !
 ! D11   D(1,2,7,11)           -20.5517         estimate D2E/DX2                !
 ! D12   D(6,2,7,9)            -43.9182         estimate D2E/DX2                !
 ! D13   D(6,2,7,11)            32.6856         estimate D2E/DX2                !
 ! D14   D(7,3,6,1)            -56.8936         estimate D2E/DX2                !
 ! D15   D(7,3,6,5)              0.0            estimate D2E/DX2                !
 ! D16   D(7,3,6,10)            57.6156         estimate D2E/DX2                !
 ! D17   D(9,3,6,1)           -112.0182         estimate D2E/DX2                !
 ! D18   D(9,3,6,5)            -55.1247         estimate D2E/DX2                !
 ! D19   D(9,3,6,10)             2.4909         estimate D2E/DX2                !
 ! D20   D(6,3,7,5)              0.0            estimate D2E/DX2                !
 ! D21   D(6,3,7,11)           -53.0209         estimate D2E/DX2                !
 ! D22   D(8,3,7,5)             53.0209         estimate D2E/DX2                !
 ! D23   D(8,3,7,11)             0.0            estimate D2E/DX2                !
 ! D24   D(2,3,8,4)             82.0439         estimate D2E/DX2                !
 ! D25   D(2,3,8,10)            25.6902         estimate D2E/DX2                !
 ! D26   D(7,3,8,4)             22.2079         estimate D2E/DX2                !
 ! D27   D(7,3,8,10)           -34.1458         estimate D2E/DX2                !
 ! D28   D(2,3,9,4)            -87.2168         estimate D2E/DX2                !
 ! D29   D(2,3,9,11)           -28.0295         estimate D2E/DX2                !
 ! D30   D(6,3,9,4)            -22.7417         estimate D2E/DX2                !
 ! D31   D(6,3,9,11)            36.4456         estimate D2E/DX2                !
 ! D32   D(11,4,8,3)           -35.454          estimate D2E/DX2                !
 ! D33   D(11,4,8,6)            36.3105         estimate D2E/DX2                !
 ! D34   D(10,4,9,3)            35.7195         estimate D2E/DX2                !
 ! D35   D(10,4,9,7)           -35.7195         estimate D2E/DX2                !
 ! D36   D(9,4,10,5)            33.2362         estimate D2E/DX2                !
 ! D37   D(9,4,10,6)           -33.2362         estimate D2E/DX2                !
 ! D38   D(8,4,11,5)           -36.3105         estimate D2E/DX2                !
 ! D39   D(8,4,11,7)            35.454          estimate D2E/DX2                !
 ! D40   D(7,5,6,3)              0.0            estimate D2E/DX2                !
 ! D41   D(7,5,6,8)            -55.0583         estimate D2E/DX2                !
 ! D42   D(11,5,6,3)            55.0583         estimate D2E/DX2                !
 ! D43   D(11,5,6,8)             0.0            estimate D2E/DX2                !
 ! D44   D(1,5,7,3)             56.8936         estimate D2E/DX2                !
 ! D45   D(1,5,7,9)            112.0182         estimate D2E/DX2                !
 ! D46   D(6,5,7,3)              0.0            estimate D2E/DX2                !
 ! D47   D(6,5,7,9)             55.1247         estimate D2E/DX2                !
 ! D48   D(10,5,7,3)           -57.6156         estimate D2E/DX2                !
 ! D49   D(10,5,7,9)            -2.4909         estimate D2E/DX2                !
 ! D50   D(1,5,10,4)          -136.6093         estimate D2E/DX2                !
 ! D51   D(1,5,10,8)           -77.3514         estimate D2E/DX2                !
 ! D52   D(2,5,10,4)           -75.9939         estimate D2E/DX2                !
 ! D53   D(2,5,10,8)           -16.7359         estimate D2E/DX2                !
 ! D54   D(7,5,10,4)           -19.4256         estimate D2E/DX2                !
 ! D55   D(7,5,10,8)            39.8324         estimate D2E/DX2                !
 ! D56   D(1,5,11,4)            58.4614         estimate D2E/DX2                !
 ! D57   D(1,5,11,9)             0.4262         estimate D2E/DX2                !
 ! D58   D(2,5,11,4)            88.2372         estimate D2E/DX2                !
 ! D59   D(2,5,11,9)            30.2021         estimate D2E/DX2                !
 ! D60   D(6,5,11,4)            22.9551         estimate D2E/DX2                !
 ! D61   D(6,5,11,9)           -35.08           estimate D2E/DX2                !
 ! D62   D(1,6,8,4)            -58.4614         estimate D2E/DX2                !
 ! D63   D(1,6,8,9)             -0.4262         estimate D2E/DX2                !
 ! D64   D(2,6,8,4)            -88.2372         estimate D2E/DX2                !
 ! D65   D(2,6,8,9)            -30.2021         estimate D2E/DX2                !
 ! D66   D(5,6,8,4)            -22.9551         estimate D2E/DX2                !
 ! D67   D(5,6,8,9)             35.08           estimate D2E/DX2                !
 ! D68   D(1,6,10,4)           136.6093         estimate D2E/DX2                !
 ! D69   D(1,6,10,11)           77.3514         estimate D2E/DX2                !
 ! D70   D(2,6,10,4)            75.9939         estimate D2E/DX2                !
 ! D71   D(2,6,10,11)           16.7359         estimate D2E/DX2                !
 ! D72   D(3,6,10,4)            19.4256         estimate D2E/DX2                !
 ! D73   D(3,6,10,11)          -39.8324         estimate D2E/DX2                !
 ! D74   D(2,7,9,4)             87.2168         estimate D2E/DX2                !
 ! D75   D(2,7,9,8)             28.0295         estimate D2E/DX2                !
 ! D76   D(5,7,9,4)             22.7417         estimate D2E/DX2                !
 ! D77   D(5,7,9,8)            -36.4456         estimate D2E/DX2                !
 ! D78   D(2,7,11,4)           -82.0439         estimate D2E/DX2                !
 ! D79   D(2,7,11,10)          -25.6902         estimate D2E/DX2                !
 ! D80   D(3,7,11,4)           -22.2079         estimate D2E/DX2                !
 ! D81   D(3,7,11,10)           34.1458         estimate D2E/DX2                !
 ! D82   D(6,8,9,7)              3.4446         estimate D2E/DX2                !
 ! D83   D(6,8,9,11)           -51.3786         estimate D2E/DX2                !
 ! D84   D(10,8,9,7)            57.5515         estimate D2E/DX2                !
 ! D85   D(10,8,9,11)            2.7283         estimate D2E/DX2                !
 ! D86   D(3,8,10,5)            -3.8282         estimate D2E/DX2                !
 ! D87   D(3,8,10,11)           50.4465         estimate D2E/DX2                !
 ! D88   D(9,8,10,5)           -57.0023         estimate D2E/DX2                !
 ! D89   D(9,8,10,11)           -2.7275         estimate D2E/DX2                !
 ! D90   D(3,9,11,5)            -3.4446         estimate D2E/DX2                !
 ! D91   D(3,9,11,10)          -57.5515         estimate D2E/DX2                !
 ! D92   D(8,9,11,5)            51.3786         estimate D2E/DX2                !
 ! D93   D(8,9,11,10)           -2.7283         estimate D2E/DX2                !
 ! D94   D(6,10,11,7)            3.8282         estimate D2E/DX2                !
 ! D95   D(6,10,11,9)           57.0023         estimate D2E/DX2                !
 ! D96   D(8,10,11,7)          -50.4465         estimate D2E/DX2                !
 ! D97   D(8,10,11,9)            2.7275         estimate D2E/DX2                !
 --------------------------------------------------------------------------------
 Trust Radius=3.00D-01 FncErr=1.00D-07 GrdErr=1.00D-06 EigMax=2.50D+02 EigMin=1.00D-04
 Number of steps in this run=    100 maximum allowed number of steps=    100.
 GradGradGradGradGradGradGradGradGradGradGradGradGradGradGradGradGradGrad

 Leave Link  103 at Tue May  6 03:56:33 2025, MaxMem=   104857600 cpu:               0.0 elap:               0.0
 (Enter /cm/shared/apps/spack/cpu/opt/spack/linux-centos8-zen/gcc-8.3.1/gaussian-16.C.01-po5bqktfeugvmjyga3v7eigbecnokxng/g16/l202.exe)
                          Input orientation:                          
 ---------------------------------------------------------------------
 Center     Atomic      Atomic             Coordinates (Angstroms)
 Number     Number       Type             X           Y           Z
 ---------------------------------------------------------------------
      1         14           0        0.129638   -3.244928    0.000000
      2         14           0       -1.755661   -1.694164    0.000000
      3         14           0       -1.678045    0.336290    1.337425
      4         14           0        1.522736    2.346021    0.000000
      5         14           0        0.563900   -1.230141   -1.261678
      6         14           0        0.563900   -1.230141    1.261678
      7         14           0       -1.678045    0.336290   -1.337425
      8         14           0        0.563900    1.068170    1.973992
      9         14           0       -1.001701    2.229405    0.000000
     10         14           0        2.205477    0.015026    0.000000
     11         14           0        0.563900    1.068170   -1.973992
 ---------------------------------------------------------------------
                    Distance matrix (angstroms):
                    1          2          3          4          5
     1  Si   0.000000
     2  Si   2.441152   0.000000
     3  Si   4.228658   2.432586   0.000000
     4  Si   5.761895   5.202978   4.009080   0.000000
     5  Si   2.416564   2.680954   3.772978   3.911538   0.000000
     6  Si   2.416564   2.680954   2.736012   3.911538   2.523356
     7  Si   4.228658   2.432586   2.674850   4.009080   2.736012
     8  Si   4.763197   4.111873   2.442782   2.539471   3.968853
     9  Si   5.590013   3.995353   2.414546   2.527129   4.001424
    10  Si   3.864765   4.314156   4.119910   2.428924   2.415998
    11  Si   4.763197   4.111873   4.065396   2.539471   2.406164
                    6          7          8          9         10
     6  Si   0.000000
     7  Si   3.772978   0.000000
     8  Si   2.406164   4.065396   0.000000
     9  Si   4.001424   2.414546   2.774206   0.000000
    10  Si   2.415998   4.119910   2.774983   3.897366   0.000000
    11  Si   3.968853   2.442782   3.947984   2.774206   2.774983
                   11
    11  Si   0.000000
 Stoichiometry    Si11(1-,2)
 Framework group  CS[SG(Si5),X(Si6)]
 Deg. of freedom    16
 Full point group                 CS      NOp   2
 Largest Abelian subgroup         CS      NOp   2
 Largest concise Abelian subgroup CS      NOp   2
                         Standard orientation:                         
 ---------------------------------------------------------------------
 Center     Atomic      Atomic             Coordinates (Angstroms)
 Number     Number       Type             X           Y           Z
 ---------------------------------------------------------------------
      1         14           0        0.129638   -3.244928    0.000000
      2         14           0       -1.755661   -1.694164    0.000000
      3         14           0       -1.678045    0.336290    1.337425
      4         14           0        1.522736    2.346021    0.000000
      5         14           0        0.563900   -1.230141   -1.261678
      6         14           0        0.563900   -1.230141    1.261678
      7         14           0       -1.678045    0.336290   -1.337425
      8         14           0        0.563900    1.068170    1.973992
      9         14           0       -1.001701    2.229405    0.000000
     10         14           0        2.205477    0.015026    0.000000
     11         14           0        0.563900    1.068170   -1.973992
 ---------------------------------------------------------------------
 Rotational constants (GHZ):           0.5616269           0.4055484           0.3795170
 Leave Link  202 at Tue May  6 03:56:33 2025, MaxMem=   104857600 cpu:               0.0 elap:               0.0
 (Enter /cm/shared/apps/spack/cpu/opt/spack/linux-centos8-zen/gcc-8.3.1/gaussian-16.C.01-po5bqktfeugvmjyga3v7eigbecnokxng/g16/l301.exe)
 Standard basis: 6-311+G(d) (5D, 7F)
 Ernie: Thresh=  0.10000D-02 Tol=  0.10000D-05 Strict=F.
 There are   208 symmetry adapted cartesian basis functions of A'  symmetry.
 There are   133 symmetry adapted cartesian basis functions of A"  symmetry.
 There are   200 symmetry adapted basis functions of A'  symmetry.
 There are   130 symmetry adapted basis functions of A"  symmetry.
   330 basis functions,   550 primitive gaussians,   341 cartesian basis functions
    78 alpha electrons       77 beta electrons
       nuclear repulsion energy      1799.0307993901 Hartrees.
 IExCor=  402 DFT=T Ex+Corr=B3LYP ExCW=0 ScaHFX=  0.200000
 ScaDFX=  0.800000  0.720000  1.000000  0.810000 ScalE2=  1.000000  1.000000
 IRadAn=      5 IRanWt=     -1 IRanGd=            0 ICorTp=0 IEmpDi=  4
 NAtoms=   11 NActive=   11 NUniq=    8 SFac= 1.89D+00 NAtFMM=   60 NAOKFM=F Big=F
 Integral buffers will be    131072 words long.
 Raffenetti 2 integral format.
 Two-electron integral symmetry is turned on.
 Leave Link  301 at Tue May  6 03:56:33 2025, MaxMem=   104857600 cpu:               0.0 elap:               0.0
 (Enter /cm/shared/apps/spack/cpu/opt/spack/linux-centos8-zen/gcc-8.3.1/gaussian-16.C.01-po5bqktfeugvmjyga3v7eigbecnokxng/g16/l302.exe)
 NPDir=0 NMtPBC=     1 NCelOv=     1 NCel=       1 NClECP=     1 NCelD=      1
         NCelK=      1 NCelE2=     1 NClLst=     1 CellRange=     0.0.
 One-electron integrals computed using PRISM.
 One-electron integral symmetry used in STVInt
 NBasis=   330 RedAO= T EigKep=  2.69D-05  NBF=   200   130
 NBsUse=   330 1.00D-06 EigRej= -1.00D+00 NBFU=   200   130
 Precomputing XC quadrature grid using
 IXCGrd= 4 IRadAn=           5 IRanWt=          -1 IRanGd=           0 AccXCQ= 0.00D+00.
 Generated NRdTot=       0 NPtTot=           0 NUsed=           0 NTot=          32
 NSgBfM=   328   328   328   328   328 MxSgAt=    11 MxSgA2=    11.
 Leave Link  302 at Tue May  6 03:56:33 2025, MaxMem=   104857600 cpu:               0.2 elap:               0.2
 (Enter /cm/shared/apps/spack/cpu/opt/spack/linux-centos8-zen/gcc-8.3.1/gaussian-16.C.01-po5bqktfeugvmjyga3v7eigbecnokxng/g16/l303.exe)
 DipDrv:  MaxL=1.
 Leave Link  303 at Tue May  6 03:56:33 2025, MaxMem=   104857600 cpu:               0.0 elap:               0.0
 (Enter /cm/shared/apps/spack/cpu/opt/spack/linux-centos8-zen/gcc-8.3.1/gaussian-16.C.01-po5bqktfeugvmjyga3v7eigbecnokxng/g16/l401.exe)
 ExpMin= 3.31D-02 ExpMax= 6.94D+04 ExpMxC= 2.33D+03 IAcc=3 IRadAn=         5 AccDes= 0.00D+00
 Harris functional with IExCor=  402 and IRadAn=       5 diagonalized for initial guess.
 HarFok:  IExCor=  402 AccDes= 0.00D+00 IRadAn=         5 IDoV= 1 UseB2=F ITyADJ=14
 ICtDFT=  3500011 ScaDFX=  1.000000  1.000000  1.000000  1.000000
 FoFCou: FMM=F IPFlag=           0 FMFlag=      100000 FMFlg1=           0
         NFxFlg=           0 DoJE=T BraDBF=F KetDBF=T FulRan=T
         wScrn=  0.000000 ICntrl=       500 IOpCl=  0 I1Cent=   200000004 NGrid=           0
         NMat0=    1 NMatS0=      1 NMatT0=    0 NMatD0=    1 NMtDS0=    0 NMtDT0=    0
 Petite list used in FoFCou.
 Harris En= -3184.17158629850    
 JPrj=0 DoOrth=F DoCkMO=F.
 Initial guess orbital symmetries:
 Alpha Orbitals:
       Occupied  (A') (A') (A") (A') (A') (A') (A') (A') (A") (A')
                 (A") (A') (A') (A') (A') (A") (A') (A') (A') (A")
                 (A') (A") (A') (A') (A") (A') (A') (A") (A') (A')
                 (A') (A") (A') (A") (A') (A') (A") (A') (A") (A")
                 (A') (A") (A') (A') (A') (A") (A") (A') (A") (A')
                 (A") (A') (A") (A') (A") (A') (A') (A') (A") (A')
                 (A') (A') (A") (A") (A') (A') (A') (A") (A') (A")
                 (A') (A') (A") (A') (A') (A") (A') (A')
       Virtual   (A") (A") (A') (A") (A') (A') (A") (A') (A") (A")
                 (A') (A') (A') (A') (A") (A') (A') (A') (A") (A")
                 (A') (A') (A") (A') (A') (A') (A") (A') (A") (A")
                 (A') (A") (A") (A') (A') (A') (A") (A') (A') (A")
                 (A") (A") (A') (A") (A') (A') (A') (A") (A') (A')
                 (A') (A") (A") (A') (A") (A') (A") (A') (A') (A')
                 (A') (A") (A") (A') (A') (A') (A') (A") (A") (A')
                 (A') (A") (A') (A') (A') (A") (A') (A") (A') (A")
                 (A") (A') (A") (A') (A") (A') (A') (A") (A') (A')
                 (A') (A") (A') (A") (A") (A") (A') (A') (A') (A')
                 (A") (A') (A") (A") (A") (A') (A") (A') (A') (A")
                 (A') (A') (A") (A') (A") (A') (A') (A') (A") (A")
                 (A') (A') (A') (A') (A') (A") (A") (A') (A') (A")
                 (A') (A') (A") (A') (A") (A') (A") (A') (A") (A')
                 (A") (A') (A") (A') (A') (A") (A") (A') (A') (A")
                 (A') (A') (A") (A') (A") (A') (A") (A") (A") (A')
                 (A') (A') (A') (A") (A") (A') (A") (A") (A') (A')
                 (A") (A') (A") (A') (A') (A") (A') (A') (A') (A")
                 (A') (A") (A") (A') (A') (A") (A') (A') (A") (A')
                 (A") (A') (A') (A') (A") (A") (A') (A') (A') (A")
                 (A') (A') (A") (A') (A') (A") (A') (A') (A') (A")
                 (A') (A") (A') (A") (A") (A') (A") (A') (A') (A')
                 (A") (A') (A") (A') (A") (A") (A") (A') (A') (A")
                 (A') (A") (A') (A') (A') (A") (A') (A') (A") (A')
                 (A') (A') (A') (A") (A') (A') (A") (A') (A') (A")
                 (A') (A')
 Beta  Orbitals:
       Occupied  (A') (A') (A") (A') (A') (A') (A') (A') (A") (A')
                 (A") (A') (A') (A') (A') (A") (A') (A') (A') (A")
                 (A') (A") (A') (A') (A") (A') (A') (A") (A') (A')
                 (A') (A") (A') (A") (A') (A') (A") (A') (A") (A")
                 (A') (A") (A') (A') (A') (A") (A") (A') (A") (A')
                 (A") (A') (A") (A') (A") (A') (A') (A') (A") (A')
                 (A') (A') (A") (A") (A') (A') (A') (A") (A') (A")
                 (A') (A') (A") (A') (A') (A") (A')
       Virtual   (A') (A") (A") (A') (A") (A') (A') (A") (A') (A")
                 (A") (A') (A') (A') (A') (A") (A') (A') (A') (A")
                 (A") (A') (A') (A") (A') (A') (A') (A") (A') (A")
                 (A") (A') (A") (A") (A') (A') (A') (A") (A') (A')
                 (A") (A") (A") (A') (A") (A') (A') (A') (A") (A')
                 (A') (A') (A") (A") (A') (A") (A') (A") (A') (A')
                 (A') (A') (A") (A") (A') (A') (A') (A') (A") (A")
                 (A') (A') (A") (A') (A') (A') (A") (A') (A") (A')
                 (A") (A") (A') (A") (A') (A") (A') (A') (A") (A')
                 (A') (A') (A") (A') (A") (A") (A") (A') (A') (A')
                 (A') (A") (A') (A") (A") (A") (A') (A") (A') (A')
                 (A") (A') (A') (A") (A') (A") (A') (A') (A') (A")
                 (A") (A') (A') (A') (A') (A') (A") (A") (A') (A')
                 (A") (A') (A') (A") (A') (A") (A') (A") (A') (A")
                 (A') (A") (A') (A") (A') (A') (A") (A") (A') (A')
                 (A") (A') (A') (A") (A') (A") (A') (A") (A") (A")
                 (A') (A') (A') (A') (A") (A") (A') (A") (A") (A')
                 (A') (A") (A') (A") (A') (A') (A") (A') (A') (A')
                 (A") (A') (A") (A") (A') (A') (A") (A') (A') (A")
                 (A') (A") (A') (A') (A') (A") (A") (A') (A') (A')
                 (A") (A') (A') (A") (A') (A') (A") (A') (A') (A')
                 (A") (A') (A") (A') (A") (A") (A') (A") (A') (A')
                 (A') (A") (A') (A") (A') (A") (A") (A") (A') (A')
                 (A") (A') (A") (A') (A') (A') (A") (A') (A') (A")
                 (A') (A') (A') (A') (A") (A') (A') (A") (A') (A')
                 (A") (A') (A')
 The electronic state of the initial guess is 2-A'.
 Initial guess <Sx>= 0.0000 <Sy>= 0.0000 <Sz>= 0.5000 <S**2>= 0.7500 S= 0.5000
 Leave Link  401 at Tue May  6 03:56:34 2025, MaxMem=   104857600 cpu:               1.2 elap:               1.2
 (Enter /cm/shared/apps/spack/cpu/opt/spack/linux-centos8-zen/gcc-8.3.1/gaussian-16.C.01-po5bqktfeugvmjyga3v7eigbecnokxng/g16/l502.exe)
 Integral symmetry usage will be decided dynamically.
 UHF open shell SCF:
 Using DIIS extrapolation, IDIIS=  1040.
 NGot=   104857600 LenX=   104618851 LenY=   104502129
 Requested convergence on RMS density matrix=1.00D-08 within  32 cycles.
 Requested convergence on MAX density matrix=1.00D-06.
 Requested convergence on             energy=1.00D-06.
 No special actions if energy rises.
 Fock matrices will be formed incrementally for  20 cycles.

 Cycle   1  Pass 1  IDiag  1:
 FoFJK:  IHMeth= 1 ICntrl=       0 DoSepK=F KAlg= 0 I1Cent=           0 FoldK=F
 IRaf= 860000000 NMat=       1 IRICut=       1 DoRegI=T DoRafI=F ISym2E= 1 IDoP0=0 IntGTp=1.
 FoFCou: FMM=F IPFlag=           0 FMFlag=      100000 FMFlg1=           0
         NFxFlg=           0 DoJE=F BraDBF=F KetDBF=F FulRan=T
         wScrn=  0.000000 ICntrl=         0 IOpCl=  1 I1Cent=           0 NGrid=           0
         NMat0=    1 NMatS0=      1 NMatT0=    0 NMatD0=    1 NMtDS0=    0 NMtDT0=    0
 Petite list used in FoFCou.
 E= -3184.65345438006    
 DIIS: error= 1.66D-02 at cycle   1 NSaved=   1.
 NSaved= 1 IEnMin= 1 EnMin= -3184.65345438006     IErMin= 1 ErrMin= 1.66D-02
 ErrMax= 1.66D-02  0.00D+00 EMaxC= 1.00D-01 BMatC= 4.03D-01 BMatP= 4.03D-01
 IDIUse=3 WtCom= 8.34D-01 WtEn= 1.66D-01
 Coeff-Com:  0.100D+01
 Coeff-En:   0.100D+01
 Coeff:      0.100D+01
 Gap=     0.065 Goal=   None    Shift=    0.000
 Gap=     0.072 Goal=   None    Shift=    0.000
 GapD=    0.065 DampG=0.500 DampE=0.500 DampFc=0.2500 IDamp=-1.
 Damping current iteration by 2.50D-01
 RMSDP=1.16D-02 MaxDP=1.13D+00              OVMax= 1.35D-01

 Cycle   2  Pass 1  IDiag  1:
 RMSU=  2.34D-03    CP:  1.02D+00
 E= -3184.65962595268     Delta-E=       -0.006171572625 Rises=F Damp=T
 DIIS: error= 1.23D-02 at cycle   2 NSaved=   2.
 NSaved= 2 IEnMin= 2 EnMin= -3184.65962595268     IErMin= 2 ErrMin= 1.23D-02
 ErrMax= 1.23D-02  0.00D+00 EMaxC= 1.00D-01 BMatC= 2.20D-01 BMatP= 4.03D-01
 IDIUse=3 WtCom= 8.77D-01 WtEn= 1.23D-01
 Coeff-Com: -0.169D+01 0.269D+01
 Coeff-En:   0.000D+00 0.100D+01
 Coeff:     -0.148D+01 0.248D+01
 Gap=     0.099 Goal=   None    Shift=    0.000
 Gap=     0.097 Goal=   None    Shift=    0.000
 RMSDP=2.13D-02 MaxDP=1.43D+00 DE=-6.17D-03 OVMax= 2.54D-01

 Cycle   3  Pass 1  IDiag  1:
 RMSU=  1.10D-02    CP:  1.20D+00 -1.29D+00
 E= -3184.39008148712     Delta-E=        0.269544465565 Rises=F Damp=F
 DIIS: error= 2.68D-02 at cycle   3 NSaved=   3.
 NSaved= 3 IEnMin= 2 EnMin= -3184.65962595268     IErMin= 2 ErrMin= 1.23D-02
 ErrMax= 2.68D-02  0.00D+00 EMaxC= 1.00D-01 BMatC= 7.10D-01 BMatP= 2.20D-01
 IDIUse=2 WtCom= 0.00D+00 WtEn= 1.00D+00
 Rare condition: small coef for last iteration:  0.000D+00
 Coeff-En:   0.000D+00 0.000D+00 0.100D+01
 Coeff:      0.000D+00 0.000D+00 0.100D+01
 Gap=     0.090 Goal=   None    Shift=    0.000
 Gap=     0.052 Goal=   None    Shift=    0.000
 RMSDP=7.70D-02 MaxDP=5.74D+00 DE= 2.70D-01 OVMax= 8.59D-01

 Cycle   4  Pass 1  IDiag  1:
 RMSU=  6.78D-02    CP:  8.66D-01  3.00D+00  1.40D+00
 E= -3174.02493139958     Delta-E=       10.365150087535 Rises=F Damp=F
 DIIS: error= 1.30D-01 at cycle   4 NSaved=   4.
 NSaved= 4 IEnMin= 2 EnMin= -3184.65962595268     IErMin= 2 ErrMin= 1.23D-02
 ErrMax= 1.30D-01  0.00D+00 EMaxC= 1.00D-01 BMatC= 2.56D+01 BMatP= 2.20D-01
 IDIUse=2 WtCom= 0.00D+00 WtEn= 1.00D+00
 Coeff-En:   0.000D+00 0.000D+00 0.926D+00 0.735D-01
 Coeff:      0.000D+00 0.000D+00 0.926D+00 0.735D-01
 Gap=    -0.017 Goal=   None    Shift=    0.000
 Gap=     0.021 Goal=   None    Shift=    0.000
 RMSDP=7.83D-02 MaxDP=7.50D+00 DE= 1.04D+01 OVMax= 9.37D-01

 Cycle   5  Pass 1  IDiag  1:
 RMSU=  3.23D-02    CP:  1.11D+00  3.00D+00 -3.24D-01  4.81D-02
 E= -3183.31300296590     Delta-E=       -9.288071566314 Rises=F Damp=F
 DIIS: error= 5.36D-02 at cycle   5 NSaved=   5.
 NSaved= 5 IEnMin= 2 EnMin= -3184.65962595268     IErMin= 2 ErrMin= 1.23D-02
 ErrMax= 5.36D-02  0.00D+00 EMaxC= 1.00D-01 BMatC= 3.54D+00 BMatP= 2.20D-01
 IDIUse=2 WtCom= 0.00D+00 WtEn= 1.00D+00
 Coeff-En:   0.000D+00 0.000D+00 0.728D+00 0.000D+00 0.272D+00
 Coeff:      0.000D+00 0.000D+00 0.728D+00 0.000D+00 0.272D+00
 Gap=     0.071 Goal=   None    Shift=    0.000
 Gap=     0.052 Goal=   None    Shift=    0.000
 RMSDP=3.24D-02 MaxDP=2.77D+00 DE=-9.29D+00 OVMax= 3.38D-01

 Cycle   6  Pass 1  IDiag  1:
 RMSU=  1.86D-03    CP:  1.00D+00  3.00D+00 -1.34D-01  5.77D-03  6.39D-02
 E= -3184.58829589016     Delta-E=       -1.275292924268 Rises=F Damp=F
 DIIS: error= 1.40D-02 at cycle   6 NSaved=   6.
 NSaved= 6 IEnMin= 2 EnMin= -3184.65962595268     IErMin= 2 ErrMin= 1.23D-02
 ErrMax= 1.40D-02  0.00D+00 EMaxC= 1.00D-01 BMatC= 2.27D-01 BMatP= 2.20D-01
 IDIUse=3 WtCom= 8.60D-01 WtEn= 1.40D-01
 EnCoef did   100 forward-backward iterations
 Coeff-Com: -0.606D+00 0.835D+00 0.275D+00-0.912D-03-0.651D-01 0.563D+00
 Coeff-En:   0.793D+00 0.000D+00 0.190D-02 0.000D+00 0.000D+00 0.205D+00
 Coeff:     -0.411D+00 0.718D+00 0.237D+00-0.785D-03-0.561D-01 0.513D+00
 Gap=     0.082 Goal=   None    Shift=    0.000
 Gap=     0.075 Goal=   None    Shift=    0.000
 RMSDP=1.16D-02 MaxDP=7.88D-01 DE=-1.28D+00 OVMax= 9.63D-02

 Cycle   7  Pass 1  IDiag  1:
 RMSU=  2.74D-03    CP:  1.10D+00  1.45D+00  9.39D-02 -2.44D-02 -1.38D-02
                    CP:  2.56D-01
 E= -3184.67290914028     Delta-E=       -0.084613250115 Rises=F Damp=F
 DIIS: error= 4.31D-03 at cycle   7 NSaved=   7.
 NSaved= 7 IEnMin= 7 EnMin= -3184.67290914028     IErMin= 7 ErrMin= 4.31D-03
 ErrMax= 4.31D-03  0.00D+00 EMaxC= 1.00D-01 BMatC= 1.94D-02 BMatP= 2.20D-01
 IDIUse=3 WtCom= 9.57D-01 WtEn= 4.31D-02
 Coeff-Com: -0.546D-01 0.754D-01 0.167D+00 0.129D-02-0.722D-01 0.513D+00
 Coeff-Com:  0.369D+00
 Coeff-En:   0.000D+00 0.000D+00 0.000D+00 0.000D+00 0.000D+00 0.000D+00
 Coeff-En:   0.100D+01
 Coeff:     -0.522D-01 0.721D-01 0.160D+00 0.123D-02-0.691D-01 0.491D+00
 Coeff:      0.396D+00
 Gap=     0.076 Goal=   None    Shift=    0.000
 Gap=     0.072 Goal=   None    Shift=    0.000
 RMSDP=5.16D-03 MaxDP=4.25D-01 DE=-8.46D-02 OVMax= 3.39D-02

 Cycle   8  Pass 1  IDiag  1:
 RMSU=  2.02D-03    CP:  1.05D+00  1.83D+00  5.52D-02 -2.04D-02 -2.04D-02
                    CP:  7.17D-01  5.29D-01
 E= -3184.67843216810     Delta-E=       -0.005523027823 Rises=F Damp=F
 DIIS: error= 2.35D-03 at cycle   8 NSaved=   8.
 NSaved= 8 IEnMin= 8 EnMin= -3184.67843216810     IErMin= 8 ErrMin= 2.35D-03
 ErrMax= 2.35D-03  0.00D+00 EMaxC= 1.00D-01 BMatC= 5.23D-03 BMatP= 1.94D-02
 IDIUse=3 WtCom= 9.76D-01 WtEn= 2.35D-02
 Coeff-Com: -0.276D-01 0.367D-01 0.916D-01 0.119D-02-0.416D-01 0.267D+00
 Coeff-Com:  0.320D+00 0.353D+00
 Coeff-En:   0.000D+00 0.000D+00 0.000D+00 0.000D+00 0.000D+00 0.000D+00
 Coeff-En:   0.264D+00 0.736D+00
 Coeff:     -0.269D-01 0.359D-01 0.895D-01 0.117D-02-0.407D-01 0.260D+00
 Coeff:      0.319D+00 0.362D+00
 Gap=     0.077 Goal=   None    Shift=    0.000
 Gap=     0.073 Goal=   None    Shift=    0.000
 RMSDP=2.18D-03 MaxDP=1.96D-01 DE=-5.52D-03 OVMax= 1.77D-02

 Cycle   9  Pass 1  IDiag  1:
 RMSU=  9.90D-04    CP:  1.04D+00  1.64D+00  9.19D-02 -6.71D-03 -2.26D-02
                    CP:  6.20D-01  4.44D-01  5.59D-01
 E= -3184.68028761365     Delta-E=       -0.001855445548 Rises=F Damp=F
 DIIS: error= 6.77D-04 at cycle   9 NSaved=   9.
 NSaved= 9 IEnMin= 9 EnMin= -3184.68028761365     IErMin= 9 ErrMin= 6.77D-04
 ErrMax= 6.77D-04  0.00D+00 EMaxC= 1.00D-01 BMatC= 6.56D-04 BMatP= 5.23D-03
 IDIUse=3 WtCom= 9.93D-01 WtEn= 6.77D-03
 Coeff-Com: -0.253D-01 0.331D-01 0.524D-02 0.814D-04-0.150D-03-0.230D-01
 Coeff-Com:  0.967D-01 0.303D+00 0.611D+00
 Coeff-En:   0.000D+00 0.000D+00 0.000D+00 0.000D+00 0.000D+00 0.000D+00
 Coeff-En:   0.000D+00 0.145D+00 0.855D+00
 Coeff:     -0.251D-01 0.328D-01 0.520D-02 0.809D-04-0.149D-03-0.228D-01
 Coeff:      0.960D-01 0.302D+00 0.612D+00
 Gap=     0.077 Goal=   None    Shift=    0.000
 Gap=     0.073 Goal=   None    Shift=    0.000
 RMSDP=1.59D-03 MaxDP=1.19D-01 DE=-1.86D-03 OVMax= 7.02D-03

 Cycle  10  Pass 1  IDiag  1:
 RMSU=  2.27D-04    CP:  1.05D+00  1.63D+00  9.19D-02 -1.38D-02 -2.14D-02
                    CP:  5.93D-01  5.42D-01  6.43D-01  5.82D-01
 E= -3184.68053977757     Delta-E=       -0.000252163921 Rises=F Damp=F
 DIIS: error= 1.80D-04 at cycle  10 NSaved=  10.
 NSaved=10 IEnMin=10 EnMin= -3184.68053977757     IErMin=10 ErrMin= 1.80D-04
 ErrMax= 1.80D-04  0.00D+00 EMaxC= 1.00D-01 BMatC= 4.46D-05 BMatP= 6.56D-04
 IDIUse=3 WtCom= 9.98D-01 WtEn= 1.80D-03
 Coeff-Com: -0.127D-01 0.166D-01-0.146D-02-0.154D-04 0.181D-02-0.257D-01
 Coeff-Com:  0.485D-01 0.177D+00 0.392D+00 0.405D+00
 Coeff-En:   0.000D+00 0.000D+00 0.000D+00 0.000D+00 0.000D+00 0.000D+00
 Coeff-En:   0.000D+00 0.000D+00 0.000D+00 0.100D+01
 Coeff:     -0.127D-01 0.165D-01-0.146D-02-0.154D-04 0.181D-02-0.257D-01
 Coeff:      0.484D-01 0.176D+00 0.391D+00 0.406D+00
 Gap=     0.078 Goal=   None    Shift=    0.000
 Gap=     0.073 Goal=   None    Shift=    0.000
 RMSDP=3.77D-04 MaxDP=3.03D-02 DE=-2.52D-04 OVMax= 1.22D-03

 Cycle  11  Pass 1  IDiag  1:
 RMSU=  7.49D-05    CP:  1.05D+00  1.64D+00  8.91D-02 -1.29D-02 -2.11D-02
                    CP:  6.02D-01  5.36D-01  6.83D-01  6.62D-01  4.93D-01
 E= -3184.68055725682     Delta-E=       -0.000017479254 Rises=F Damp=F
 DIIS: error= 4.86D-05 at cycle  11 NSaved=  11.
 NSaved=11 IEnMin=11 EnMin= -3184.68055725682     IErMin=11 ErrMin= 4.86D-05
 ErrMax= 4.86D-05  0.00D+00 EMaxC= 1.00D-01 BMatC= 3.34D-06 BMatP= 4.46D-05
 IDIUse=1 WtCom= 1.00D+00 WtEn= 0.00D+00
 Coeff-Com: -0.148D-03 0.143D-03-0.220D-02-0.163D-05 0.666D-03-0.339D-02
 Coeff-Com: -0.112D-02-0.332D-02 0.606D-02 0.103D+00 0.901D+00
 Coeff:     -0.148D-03 0.143D-03-0.220D-02-0.163D-05 0.666D-03-0.339D-02
 Coeff:     -0.112D-02-0.332D-02 0.606D-02 0.103D+00 0.901D+00
 Gap=     0.078 Goal=   None    Shift=    0.000
 Gap=     0.073 Goal=   None    Shift=    0.000
 RMSDP=7.27D-05 MaxDP=6.99D-03 DE=-1.75D-05 OVMax= 1.98D-03

 Cycle  12  Pass 1  IDiag  1:
 RMSU=  3.71D-05    CP:  1.05D+00  1.65D+00  8.82D-02 -1.29D-02 -2.10D-02
                    CP:  5.96D-01  5.40D-01  6.90D-01  6.68D-01  5.95D-01
                    CP:  1.18D+00
 E= -3184.68055998579     Delta-E=       -0.000002728970 Rises=F Damp=F
 DIIS: error= 1.84D-05 at cycle  12 NSaved=  12.
 NSaved=12 IEnMin=12 EnMin= -3184.68055998579     IErMin=12 ErrMin= 1.84D-05
 ErrMax= 1.84D-05  0.00D+00 EMaxC= 1.00D-01 BMatC= 5.96D-07 BMatP= 3.34D-06
 IDIUse=1 WtCom= 1.00D+00 WtEn= 0.00D+00
 Coeff-Com:  0.243D-02-0.320D-02-0.877D-03-0.144D-04-0.734D-04 0.424D-02
 Coeff-Com: -0.125D-01-0.448D-01-0.890D-01-0.688D-01 0.371D+00 0.842D+00
 Coeff:      0.243D-02-0.320D-02-0.877D-03-0.144D-04-0.734D-04 0.424D-02
 Coeff:     -0.125D-01-0.448D-01-0.890D-01-0.688D-01 0.371D+00 0.842D+00
 Gap=     0.078 Goal=   None    Shift=    0.000
 Gap=     0.073 Goal=   None    Shift=    0.000
 RMSDP=3.70D-05 MaxDP=2.93D-03 DE=-2.73D-06 OVMax= 1.19D-03

 Cycle  13  Pass 1  IDiag  1:
 RMSU=  1.43D-05    CP:  1.05D+00  1.66D+00  8.80D-02 -1.29D-02 -2.07D-02
                    CP:  5.94D-01  5.39D-01  6.94D-01  6.71D-01  6.32D-01
                    CP:  1.52D+00  1.15D+00
 E= -3184.68056063590     Delta-E=       -0.000000650108 Rises=F Damp=F
 DIIS: error= 8.54D-06 at cycle  13 NSaved=  13.
 NSaved=13 IEnMin=13 EnMin= -3184.68056063590     IErMin=13 ErrMin= 8.54D-06
 ErrMax= 8.54D-06  0.00D+00 EMaxC= 1.00D-01 BMatC= 1.41D-07 BMatP= 5.96D-07
 IDIUse=1 WtCom= 1.00D+00 WtEn= 0.00D+00
 Coeff-Com:  0.211D-02-0.278D-02-0.901D-04 0.241D-05-0.136D-03 0.261D-02
 Coeff-Com: -0.615D-02-0.217D-01-0.438D-01-0.538D-01 0.461D-01 0.408D+00
 Coeff-Com:  0.669D+00
 Coeff:      0.211D-02-0.278D-02-0.901D-04 0.241D-05-0.136D-03 0.261D-02
 Coeff:     -0.615D-02-0.217D-01-0.438D-01-0.538D-01 0.461D-01 0.408D+00
 Coeff:      0.669D+00
 Gap=     0.078 Goal=   None    Shift=    0.000
 Gap=     0.073 Goal=   None    Shift=    0.000
 RMSDP=2.51D-05 MaxDP=1.62D-03 DE=-6.50D-07 OVMax= 6.22D-04

 Cycle  14  Pass 1  IDiag  1:
 RMSU=  8.01D-06    CP:  1.05D+00  1.66D+00  8.81D-02 -1.27D-02 -2.06D-02
                    CP:  5.93D-01  5.39D-01  6.96D-01  6.79D-01  6.41D-01
                    CP:  1.59D+00  1.33D+00  9.24D-01
 E= -3184.68056075046     Delta-E=       -0.000000114564 Rises=F Damp=F
 DIIS: error= 3.50D-06 at cycle  14 NSaved=  14.
 NSaved=14 IEnMin=14 EnMin= -3184.68056075046     IErMin=14 ErrMin= 3.50D-06
 ErrMax= 3.50D-06  0.00D+00 EMaxC= 1.00D-01 BMatC= 1.75D-08 BMatP= 1.41D-07
 IDIUse=1 WtCom= 1.00D+00 WtEn= 0.00D+00
 Coeff-Com: -0.181D-03 0.248D-03 0.106D-03-0.783D-06-0.862D-05-0.648D-04
 Coeff-Com:  0.151D-03 0.471D-03 0.694D-03-0.946D-02-0.420D-01-0.159D-01
 Coeff-Com:  0.222D+00 0.843D+00
 Coeff:     -0.181D-03 0.248D-03 0.106D-03-0.783D-06-0.862D-05-0.648D-04
 Coeff:      0.151D-03 0.471D-03 0.694D-03-0.946D-02-0.420D-01-0.159D-01
 Coeff:      0.222D+00 0.843D+00
 Gap=     0.078 Goal=   None    Shift=    0.000
 Gap=     0.073 Goal=   None    Shift=    0.000
 RMSDP=9.18D-06 MaxDP=5.69D-04 DE=-1.15D-07 OVMax= 2.35D-04

 Cycle  15  Pass 1  IDiag  1:
 RMSU=  3.24D-06    CP:  1.05D+00  1.66D+00  8.81D-02 -1.27D-02 -2.06D-02
                    CP:  5.91D-01  5.38D-01  6.97D-01  6.79D-01  6.49D-01
                    CP:  1.63D+00  1.43D+00  1.15D+00  1.20D+00
 E= -3184.68056077100     Delta-E=       -0.000000020534 Rises=F Damp=F
 DIIS: error= 1.45D-06 at cycle  15 NSaved=  15.
 NSaved=15 IEnMin=15 EnMin= -3184.68056077100     IErMin=15 ErrMin= 1.45D-06
 ErrMax= 1.45D-06  0.00D+00 EMaxC= 1.00D-01 BMatC= 3.11D-09 BMatP= 1.75D-08
 IDIUse=1 WtCom= 1.00D+00 WtEn= 0.00D+00
 Coeff-Com: -0.388D-03 0.512D-03 0.697D-04-0.708D-07 0.244D-04-0.542D-03
 Coeff-Com:  0.145D-02 0.487D-02 0.963D-02 0.568D-02-0.240D-01-0.870D-01
 Coeff-Com: -0.599D-01 0.279D+00 0.870D+00
 Coeff:     -0.388D-03 0.512D-03 0.697D-04-0.708D-07 0.244D-04-0.542D-03
 Coeff:      0.145D-02 0.487D-02 0.963D-02 0.568D-02-0.240D-01-0.870D-01
 Coeff:     -0.599D-01 0.279D+00 0.870D+00
 Gap=     0.078 Goal=   None    Shift=    0.000
 Gap=     0.073 Goal=   None    Shift=    0.000
 RMSDP=6.29D-06 MaxDP=4.55D-04 DE=-2.05D-08 OVMax= 1.38D-04

 Cycle  16  Pass 1  IDiag  1:
 RMSU=  1.35D-06    CP:  1.05D+00  1.66D+00  8.82D-02 -1.27D-02 -2.06D-02
                    CP:  5.90D-01  5.38D-01  6.98D-01  6.81D-01  6.48D-01
                    CP:  1.65D+00  1.49D+00  1.22D+00  1.53D+00  1.24D+00
 E= -3184.68056077510     Delta-E=       -0.000000004101 Rises=F Damp=F
 DIIS: error= 7.22D-07 at cycle  16 NSaved=  16.
 NSaved=16 IEnMin=16 EnMin= -3184.68056077510     IErMin=16 ErrMin= 7.22D-07
 ErrMax= 7.22D-07  0.00D+00 EMaxC= 1.00D-01 BMatC= 8.59D-10 BMatP= 3.11D-09
 IDIUse=1 WtCom= 1.00D+00 WtEn= 0.00D+00
 Coeff-Com: -0.144D-03 0.189D-03 0.794D-05-0.116D-06 0.132D-04-0.246D-03
 Coeff-Com:  0.660D-03 0.217D-02 0.441D-02 0.391D-02-0.470D-02-0.358D-01
 Coeff-Com: -0.566D-01-0.190D-01 0.402D+00 0.703D+00
 Coeff:     -0.144D-03 0.189D-03 0.794D-05-0.116D-06 0.132D-04-0.246D-03
 Coeff:      0.660D-03 0.217D-02 0.441D-02 0.391D-02-0.470D-02-0.358D-01
 Coeff:     -0.566D-01-0.190D-01 0.402D+00 0.703D+00
 Gap=     0.078 Goal=   None    Shift=    0.000
 Gap=     0.073 Goal=   None    Shift=    0.000
 RMSDP=3.68D-06 MaxDP=2.69D-04 DE=-4.10D-09 OVMax= 4.33D-05

 Cycle  17  Pass 1  IDiag  1:
 RMSU=  6.01D-07    CP:  1.05D+00  1.66D+00  8.81D-02 -1.27D-02 -2.06D-02
                    CP:  5.90D-01  5.38D-01  6.98D-01  6.81D-01  6.48D-01
                    CP:  1.65D+00  1.50D+00  1.24D+00  1.64D+00  1.43D+00
                    CP:  1.00D+00
 E= -3184.68056077578     Delta-E=       -0.000000000684 Rises=F Damp=F
 DIIS: error= 3.68D-07 at cycle  17 NSaved=  17.
 NSaved=17 IEnMin=17 EnMin= -3184.68056077578     IErMin=17 ErrMin= 3.68D-07
 ErrMax= 3.68D-07  0.00D+00 EMaxC= 1.00D-01 BMatC= 2.12D-10 BMatP= 8.59D-10
 IDIUse=1 WtCom= 1.00D+00 WtEn= 0.00D+00
 Coeff-Com: -0.771D-05 0.100D-04-0.153D-04 0.154D-08 0.990D-06 0.179D-04
 Coeff-Com: -0.798D-04-0.299D-03-0.477D-03 0.211D-03 0.282D-02 0.751D-02
 Coeff-Com: -0.274D-02-0.861D-01-0.696D-01 0.323D+00 0.826D+00
 Coeff:     -0.771D-05 0.100D-04-0.153D-04 0.154D-08 0.990D-06 0.179D-04
 Coeff:     -0.798D-04-0.299D-03-0.477D-03 0.211D-03 0.282D-02 0.751D-02
 Coeff:     -0.274D-02-0.861D-01-0.696D-01 0.323D+00 0.826D+00
 Gap=     0.078 Goal=   None    Shift=    0.000
 Gap=     0.073 Goal=   None    Shift=    0.000
 RMSDP=1.72D-06 MaxDP=1.40D-04 DE=-6.84D-10 OVMax= 2.38D-05

 Cycle  18  Pass 1  IDiag  1:
 RMSU=  1.35D-07    CP:  1.05D+00  1.66D+00  8.81D-02 -1.27D-02 -2.06D-02
                    CP:  5.89D-01  5.38D-01  6.99D-01  6.81D-01  6.49D-01
                    CP:  1.65D+00  1.51D+00  1.25D+00  1.69D+00  1.53D+00
                    CP:  1.24D+00  1.07D+00
 E= -3184.68056077594     Delta-E=       -0.000000000156 Rises=F Damp=F
 DIIS: error= 6.62D-08 at cycle  18 NSaved=  18.
 NSaved=18 IEnMin=18 EnMin= -3184.68056077594     IErMin=18 ErrMin= 6.62D-08
 ErrMax= 6.62D-08  0.00D+00 EMaxC= 1.00D-01 BMatC= 1.18D-11 BMatP= 2.12D-10
 IDIUse=1 WtCom= 1.00D+00 WtEn= 0.00D+00
 Coeff-Com:  0.154D-04-0.203D-04-0.610D-05-0.581D-08-0.105D-05 0.303D-04
 Coeff-Com: -0.822D-04-0.284D-03-0.551D-03-0.331D-03 0.119D-02 0.567D-02
 Coeff-Com:  0.421D-02-0.281D-01-0.549D-01 0.427D-01 0.242D+00 0.788D+00
 Coeff:      0.154D-04-0.203D-04-0.610D-05-0.581D-08-0.105D-05 0.303D-04
 Coeff:     -0.822D-04-0.284D-03-0.551D-03-0.331D-03 0.119D-02 0.567D-02
 Coeff:      0.421D-02-0.281D-01-0.549D-01 0.427D-01 0.242D+00 0.788D+00
 Gap=     0.078 Goal=   None    Shift=    0.000
 Gap=     0.073 Goal=   None    Shift=    0.000
 RMSDP=2.44D-07 MaxDP=1.92D-05 DE=-1.56D-10 OVMax= 5.83D-06

 Cycle  19  Pass 1  IDiag  1:
 RMSU=  8.95D-08    CP:  1.05D+00  1.66D+00  8.81D-02 -1.27D-02 -2.06D-02
                    CP:  5.89D-01  5.38D-01  6.99D-01  6.81D-01  6.49D-01
                    CP:  1.66D+00  1.51D+00  1.25D+00  1.70D+00  1.54D+00
                    CP:  1.28D+00  1.15D+00  1.14D+00
 E= -3184.68056077595     Delta-E=       -0.000000000006 Rises=F Damp=F
 DIIS: error= 3.37D-08 at cycle  19 NSaved=  19.
 NSaved=19 IEnMin=19 EnMin= -3184.68056077595     IErMin=19 ErrMin= 3.37D-08
 ErrMax= 3.37D-08  0.00D+00 EMaxC= 1.00D-01 BMatC= 3.03D-12 BMatP= 1.18D-11
 IDIUse=1 WtCom= 1.00D+00 WtEn= 0.00D+00
 Coeff-Com:  0.472D-05-0.621D-05 0.570D-07 0.162D-07-0.478D-06 0.721D-05
 Coeff-Com: -0.186D-04-0.607D-04-0.143D-03-0.185D-03 0.925D-04 0.117D-02
 Coeff-Com:  0.212D-02 0.211D-02-0.809D-02-0.388D-01-0.515D-01 0.349D+00
 Coeff-Com:  0.744D+00
 Coeff:      0.472D-05-0.621D-05 0.570D-07 0.162D-07-0.478D-06 0.721D-05
 Coeff:     -0.186D-04-0.607D-04-0.143D-03-0.185D-03 0.925D-04 0.117D-02
 Coeff:      0.212D-02 0.211D-02-0.809D-02-0.388D-01-0.515D-01 0.349D+00
 Coeff:      0.744D+00
 Gap=     0.078 Goal=   None    Shift=    0.000
 Gap=     0.073 Goal=   None    Shift=    0.000
 RMSDP=9.88D-08 MaxDP=7.43D-06 DE=-6.37D-12 OVMax= 1.88D-06

 Cycle  20  Pass 1  IDiag  1:
 RMSU=  3.38D-08    CP:  1.05D+00  1.66D+00  8.81D-02 -1.27D-02 -2.06D-02
                    CP:  5.89D-01  5.38D-01  6.99D-01  6.81D-01  6.49D-01
                    CP:  1.66D+00  1.51D+00  1.25D+00  1.71D+00  1.55D+00
                    CP:  1.30D+00  1.19D+00  1.28D+00  8.35D-01
 E= -3184.68056077595     Delta-E=       -0.000000000006 Rises=F Damp=F
 DIIS: error= 1.43D-08 at cycle  20 NSaved=  20.
 NSaved=20 IEnMin=20 EnMin= -3184.68056077595     IErMin=20 ErrMin= 1.43D-08
 ErrMax= 1.43D-08  0.00D+00 EMaxC= 1.00D-01 BMatC= 4.56D-13 BMatP= 3.03D-12
 IDIUse=1 WtCom= 1.00D+00 WtEn= 0.00D+00
 Coeff-Com:  0.570D-06-0.752D-06 0.937D-06-0.590D-09-0.586D-07-0.895D-06
 Coeff-Com:  0.442D-05 0.145D-04 0.211D-04-0.393D-04-0.174D-03-0.277D-03
 Coeff-Com:  0.624D-03 0.513D-02 0.367D-02-0.219D-01-0.514D-01 0.141D-02
 Coeff-Com:  0.285D+00 0.777D+00
 Coeff:      0.570D-06-0.752D-06 0.937D-06-0.590D-09-0.586D-07-0.895D-06
 Coeff:      0.442D-05 0.145D-04 0.211D-04-0.393D-04-0.174D-03-0.277D-03
 Coeff:      0.624D-03 0.513D-02 0.367D-02-0.219D-01-0.514D-01 0.141D-02
 Coeff:      0.285D+00 0.777D+00
 Gap=     0.078 Goal=   None    Shift=    0.000
 Gap=     0.073 Goal=   None    Shift=    0.000
 RMSDP=3.56D-08 MaxDP=3.24D-06 DE=-6.37D-12 OVMax= 7.15D-07

 Cycle  21  Pass 1  IDiag  1:
 Restarting incremental Fock formation.
 E= -3184.68056077592     Delta-E=        0.000000000029 Rises=F Damp=F
 DIIS: error= 5.04D-09 at cycle  21 NSaved=  20.
 NSaved=20 IEnMin=19 EnMin= -3184.68056077595     IErMin=20 ErrMin= 5.04D-09
 ErrMax= 5.04D-09  0.00D+00 EMaxC= 1.00D-01 BMatC= 6.68D-14 BMatP= 4.56D-13
 IDIUse=1 WtCom= 1.00D+00 WtEn= 0.00D+00
 Coeff-Com: -0.101D-05 0.134D-05 0.411D-06 0.543D-07-0.171D-05 0.483D-05
 Coeff-Com:  0.162D-04 0.316D-04 0.125D-04-0.711D-04-0.311D-03-0.188D-03
 Coeff-Com:  0.140D-02 0.313D-02-0.190D-02-0.107D-01-0.590D-01-0.253D-01
 Coeff-Com:  0.251D+00 0.842D+00
 Coeff:     -0.101D-05 0.134D-05 0.411D-06 0.543D-07-0.171D-05 0.483D-05
 Coeff:      0.162D-04 0.316D-04 0.125D-04-0.711D-04-0.311D-03-0.188D-03
 Coeff:      0.140D-02 0.313D-02-0.190D-02-0.107D-01-0.590D-01-0.253D-01
 Coeff:      0.251D+00 0.842D+00
 Gap=     0.078 Goal=   None    Shift=    0.000
 Gap=     0.073 Goal=   None    Shift=    0.000
 RMSDP=1.11D-08 MaxDP=6.94D-07 DE= 2.91D-11 OVMax= 3.89D-07

 Cycle  22  Pass 1  IDiag  1:
 RMSU=  1.11D-08    CP:  1.00D+00
 E= -3184.68056077592     Delta-E=        0.000000000006 Rises=F Damp=F
 DIIS: error= 1.90D-09 at cycle  22 NSaved=  20.
 NSaved=20 IEnMin=18 EnMin= -3184.68056077595     IErMin=20 ErrMin= 1.90D-09
 ErrMax= 1.90D-09  0.00D+00 EMaxC= 1.00D-01 BMatC= 7.86D-15 BMatP= 6.68D-14
 IDIUse=1 WtCom= 1.00D+00 WtEn= 0.00D+00
 Coeff-Com:  0.785D-07-0.108D-06-0.323D-07 0.293D-07 0.160D-06 0.544D-06
 Coeff-Com:  0.256D-05 0.293D-05 0.995D-05 0.590D-05-0.896D-04-0.603D-03
 Coeff-Com: -0.266D-04 0.316D-02 0.702D-02-0.164D-01-0.562D-01-0.393D-01
 Coeff-Com:  0.178D+00 0.924D+00
 Coeff:      0.785D-07-0.108D-06-0.323D-07 0.293D-07 0.160D-06 0.544D-06
 Coeff:      0.256D-05 0.293D-05 0.995D-05 0.590D-05-0.896D-04-0.603D-03
 Coeff:     -0.266D-04 0.316D-02 0.702D-02-0.164D-01-0.562D-01-0.393D-01
 Coeff:      0.178D+00 0.924D+00
 Gap=     0.078 Goal=   None    Shift=    0.000
 Gap=     0.073 Goal=   None    Shift=    0.000
 RMSDP=7.12D-09 MaxDP=5.26D-07 DE= 6.37D-12 OVMax= 1.46D-07

 SCF Done:  E(UB3LYP) =  -3184.68056078     A.U. after   22 cycles
            NFock= 22  Conv=0.71D-08     -V/T= 2.0017
 <Sx>= 0.0000 <Sy>= 0.0000 <Sz>= 0.5000 <S**2>= 0.7605 S= 0.5053
 <L.S>= 0.000000000000E+00
 KE= 3.179326869372D+03 PE=-1.120626003223D+04 EE= 3.043221802688D+03
 Annihilation of the first spin contaminant:
 S**2 before annihilation     0.7605,   after     0.7501
 Leave Link  502 at Tue May  6 04:01:15 2025, MaxMem=   104857600 cpu:             280.2 elap:             280.8
 (Enter /cm/shared/apps/spack/cpu/opt/spack/linux-centos8-zen/gcc-8.3.1/gaussian-16.C.01-po5bqktfeugvmjyga3v7eigbecnokxng/g16/l508.exe)
 QCSCF skips out because SCF is already converged.
 Leave Link  508 at Tue May  6 04:01:15 2025, MaxMem=   104857600 cpu:               0.0 elap:               0.0
 (Enter /cm/shared/apps/spack/cpu/opt/spack/linux-centos8-zen/gcc-8.3.1/gaussian-16.C.01-po5bqktfeugvmjyga3v7eigbecnokxng/g16/l601.exe)
 Copying SCF densities to generalized density rwf, IOpCl= 1 IROHF=0.

 **********************************************************************

            Population analysis using the SCF Density.

 **********************************************************************

 Orbital symmetries:
 Alpha Orbitals:
       Occupied  (A') (A') (A') (A") (A") (A') (A') (A') (A') (A')
                 (A") (A') (A') (A') (A") (A") (A') (A') (A') (A')
                 (A") (A') (A") (A') (A') (A') (A") (A') (A') (A")
                 (A') (A") (A') (A") (A') (A") (A") (A') (A') (A")
                 (A") (A") (A') (A') (A") (A") (A') (A') (A') (A')
                 (A") (A') (A") (A') (A') (A') (A') (A') (A") (A')
                 (A') (A') (A") (A") (A') (A') (A') (A") (A') (A")
                 (A') (A') (A") (A') (A') (A") (A') (A')
       Virtual   (A") (A") (A') (A") (A') (A') (A") (A') (A") (A")
                 (A') (A') (A') (A') (A') (A") (A') (A') (A") (A')
                 (A') (A") (A') (A') (A") (A') (A") (A') (A') (A")
                 (A') (A") (A") (A') (A") (A') (A") (A") (A') (A")
                 (A') (A") (A') (A') (A") (A') (A') (A") (A") (A')
                 (A') (A") (A') (A") (A') (A') (A') (A") (A') (A")
                 (A') (A') (A") (A') (A') (A') (A') (A") (A") (A')
                 (A') (A") (A') (A') (A") (A') (A') (A") (A') (A")
                 (A") (A') (A") (A') (A") (A') (A') (A") (A') (A')
                 (A') (A") (A') (A") (A") (A") (A') (A') (A') (A')
                 (A") (A') (A") (A") (A") (A') (A") (A') (A') (A")
                 (A') (A') (A") (A') (A") (A') (A') (A') (A') (A")
                 (A") (A') (A') (A') (A') (A") (A") (A') (A') (A")
                 (A') (A') (A") (A") (A') (A') (A') (A") (A") (A')
                 (A") (A') (A") (A') (A') (A") (A") (A') (A') (A")
                 (A') (A') (A") (A') (A") (A') (A") (A') (A") (A")
                 (A') (A') (A') (A") (A") (A') (A") (A") (A') (A")
                 (A') (A') (A") (A') (A') (A") (A') (A') (A') (A")
                 (A") (A') (A") (A') (A') (A") (A') (A') (A") (A')
                 (A") (A') (A') (A") (A') (A") (A') (A') (A') (A")
                 (A') (A') (A") (A') (A') (A") (A') (A') (A') (A")
                 (A') (A") (A') (A") (A") (A') (A") (A') (A') (A")
                 (A') (A') (A") (A') (A") (A") (A") (A') (A') (A")
                 (A') (A") (A') (A') (A") (A') (A') (A') (A") (A')
                 (A') (A') (A') (A") (A') (A') (A") (A') (A') (A")
                 (A') (A')
 Beta  Orbitals:
       Occupied  (A') (A') (A') (A") (A") (A') (A') (A') (A') (A')
                 (A") (A') (A') (A') (A") (A") (A') (A') (A') (A')
                 (A") (A') (A") (A') (A') (A") (A') (A') (A") (A')
                 (A") (A') (A') (A") (A') (A") (A") (A') (A') (A")
                 (A") (A") (A') (A") (A') (A") (A') (A') (A') (A")
                 (A') (A') (A") (A') (A') (A') (A') (A') (A") (A')
                 (A') (A') (A") (A") (A') (A') (A') (A") (A') (A")
                 (A') (A') (A") (A') (A") (A') (A')
       Virtual   (A') (A") (A") (A') (A") (A') (A') (A") (A') (A")
                 (A") (A') (A') (A') (A') (A') (A") (A') (A') (A")
                 (A') (A') (A") (A') (A") (A') (A') (A") (A') (A")
                 (A') (A') (A") (A") (A') (A") (A') (A") (A') (A")
                 (A") (A') (A") (A') (A') (A") (A') (A') (A") (A")
                 (A') (A') (A") (A') (A") (A') (A') (A') (A") (A')
                 (A") (A') (A') (A") (A') (A') (A') (A') (A") (A")
                 (A') (A') (A") (A') (A') (A") (A') (A') (A") (A")
                 (A') (A") (A') (A") (A') (A") (A') (A') (A") (A')
                 (A') (A') (A") (A") (A') (A") (A") (A') (A') (A')
                 (A") (A') (A') (A") (A") (A") (A') (A") (A') (A')
                 (A") (A') (A') (A") (A') (A") (A') (A') (A') (A')
                 (A") (A") (A') (A') (A') (A') (A") (A") (A') (A')
                 (A") (A') (A') (A") (A") (A') (A') (A') (A") (A")
                 (A') (A") (A') (A") (A') (A') (A") (A") (A') (A")
                 (A') (A') (A") (A') (A') (A") (A') (A") (A") (A")
                 (A') (A') (A') (A') (A") (A") (A') (A") (A") (A')
                 (A") (A') (A') (A") (A') (A') (A") (A') (A') (A')
                 (A") (A") (A') (A") (A') (A') (A") (A') (A') (A")
                 (A') (A") (A') (A') (A") (A') (A") (A') (A') (A')
                 (A") (A') (A') (A") (A') (A') (A") (A') (A') (A')
                 (A") (A') (A") (A') (A") (A") (A') (A") (A') (A')
                 (A") (A') (A') (A") (A') (A") (A") (A") (A') (A')
                 (A") (A') (A") (A') (A') (A") (A') (A') (A') (A")
                 (A') (A') (A') (A') (A") (A') (A') (A") (A') (A')
                 (A") (A') (A')
 The electronic state is 2-A'.
 Alpha  occ. eigenvalues --  -66.00357 -65.99924 -65.99380 -65.99379 -65.99317
 Alpha  occ. eigenvalues --  -65.99317 -65.98405 -65.98384 -65.98373 -65.98275
 Alpha  occ. eigenvalues --  -65.98275  -5.17217  -5.16899  -5.16552  -5.16547
 Alpha  occ. eigenvalues --   -5.16241  -5.16240  -5.15464  -5.15356  -5.15338
 Alpha  occ. eigenvalues --   -5.15336  -5.15325  -3.53077  -3.52994  -3.52878
 Alpha  occ. eigenvalues --   -3.52783  -3.52766  -3.52479  -3.52409  -3.52393
 Alpha  occ. eigenvalues --   -3.52370  -3.52358  -3.52187  -3.52185  -3.52105
 Alpha  occ. eigenvalues --   -3.52105  -3.51991  -3.51991  -3.51869  -3.51869
 Alpha  occ. eigenvalues --   -3.51335  -3.51260  -3.51214  -3.51207  -3.51207
 Alpha  occ. eigenvalues --   -3.51192  -3.51157  -3.51141  -3.51117  -3.51064
 Alpha  occ. eigenvalues --   -3.51060  -3.51018  -3.51008  -3.50935  -3.50873
 Alpha  occ. eigenvalues --   -0.55111  -0.47577  -0.45035  -0.43717  -0.36834
 Alpha  occ. eigenvalues --   -0.34140  -0.30108  -0.29725  -0.29045  -0.24648
 Alpha  occ. eigenvalues --   -0.21490  -0.18220  -0.16610  -0.15909  -0.14431
 Alpha  occ. eigenvalues --   -0.13782  -0.12885  -0.12664  -0.10643  -0.09395
 Alpha  occ. eigenvalues --   -0.09249  -0.08623  -0.05761
 Alpha virt. eigenvalues --    0.02021   0.02958   0.03650   0.05671   0.06126
 Alpha virt. eigenvalues --    0.07057   0.07663   0.08047   0.08211   0.08659
 Alpha virt. eigenvalues --    0.09052   0.09920   0.10090   0.10393   0.11109
 Alpha virt. eigenvalues --    0.11323   0.11902   0.12625   0.13005   0.13589
 Alpha virt. eigenvalues --    0.14084   0.14355   0.14476   0.14840   0.14967
 Alpha virt. eigenvalues --    0.15220   0.15325   0.16062   0.16270   0.16295
 Alpha virt. eigenvalues --    0.17000   0.17177   0.17587   0.18354   0.18499
 Alpha virt. eigenvalues --    0.18746   0.19178   0.19692   0.19733   0.19820
 Alpha virt. eigenvalues --    0.19902   0.20223   0.20723   0.20956   0.21099
 Alpha virt. eigenvalues --    0.21899   0.22352   0.22775   0.23043   0.23063
 Alpha virt. eigenvalues --    0.23576   0.23827   0.24056   0.24515   0.24729
 Alpha virt. eigenvalues --    0.25221   0.25830   0.25947   0.27132   0.27888
 Alpha virt. eigenvalues --    0.28030   0.28117   0.28234   0.29009   0.29729
 Alpha virt. eigenvalues --    0.30062   0.31313   0.31440   0.31933   0.32183
 Alpha virt. eigenvalues --    0.33863   0.35976   0.36873   0.38397   0.38679
 Alpha virt. eigenvalues --    0.38809   0.38889   0.40135   0.40233   0.40286
 Alpha virt. eigenvalues --    0.41121   0.41962   0.42281   0.42401   0.42481
 Alpha virt. eigenvalues --    0.43119   0.43431   0.44262   0.44712   0.45637
 Alpha virt. eigenvalues --    0.46383   0.46572   0.47324   0.47364   0.48436
 Alpha virt. eigenvalues --    0.49155   0.49648   0.50660   0.53395   0.55595
 Alpha virt. eigenvalues --    0.55763   0.56761   0.57069   0.59657   0.61030
 Alpha virt. eigenvalues --    0.61609   0.62276   0.63679   0.64778   0.65739
 Alpha virt. eigenvalues --    0.67264   0.67360   0.68394   0.69630   0.70581
 Alpha virt. eigenvalues --    0.70759   0.71002   0.71840   0.72135   0.72179
 Alpha virt. eigenvalues --    0.72522   0.73535   0.74300   0.75080   0.76284
 Alpha virt. eigenvalues --    0.77719   0.78941   0.80157   0.80804   0.80964
 Alpha virt. eigenvalues --    0.82960   0.84163   0.85343   0.86636   0.86998
 Alpha virt. eigenvalues --    0.87946   0.88736   0.88813   0.90929   0.91737
 Alpha virt. eigenvalues --    0.92209   0.92778   0.92870   0.93272   0.94586
 Alpha virt. eigenvalues --    0.95190   0.95977   0.98391   0.99545   0.99657
 Alpha virt. eigenvalues --    1.00246   1.02037   1.02160   1.03224   1.03778
 Alpha virt. eigenvalues --    1.04600   1.04858   1.05823   1.05873   1.06069
 Alpha virt. eigenvalues --    1.07660   1.07768   1.14537   1.15045   1.40242
 Alpha virt. eigenvalues --    1.40906   1.42268   1.44511   1.44802   1.45085
 Alpha virt. eigenvalues --    1.45218   1.46718   1.47372   1.48715   1.48884
 Alpha virt. eigenvalues --    1.49102   1.50875   1.53762   1.55177   1.55518
 Alpha virt. eigenvalues --    1.58492   1.58651   1.59845   1.60525   1.61015
 Alpha virt. eigenvalues --    1.62523   1.63732   1.64485   1.65272   1.65980
 Alpha virt. eigenvalues --    1.67473   1.67712   1.70883   1.72277   1.72358
 Alpha virt. eigenvalues --    1.77761   1.79451   5.56970   5.58003   5.59839
 Alpha virt. eigenvalues --    5.61130   5.62118   5.65312   5.66578   5.66896
 Alpha virt. eigenvalues --    5.67941   5.70929   5.77973  11.42801  11.43033
 Alpha virt. eigenvalues --   11.44654  11.45291  11.45781  11.46786  11.48194
 Alpha virt. eigenvalues --   11.48390  11.48628  11.49622  11.50030  11.50992
 Alpha virt. eigenvalues --   11.51046  11.51894  11.52121  11.53251  11.55312
 Alpha virt. eigenvalues --   11.55776  11.57346  11.57657  11.58622  11.59580
 Alpha virt. eigenvalues --   11.60743  11.61463  11.61491  11.64771  11.65990
 Alpha virt. eigenvalues --   11.66021  11.67364  11.70232  11.71486  11.74236
 Alpha virt. eigenvalues --   11.78195 141.01829 141.03822 141.06861 141.08025
 Alpha virt. eigenvalues --  141.08442 141.11446 141.13431 141.15124 141.16030
 Alpha virt. eigenvalues --  141.18516 141.27311
  Beta  occ. eigenvalues --  -66.00259 -65.99777 -65.99387 -65.99387 -65.99307
  Beta  occ. eigenvalues --  -65.99307 -65.98390 -65.98354 -65.98294 -65.98231
  Beta  occ. eigenvalues --  -65.98231  -5.17119  -5.16731  -5.16560  -5.16555
  Beta  occ. eigenvalues --   -5.16231  -5.16230  -5.15446  -5.15321  -5.15287
  Beta  occ. eigenvalues --   -5.15285  -5.15248  -3.53017  -3.52823  -3.52665
  Beta  occ. eigenvalues --   -3.52653  -3.52422  -3.52411  -3.52407  -3.52387
  Beta  occ. eigenvalues --   -3.52364  -3.52362  -3.52199  -3.52196  -3.52104
  Beta  occ. eigenvalues --   -3.52104  -3.51949  -3.51949  -3.51865  -3.51865
  Beta  occ. eigenvalues --   -3.51329  -3.51235  -3.51163  -3.51149  -3.51145
  Beta  occ. eigenvalues --   -3.51135  -3.51082  -3.51062  -3.51033  -3.51030
  Beta  occ. eigenvalues --   -3.50963  -3.50946  -3.50937  -3.50899  -3.50796
  Beta  occ. eigenvalues --   -0.54915  -0.47148  -0.44735  -0.43610  -0.36255
  Beta  occ. eigenvalues --   -0.33437  -0.29866  -0.29619  -0.28890  -0.24170
  Beta  occ. eigenvalues --   -0.20360  -0.17610  -0.16459  -0.15113  -0.14181
  Beta  occ. eigenvalues --   -0.13613  -0.12617  -0.12467  -0.10214  -0.09079
  Beta  occ. eigenvalues --   -0.08988  -0.08131
  Beta virt. eigenvalues --   -0.00797   0.02216   0.03241   0.03853   0.05832
  Beta virt. eigenvalues --    0.06501   0.07464   0.07770   0.08212   0.08349
  Beta virt. eigenvalues --    0.08709   0.09249   0.10122   0.10406   0.10534
  Beta virt. eigenvalues --    0.11170   0.11348   0.12207   0.12773   0.13037
  Beta virt. eigenvalues --    0.13671   0.14255   0.14458   0.14590   0.14991
  Beta virt. eigenvalues --    0.14992   0.15266   0.15357   0.16179   0.16364
  Beta virt. eigenvalues --    0.16511   0.17310   0.17341   0.17633   0.18463
  Beta virt. eigenvalues --    0.18509   0.19113   0.19218   0.19811   0.19814
  Beta virt. eigenvalues --    0.19861   0.19963   0.20224   0.20802   0.21019
  Beta virt. eigenvalues --    0.21132   0.21968   0.22492   0.22891   0.23086
  Beta virt. eigenvalues --    0.23112   0.23756   0.23868   0.24152   0.24573
  Beta virt. eigenvalues --    0.24856   0.25358   0.25977   0.26038   0.27216
  Beta virt. eigenvalues --    0.27940   0.28113   0.28210   0.28261   0.29172
  Beta virt. eigenvalues --    0.29932   0.30355   0.31465   0.31513   0.31951
  Beta virt. eigenvalues --    0.32283   0.34126   0.36007   0.37066   0.38707
  Beta virt. eigenvalues --    0.38748   0.38996   0.39268   0.40194   0.40332
  Beta virt. eigenvalues --    0.40336   0.41203   0.42226   0.42390   0.42549
  Beta virt. eigenvalues --    0.42550   0.43268   0.43722   0.44342   0.44902
  Beta virt. eigenvalues --    0.45742   0.46536   0.46661   0.47426   0.47541
  Beta virt. eigenvalues --    0.48501   0.49244   0.49804   0.50810   0.53565
  Beta virt. eigenvalues --    0.56081   0.56138   0.56921   0.57383   0.59950
  Beta virt. eigenvalues --    0.61269   0.62061   0.62412   0.63938   0.65203
  Beta virt. eigenvalues --    0.65922   0.67438   0.67635   0.68617   0.70003
  Beta virt. eigenvalues --    0.70955   0.71010   0.71501   0.72175   0.72420
  Beta virt. eigenvalues --    0.72426   0.72661   0.74012   0.74680   0.75456
  Beta virt. eigenvalues --    0.76559   0.78221   0.79112   0.80320   0.81247
  Beta virt. eigenvalues --    0.81629   0.83172   0.84617   0.85616   0.86747
  Beta virt. eigenvalues --    0.87259   0.88087   0.89045   0.89130   0.91075
  Beta virt. eigenvalues --    0.91960   0.92378   0.92886   0.93066   0.93523
  Beta virt. eigenvalues --    0.94875   0.95370   0.96123   0.98612   0.99766
  Beta virt. eigenvalues --    0.99851   1.00618   1.02217   1.02530   1.03608
  Beta virt. eigenvalues --    1.03990   1.04863   1.04931   1.06037   1.06214
  Beta virt. eigenvalues --    1.06273   1.07883   1.08110   1.14671   1.15092
  Beta virt. eigenvalues --    1.40346   1.41529   1.42397   1.44612   1.44881
  Beta virt. eigenvalues --    1.45176   1.45364   1.46839   1.47478   1.48932
  Beta virt. eigenvalues --    1.49202   1.49247   1.51146   1.54067   1.55379
  Beta virt. eigenvalues --    1.55600   1.58590   1.58747   1.59927   1.60725
  Beta virt. eigenvalues --    1.61147   1.62614   1.63892   1.64602   1.65411
  Beta virt. eigenvalues --    1.66223   1.67524   1.67944   1.71058   1.72401
  Beta virt. eigenvalues --    1.72672   1.77859   1.79557   5.57173   5.58230
  Beta virt. eigenvalues --    5.59894   5.61216   5.62319   5.65346   5.66644
  Beta virt. eigenvalues --    5.66981   5.67974   5.71021   5.78040  11.43034
  Beta virt. eigenvalues --   11.43107  11.44839  11.45343  11.45895  11.46851
  Beta virt. eigenvalues --   11.48236  11.48572  11.48682  11.49723  11.50093
  Beta virt. eigenvalues --   11.51074  11.51106  11.51959  11.52128  11.53381
  Beta virt. eigenvalues --   11.55319  11.55808  11.57380  11.57723  11.58734
  Beta virt. eigenvalues --   11.59604  11.60895  11.61490  11.61733  11.64841
  Beta virt. eigenvalues --   11.66063  11.66076  11.67435  11.70265  11.71502
  Beta virt. eigenvalues --   11.74266  11.78227 141.01911 141.03925 141.06885
  Beta virt. eigenvalues --  141.08088 141.08496 141.11459 141.13454 141.15164
  Beta virt. eigenvalues --  141.16042 141.18553 141.27333
          Condensed to atoms (all electrons):
               1          2          3          4          5          6
     1  Si  27.489076   3.696344   1.509291   1.984664 -10.406837 -10.406837
     2  Si   3.696344  17.461152   0.497809   1.169506  -4.162886  -4.162886
     3  Si   1.509291   0.497809  18.619674   1.128444   0.304902  -3.590409
     4  Si   1.984664   1.169506   1.128444  18.471489  -2.437158  -2.437158
     5  Si -10.406837  -4.162886   0.304902  -2.437158  27.448939   6.838294
     6  Si -10.406837  -4.162886  -3.590409  -2.437158   6.838294  27.448939
     7  Si   1.509291   0.497809  -1.452600   1.128444  -3.590409   0.304902
     8  Si  -4.298297  -2.137551  -2.795014  -4.122003   4.202790   4.304360
     9  Si  -0.138482   0.272904  -0.744906  -0.442877   0.146235   0.146235
    10  Si   7.689832   3.254497   1.602183   3.914587  -8.831908  -8.831908
    11  Si  -4.298297  -2.137551  -0.789123  -4.122003   4.304360   4.202790
               7          8          9         10         11
     1  Si   1.509291  -4.298297  -0.138482   7.689832  -4.298297
     2  Si   0.497809  -2.137551   0.272904   3.254497  -2.137551
     3  Si  -1.452600  -2.795014  -0.744906   1.602183  -0.789123
     4  Si   1.128444  -4.122003  -0.442877   3.914587  -4.122003
     5  Si  -3.590409   4.202790   0.146235  -8.831908   4.304360
     6  Si   0.304902   4.304360   0.146235  -8.831908   4.202790
     7  Si  18.619674  -0.789123  -0.744906   1.602183  -2.795014
     8  Si  -0.789123  21.450934  -0.299414  -6.226899   4.250744
     9  Si  -0.744906  -0.299414  15.978000   0.173573  -0.299414
    10  Si   1.602183  -6.226899   0.173573  26.724777  -6.226899
    11  Si  -2.795014   4.250744  -0.299414  -6.226899  21.450934
          Atomic-Atomic Spin Densities.
               1          2          3          4          5          6
     1  Si   0.989439  -0.170352   0.230112   0.019430  -0.628801  -0.628801
     2  Si  -0.170352   0.421624  -0.003671   0.019253  -0.009063  -0.009063
     3  Si   0.230112  -0.003671   0.145273   0.065279  -0.427956  -0.181323
     4  Si   0.019430   0.019253   0.065279   0.229788  -0.082376  -0.082376
     5  Si  -0.628801  -0.009063  -0.427956  -0.082376   0.605118   0.989969
     6  Si  -0.628801  -0.009063  -0.181323  -0.082376   0.989969   0.605118
     7  Si   0.230112  -0.003671   0.347531   0.065279  -0.181323  -0.427956
     8  Si  -0.127757  -0.009982  -0.115711  -0.069948   0.226961   0.215543
     9  Si  -0.089406  -0.107871  -0.142358  -0.046596   0.236599   0.236599
    10  Si   0.494097   0.174096   0.265842   0.139208  -0.930791  -0.930791
    11  Si  -0.127757  -0.009982  -0.110805  -0.069948   0.215543   0.226961
               7          8          9         10         11
     1  Si   0.230112  -0.127757  -0.089406   0.494097  -0.127757
     2  Si  -0.003671  -0.009982  -0.107871   0.174096  -0.009982
     3  Si   0.347531  -0.115711  -0.142358   0.265842  -0.110805
     4  Si   0.065279  -0.069948  -0.046596   0.139208  -0.069948
     5  Si  -0.181323   0.226961   0.236599  -0.930791   0.215543
     6  Si  -0.427956   0.215543   0.236599  -0.930791   0.226961
     7  Si   0.145273  -0.110805  -0.142358   0.265842  -0.115711
     8  Si  -0.110805   0.136220   0.122279  -0.307958   0.054592
     9  Si  -0.142358   0.122279   0.129401  -0.256311   0.122279
    10  Si   0.265842  -0.307958  -0.256311   1.464780  -0.307958
    11  Si  -0.115711   0.054592   0.122279  -0.307958   0.136220
 Mulliken charges and spin densities:
               1          2
     1  Si  -0.329749   0.190316
     2  Si  -0.249148   0.291319
     3  Si  -0.290252   0.072213
     4  Si  -0.235935   0.186993
     5  Si   0.183679   0.013882
     6  Si   0.183679   0.013882
     7  Si  -0.290252   0.072213
     8  Si   0.459472   0.013433
     9  Si  -0.046949   0.062259
    10  Si  -0.844018   0.070058
    11  Si   0.459472   0.013433
 Sum of Mulliken charges =  -1.00000   1.00000
 Mulliken charges and spin densities with hydrogens summed into heavy atoms:
               1          2
     1  Si  -0.329749   0.190316
     2  Si  -0.249148   0.291319
     3  Si  -0.290252   0.072213
     4  Si  -0.235935   0.186993
     5  Si   0.183679   0.013882
     6  Si   0.183679   0.013882
     7  Si  -0.290252   0.072213
     8  Si   0.459472   0.013433
     9  Si  -0.046949   0.062259
    10  Si  -0.844018   0.070058
    11  Si   0.459472   0.013433
 Electronic spatial extent (au):  <R**2>=           3494.7466
 Charge=             -1.0000 electrons
 Dipole moment (field-independent basis, Debye):
    X=             -0.0205    Y=             -1.7420    Z=              0.0000  Tot=              1.7421
 Quadrupole moment (field-independent basis, Debye-Ang):
   XX=           -173.7376   YY=           -179.1823   ZZ=           -168.2271
   XY=             -1.0817   XZ=              0.0000   YZ=              0.0000
 Traceless Quadrupole moment (field-independent basis, Debye-Ang):
   XX=             -0.0219   YY=             -5.4667   ZZ=              5.4886
   XY=             -1.0817   XZ=              0.0000   YZ=              0.0000
 Octapole moment (field-independent basis, Debye-Ang**2):
  XXX=              1.3348  YYY=             -6.2736  ZZZ=             -0.0000  XYY=             -5.8805
  XXY=            -11.5520  XXZ=             -0.0000  XZZ=              0.8374  YZZ=            -14.9259
  YYZ=             -0.0000  XYZ=              0.0000
 Hexadecapole moment (field-independent basis, Debye-Ang**3):
 XXXX=          -2027.9005 YYYY=          -3167.5572 ZZZZ=          -1705.3493 XXXY=           -128.1611
 XXXZ=              0.0000 YYYX=           -132.2320 YYYZ=              0.0000 ZZZX=              0.0000
 ZZZY=              0.0000 XXYY=           -866.6464 XXZZ=           -616.6113 YYZZ=           -738.7950
 XXYZ=              0.0000 YYXZ=             -0.0000 ZZXY=            -33.6481
 N-N= 1.799030799390D+03 E-N=-1.120626003120D+04  KE= 3.179326869372D+03
 Symmetry A'   KE= 2.188070100503D+03
 Symmetry A"   KE= 9.912567688690D+02
 Symmetry A'   SP= 1.000000000000D+00
 Symmetry A"   SP=-1.148591307445D-13
                          Isotropic Fermi Contact Couplings
        Atom                 a.u.       MegaHertz       Gauss      10(-4) cm-1
     1  Si(29)             0.00307      -2.72692      -0.97303      -0.90960
     2  Si(29)             0.35567    -316.09401    -112.79020    -105.43761
     3  Si(29)             0.12039    -106.99093     -38.17702     -35.68833
[...]
 ! D9    D(7,2,6,10)           -29.9246         -DE/DX =    0.0                 !
 ! D10   D(1,2,7,9)            -97.8766         -DE/DX =    0.0                 !
 ! D11   D(1,2,7,11)           -21.0326         -DE/DX =    0.0                 !
 ! D12   D(6,2,7,9)            -44.8924         -DE/DX =    0.0                 !
 ! D13   D(6,2,7,11)            31.9516         -DE/DX =    0.0                 !
 ! D14   D(7,3,6,1)            -56.9322         -DE/DX =    0.0                 !
 ! D15   D(7,3,6,5)              0.0            -DE/DX =    0.0                 !
 ! D16   D(7,3,6,10)            57.2764         -DE/DX =    0.0                 !
 ! D17   D(9,3,6,1)           -111.6962         -DE/DX =    0.0                 !
 ! D18   D(9,3,6,5)            -54.7641         -DE/DX =    0.0                 !
 ! D19   D(9,3,6,10)             2.5123         -DE/DX =    0.0                 !
 ! D20   D(6,3,7,5)              0.0            -DE/DX =    0.0                 !
 ! D21   D(6,3,7,11)           -52.8135         -DE/DX =    0.0                 !
 ! D22   D(8,3,7,5)             52.8135         -DE/DX =    0.0                 !
 ! D23   D(8,3,7,11)             0.0            -DE/DX =    0.0                 !
 ! D24   D(2,3,8,4)             81.2347         -DE/DX =    0.0                 !
 ! D25   D(2,3,8,10)            24.9035         -DE/DX =    0.0                 !
 ! D26   D(7,3,8,4)             21.9051         -DE/DX =    0.0                 !
 ! D27   D(7,3,8,10)           -34.4261         -DE/DX =    0.0                 !
 ! D28   D(2,3,9,4)            -87.8074         -DE/DX =    0.0                 !
 ! D29   D(2,3,9,11)           -28.8162         -DE/DX =    0.0                 !
 ! D30   D(6,3,9,4)            -22.7455         -DE/DX =    0.0                 !
 ! D31   D(6,3,9,11)            36.2457         -DE/DX =    0.0                 !
 ! D32   D(11,4,8,3)           -34.9361         -DE/DX =    0.0                 !
 ! D33   D(11,4,8,6)            37.4078         -DE/DX =    0.0                 !
 ! D34   D(10,4,9,3)            35.933          -DE/DX =    0.0                 !
 ! D35   D(10,4,9,7)           -35.933          -DE/DX =    0.0                 !
 ! D36   D(9,4,10,5)            33.4617         -DE/DX =    0.0                 !
 ! D37   D(9,4,10,6)           -33.4617         -DE/DX =    0.0                 !
 ! D38   D(8,4,11,5)           -37.4078         -DE/DX =    0.0                 !
 ! D39   D(8,4,11,7)            34.9361         -DE/DX =    0.0                 !
 ! D40   D(7,5,6,3)              0.0            -DE/DX =    0.0                 !
 ! D41   D(7,5,6,8)            -54.6866         -DE/DX =    0.0                 !
 ! D42   D(11,5,6,3)            54.6866         -DE/DX =    0.0                 !
 ! D43   D(11,5,6,8)             0.0            -DE/DX =    0.0                 !
 ! D44   D(1,5,7,3)             56.9322         -DE/DX =    0.0                 !
 ! D45   D(1,5,7,9)            111.6962         -DE/DX =    0.0                 !
 ! D46   D(6,5,7,3)              0.0            -DE/DX =    0.0                 !
 ! D47   D(6,5,7,9)             54.7641         -DE/DX =    0.0                 !
 ! D48   D(10,5,7,3)           -57.2764         -DE/DX =    0.0                 !
 ! D49   D(10,5,7,9)            -2.5123         -DE/DX =    0.0                 !
 ! D50   D(1,5,10,4)          -135.8909         -DE/DX =    0.0                 !
 ! D51   D(1,5,10,8)           -76.9245         -DE/DX =    0.0                 !
 ! D52   D(2,5,10,4)           -75.7742         -DE/DX =    0.0                 !
 ! D53   D(2,5,10,8)           -16.8078         -DE/DX =    0.0                 !
 ! D54   D(7,5,10,4)           -19.5694         -DE/DX =    0.0                 !
 ! D55   D(7,5,10,8)            39.3969         -DE/DX =    0.0                 !
 ! D56   D(1,5,11,4)            61.6806         -DE/DX =    0.0                 !
 ! D57   D(1,5,11,9)             3.2248         -DE/DX =    0.0                 !
 ! D58   D(2,5,11,4)            88.864          -DE/DX =    0.0                 !
 ! D59   D(2,5,11,9)            30.4082         -DE/DX =    0.0                 !
 ! D60   D(6,5,11,4)            23.593          -DE/DX =    0.0                 !
 ! D61   D(6,5,11,9)           -34.8628         -DE/DX =    0.0                 !
 ! D62   D(1,6,8,4)            -61.6806         -DE/DX =    0.0                 !
 ! D63   D(1,6,8,9)             -3.2248         -DE/DX =    0.0                 !
 ! D64   D(2,6,8,4)            -88.864          -DE/DX =    0.0                 !
 ! D65   D(2,6,8,9)            -30.4082         -DE/DX =    0.0                 !
 ! D66   D(5,6,8,4)            -23.593          -DE/DX =    0.0                 !
 ! D67   D(5,6,8,9)             34.8628         -DE/DX =    0.0                 !
 ! D68   D(1,6,10,4)           135.8909         -DE/DX =    0.0                 !
 ! D69   D(1,6,10,11)           76.9245         -DE/DX =    0.0                 !
 ! D70   D(2,6,10,4)            75.7742         -DE/DX =    0.0                 !
 ! D71   D(2,6,10,11)           16.8078         -DE/DX =    0.0                 !
 ! D72   D(3,6,10,4)            19.5694         -DE/DX =    0.0                 !
 ! D73   D(3,6,10,11)          -39.3969         -DE/DX =    0.0                 !
 ! D74   D(2,7,9,4)             87.8074         -DE/DX =    0.0                 !
 ! D75   D(2,7,9,8)             28.8162         -DE/DX =    0.0                 !
 ! D76   D(5,7,9,4)             22.7455         -DE/DX =    0.0                 !
 ! D77   D(5,7,9,8)            -36.2457         -DE/DX =    0.0                 !
 ! D78   D(2,7,11,4)           -81.2347         -DE/DX =    0.0                 !
 ! D79   D(2,7,11,10)          -24.9035         -DE/DX =    0.0                 !
 ! D80   D(3,7,11,4)           -21.9051         -DE/DX =    0.0                 !
 ! D81   D(3,7,11,10)           34.4261         -DE/DX =    0.0                 !
 ! D82   D(6,8,9,7)              3.4357         -DE/DX =    0.0                 !
 ! D83   D(6,8,9,11)           -50.9715         -DE/DX =    0.0                 !
 ! D84   D(10,8,9,7)            57.0973         -DE/DX =    0.0                 !
 ! D85   D(10,8,9,11)            2.6901         -DE/DX =    0.0                 !
 ! D86   D(3,8,10,5)            -3.2046         -DE/DX =    0.0                 !
 ! D87   D(3,8,10,11)           50.6163         -DE/DX =    0.0                 !
 ! D88   D(9,8,10,5)           -56.4968         -DE/DX =    0.0                 !
 ! D89   D(9,8,10,11)           -2.6759         -DE/DX =    0.0                 !
 ! D90   D(3,9,11,5)            -3.4357         -DE/DX =    0.0                 !
 ! D91   D(3,9,11,10)          -57.0973         -DE/DX =    0.0                 !
 ! D92   D(8,9,11,5)            50.9715         -DE/DX =    0.0                 !
 ! D93   D(8,9,11,10)           -2.6901         -DE/DX =    0.0                 !
 ! D94   D(6,10,11,7)            3.2046         -DE/DX =    0.0                 !
 ! D95   D(6,10,11,9)           56.4968         -DE/DX =    0.0                 !
 ! D96   D(8,10,11,7)          -50.6163         -DE/DX =    0.0                 !
 ! D97   D(8,10,11,9)            2.6759         -DE/DX =    0.0                 !
 --------------------------------------------------------------------------------
 GradGradGradGradGradGradGradGradGradGradGradGradGradGradGradGradGradGrad

 Leave Link  103 at Tue May  6 04:57:29 2025, MaxMem=   104857600 cpu:               0.0 elap:               0.0
 (Enter /cm/shared/apps/spack/cpu/opt/spack/linux-centos8-zen/gcc-8.3.1/gaussian-16.C.01-po5bqktfeugvmjyga3v7eigbecnokxng/g16/l9999.exe)

 ----------------------------------------------------------------------

 Electric dipole moment (input orientation):
 (Debye = 10**-18 statcoulomb cm , SI units = C m)
                  (au)            (Debye)         (10**-30 SI)
   Tot        0.676826D+00      0.172032D+01      0.573837D+01
   x         -0.120867D-01     -0.307213D-01     -0.102475D+00
   y         -0.676718D+00     -0.172004D+01     -0.573745D+01
   z          0.000000D+00      0.000000D+00      0.000000D+00

 Dipole polarizability, Alpha (input orientation).
 (esu units = cm**3 , SI units = C**2 m**2 J**-1)
 Alpha(0;0):
               (au)            (10**-24 esu)      (10**-40 SI)
   iso        0.378532D+03      0.560927D+02      0.624115D+02
   aniso      0.926456D+02      0.137287D+02      0.152752D+02
   xx         0.365088D+03      0.541004D+02      0.601949D+02
   yx         0.177442D+02      0.262942D+01      0.292562D+01
   yy         0.434353D+03      0.643644D+02      0.716151D+02
   zx         0.000000D+00      0.000000D+00      0.000000D+00
   zy         0.000000D+00      0.000000D+00      0.000000D+00
   zz         0.336156D+03      0.498132D+02      0.554246D+02

 ----------------------------------------------------------------------

 Dipole orientation:
    14          0.34030274         -0.00607807          6.12133515
    14         -3.28661191          0.05870146          3.25016015
    14         -3.14556005          2.61833276         -0.57527436
    14          2.81764939         -0.05032542         -4.48406703
    14          1.09824601         -2.42104887          2.30496040
    14          1.18400162          2.38028614          2.30496040
    14         -3.23705489         -2.50433426         -0.57527436
    14          1.08038917          3.72867223         -2.04266178
    14         -2.00264382          0.03576879         -4.18376472
    14          4.20473544         -0.07509987         -0.07771175
    14          0.94654855         -3.76487492         -2.04266178

 Electric dipole moment (dipole orientation):
 (Debye = 10**-18 statcoulomb cm , SI units = C m)
                  (au)            (Debye)         (10**-30 SI)
   Tot        0.676826D+00      0.172032D+01      0.573837D+01
   x          0.000000D+00      0.000000D+00      0.000000D+00
   y          0.000000D+00      0.000000D+00      0.000000D+00
   z          0.676826D+00      0.172032D+01      0.573837D+01

 Dipole polarizability, Alpha (dipole orientation).
 (esu units = cm**3 , SI units = C**2 m**2 J**-1)
 Alpha(0;0):
               (au)            (10**-24 esu)      (10**-40 SI)
   iso        0.378532D+03      0.560927D+02      0.624115D+02
   aniso      0.926456D+02      0.137287D+02      0.152752D+02
   xx         0.364467D+03      0.540085D+02      0.600925D+02
   yx        -0.505662D+00     -0.749315D-01     -0.833725D-01
   yy         0.336165D+03      0.498145D+02      0.554261D+02
   zx        -0.164935D+02     -0.244409D+01     -0.271941D+01
   zy         0.294587D+00      0.436533D-01      0.485709D-01
   zz         0.434964D+03      0.644551D+02      0.717159D+02

 ----------------------------------------------------------------------
 Unable to Open any file for archive entry.
 1\1\GINC-EXP-9-10\Freq\UB3LYP\6-311+G(d)\Si11(1-,2)\GRIDCHEM\06-May-20
 25\0\\#P Geom=AllCheck Guess=TCheck SCRF=Check GenChk UB3LYP/6-311+G(d
 ) Freq\\Si11-anion-doublet\\-1,2\Si,0.1222337621,-3.2419708879,0.\Si,-
 1.769914176,-1.68857294,0.\Si,-1.6833308366,0.3345362392,1.3556154964\
 Si,1.5334103337,2.3458566236,0.\Si,0.5820748143,-1.2303233627,-1.27058
 11469\Si,0.5820748143,-1.2303233627,1.2705811469\Si,-1.6833308366,0.33
 45362392,-1.3556154964\Si,0.5556078028,1.071178872,1.9830234145\Si,-1.
 0202168461,2.2325279254,0.\Si,2.225784549,0.0013755926,0.\Si,0.5556078
 028,1.071178872,-1.9830234145\\Version=ES64L-G16RevC.01\State=2-A'\HF=
 -3184.6809497\S2=0.760785\S2-1=0.\S2A=0.750085\RMSD=3.324e-09\RMSF=5.1
 69e-05\ZeroPoint=0.015583\Thermal=0.0318429\ETot=-3184.6491068\HTot=-3
 184.6481626\GTot=-3184.7092486\Dipole=-0.0120867,-0.6767177,0.\DipoleD
 eriv=0.0673105,0.0823121,0.,0.0429729,0.2878362,0.,0.,0.,0.1401917,-0.
 1551281,-0.1187407,0.,0.1155852,0.002666,0.,0.,0.,-0.0077921,-0.225769
 2,0.0233286,-0.0483019,0.002928,-0.1917024,-0.004568,-0.0286879,0.0222
 993,-0.159137,0.0580038,0.1598978,0.,0.2389383,0.1412119,0.,0.,0.,-0.0
 487343,-0.0757984,-0.0035126,0.0064353,-0.1105656,-0.3376567,0.0866599
 ,0.0128175,0.1170344,-0.2828156,-0.0757984,-0.0035126,-0.0064353,-0.11
 05656,-0.3376567,-0.0866599,-0.0128175,-0.1170344,-0.2828155,-0.225769
 2,0.0233286,0.0483019,0.002928,-0.1917024,0.004568,0.0286879,-0.022299
 3,-0.159137,-0.0986959,0.0038535,0.0467853,-0.0177497,-0.0124032,0.100
 3923,-0.0460102,0.0541901,0.066872,-0.0127796,-0.0621707,0.,-0.2005753
 ,-0.1494507,0.,0.,0.,-0.1654318,-0.1568797,-0.1086375,0.,0.0538534,-0.
 1987387,0.,0.,0.,-0.1680724,-0.0986959,0.0038535,-0.0467853,-0.0177497
 ,-0.0124032,-0.1003923,0.0460102,-0.0541901,0.066872\Polar=365.0878541
 ,17.7441964,434.3526871,0.0000001,0.,336.1559292\Quadrupole=0.2070589,
 -4.3658684,4.1588095,-0.9477446,0.,0.\PG=CS [SG(Si5),X(Si6)]\NImag=0\\
 0.03901928,-0.00571329,0.11353043,0.,0.,0.02648858,-0.02745718,0.02690
 177,0.,0.04768867,0.02939470,-0.02253787,0.,-0.01167802,0.10719387,0.,
 0.,-0.00379609,0.,0.,0.03612208,-0.00039806,-0.00026719,0.00115130,0.0
 0542121,-0.00565617,-0.00530117,0.06617227,0.00257211,-0.00089915,-0.0
 0215488,-0.00047339,-0.03532298,-0.02045534,0.02294789,0.07985476,0.00
 097450,0.00270971,0.00053430,-0.00542615,-0.01789813,-0.00996110,-0.00
 579265,0.00325743,0.05493457,-0.00127490,-0.00327574,0.,-0.00601674,-0
 .00087417,0.,-0.00299997,-0.00475375,-0.00034329,0.05079573,-0.0049380
 6,-0.00289404,0.,0.00289255,-0.00600436,0.,-0.00090923,-0.00141328,-0.
 00456296,0.01790307,0.08279532,0.,0.,-0.00172509,0.,0.,-0.00750449,0.0
 0186755,0.00150818,0.00092456,0.,0.,0.02995057,-0.00050443,-0.01112446
 ,0.00353561,-0.00914990,-0.00350789,0.00395271,-0.00365917,0.00831445,
 0.00659285,0.00096332,-0.00088132,0.00145605,0.03706396,-0.00988952,-0
 .04128391,0.02826170,-0.00275217,-0.00048745,-0.00108743,0.00001831,-0
 .00061366,0.00147020,0.00167861,-0.00595144,-0.00498825,0.02256125,0.1
 2493537,0.00110047,0.02376280,-0.00558388,0.00406818,-0.00235046,-0.00
 121492,0.00061938,-0.00534697,-0.00698346,0.00364991,0.00242437,0.0017
 5613,0.00786708,-0.01762226,0.06459243,-0.00050443,-0.01112446,-0.0035
 3561,-0.00914990,-0.00350789,-0.00395271,-0.00897349,0.00139064,0.0022
 8034,0.00096332,-0.00088132,-0.00145605,0.00390921,0.00152651,0.000995
 20,0.03706396,-0.00988952,-0.04128391,-0.02826170,-0.00275217,-0.00048
 745,0.00108743,-0.00045181,-0.00284424,0.00232540,0.00167861,-0.005951
 44,0.00498825,0.00152651,-0.00595248,-0.00145149,0.02256125,0.12493537
 ,-0.00110047,-0.02376280,-0.00558388,-0.00406818,0.00235046,-0.0012149
 2,0.00247724,0.00031985,-0.00184448,-0.00364991,-0.00242437,0.00175613
 ,-0.00099520,0.00145149,-0.03193995,-0.00786708,0.01762226,0.06459243,
 -0.00039806,-0.00026719,-0.00115130,0.00542121,-0.00565617,0.00530117,
 -0.00753926,-0.00121744,0.00215256,-0.00299997,-0.00090923,-0.00186756
 ,-0.00897349,-0.00045181,-0.00247724,-0.00365917,0.00001831,-0.0006193
 8,0.06617227,0.00257211,-0.00089915,0.00215488,-0.00047339,-0.03532298
 ,0.02045534,-0.00121744,0.00551764,-0.00050714,-0.00475375,-0.00141328
 ,-0.00150818,0.00139064,-0.00284424,-0.00031985,0.00831445,-0.00061366
 ,0.00534697,0.02294789,0.07985476,-0.00097450,-0.00270971,0.00053430,0
 .00542615,0.01789813,-0.00996110,-0.00215256,0.00050714,-0.01234703,0.
 00034329,0.00456296,0.00092457,-0.00228034,-0.00232540,-0.00184448,-0.
 00659285,-0.00147020,-0.00698346,0.00579265,-0.00325743,0.05493457,-0.
 00390233,0.00145241,-0.00057362,0.00092091,-0.00090231,-0.00363777,-0.
 03514947,-0.01283879,-0.01178798,-0.00516725,-0.00402887,0.00976375,-0
 .00122320,-0.00040643,0.00394899,0.00597379,-0.00016232,0.00254827,-0.
 00386399,-0.00371657,-0.00872369,0.05227144,-0.00115773,0.00301695,-0.
 00072847,-0.00243627,-0.00016505,-0.00604313,-0.01042504,-0.00407766,-
 0.00370525,-0.00701776,-0.00831129,0.01057054,-0.00288136,-0.00256508,
 -0.00712456,0.00018586,-0.04487688,-0.01317533,-0.00043633,-0.00641911
 ,0.00254445,0.01798832,0.06588405,0.00055050,0.00275928,-0.00359212,0.
 00239794,0.00136741,-0.00323947,-0.00739349,0.00050154,-0.00158327,0.0
 0707386,0.00747461,-0.01175050,-0.00468101,-0.00226113,-0.00992511,0.0
 0214807,-0.01282223,0.00143976,0.00074719,-0.00211269,-0.00862526,0.00
 850651,0.01704568,0.05735055,-0.00250792,0.00221922,0.,-0.00350429,0.0
 0099119,0.,-0.00143212,-0.01381038,0.00494935,-0.02610707,-0.00767864,
 0.,-0.00180505,-0.00066793,-0.00151691,-0.00180505,-0.00066793,0.00151
 691,-0.00143212,-0.01381038,-0.00494935,0.00019981,0.00427168,-0.00500
 644,0.04439990,0.00318008,-0.00455521,0.,-0.00176207,-0.00800923,0.,-0
 .00540091,-0.02912670,0.01896196,-0.00201437,0.00064238,0.,-0.00021805
 ,-0.00575062,0.00503847,-0.00021805,-0.00575062,-0.00503847,-0.0054009
 1,-0.02912670,-0.01896196,-0.00011147,-0.00302794,-0.00320534,0.011306
 54,0.08873418,0.,0.,-0.00155731,0.,0.,0.00011107,0.00805031,0.02109546
 ,-0.01233103,0.,0.,-0.00034652,0.00252609,-0.00394405,0.00064222,-0.00
 252609,0.00394405,0.00064222,-0.00805031,-0.02109546,-0.01233103,-0.00
 534965,-0.00028216,-0.00599626,0.,0.,0.03797792,0.00183035,-0.00025346
 ,0.,-0.00509490,0.00229903,0.,-0.00757795,0.00158523,-0.00232321,-0.00
 298923,0.00345994,0.,-0.02259504,-0.01145451,-0.01570678,-0.02259504,-
 0.01145451,0.01570678,-0.00757795,0.00158523,0.00232321,-0.00803570,-0
 .00100787,-0.00008264,-0.00620588,0.00075066,0.,0.08887703,-0.00497315
 ,-0.00521107,0.,-0.00503056,0.00130855,0.,0.00179792,-0.00465561,0.000
 49322,0.00844700,-0.04318728,0.,-0.01536564,-0.01460961,-0.01018538,-0
 .01536564,-0.01460961,0.01018538,0.00179791,-0.00465561,-0.00049322,-0
 .00019046,0.00297858,-0.00364684,0.01357497,-0.00100161,0.,0.01549812,
 0.08066470,0.,0.,-0.00212670,0.,0.,0.00389841,0.00722126,-0.00134510,-
 0.00271783,0.,0.,-0.00223486,-0.01582576,-0.01177710,-0.01093875,0.015
 82575,0.01177710,-0.01093875,-0.00722126,0.00134510,-0.00271783,0.0010
 4470,-0.00420206,-0.00409687,0.,0.,-0.00081502,0.,0.,0.03678508,-0.003
 90233,0.00145241,0.00057362,0.00092091,-0.00090231,0.00363777,-0.00386
 399,-0.00371657,0.00872369,-0.00516725,-0.00402887,-0.00976375,0.00597
 379,-0.00016232,-0.00254827,-0.00122320,-0.00040643,-0.00394899,-0.035
 14947,-0.01283879,0.01178798,-0.00202401,0.00291650,-0.00426048,0.0001
 9981,-0.00011147,0.00534965,-0.00803570,-0.00019046,-0.00104470,0.0522
 7144,-0.00115773,0.00301695,0.00072847,-0.00243627,-0.00016505,0.00604
 313,-0.00043633,-0.00641911,-0.00254445,-0.00701776,-0.00831129,-0.010
 57054,0.00018586,-0.04487688,0.01317533,-0.00288136,-0.00256508,0.0071
 2456,-0.01042504,-0.00407766,0.00370525,0.00291650,-0.00243656,-0.0051
 0029,0.00427168,-0.00302794,0.00028217,-0.00100787,0.00297858,0.004202
 06,0.01798832,0.06588405,-0.00055050,-0.00275928,-0.00359212,-0.002397
 94,-0.00136741,-0.00323947,-0.00074719,0.00211269,-0.00862526,-0.00707
 386,-0.00747461,-0.01175050,-0.00214807,0.01282223,0.00143976,0.004681
 01,0.00226113,-0.00992511,0.00739349,-0.00050154,-0.00158327,0.0042604
 8,0.00510029,-0.00998146,0.00500644,0.00320534,-0.00599626,0.00008264,
 0.00364684,-0.00409687,-0.00850651,-0.01704568,0.05735055\\0.00002723,
 -0.00008353,0.,0.00006033,0.00003480,0.,0.00003889,0.00000677,0.000089
 32,-0.00001844,-0.00003783,0.,-0.00006873,0.00004906,0.00009640,-0.000
 06873,0.00004906,-0.00009640,0.00003889,0.00000677,-0.00008932,-0.0000
 5119,0.00002716,-0.00004802,0.00000862,-0.00005112,0.,0.00008433,-0.00
 002829,0.,-0.00005119,0.00002716,0.00004802\\\@
 The archive entry for this job was punched.



 WE LOSE BECAUSE WE WIN

 GAMBLERS,

 RECOLLECTING WHICH,

 TOSS THEIR DICE AGAIN....


                          EMILY DICKINSON  BOLTS OF MELODY NO. 533
 Job cpu time:       0 days  0 hours 32 minutes 45.7 seconds.
 Elapsed time:       0 days  0 hours 32 minutes 49.6 seconds.
 File lengths (MBytes):  RWF=    352 Int=      0 D2E=      0 Chk=     14 Scr=      1
 Normal termination of Gaussian 16 at Tue May  6 04:57:29 2025.
