 Entering Gaussian System, Link 0=g09
 Initial command:
 /usr/local/chem/g09A2/l1.exe /temp0/tam/Gau-8609.inp -scrdir=/temp0/tam/
 Entering Link 1 = /usr/local/chem/g09A2/l1.exe PID=      8610.
  
 Copyright (c) 1988,1990,1992,1993,1995,1998,2003,2009, Gaussian, Inc.
                  All Rights Reserved.
  
 This is part of the Gaussian(R) 09 program.  It is based on
 the Gaussian(R) 03 system (copyright 2003, Gaussian, Inc.),
 the Gaussian(R) 98 system (copyright 1998, Gaussian, Inc.),
 the Gaussian(R) 94 system (copyright 1995, Gaussian, Inc.),
 the Gaussian 92(TM) system (copyright 1992, Gaussian, Inc.),
 the Gaussian 90(TM) system (copyright 1990, Gaussian, Inc.),
 the Gaussian 88(TM) system (copyright 1988, Gaussian, Inc.),
 the Gaussian 86(TM) system (copyright 1986, Carnegie Mellon
 University), and the Gaussian 82(TM) system (copyright 1983,
 Carnegie Mellon University). Gaussian is a federally registered
 trademark of Gaussian, Inc.
  
 This software contains proprietary and confidential information,
 including trade secrets, belonging to Gaussian, Inc.
  
 This software is provided under written license and may be
 used, copied, transmitted, or stored only in accord with that
 written license.
  
 The following legend is applicable only to US Government
 contracts under FAR:
  
                    RESTRICTED RIGHTS LEGEND
  
 Use, reproduction and disclosure by the US Government is
 subject to restrictions as set forth in subparagraphs (a)
 and (c) of the Commercial Computer Software - Restricted
 Rights clause in FAR 52.227-19.
  
 Gaussian, Inc.
 340 Quinnipiac St., Bldg. 40, Wallingford CT 06492
  
  
 ---------------------------------------------------------------
 Warning -- This program may not be used in any manner that
 competes with the business of Gaussian, Inc. or will provide
 assistance to any competitor of Gaussian, Inc.  The licensee
 of this program is prohibited from giving any competitor of
 Gaussian, Inc. access to this program.  By using this program,
 the user acknowledges that Gaussian, Inc. is engaged in the
 business of creating and licensing software in the field of
 computational chemistry and represents and warrants to the
 licensee that it is not a competitor of Gaussian, Inc. and that
 it will not use this program in any manner prohibited above.
 ---------------------------------------------------------------
  

 Cite this work as:
 Gaussian 09, Revision A.02,
 M. J. Frisch, G. W. Trucks, H. B. Schlegel, G. E. Scuseria, 
 M. A. Robb, J. R. Cheeseman, G. Scalmani, V. Barone, B. Mennucci, 
 G. A. Petersson, H. Nakatsuji, M. Caricato, X. Li, H. P. Hratchian, 
 A. F. Izmaylov, J. Bloino, G. Zheng, J. L. Sonnenberg, M. Hada, 
 M. Ehara, K. Toyota, R. Fukuda, J. Hasegawa, M. Ishida, T. Nakajima, 
 Y. Honda, O. Kitao, H. Nakai, T. Vreven, J. A. Montgomery, Jr., 
 J. E. Peralta, F. Ogliaro, M. Bearpark, J. J. Heyd, E. Brothers, 
 K. N. Kudin, V. N. Staroverov, R. Kobayashi, J. Normand, 
 K. Raghavachari, A. Rendell, J. C. Burant, S. S. Iyengar, J. Tomasi, 
 M. Cossi, N. Rega, J. M. Millam, M. Klene, J. E. Knox, J. B. Cross, 
 V. Bakken, C. Adamo, J. Jaramillo, R. Gomperts, R. E. Stratmann, 
 O. Yazyev, A. J. Austin, R. Cammi, C. Pomelli, J. W. Ochterski, 
 R. L. Martin, K. Morokuma, V. G. Zakrzewski, G. A. Voth, 
 P. Salvador, J. J. Dannenberg, S. Dapprich, A. D. Daniels, 
 O. Farkas, J. B. Foresman, J. V. Ortiz, J. Cioslowski, 
 and D. J. Fox, Gaussian, Inc., Wallingford CT, 2009.
 
 ******************************************
 Gaussian 09:  AM64L-G09RevA.02 11-Jun-2009
                 6-Mar-2012 
 ******************************************
 %NprocShared=6
 Will use up to    6 processors via shared memory.
 %mem=19050MB
 %chk=S9L-ne-d-01
 ----------------------------------------------------------------------
 # b3lyp/LANL2DZ opt=(calcall,noeigentest,maxcycle=500) scfcyc=500 scf=
 xqc
 ----------------------------------------------------------------------
 1/6=500,10=4,11=1,14=-1,18=20,19=15,26=3,38=1/1,3;
 2/9=110,12=2,17=6,18=5,40=1/2;
 3/5=6,6=3,11=2,16=1,25=1,30=1,71=2,74=-5/1,2,3;
 4//1;
 5/5=2,7=500,8=3,13=1,38=5/2,8;
 8/6=4,10=90,11=11/1;
 11/6=1,8=1,9=11,15=111,16=1/1,2,10;
 10/6=1/2;
 6/7=2,8=2,9=2,10=2,18=1,28=1/1;
 7/10=1,25=1/1,2,3,16;
 1/6=500,10=4,11=1,14=-1,18=20,19=15/3(3);
 2/9=110/2;
 7/8=1,9=1,25=1,44=-1/16;
 99//99;
 2/9=110/2;
 3/5=6,6=3,11=2,16=1,25=1,30=1,71=2,74=-5/1,2,3;
 4/5=5,16=3/1;
 5/5=2,7=500,8=3,13=1,38=5/2,8;
 8/6=4,10=90,11=11/1;
 11/6=1,8=1,9=11,15=111,16=1/1,2,10;
 10/6=1/2;
 7/10=1,25=1/1,2,3,16;
 1/6=500,10=4,11=1,14=-1,18=20,19=15/3(-8);
 2/9=110/2;
 6/7=2,8=2,9=2,10=2,18=1,19=2,28=1/1;
 7/8=1,9=1,25=1,44=-1/16;
 99//99;
 ------------
 si12-an-d-01
 ------------
 Symbolic Z-matrix:
 Charge = -1 Multiplicity = 2
 Si                   -0.19682   0.00594   3.68754 
 Si                   -0.97803   1.47295   1.82417 
 Si                    1.01234  -0.01952   1.74613 
 Si                   -1.036    -1.43304   1.82828 
 Si                    0.65365  -1.90125   0. 
 Si                    0.73394   1.87445   0. 
 Si                   -1.58595   0.02681   0. 
 Si                   -0.97803   1.47295  -1.82417 
 Si                    1.01234  -0.01952  -1.74613 
 Si                   -1.036    -1.43304  -1.82828 
 Si                   -0.19682   0.00594  -3.68754 
 Si                    2.59538  -0.05266   0. 
 

 GradGradGradGradGradGradGradGradGradGradGradGradGradGradGradGradGradGrad
 Berny optimization.
 Initialization pass.
                           ----------------------------
                           !    Initial Parameters    !
                           ! (Angstroms and Degrees)  !
 --------------------------                            --------------------------
 ! Name  Definition              Value          Derivative Info.                !
 --------------------------------------------------------------------------------
 ! R1    R(1,2)                  2.4969         calculate D2E/DX2 analytically  !
 ! R2    R(1,3)                  2.2873         calculate D2E/DX2 analytically  !
 ! R3    R(1,4)                  2.4963         calculate D2E/DX2 analytically  !
 ! R4    R(2,3)                  2.489          calculate D2E/DX2 analytically  !
 ! R5    R(2,4)                  2.9066         calculate D2E/DX2 analytically  !
 ! R6    R(2,6)                  2.5337         calculate D2E/DX2 analytically  !
 ! R7    R(2,7)                  2.4059         calculate D2E/DX2 analytically  !
 ! R8    R(3,4)                  2.4901         calculate D2E/DX2 analytically  !
 ! R9    R(3,5)                  2.592          calculate D2E/DX2 analytically  !
 ! R10   R(3,6)                  2.5911         calculate D2E/DX2 analytically  !
 ! R11   R(3,12)                 2.3571         calculate D2E/DX2 analytically  !
 ! R12   R(4,5)                  2.5331         calculate D2E/DX2 analytically  !
 ! R13   R(4,7)                  2.4034         calculate D2E/DX2 analytically  !
 ! R14   R(5,7)                  2.9552         calculate D2E/DX2 analytically  !
 ! R15   R(5,9)                  2.592          calculate D2E/DX2 analytically  !
 ! R16   R(5,10)                 2.5331         calculate D2E/DX2 analytically  !
 ! R17   R(5,12)                 2.681          calculate D2E/DX2 analytically  !
 ! R18   R(6,7)                  2.9657         calculate D2E/DX2 analytically  !
 ! R19   R(6,8)                  2.5337         calculate D2E/DX2 analytically  !
 ! R20   R(6,9)                  2.5911         calculate D2E/DX2 analytically  !
 ! R21   R(6,12)                 2.6793         calculate D2E/DX2 analytically  !
 ! R22   R(7,8)                  2.4059         calculate D2E/DX2 analytically  !
 ! R23   R(7,10)                 2.4034         calculate D2E/DX2 analytically  !
 ! R24   R(8,9)                  2.489          calculate D2E/DX2 analytically  !
 ! R25   R(8,10)                 2.9066         calculate D2E/DX2 analytically  !
 ! R26   R(8,11)                 2.4969         calculate D2E/DX2 analytically  !
 ! R27   R(9,10)                 2.4901         calculate D2E/DX2 analytically  !
 ! R28   R(9,11)                 2.2873         calculate D2E/DX2 analytically  !
 ! R29   R(9,12)                 2.3571         calculate D2E/DX2 analytically  !
 ! R30   R(10,11)                2.4963         calculate D2E/DX2 analytically  !
 ! A1    A(1,2,6)              114.7708         calculate D2E/DX2 analytically  !
 ! A2    A(1,2,7)              106.9611         calculate D2E/DX2 analytically  !
 ! A3    A(3,2,7)               79.5056         calculate D2E/DX2 analytically  !
 ! A4    A(4,2,6)               99.9579         calculate D2E/DX2 analytically  !
 ! A5    A(1,3,5)              120.4448         calculate D2E/DX2 analytically  !
 ! A6    A(1,3,6)              120.4677         calculate D2E/DX2 analytically  !
 ! A7    A(1,3,12)             169.7199         calculate D2E/DX2 analytically  !
 ! A8    A(2,3,5)              110.2289         calculate D2E/DX2 analytically  !
 ! A9    A(2,3,12)             124.6601         calculate D2E/DX2 analytically  !
 ! A10   A(4,3,6)              110.4131         calculate D2E/DX2 analytically  !
 ! A11   A(4,3,12)             124.6745         calculate D2E/DX2 analytically  !
 ! A12   A(5,3,6)               93.5436         calculate D2E/DX2 analytically  !
 ! A13   A(1,4,5)              114.8265         calculate D2E/DX2 analytically  !
 ! A14   A(1,4,7)              107.0592         calculate D2E/DX2 analytically  !
 ! A15   A(2,4,5)               99.8153         calculate D2E/DX2 analytically  !
 ! A16   A(3,4,7)               79.5328         calculate D2E/DX2 analytically  !
 ! A17   A(3,5,7)               68.3603         calculate D2E/DX2 analytically  !
 ! A18   A(3,5,9)               84.7001         calculate D2E/DX2 analytically  !
 ! A19   A(3,5,10)             116.3808         calculate D2E/DX2 analytically  !
 ! A20   A(4,5,9)              116.3808         calculate D2E/DX2 analytically  !
 ! A21   A(4,5,10)              92.3982         calculate D2E/DX2 analytically  !
 ! A22   A(4,5,12)             110.8334         calculate D2E/DX2 analytically  !
 ! A23   A(7,5,9)               68.3603         calculate D2E/DX2 analytically  !
 ! A24   A(7,5,12)              95.6827         calculate D2E/DX2 analytically  !
 ! A25   A(10,5,12)            110.8334         calculate D2E/DX2 analytically  !
 ! A26   A(2,6,8)               92.1029         calculate D2E/DX2 analytically  !
 ! A27   A(2,6,9)              116.2287         calculate D2E/DX2 analytically  !
 ! A28   A(2,6,12)             110.821          calculate D2E/DX2 analytically  !
 ! A29   A(3,6,7)               68.2018         calculate D2E/DX2 analytically  !
 ! A30   A(3,6,8)              116.2287         calculate D2E/DX2 analytically  !
 ! A31   A(3,6,9)               84.7382         calculate D2E/DX2 analytically  !
 ! A32   A(7,6,9)               68.2018         calculate D2E/DX2 analytically  !
 ! A33   A(7,6,12)              95.4717         calculate D2E/DX2 analytically  !
 ! A34   A(8,6,12)             110.821          calculate D2E/DX2 analytically  !
 ! A35   A(2,7,5)              101.5762         calculate D2E/DX2 analytically  !
 ! A36   A(2,7,8)               98.6111         calculate D2E/DX2 analytically  !
 ! A37   A(2,7,10)             152.1357         calculate D2E/DX2 analytically  !
 ! A38   A(4,7,6)              101.5034         calculate D2E/DX2 analytically  !
 ! A39   A(4,7,8)              152.1357         calculate D2E/DX2 analytically  !
 ! A40   A(4,7,10)              99.0544         calculate D2E/DX2 analytically  !
 ! A41   A(5,7,6)               79.2602         calculate D2E/DX2 analytically  !
 ! A42   A(5,7,8)              101.5762         calculate D2E/DX2 analytically  !
 ! A43   A(6,7,10)             101.5034         calculate D2E/DX2 analytically  !
 ! A44   A(6,8,10)              99.9579         calculate D2E/DX2 analytically  !
 ! A45   A(6,8,11)             114.7708         calculate D2E/DX2 analytically  !
 ! A46   A(7,8,9)               79.5056         calculate D2E/DX2 analytically  !
 ! A47   A(7,8,11)             106.9611         calculate D2E/DX2 analytically  !
 ! A48   A(5,9,6)               93.5436         calculate D2E/DX2 analytically  !
 ! A49   A(5,9,8)              110.2289         calculate D2E/DX2 analytically  !
 ! A50   A(5,9,11)             120.4448         calculate D2E/DX2 analytically  !
 ! A51   A(6,9,10)             110.4131         calculate D2E/DX2 analytically  !
 ! A52   A(6,9,11)             120.4677         calculate D2E/DX2 analytically  !
 ! A53   A(8,9,12)             124.6601         calculate D2E/DX2 analytically  !
 ! A54   A(10,9,12)            124.6745         calculate D2E/DX2 analytically  !
 ! A55   A(11,9,12)            169.7199         calculate D2E/DX2 analytically  !
 ! A56   A(5,10,8)              99.8153         calculate D2E/DX2 analytically  !
 ! A57   A(5,10,11)            114.8265         calculate D2E/DX2 analytically  !
 ! A58   A(7,10,9)              79.5328         calculate D2E/DX2 analytically  !
 ! A59   A(7,10,11)            107.0592         calculate D2E/DX2 analytically  !
 ! A60   A(3,12,9)              95.5968         calculate D2E/DX2 analytically  !
 ! A61   A(5,12,6)              89.5854         calculate D2E/DX2 analytically  !
 ! D1    D(7,2,3,5)             -4.9963         calculate D2E/DX2 analytically  !
 ! D2    D(7,2,3,12)            68.4684         calculate D2E/DX2 analytically  !
 ! D3    D(6,2,4,5)             -0.1672         calculate D2E/DX2 analytically  !
 ! D4    D(1,2,6,8)            134.8747         calculate D2E/DX2 analytically  !
 ! D5    D(1,2,6,9)             79.7209         calculate D2E/DX2 analytically  !
 ! D6    D(1,2,6,12)            21.6398         calculate D2E/DX2 analytically  !
 ! D7    D(4,2,6,8)             79.6264         calculate D2E/DX2 analytically  !
 ! D8    D(4,2,6,9)             24.4726         calculate D2E/DX2 analytically  !
 ! D9    D(4,2,6,12)           -33.6086         calculate D2E/DX2 analytically  !
 ! D10   D(1,2,7,5)            -43.5654         calculate D2E/DX2 analytically  !
 ! D11   D(1,2,7,8)           -147.3454         calculate D2E/DX2 analytically  !
 ! D12   D(1,2,7,10)           -74.6062         calculate D2E/DX2 analytically  !
 ! D13   D(3,2,7,5)              4.1958         calculate D2E/DX2 analytically  !
 ! D14   D(3,2,7,8)            -99.5842         calculate D2E/DX2 analytically  !
 ! D15   D(3,2,7,10)           -26.845          calculate D2E/DX2 analytically  !
 ! D16   D(6,3,4,7)              5.1618         calculate D2E/DX2 analytically  !
 ! D17   D(12,3,4,7)           -68.3811         calculate D2E/DX2 analytically  !
 ! D18   D(1,3,5,7)             73.9888         calculate D2E/DX2 analytically  !
 ! D19   D(1,3,5,9)            142.7884         calculate D2E/DX2 analytically  !
 ! D20   D(1,3,5,10)            92.4327         calculate D2E/DX2 analytically  !
 ! D21   D(2,3,5,7)              4.3015         calculate D2E/DX2 analytically  !
 ! D22   D(2,3,5,9)             73.1011         calculate D2E/DX2 analytically  !
 ! D23   D(2,3,5,10)            22.7454         calculate D2E/DX2 analytically  !
 ! D24   D(6,3,5,7)            -54.7427         calculate D2E/DX2 analytically  !
 ! D25   D(6,3,5,9)             14.0569         calculate D2E/DX2 analytically  !
 ! D26   D(6,3,5,10)           -36.2988         calculate D2E/DX2 analytically  !
 ! D27   D(1,3,6,7)            -74.171          calculate D2E/DX2 analytically  !
 ! D28   D(1,3,6,8)            -92.3397         calculate D2E/DX2 analytically  !
 ! D29   D(1,3,6,9)           -142.776          calculate D2E/DX2 analytically  !
 ! D30   D(4,3,6,7)             -4.4286         calculate D2E/DX2 analytically  !
 ! D31   D(4,3,6,8)            -22.5973         calculate D2E/DX2 analytically  !
 ! D32   D(4,3,6,9)            -73.0337         calculate D2E/DX2 analytically  !
 ! D33   D(5,3,6,7)             54.5438         calculate D2E/DX2 analytically  !
 ! D34   D(5,3,6,8)             36.3751         calculate D2E/DX2 analytically  !
 ! D35   D(5,3,6,9)            -14.0613         calculate D2E/DX2 analytically  !
 ! D36   D(1,3,12,9)          -179.9786         calculate D2E/DX2 analytically  !
 ! D37   D(2,3,12,9)           -45.112          calculate D2E/DX2 analytically  !
 ! D38   D(4,3,12,9)            45.3191         calculate D2E/DX2 analytically  !
 ! D39   D(1,4,5,9)            -79.3814         calculate D2E/DX2 analytically  !
 ! D40   D(1,4,5,10)          -134.6854         calculate D2E/DX2 analytically  !
 ! D41   D(1,4,5,12)           -21.307          calculate D2E/DX2 analytically  !
 ! D42   D(2,4,5,9)            -24.1819         calculate D2E/DX2 analytically  !
 ! D43   D(2,4,5,10)           -79.4859         calculate D2E/DX2 analytically  !
 ! D44   D(2,4,5,12)            33.8925         calculate D2E/DX2 analytically  !
 ! D45   D(1,4,7,6)             43.4071         calculate D2E/DX2 analytically  !
 ! D46   D(1,4,7,8)             73.6116         calculate D2E/DX2 analytically  !
 ! D47   D(1,4,7,10)           147.2058         calculate D2E/DX2 analytically  !
 ! D48   D(3,4,7,6)             -4.3114         calculate D2E/DX2 analytically  !
 ! D49   D(3,4,7,8)             25.8931         calculate D2E/DX2 analytically  !
 ! D50   D(3,4,7,10)            99.4874         calculate D2E/DX2 analytically  !
 ! D51   D(3,5,7,2)             -4.2621         calculate D2E/DX2 analytically  !
 ! D52   D(3,5,7,6)             46.447          calculate D2E/DX2 analytically  !
 ! D53   D(3,5,7,8)             97.156          calculate D2E/DX2 analytically  !
 ! D54   D(9,5,7,2)            -97.156          calculate D2E/DX2 analytically  !
 ! D55   D(9,5,7,6)            -46.447          calculate D2E/DX2 analytically  !
 ! D56   D(9,5,7,8)              4.2621         calculate D2E/DX2 analytically  !
 ! D57   D(12,5,7,2)           -50.7091         calculate D2E/DX2 analytically  !
 ! D58   D(12,5,7,6)             0.0            calculate D2E/DX2 analytically  !
 ! D59   D(12,5,7,8)            50.7091         calculate D2E/DX2 analytically  !
 ! D60   D(3,5,9,6)            -14.0569         calculate D2E/DX2 analytically  !
 ! D61   D(3,5,9,8)            -73.1011         calculate D2E/DX2 analytically  !
 ! D62   D(3,5,9,11)          -142.7884         calculate D2E/DX2 analytically  !
 ! D63   D(4,5,9,6)             36.2988         calculate D2E/DX2 analytically  !
 ! D64   D(4,5,9,8)            -22.7454         calculate D2E/DX2 analytically  !
 ! D65   D(4,5,9,11)           -92.4327         calculate D2E/DX2 analytically  !
 ! D66   D(7,5,9,6)             54.7427         calculate D2E/DX2 analytically  !
 ! D67   D(7,5,9,8)             -4.3015         calculate D2E/DX2 analytically  !
 ! D68   D(7,5,9,11)           -73.9888         calculate D2E/DX2 analytically  !
 ! D69   D(3,5,10,8)            24.1819         calculate D2E/DX2 analytically  !
 ! D70   D(3,5,10,11)           79.3814         calculate D2E/DX2 analytically  !
 ! D71   D(4,5,10,8)            79.4859         calculate D2E/DX2 analytically  !
 ! D72   D(4,5,10,11)          134.6854         calculate D2E/DX2 analytically  !
 ! D73   D(12,5,10,8)          -33.8925         calculate D2E/DX2 analytically  !
 ! D74   D(12,5,10,11)          21.307          calculate D2E/DX2 analytically  !
 ! D75   D(4,5,12,6)           -50.5554         calculate D2E/DX2 analytically  !
 ! D76   D(7,5,12,6)             0.0            calculate D2E/DX2 analytically  !
 ! D77   D(10,5,12,6)           50.5554         calculate D2E/DX2 analytically  !
 ! D78   D(3,6,7,4)              4.3883         calculate D2E/DX2 analytically  !
 ! D79   D(3,6,7,5)            -46.5355         calculate D2E/DX2 analytically  !
 ! D80   D(3,6,7,10)           -97.4592         calculate D2E/DX2 analytically  !
 ! D81   D(9,6,7,4)             97.4592         calculate D2E/DX2 analytically  !
 ! D82   D(9,6,7,5)             46.5355         calculate D2E/DX2 analytically  !
 ! D83   D(9,6,7,10)            -4.3883         calculate D2E/DX2 analytically  !
 ! D84   D(12,6,7,4)            50.9238         calculate D2E/DX2 analytically  !
 ! D85   D(12,6,7,5)             0.0            calculate D2E/DX2 analytically  !
 ! D86   D(12,6,7,10)          -50.9238         calculate D2E/DX2 analytically  !
 ! D87   D(2,6,8,10)           -79.6264         calculate D2E/DX2 analytically  !
 ! D88   D(2,6,8,11)          -134.8747         calculate D2E/DX2 analytically  !
 ! D89   D(3,6,8,10)           -24.4726         calculate D2E/DX2 analytically  !
 ! D90   D(3,6,8,11)           -79.7209         calculate D2E/DX2 analytically  !
 ! D91   D(12,6,8,10)           33.6086         calculate D2E/DX2 analytically  !
 ! D92   D(12,6,8,11)          -21.6398         calculate D2E/DX2 analytically  !
 ! D93   D(2,6,9,5)            -36.3751         calculate D2E/DX2 analytically  !
 ! D94   D(2,6,9,10)            22.5973         calculate D2E/DX2 analytically  !
 ! D95   D(2,6,9,11)            92.3397         calculate D2E/DX2 analytically  !
 ! D96   D(3,6,9,5)             14.0613         calculate D2E/DX2 analytically  !
 ! D97   D(3,6,9,10)            73.0337         calculate D2E/DX2 analytically  !
 ! D98   D(3,6,9,11)           142.776          calculate D2E/DX2 analytically  !
 ! D99   D(7,6,9,5)            -54.5438         calculate D2E/DX2 analytically  !
 ! D100  D(7,6,9,10)             4.4286         calculate D2E/DX2 analytically  !
 ! D101  D(7,6,9,11)            74.171          calculate D2E/DX2 analytically  !
 ! D102  D(2,6,12,5)            50.3777         calculate D2E/DX2 analytically  !
 ! D103  D(7,6,12,5)             0.0            calculate D2E/DX2 analytically  !
 ! D104  D(8,6,12,5)           -50.3777         calculate D2E/DX2 analytically  !
 ! D105  D(2,7,8,9)             99.5842         calculate D2E/DX2 analytically  !
 ! D106  D(2,7,8,11)           147.3454         calculate D2E/DX2 analytically  !
 ! D107  D(4,7,8,9)             26.845          calculate D2E/DX2 analytically  !
 ! D108  D(4,7,8,11)            74.6062         calculate D2E/DX2 analytically  !
 ! D109  D(5,7,8,9)             -4.1958         calculate D2E/DX2 analytically  !
 ! D110  D(5,7,8,11)            43.5654         calculate D2E/DX2 analytically  !
 ! D111  D(2,7,10,9)           -25.8931         calculate D2E/DX2 analytically  !
 ! D112  D(2,7,10,11)          -73.6116         calculate D2E/DX2 analytically  !
 ! D113  D(4,7,10,9)           -99.4874         calculate D2E/DX2 analytically  !
 ! D114  D(4,7,10,11)         -147.2058         calculate D2E/DX2 analytically  !
 ! D115  D(6,7,10,9)             4.3114         calculate D2E/DX2 analytically  !
 ! D116  D(6,7,10,11)          -43.4071         calculate D2E/DX2 analytically  !
 ! D117  D(7,8,9,5)              4.9963         calculate D2E/DX2 analytically  !
 ! D118  D(7,8,9,12)           -68.4684         calculate D2E/DX2 analytically  !
 ! D119  D(6,8,10,5)             0.1672         calculate D2E/DX2 analytically  !
 ! D120  D(6,9,10,7)            -5.1618         calculate D2E/DX2 analytically  !
 ! D121  D(12,9,10,7)           68.3811         calculate D2E/DX2 analytically  !
 ! D122  D(8,9,12,3)            45.112          calculate D2E/DX2 analytically  !
 ! D123  D(10,9,12,3)          -45.3191         calculate D2E/DX2 analytically  !
 ! D124  D(11,9,12,3)          179.9786         calculate D2E/DX2 analytically  !
 --------------------------------------------------------------------------------
 Trust Radius=3.00D-01 FncErr=1.00D-07 GrdErr=1.00D-06
 Number of steps in this run= 100 maximum allowed number of steps= 100.
 GradGradGradGradGradGradGradGradGradGradGradGradGradGradGradGradGradGrad

                          Input orientation:                          
 ---------------------------------------------------------------------
 Center     Atomic      Atomic             Coordinates (Angstroms)
 Number     Number       Type             X           Y           Z
 ---------------------------------------------------------------------
      1         14           0       -0.196822    0.005940    3.687541
      2         14           0       -0.978032    1.472954    1.824172
      3         14           0        1.012344   -0.019524    1.746130
      4         14           0       -1.035998   -1.433043    1.828283
      5         14           0        0.653645   -1.901250    0.000000
      6         14           0        0.733938    1.874453    0.000000
      7         14           0       -1.585947    0.026806    0.000000
      8         14           0       -0.978032    1.472954   -1.824172
      9         14           0        1.012344   -0.019524   -1.746130
     10         14           0       -1.035998   -1.433043   -1.828283
     11         14           0       -0.196822    0.005940   -3.687541
     12         14           0        2.595379   -0.052662    0.000000
 ---------------------------------------------------------------------
                    Distance matrix (angstroms):
                    1          2          3          4          5
     1  Si   0.000000
     2  Si   2.496911   0.000000
     3  Si   2.287314   2.489011   0.000000
     4  Si   2.496343   2.906578   2.490078   0.000000
     5  Si   4.237762   4.168360   2.592012   2.533127   0.000000
     6  Si   4.237406   2.533702   2.591067   4.173107   3.776557
     7  Si   3.940566   2.405932   3.130852   2.403377   2.955194
     8  Si   5.756857   3.648344   4.351568   4.667827   4.168360
     9  Si   5.566643   4.351568   3.492260   4.355476   2.592012
    10  Si   5.761875   4.667827   4.355476   3.656566   2.533127
    11  Si   7.375082   5.756857   5.566643   5.761875   4.237762
    12  Si   4.625773   4.292362   2.357131   4.293596   2.680972
                    6          7          8          9         10
     6  Si   0.000000
     7  Si   2.965749   0.000000
     8  Si   2.533702   2.405932   0.000000
     9  Si   2.591067   3.130852   2.489011   0.000000
    10  Si   4.173107   2.403377   2.906578   2.490078   0.000000
    11  Si   4.237406   3.940566   2.496911   2.287314   2.496343
    12  Si   2.679316   4.182081   4.292362   2.357131   4.293596
                   11         12
    11  Si   0.000000
    12  Si   4.625773   0.000000
 Stoichiometry    Si12(1-,2)
 Framework group  CS[SG(Si4),X(Si8)]
 Deg. of freedom    17
 Full point group                 CS      NOp   2
 Largest Abelian subgroup         CS      NOp   2
 Largest concise Abelian subgroup CS      NOp   2
                         Standard orientation:                         
 ---------------------------------------------------------------------
 Center     Atomic      Atomic             Coordinates (Angstroms)
 Number     Number       Type             X           Y           Z
 ---------------------------------------------------------------------
      1         14           0       -0.196822    0.005939    3.687541
      2         14           0       -0.978036    1.472951    1.824172
      3         14           0        1.012344   -0.019521    1.746130
      4         14           0       -1.035994   -1.433046    1.828283
      5         14           0        0.653650   -1.901248    0.000000
      6         14           0        0.733933    1.874455    0.000000
      7         14           0       -1.585947    0.026802    0.000000
      8         14           0       -0.978036    1.472951   -1.824172
      9         14           0        1.012344   -0.019521   -1.746130
     10         14           0       -1.035994   -1.433046   -1.828283
     11         14           0       -0.196822    0.005939   -3.687541
     12         14           0        2.595379   -0.052655    0.000000
 ---------------------------------------------------------------------
 Rotational constants (GHZ):      0.5648037      0.2903578      0.2865582
 Standard basis: LANL2DZ (5D, 7F)
 There are    56 symmetry adapted basis functions of A'  symmetry.
 There are    40 symmetry adapted basis functions of A"  symmetry.
 Integral buffers will be    131072 words long.
 Raffenetti 2 integral format.
 Two-electron integral symmetry is turned on.
    96 basis functions,   144 primitive gaussians,    96 cartesian basis functions
    25 alpha electrons       24 beta electrons
       nuclear repulsion energy       170.3139482653 Hartrees.
 NAtoms=   12 NActive=   12 NUniq=    8 SFac= 1.69D+00 NAtFMM=   80 NAOKFM=F Big=F
 One-electron integrals computed using PRISM.
   2 Symmetry operations used in ECPInt.
 ECPInt:  NShTT=    1176 NPrTT=    2652 LenC2=    1177 LenP2D=    2573.
 LDataN:  DoStor=T MaxTD1= 3 Len=   28
 NBasis=    96 RedAO= T  NBF=    56    40
 NBsUse=    96 1.00D-06 NBFU=    56    40
 Harris functional with IExCor=  402 diagonalized for initial guess.
 ExpMin= 8.85D-02 ExpMax= 2.58D+00 ExpMxC= 2.58D+00 IAcc=2 IRadAn=         0 AccDes= 0.00D+00
 HarFok:  IExCor=  402 AccDes= 0.00D+00 IRadAn=         0 IDoV= 1
 ScaDFX=  1.000000  1.000000  1.000000  1.000000
 FoFCou: FMM=F IPFlag=           0 FMFlag=      100000 FMFlg1=           0
         NFxFlg=           0 DoJE=T BraDBF=F KetDBF=T FulRan=T
         Omega=  0.000000  0.000000  1.000000  0.000000  0.000000 ICntrl=     500 IOpCl=  0
         NMat0=    1 NMatS0=    1 NMatT0=    0 NMatD0=    1 NMtDS0=    0 NMtDT0=    0
         I1Cent=           4 NGrid=           0.
 Petite list used in FoFCou.
 Initial guess orbital symmetries:
 Alpha Orbitals:
       Occupied  (A') (A") (A') (A') (A') (A") (A") (A") (A') (A')
                 (A') (A') (A') (A") (A') (A") (A") (A') (A') (A")
                 (A") (A') (A') (A") (A')
       Virtual   (A') (A") (A') (A') (A') (A") (A') (A") (A') (A')
                 (A") (A') (A') (A") (A") (A") (A') (A") (A') (A")
                 (A") (A') (A') (A") (A') (A') (A") (A') (A') (A")
                 (A') (A') (A') (A") (A") (A') (A') (A') (A") (A")
                 (A') (A") (A') (A') (A") (A') (A") (A') (A') (A")
                 (A") (A') (A') (A") (A") (A") (A') (A') (A") (A')
                 (A') (A") (A') (A') (A') (A") (A") (A") (A') (A')
                 (A')
 Beta  Orbitals:
       Occupied  (A') (A") (A') (A') (A') (A") (A") (A") (A') (A')
                 (A') (A') (A') (A") (A') (A") (A") (A') (A') (A")
                 (A") (A') (A') (A")
       Virtual   (A') (A') (A") (A') (A') (A') (A") (A') (A") (A')
                 (A') (A") (A') (A') (A") (A") (A") (A') (A") (A')
                 (A") (A") (A') (A') (A") (A') (A') (A") (A') (A')
                 (A") (A') (A') (A') (A") (A") (A') (A') (A') (A")
                 (A") (A') (A") (A') (A') (A") (A') (A") (A') (A')
                 (A") (A") (A') (A') (A") (A") (A") (A') (A') (A")
                 (A') (A') (A") (A') (A') (A') (A") (A") (A") (A')
                 (A') (A')
 The electronic state of the initial guess is 2-A'.
 Initial guess <Sx>= 0.0000 <Sy>= 0.0000 <Sz>= 0.5000 <S**2>= 0.7500 S= 0.5000
 Requested convergence on RMS density matrix=1.00D-08 within 128 cycles.
 Requested convergence on MAX density matrix=1.00D-06.
 Requested convergence on             energy=1.00D-06.
 No special actions if energy rises.
 Keep R1 and R2 ints in memory in canonical form, NReq=22743629.
 Integral accuracy reduced to 1.0D-05 until final iterations.
 Initial convergence to 1.0D-05 achieved.  Increase integral accuracy.
 SCF Done:  E(UB3LYP) =  -46.3466955151     A.U. after   28 cycles
             Convg  =    0.4262D-08             -V/T =  3.4992
 <Sx>= 0.0000 <Sy>= 0.0000 <Sz>= 0.5000 <S**2>= 0.7648 S= 0.5074
 <L.S>= 0.000000000000E+00
 Annihilation of the first spin contaminant:
 S**2 before annihilation     0.7648,   after     0.7501
 QCSCF skips out because SCF is already converged.
 Range of M.O.s used for correlation:     1    96
 NBasis=    96 NAE=    25 NBE=    24 NFC=     0 NFV=     0
 NROrb=     96 NOA=    25 NOB=    24 NVA=    71 NVB=    72

 **** Warning!!: The smallest alpha delta epsilon is  0.40059903D-01

   2 Symmetry operations used in ECPInt.
 ECPInt:  NShTT=    1176 NPrTT=    2652 LenC2=    1177 LenP2D=    2573.
 LDataN:  DoStor=T MaxTD1= 4 Len=   56
 Symmetrizing basis deriv contribution to polar:
 IMax=3 JMax=2 DiffMx= 0.00D+00
 G2DrvN: will do    13 centers at a time, making    1 passes doing MaxLOS=1.
 Calling FoFCou, ICntrl=  3107 FMM=F I1Cent=   0 AccDes= 0.00D+00.
 FoFDir/FoFCou used for L=0 through L=1.
 End of G2Drv Frequency-dependent properties file   721 does not exist.
 End of G2Drv Frequency-dependent properties file   722 does not exist.
          IDoAtm=111111111111
          Differentiating once with respect to electric field.
                with respect to dipole field.
          Differentiating once with respect to nuclear coordinates.
          Keep R1 and R2 ints in memory in canonical form, NReq=22486725.
          There are    27 degrees of freedom in the 1st order CPHF.  IDoFFX=4.
     27 vectors produced by pass  0 Test12= 1.30D-14 3.70D-09 XBig12= 4.31D+03 2.03D+01.
 AX will form    27 AO Fock derivatives at one time.
     27 vectors produced by pass  1 Test12= 1.30D-14 3.70D-09 XBig12= 1.70D+03 9.69D+00.
     27 vectors produced by pass  2 Test12= 1.30D-14 3.70D-09 XBig12= 6.56D+01 1.68D+00.
     27 vectors produced by pass  3 Test12= 1.30D-14 3.70D-09 XBig12= 2.30D+00 2.93D-01.
     27 vectors produced by pass  4 Test12= 1.30D-14 3.70D-09 XBig12= 3.80D-02 3.92D-02.
     27 vectors produced by pass  5 Test12= 1.30D-14 3.70D-09 XBig12= 4.11D-04 3.66D-03.
     27 vectors produced by pass  6 Test12= 1.30D-14 3.70D-09 XBig12= 5.59D-06 4.92D-04.
     27 vectors produced by pass  7 Test12= 1.30D-14 3.70D-09 XBig12= 5.55D-08 3.87D-05.
     18 vectors produced by pass  8 Test12= 1.30D-14 3.70D-09 XBig12= 4.35D-10 3.52D-06.
      3 vectors produced by pass  9 Test12= 1.30D-14 3.70D-09 XBig12= 3.33D-12 2.58D-07.
      3 vectors produced by pass 10 Test12= 1.30D-14 3.70D-09 XBig12= 1.95D-14 1.81D-08.
 Inverted reduced A of dimension   240 with in-core refinement.
 Isotropic polarizability for W=    0.000000      363.77 Bohr**3.
 End of Minotr Frequency-dependent properties file   721 does not exist.
 End of Minotr Frequency-dependent properties file   722 does not exist.

 **********************************************************************

            Population analysis using the SCF density.

 **********************************************************************

 Orbital symmetries:
 Alpha Orbitals:
       Occupied  (A') (A") (A') (A') (A') (A") (A") (A") (A') (A')
                 (A') (A') (A') (A") (A') (A") (A") (A') (A') (A")
                 (A") (A') (A") (A') (A')
       Virtual   (A') (A") (A') (A') (A') (A") (A') (A") (A') (A')
                 (A") (A') (A') (A") (A") (A") (A') (A") (A') (A")
                 (A") (A') (A') (A") (A') (A') (A") (A') (A') (A")
                 (A') (A') (A') (A") (A') (A') (A") (A") (A") (A')
                 (A') (A") (A') (A") (A') (A') (A") (A') (A') (A")
                 (A") (A') (A') (A") (A") (A") (A') (A') (A") (A')
                 (A') (A") (A') (A') (A') (A") (A") (A") (A') (A')
                 (A')
 Beta  Orbitals:
       Occupied  (A') (A") (A') (A') (A') (A") (A") (A") (A') (A')
                 (A') (A') (A') (A") (A') (A") (A") (A') (A') (A")
                 (A") (A') (A') (A")
       Virtual   (A') (A") (A') (A') (A') (A') (A") (A') (A") (A')
                 (A') (A") (A') (A') (A") (A") (A") (A') (A") (A')
                 (A") (A") (A') (A') (A") (A') (A") (A') (A') (A')
                 (A") (A') (A') (A') (A") (A') (A') (A") (A") (A")
                 (A') (A') (A") (A') (A") (A') (A') (A") (A') (A')
                 (A") (A") (A') (A') (A") (A") (A") (A') (A') (A")
                 (A') (A') (A") (A') (A') (A') (A") (A") (A") (A')
                 (A') (A')
 The electronic state is 2-A'.
 Alpha  occ. eigenvalues --   -0.61560  -0.55313  -0.48665  -0.46519  -0.43800
 Alpha  occ. eigenvalues --   -0.36716  -0.34738  -0.33612  -0.31772  -0.29414
 Alpha  occ. eigenvalues --   -0.25994  -0.21926  -0.20182  -0.19215  -0.18812
 Alpha  occ. eigenvalues --   -0.16934  -0.16527  -0.14010  -0.13096  -0.12271
 Alpha  occ. eigenvalues --   -0.11971  -0.11653  -0.11146  -0.10928  -0.02287
 Alpha virt. eigenvalues --    0.01719   0.02245   0.03228   0.04901   0.05228
 Alpha virt. eigenvalues --    0.05550   0.06009   0.07158   0.07253   0.07640
 Alpha virt. eigenvalues --    0.08559   0.09910   0.11376   0.12457   0.13233
 Alpha virt. eigenvalues --    0.13941   0.14942   0.16952   0.17892   0.19396
 Alpha virt. eigenvalues --    0.20590   0.22189   0.24700   0.38412   0.39087
 Alpha virt. eigenvalues --    0.39451   0.39456   0.40484   0.41237   0.42487
 Alpha virt. eigenvalues --    0.42558   0.42725   0.43109   0.43679   0.43770
 Alpha virt. eigenvalues --    0.44516   0.44594   0.46872   0.46932   0.47291
 Alpha virt. eigenvalues --    0.48560   0.48875   0.49976   0.50136   0.50258
 Alpha virt. eigenvalues --    0.50429   0.50507   0.51238   0.51265   0.53731
 Alpha virt. eigenvalues --    0.54051   0.54809   0.55435   0.56766   0.56908
 Alpha virt. eigenvalues --    0.62062   0.62956   0.77152   0.77190   9.06258
 Alpha virt. eigenvalues --   10.10138  10.88862  11.29001  12.11212  12.37845
 Alpha virt. eigenvalues --   12.48612  12.73662  13.44538  13.62690  14.07620
 Alpha virt. eigenvalues --   14.32812
  Beta  occ. eigenvalues --   -0.61167  -0.55075  -0.48372  -0.46462  -0.43143
  Beta  occ. eigenvalues --   -0.36673  -0.34223  -0.33414  -0.31124  -0.29351
  Beta  occ. eigenvalues --   -0.25750  -0.21774  -0.19479  -0.18819  -0.18459
  Beta  occ. eigenvalues --   -0.16694  -0.16459  -0.12828  -0.12452  -0.12100
  Beta  occ. eigenvalues --   -0.12009  -0.11336  -0.10950  -0.10849
  Beta virt. eigenvalues --    0.01938   0.02264   0.03180   0.04704   0.05222
  Beta virt. eigenvalues --    0.05387   0.05686   0.06502   0.07301   0.07316
  Beta virt. eigenvalues --    0.07950   0.08744   0.10130   0.11867   0.12431
  Beta virt. eigenvalues --    0.13423   0.14117   0.15047   0.17098   0.18153
  Beta virt. eigenvalues --    0.19718   0.21247   0.22325   0.25155   0.38683
  Beta virt. eigenvalues --    0.39047   0.39442   0.40382   0.40822   0.41344
  Beta virt. eigenvalues --    0.42553   0.42773   0.43123   0.43639   0.43743
  Beta virt. eigenvalues --    0.43915   0.44692   0.44712   0.46878   0.47176
  Beta virt. eigenvalues --    0.47362   0.48664   0.48980   0.50160   0.50245
  Beta virt. eigenvalues --    0.50489   0.50560   0.50617   0.51356   0.51450
  Beta virt. eigenvalues --    0.53780   0.54211   0.55529   0.56295   0.56919
  Beta virt. eigenvalues --    0.57057   0.62598   0.63389   0.77348   0.77468
  Beta virt. eigenvalues --    9.06264  10.10172  10.88862  11.29051  12.11318
  Beta virt. eigenvalues --   12.37777  12.48624  12.73715  13.44422  13.62296
  Beta virt. eigenvalues --   14.07627  14.32727
          Condensed to atoms (all electrons):
              1          2          3          4          5          6
     1  Si   3.752193   0.147339  -0.028246   0.147590  -0.018580  -0.018693
     2  Si   0.147339   3.936422  -0.125171  -0.049476  -0.034365   0.107368
     3  Si  -0.028246  -0.125171   5.225879  -0.123845  -0.017986  -0.016292
     4  Si   0.147590  -0.049476  -0.123845   3.935533   0.107942  -0.034096
     5  Si  -0.018580  -0.034365  -0.017986   0.107942   4.134740  -0.037687
     6  Si  -0.018693   0.107368  -0.016292  -0.034096  -0.037687   4.134387
     7  Si  -0.065027   0.108991  -0.214982   0.106338  -0.120679  -0.123560
     8  Si   0.003226  -0.072216  -0.021246   0.009874  -0.034365   0.107368
     9  Si   0.001024  -0.021246  -0.205049  -0.020972  -0.017986  -0.016292
    10  Si   0.003166   0.009874  -0.020972  -0.071939   0.107942  -0.034096
    11  Si  -0.000267   0.003226   0.001024   0.003166  -0.018580  -0.018693
    12  Si   0.007969  -0.011406   0.015570  -0.011207   0.010892   0.011240
              7          8          9         10         11         12
     1  Si  -0.065027   0.003226   0.001024   0.003166  -0.000267   0.007969
     2  Si   0.108991  -0.072216  -0.021246   0.009874   0.003226  -0.011406
     3  Si  -0.214982  -0.021246  -0.205049  -0.020972   0.001024   0.015570
     4  Si   0.106338   0.009874  -0.020972  -0.071939   0.003166  -0.011207
     5  Si  -0.120679  -0.034365  -0.017986   0.107942  -0.018580   0.010892
     6  Si  -0.123560   0.107368  -0.016292  -0.034096  -0.018693   0.011240
     7  Si   4.728331   0.108991  -0.214982   0.106338  -0.065027  -0.017583
     8  Si   0.108991   3.936422  -0.125171  -0.049476   0.147339  -0.011406
     9  Si  -0.214982  -0.125171   5.225879  -0.123845  -0.028246   0.015570
    10  Si   0.106338  -0.049476  -0.123845   3.935533   0.147590  -0.011207
    11  Si  -0.065027   0.147339  -0.028246   0.147590   3.752193   0.007969
    12  Si  -0.017583  -0.011406   0.015570  -0.011207   0.007969   3.736972
 Mulliken atomic charges:
              1
     1  Si   0.068307
     2  Si   0.000662
     3  Si  -0.468682
     4  Si   0.001094
     5  Si  -0.061288
     6  Si  -0.060953
     7  Si  -0.337146
     8  Si   0.000662
     9  Si  -0.468682
    10  Si   0.001094
    11  Si   0.068307
    12  Si   0.256626
 Sum of Mulliken atomic charges =  -1.00000
 Mulliken charges with hydrogens summed into heavy atoms:
              1
     1  Si   0.068307
     2  Si   0.000662
     3  Si  -0.468682
     4  Si   0.001094
     5  Si  -0.061288
     6  Si  -0.060953
     7  Si  -0.337146
     8  Si   0.000662
     9  Si  -0.468682
    10  Si   0.001094
    11  Si   0.068307
    12  Si   0.256626
 Sum of Mulliken charges with hydrogens summed into heavy atoms =  -1.00000
          Atomic-Atomic Spin Densities.
              1          2          3          4          5          6
     1  Si  -0.005156   0.001472  -0.018398   0.001336   0.001215   0.001268
     2  Si   0.001472   0.011540  -0.030726   0.020516  -0.002941  -0.006625
     3  Si  -0.018398  -0.030726   0.441845  -0.029736   0.012313   0.013820
     4  Si   0.001336   0.020516  -0.029736   0.009708  -0.005516  -0.003029
     5  Si   0.001215  -0.002941   0.012313  -0.005516   0.013733   0.010004
     6  Si   0.001268  -0.006625   0.013820  -0.003029   0.010004   0.023262
     7  Si  -0.005117  -0.017934  -0.119596  -0.020301  -0.050485  -0.054413
     8  Si  -0.000154   0.001319  -0.002659   0.002259  -0.002941  -0.006625
     9  Si   0.000353  -0.002659   0.025376  -0.002356   0.012313   0.013820
    10  Si  -0.000147   0.002259  -0.002356   0.001102  -0.005516  -0.003029
    11  Si   0.000007  -0.000154   0.000353  -0.000147   0.001215   0.001268
    12  Si  -0.000351   0.001899  -0.066573   0.001889   0.011298   0.011313
              7          8          9         10         11         12
     1  Si  -0.005117  -0.000154   0.000353  -0.000147   0.000007  -0.000351
     2  Si  -0.017934   0.001319  -0.002659   0.002259  -0.000154   0.001899
     3  Si  -0.119596  -0.002659   0.025376  -0.002356   0.000353  -0.066573
     4  Si  -0.020301   0.002259  -0.002356   0.001102  -0.000147   0.001889
     5  Si  -0.050485  -0.002941   0.012313  -0.005516   0.001215   0.011298
     6  Si  -0.054413  -0.006625   0.013820  -0.003029   0.001268   0.011313
     7  Si   1.134439  -0.017934  -0.119596  -0.020301  -0.005117  -0.001611
     8  Si  -0.017934   0.011540  -0.030726   0.020516   0.001472   0.001899
     9  Si  -0.119596  -0.030726   0.441845  -0.029736  -0.018398  -0.066573
    10  Si  -0.020301   0.020516  -0.029736   0.009708   0.001336   0.001889
    11  Si  -0.005117   0.001472  -0.018398   0.001336  -0.005156  -0.000351
    12  Si  -0.001611   0.001899  -0.066573   0.001889  -0.000351   0.100136
 Mulliken atomic spin densities:
              1
     1  Si  -0.023672
     2  Si  -0.022032
     3  Si   0.223664
     4  Si  -0.024274
     5  Si  -0.005307
     6  Si   0.001035
     7  Si   0.702035
     8  Si  -0.022032
     9  Si   0.223664
    10  Si  -0.024274
    11  Si  -0.023672
    12  Si  -0.005136
 Sum of Mulliken atomic spin densities =   1.00000
 APT atomic charges:
              1
     1  Si   0.189193
     2  Si  -0.089888
     3  Si  -0.368576
     4  Si  -0.083899
     5  Si  -0.171074
     6  Si  -0.178717
     7  Si  -0.112005
     8  Si  -0.089888
     9  Si  -0.368577
    10  Si  -0.083899
    11  Si   0.189193
    12  Si   0.168138
 Sum of APT charges=  -1.00000
 APT Atomic charges with hydrogens summed into heavy atoms:
              1
     1  Si   0.189193
     2  Si  -0.089888
     3  Si  -0.368576
     4  Si  -0.083899
     5  Si  -0.171074
     6  Si  -0.178717
     7  Si  -0.112005
     8  Si  -0.089888
     9  Si  -0.368577
    10  Si  -0.083899
    11  Si   0.189193
    12  Si   0.168138
 Sum of APT charges=  -1.00000
 Electronic spatial extent (au):  <R**2>=           1517.3713
 Charge=             -1.0000 electrons
 Dipole moment (field-independent basis, Debye):
    X=              0.0197    Y=             -0.0169    Z=              0.0000  Tot=              0.0259
 Quadrupole moment (field-independent basis, Debye-Ang):
   XX=           -174.6218   YY=           -168.8341   ZZ=           -186.9998
   XY=              0.1062   XZ=              0.0000   YZ=              0.0000
 Traceless Quadrupole moment (field-independent basis, Debye-Ang):
   XX=              2.1968   YY=              7.9845   ZZ=            -10.1813
   XY=              0.1062   XZ=              0.0000   YZ=              0.0000
 Octapole moment (field-independent basis, Debye-Ang**2):
  XXX=             -9.7026  YYY=             -0.2862  ZZZ=              0.0000  XYY=              0.7858
  XXY=              0.2044  XXZ=              0.0000  XZZ=             -1.5375  YZZ=              0.0679
  YYZ=              0.0000  XYZ=              0.0000
 Hexadecapole moment (field-independent basis, Debye-Ang**3):
 XXXX=          -1757.7001 YYYY=          -1643.0508 ZZZZ=          -4498.0374 XXXY=              0.9651
 XXXZ=              0.0000 YYYX=             -0.1617 YYYZ=              0.0000 ZZZX=              0.0000
 ZZZY=              0.0000 XXYY=           -556.5532 XXZZ=           -930.7809 YYZZ=           -902.9284
 XXYZ=              0.0000 YYXZ=              0.0000 ZZXY=              0.4827
 N-N= 1.703139482653D+02 E-N=-6.419202047003D+02  KE= 2.754797058017D+01
 Symmetry A'   KE= 1.551601163772D+01
 Symmetry A"   KE= 1.203195894245D+01
  Exact polarizability: 301.967   0.358 312.505   0.000   0.000 476.834
 Approx polarizability:1031.994   4.0611181.287   0.000   0.0001517.577
                          Isotropic Fermi Contact Couplings
        Atom                 a.u.       MegaHertz       Gauss      10(-4) cm-1
     1  Si(29)             0.00000      -0.00001       0.00000       0.00000
     2  Si(29)             0.00000      -0.00004      -0.00001      -0.00001
     3  Si(29)             0.00000      -0.00022      -0.00008      -0.00007
     4  Si(29)             0.00000      -0.00003      -0.00001      -0.00001
     5  Si(29)             0.00000       0.00005       0.00002       0.00002
     6  Si(29)             0.00000       0.00004       0.00002       0.00001
     7  Si(29)             0.00000      -0.00050      -0.00018      -0.00017
     8  Si(29)             0.00000      -0.00004      -0.00001      -0.00001
     9  Si(29)             0.00000      -0.00022      -0.00008      -0.00007
    10  Si(29)             0.00000      -0.00003      -0.00001      -0.00001
    11  Si(29)             0.00000      -0.00001       0.00000       0.00000
    12  Si(29)             0.00000       0.00012       0.00004       0.00004
 --------------------------------------------------------
       Center         ----  Spin Dipole Couplings  ----
                      3XX-RR        3YY-RR        3ZZ-RR
 --------------------------------------------------------
     1   Atom       -0.001333     -0.002336      0.003669
     2   Atom       -0.001217      0.000927      0.000289
     3   Atom        0.021786     -0.012897     -0.008889
     4   Atom       -0.001319      0.000902      0.000416
     5   Atom       -0.003366      0.005821     -0.002455
     6   Atom       -0.003349      0.006092     -0.002743
     7   Atom        0.072277     -0.036049     -0.036227
     8   Atom       -0.001217      0.000927      0.000289
     9   Atom        0.021786     -0.012897     -0.008889
    10   Atom       -0.001319      0.000902      0.000416
    11   Atom       -0.001333     -0.002336      0.003669
    12   Atom        0.004076     -0.003497     -0.000579
 --------------------------------------------------------
                        XY            XZ            YZ
 --------------------------------------------------------
     1   Atom       -0.000115      0.000170     -0.000021
     2   Atom        0.004015      0.001804      0.004929
     3   Atom       -0.000583      0.014387     -0.000295
     4   Atom       -0.003748      0.001594     -0.004945
     5   Atom       -0.002242      0.000000      0.000000
     6   Atom        0.002909      0.000000      0.000000
     7   Atom       -0.001163      0.000000      0.000000
     8   Atom        0.004015     -0.001804     -0.004929
     9   Atom       -0.000583     -0.014387      0.000295
    10   Atom       -0.003748     -0.001594      0.004945
    11   Atom       -0.000115     -0.000170      0.000021
    12   Atom       -0.000087      0.000000      0.000000
 --------------------------------------------------------


 ---------------------------------------------------------------------------------
              Anisotropic Spin Dipole Couplings in Principal Axis System
 ---------------------------------------------------------------------------------

       Atom             a.u.   MegaHertz   Gauss  10(-4) cm-1        Axes

              Baa    -0.0023     0.249     0.089     0.083  0.1122  0.9937  0.0003
     1 Si(29) Bbb    -0.0013     0.141     0.050     0.047  0.9931 -0.1122 -0.0343
              Bcc     0.0037    -0.390    -0.139    -0.130  0.0340 -0.0041  0.9994
 
              Baa    -0.0052     0.551     0.197     0.184 -0.5072  0.7173 -0.4778
     2 Si(29) Bbb    -0.0024     0.251     0.090     0.084  0.7441  0.0847 -0.6627
              Bcc     0.0076    -0.802    -0.286    -0.268  0.4349  0.6916  0.5767
 
              Baa    -0.0146     1.547     0.552     0.516 -0.3671  0.0355  0.9295
     3 Si(29) Bbb    -0.0129     1.369     0.489     0.457  0.0281  0.9992 -0.0271
              Bcc     0.0275    -2.916    -1.041    -0.973  0.9298 -0.0161  0.3678
 
              Baa    -0.0051     0.544     0.194     0.181  0.4958  0.7139  0.4944
     4 Si(29) Bbb    -0.0022     0.234     0.083     0.078  0.7655 -0.0905 -0.6370
              Bcc     0.0073    -0.777    -0.277    -0.259 -0.4100  0.6944 -0.5914
 
              Baa    -0.0039     0.412     0.147     0.137  0.9743  0.2251  0.0000
     5 Si(29) Bbb    -0.0025     0.260     0.093     0.087  0.0000  0.0000  1.0000
              Bcc     0.0063    -0.672    -0.240    -0.224 -0.2251  0.9743  0.0000
 
              Baa    -0.0042     0.443     0.158     0.148  0.9621 -0.2727  0.0000
     6 Si(29) Bbb    -0.0027     0.291     0.104     0.097  0.0000  0.0000  1.0000
              Bcc     0.0069    -0.734    -0.262    -0.245  0.2727  0.9621  0.0000
 
              Baa    -0.0362     3.843     1.371     1.282  0.0000  0.0000  1.0000
     7 Si(29) Bbb    -0.0361     3.826     1.365     1.276  0.0107  0.9999  0.0000
              Bcc     0.0723    -7.669    -2.736    -2.558  0.9999 -0.0107  0.0000
 
              Baa    -0.0052     0.551     0.197     0.184 -0.5072  0.7173  0.4778
     8 Si(29) Bbb    -0.0024     0.251     0.090     0.084  0.7441  0.0847  0.6627
              Bcc     0.0076    -0.802    -0.286    -0.268  0.4349  0.6916 -0.5767
 
              Baa    -0.0146     1.547     0.552     0.516  0.3671 -0.0355  0.9295
     9 Si(29) Bbb    -0.0129     1.369     0.489     0.457  0.0281  0.9992  0.0271
              Bcc     0.0275    -2.916    -1.041    -0.973  0.9298 -0.0161 -0.3678
 
              Baa    -0.0051     0.544     0.194     0.181  0.4958  0.7139 -0.4944
    10 Si(29) Bbb    -0.0022     0.234     0.083     0.078  0.7655 -0.0905  0.6370
              Bcc     0.0073    -0.777    -0.277    -0.259 -0.4100  0.6944  0.5914
 
              Baa    -0.0023     0.249     0.089     0.083  0.1122  0.9937 -0.0003
    11 Si(29) Bbb    -0.0013     0.141     0.050     0.047  0.9931 -0.1122  0.0343
              Bcc     0.0037    -0.390    -0.139    -0.130 -0.0340  0.0041  0.9994
 
              Baa    -0.0035     0.371     0.132     0.124  0.0115  0.9999  0.0000
    12 Si(29) Bbb    -0.0006     0.061     0.022     0.020  0.0000  0.0000  1.0000
              Bcc     0.0041    -0.432    -0.154    -0.144  0.9999 -0.0115  0.0000
 

 ---------------------------------------------------------------------------------

   2 Symmetry operations used in ECPInt.
 ECPInt:  NShTT=    1176 NPrTT=    2652 LenC2=    1177 LenP2D=    2652.
 LDataN:  DoStor=T MaxTD1= 5 Len=  102
 Calling FoFJK, ICntrl=    100127 FMM=F ISym2X=1 I1Cent= 0 IOpClX= 1 NMat=1 NMatS=1 NMatT=0.
 ***** Axes restored to original set *****
 -------------------------------------------------------------------
 Center     Atomic                   Forces (Hartrees/Bohr)
 Number     Number              X              Y              Z
 -------------------------------------------------------------------
      1       14          -0.000377870   -0.000047740    0.016671524
      2       14          -0.013453564    0.015584902    0.002078491
      3       14           0.041287868   -0.000792682    0.020436255
      4       14          -0.013883291   -0.015094382    0.002178962
      5       14           0.009995243   -0.031220229    0.000000000
      6       14           0.011205267    0.030862418    0.000000000
      7       14          -0.083099449    0.001825569    0.000000000
      8       14          -0.013453564    0.015584902   -0.002078491
      9       14           0.041287868   -0.000792682   -0.020436255
     10       14          -0.013883291   -0.015094382   -0.002178962
     11       14          -0.000377870   -0.000047740   -0.016671524
     12       14           0.034752652   -0.000767955    0.000000000
 -------------------------------------------------------------------
 Cartesian Forces:  Max     0.083099449 RMS     0.021588969

 GradGradGradGradGradGradGradGradGradGradGradGradGradGradGradGradGradGrad
 Berny optimization.
 Internal  Forces:  Max     0.023446085 RMS     0.004858274
 Search for a local minimum.
 Step number   1 out of a maximum of  100
 All quantities printed in internal units (Hartrees-Bohrs-Radians)
 Mixed Optimization -- RFO/linear search
 Second derivative matrix not updated -- analytic derivatives used.
     Eigenvalues ---   -0.01595  -0.00011   0.00257   0.00349   0.00482
     Eigenvalues ---    0.00658   0.00791   0.01023   0.01203   0.01374
     Eigenvalues ---    0.01392   0.01509   0.01711   0.01810   0.02370
     Eigenvalues ---    0.02838   0.02898   0.02912   0.03434   0.03444
     Eigenvalues ---    0.03749   0.03810   0.03839   0.04254   0.04380
     Eigenvalues ---    0.04493   0.05179   0.06373   0.08063   0.08100
     Eigenvalues --- 1000.000001000.000001000.000001000.000001000.00000
     Eigenvalues --- 1000.000001000.000001000.000001000.000001000.00000
     Eigenvalues --- 1000.000001000.000001000.000001000.000001000.00000
     Eigenvalues --- 1000.000001000.000001000.000001000.000001000.00000
     Eigenvalues --- 1000.000001000.000001000.000001000.000001000.00000
     Eigenvalues --- 1000.000001000.000001000.000001000.000001000.00000
     Eigenvalues --- 1000.000001000.000001000.000001000.000001000.00000
     Eigenvalues --- 1000.000001000.000001000.000001000.000001000.00000
     Eigenvalues --- 1000.000001000.000001000.000001000.000001000.00000
     Eigenvalues --- 1000.000001000.000001000.000001000.000001000.00000
     Eigenvalues --- 1000.000001000.000001000.000001000.000001000.00000
     Eigenvalues --- 1000.000001000.000001000.000001000.000001000.00000
     Eigenvalues --- 1000.000001000.000001000.000001000.000001000.00000
     Eigenvalues --- 1000.000001000.000001000.000001000.000001000.00000
     Eigenvalues --- 1000.000001000.000001000.000001000.000001000.00000
     Eigenvalues --- 1000.000001000.000001000.000001000.000001000.00000
     Eigenvalues --- 1000.000001000.000001000.000001000.000001000.00000
     Eigenvalues --- 1000.000001000.000001000.000001000.000001000.00000
     Eigenvalues --- 1000.000001000.000001000.000001000.000001000.00000
     Eigenvalues --- 1000.000001000.000001000.000001000.000001000.00000
     Eigenvalues --- 1000.000001000.000001000.000001000.000001000.00000
     Eigenvalues --- 1000.000001000.000001000.000001000.000001000.00000
     Eigenvalues --- 1000.000001000.000001000.000001000.000001000.00000
     Eigenvalues --- 1000.000001000.000001000.000001000.000001000.00000
     Eigenvalues --- 1000.000001000.000001000.000001000.000001000.00000
     Eigenvalues --- 1000.000001000.000001000.000001000.000001000.00000
     Eigenvalues --- 1000.000001000.000001000.000001000.000001000.00000
     Eigenvalues --- 1000.000001000.000001000.000001000.000001000.00000
     Eigenvalues --- 1000.000001000.000001000.000001000.000001000.00000
     Eigenvalues --- 1000.000001000.000001000.000001000.000001000.00000
     Eigenvalues --- 1000.000001000.000001000.000001000.000001000.00000
     Eigenvalues --- 1000.000001000.000001000.000001000.000001000.00000
     Eigenvalues --- 1000.000001000.000001000.000001000.000001000.00000
     Eigenvalues --- 1000.000001000.000001000.000001000.000001000.00000
     Eigenvalues --- 1000.000001000.000001000.000001000.000001000.00000
     Eigenvalues --- 1000.000001000.000001000.000001000.000001000.00000
     Eigenvalues --- 1000.000001000.000001000.000001000.000001000.00000
 RFO step:  Lambda=-5.60601338D-02 EMin=-1.59545526D-02
 Linear search not attempted -- first point.
 Maximum step size (   0.300) exceeded in Quadratic search.
    -- Step size scaled by   0.225
 Iteration  1 RMS(Cart)=  0.01164626 RMS(Int)=  0.00080766
 Iteration  2 RMS(Cart)=  0.00028517 RMS(Int)=  0.00046392
 Iteration  3 RMS(Cart)=  0.00000119 RMS(Int)=  0.00046391
 Iteration  4 RMS(Cart)=  0.00000000 RMS(Int)=  0.00046391
 ClnCor:  largest displacement from symmetrization is 1.47D-08 for atom    10.
 Variable       Old X    -DE/DX   Delta X   Delta X   Delta X     New X
                                 (Linear)    (Quad)   (Total)
    R1        4.71848   0.00862   0.00000   0.02311   0.02203   4.74051
    R2        4.32240   0.00678   0.00000   0.00645   0.00630   4.32869
    R3        4.71740   0.00852   0.00000   0.03155   0.03263   4.75003
    R4        4.70355   0.01461   0.00000   0.02116   0.02185   4.72540
    R5        5.49264   0.00234   0.00000   0.00232   0.00171   5.49435
    R6        4.78800   0.00757   0.00000  -0.00399  -0.00455   4.78345
    R7        4.54655   0.00784   0.00000   0.02059   0.02108   4.56763
    R8        4.70557   0.01456   0.00000   0.01272   0.01220   4.71777
    R9        4.89819   0.00974   0.00000  -0.00531  -0.00624   4.89195
   R10        4.89641   0.00971   0.00000   0.00515   0.00541   4.90182
   R11        4.45433   0.01023   0.00000   0.01744   0.01751   4.47184
   R12        4.78692   0.00764   0.00000   0.01092   0.01056   4.79747
   R13        4.54172   0.00785   0.00000   0.02023   0.02135   4.56307
   R14        5.58451   0.02343   0.00000   0.13181   0.13288   5.71739
   R15        4.89819   0.00974   0.00000  -0.00531  -0.00624   4.89195
   R16        4.78692   0.00764   0.00000   0.01092   0.01056   4.79747
   R17        5.06630   0.01419   0.00000   0.07635   0.07734   5.14364
   R18        5.60445   0.02345   0.00000   0.10384   0.10403   5.70849
   R19        4.78800   0.00757   0.00000  -0.00399  -0.00455   4.78345
   R20        4.89641   0.00971   0.00000   0.00515   0.00541   4.90182
   R21        5.06317   0.01421   0.00000   0.03733   0.03621   5.09938
   R22        4.54655   0.00784   0.00000   0.02059   0.02108   4.56763
   R23        4.54172   0.00785   0.00000   0.02023   0.02135   4.56307
   R24        4.70355   0.01461   0.00000   0.02116   0.02185   4.72540
   R25        5.49264   0.00234   0.00000   0.00232   0.00171   5.49435
   R26        4.71848   0.00862   0.00000   0.02311   0.02203   4.74051
   R27        4.70557   0.01456   0.00000   0.01272   0.01220   4.71777
   R28        4.32240   0.00678   0.00000   0.00645   0.00630   4.32869
   R29        4.45433   0.01023   0.00000   0.01744   0.01751   4.47184
   R30        4.71740   0.00852   0.00000   0.03155   0.03263   4.75003
    A1        2.00313  -0.00117   0.00000  -0.00703  -0.00717   1.99596
    A2        1.86682   0.00224   0.00000   0.00969   0.01019   1.87702
    A3        1.38763   0.00593   0.00000   0.02165   0.02175   1.40939
    A4        1.74460   0.00032   0.00000   0.00323   0.00322   1.74782
    A5        2.10216  -0.00163   0.00000   0.00361   0.00408   2.10624
    A6        2.10256  -0.00163   0.00000  -0.00528  -0.00608   2.09648
    A7        2.96217   0.00190   0.00000  -0.02146  -0.02180   2.94037
    A8        1.92386  -0.00419   0.00000   0.00504   0.00490   1.92876
    A9        2.17573  -0.00032   0.00000   0.00450   0.00384   2.17957
   A10        1.92707  -0.00419   0.00000  -0.00185  -0.00211   1.92497
   A11        2.17598  -0.00031   0.00000   0.01939   0.01978   2.19576
   A12        1.63264  -0.00188   0.00000   0.01279   0.01284   1.64549
   A13        2.00410  -0.00115   0.00000  -0.01044  -0.01055   1.99356
   A14        1.86854   0.00226   0.00000   0.00731   0.00698   1.87552
   A15        1.74211   0.00031   0.00000   0.00511   0.00517   1.74727
   A16        1.38811   0.00594   0.00000   0.02329   0.02352   1.41163
   A17        1.19311   0.00370   0.00000   0.00513   0.00507   1.19818
   A18        1.47829   0.00098   0.00000  -0.01148  -0.01136   1.46693
   A19        2.03123   0.00121   0.00000  -0.01185  -0.01187   2.01936
   A20        2.03123   0.00121   0.00000  -0.01185  -0.01187   2.01936
   A21        1.61265  -0.00143   0.00000  -0.01407  -0.01434   1.59831
   A22        1.93441   0.00118   0.00000  -0.00168  -0.00182   1.93259
   A23        1.19311   0.00370   0.00000   0.00513   0.00507   1.19818
   A24        1.66998   0.00425   0.00000   0.01077   0.01027   1.68025
   A25        1.93441   0.00118   0.00000  -0.00168  -0.00182   1.93259
   A26        1.60750  -0.00144   0.00000  -0.00418  -0.00453   1.60297
   A27        2.02857   0.00122   0.00000  -0.00673  -0.00688   2.02169
   A28        1.93419   0.00120   0.00000   0.00569   0.00591   1.94010
   A29        1.19035   0.00370   0.00000   0.00807   0.00811   1.19846
   A30        2.02857   0.00122   0.00000  -0.00673  -0.00688   2.02169
   A31        1.47896   0.00099   0.00000  -0.01538  -0.01565   1.46331
   A32        1.19035   0.00370   0.00000   0.00807   0.00811   1.19846
   A33        1.66630   0.00424   0.00000   0.02455   0.02468   1.69098
   A34        1.93419   0.00120   0.00000   0.00569   0.00591   1.94010
   A35        1.77284  -0.00524   0.00000  -0.03069  -0.03067   1.74217
   A36        1.72109  -0.00195   0.00000  -0.01716  -0.01790   1.70319
   A37        2.65527  -0.00816   0.00000  -0.05293  -0.05293   2.60234
   A38        1.77157  -0.00524   0.00000  -0.02867  -0.02876   1.74281
   A39        2.65527  -0.00816   0.00000  -0.05293  -0.05293   2.60234
   A40        1.72883  -0.00192   0.00000  -0.02090  -0.02182   1.70701
   A41        1.38335  -0.00511   0.00000  -0.02494  -0.02460   1.35876
   A42        1.77284  -0.00524   0.00000  -0.03069  -0.03067   1.74217
   A43        1.77157  -0.00524   0.00000  -0.02867  -0.02876   1.74281
   A44        1.74460   0.00032   0.00000   0.00323   0.00322   1.74782
   A45        2.00313  -0.00117   0.00000  -0.00703  -0.00717   1.99596
   A46        1.38763   0.00593   0.00000   0.02165   0.02175   1.40939
   A47        1.86682   0.00224   0.00000   0.00969   0.01019   1.87702
   A48        1.63264  -0.00188   0.00000   0.01279   0.01284   1.64549
   A49        1.92386  -0.00419   0.00000   0.00504   0.00490   1.92876
   A50        2.10216  -0.00163   0.00000   0.00361   0.00408   2.10624
   A51        1.92707  -0.00419   0.00000  -0.00185  -0.00211   1.92497
   A52        2.10256  -0.00163   0.00000  -0.00528  -0.00608   2.09648
   A53        2.17573  -0.00032   0.00000   0.00450   0.00384   2.17957
   A54        2.17598  -0.00031   0.00000   0.01939   0.01978   2.19576
   A55        2.96217   0.00190   0.00000  -0.02146  -0.02180   2.94037
   A56        1.74211   0.00031   0.00000   0.00511   0.00517   1.74727
   A57        2.00410  -0.00115   0.00000  -0.01044  -0.01055   1.99356
   A58        1.38811   0.00594   0.00000   0.02329   0.02352   1.41163
   A59        1.86854   0.00226   0.00000   0.00731   0.00698   1.87552
   A60        1.66848   0.00051   0.00000  -0.02491  -0.02498   1.64350
   A61        1.56356  -0.00337   0.00000  -0.01038  -0.01036   1.55320
    D1       -0.08720   0.00151   0.00000   0.00710   0.00705  -0.08015
    D2        1.19500  -0.00003   0.00000   0.03334   0.03370   1.22870
    D3       -0.00292  -0.00002   0.00000   0.00526   0.00521   0.00229
    D4        2.35401   0.00130   0.00000   0.00355   0.00401   2.35801
    D5        1.39139   0.00080   0.00000  -0.00163  -0.00124   1.39015
    D6        0.37769   0.00037   0.00000  -0.00200  -0.00169   0.37600
    D7        1.38974  -0.00005   0.00000  -0.00425  -0.00414   1.38561
    D8        0.42713  -0.00055   0.00000  -0.00943  -0.00938   0.41775
    D9       -0.58658  -0.00098   0.00000  -0.00980  -0.00983  -0.59641
   D10       -0.76036  -0.00258   0.00000  -0.01194  -0.01151  -0.77187
   D11       -2.57166   0.00444   0.00000   0.03060   0.03004  -2.54162
   D12       -1.30212  -0.00014   0.00000   0.00667   0.00629  -1.29583
   D13        0.07323  -0.00139   0.00000  -0.00837  -0.00806   0.06517
   D14       -1.73807   0.00563   0.00000   0.03417   0.03348  -1.70459
   D15       -0.46853   0.00105   0.00000   0.01025   0.00974  -0.45880
   D16        0.09009  -0.00148   0.00000  -0.00511  -0.00492   0.08517
   D17       -1.19348   0.00004   0.00000  -0.01568  -0.01495  -1.20843
   D18        1.29135  -0.00476   0.00000  -0.00188  -0.00212   1.28923
   D19        2.49213  -0.00095   0.00000   0.00839   0.00792   2.50005
   D20        1.61326  -0.00280   0.00000   0.00736   0.00671   1.61997
   D21        0.07507  -0.00151   0.00000  -0.00740  -0.00724   0.06784
   D22        1.27585   0.00230   0.00000   0.00288   0.00281   1.27866
   D23        0.39698   0.00045   0.00000   0.00185   0.00160   0.39858
   D24       -0.95544  -0.00026   0.00000  -0.00737  -0.00702  -0.96246
   D25        0.24534   0.00355   0.00000   0.00291   0.00303   0.24837
   D26       -0.63353   0.00170   0.00000   0.00188   0.00182  -0.63172
   D27       -1.29453   0.00476   0.00000   0.00075   0.00036  -1.29417
   D28       -1.61163   0.00282   0.00000  -0.01598  -0.01609  -1.62772
   D29       -2.49191   0.00095   0.00000  -0.01447  -0.01475  -2.50666
   D30       -0.07729   0.00149   0.00000   0.00539   0.00515  -0.07214
   D31       -0.39440  -0.00046   0.00000  -0.01134  -0.01130  -0.40570
   D32       -1.27468  -0.00232   0.00000  -0.00984  -0.00996  -1.28464
   D33        0.95197   0.00026   0.00000   0.01276   0.01257   0.96454
   D34        0.63486  -0.00168   0.00000  -0.00397  -0.00388   0.63099
   D35       -0.24542  -0.00355   0.00000  -0.00246  -0.00254  -0.24795
   D36       -3.14122  -0.00002   0.00000   0.05978   0.05773  -3.08349
   D37       -0.78735   0.00292   0.00000  -0.02327  -0.02396  -0.81131
   D38        0.79097  -0.00291   0.00000  -0.01303  -0.01398   0.77698
   D39       -1.38547  -0.00080   0.00000  -0.00664  -0.00625  -1.39172
   D40       -2.35070  -0.00129   0.00000  -0.00483  -0.00441  -2.35512
   D41       -0.37188  -0.00037   0.00000  -0.01310  -0.01289  -0.38477
   D42       -0.42205   0.00058   0.00000  -0.00034  -0.00037  -0.42243
   D43       -1.38729   0.00009   0.00000   0.00147   0.00146  -1.38583
   D44        0.59154   0.00101   0.00000  -0.00680  -0.00701   0.58452
   D45        0.75760   0.00257   0.00000   0.01178   0.01161   0.76921
   D46        1.28476   0.00031   0.00000   0.00353   0.00341   1.28817
   D47        2.56923  -0.00449   0.00000  -0.02945  -0.02871   2.54051
   D48       -0.07525   0.00136   0.00000   0.00597   0.00565  -0.06960
   D49        0.45192  -0.00090   0.00000  -0.00229  -0.00255   0.44937
   D50        1.73638  -0.00570   0.00000  -0.03526  -0.03467   1.70171
   D51       -0.07439   0.00136   0.00000   0.00794   0.00768  -0.06671
   D52        0.81065  -0.00098   0.00000  -0.00876  -0.00862   0.80203
   D53        1.69569  -0.00332   0.00000  -0.02546  -0.02492   1.67078
   D54       -1.69569   0.00332   0.00000   0.02546   0.02492  -1.67078
   D55       -0.81065   0.00098   0.00000   0.00876   0.00862  -0.80203
   D56        0.07439  -0.00136   0.00000  -0.00794  -0.00768   0.06671
   D57       -0.88504   0.00234   0.00000   0.01670   0.01630  -0.86874
   D58        0.00000   0.00000   0.00000   0.00000   0.00000   0.00000
   D59        0.88504  -0.00234   0.00000  -0.01670  -0.01630   0.86874
   D60       -0.24534  -0.00355   0.00000  -0.00291  -0.00303  -0.24837
   D61       -1.27585  -0.00230   0.00000  -0.00288  -0.00281  -1.27866
   D62       -2.49213   0.00095   0.00000  -0.00839  -0.00792  -2.50005
   D63        0.63353  -0.00170   0.00000  -0.00188  -0.00182   0.63172
   D64       -0.39698  -0.00045   0.00000  -0.00185  -0.00160  -0.39858
   D65       -1.61326   0.00280   0.00000  -0.00736  -0.00671  -1.61997
   D66        0.95544   0.00026   0.00000   0.00737   0.00702   0.96246
   D67       -0.07507   0.00151   0.00000   0.00740   0.00724  -0.06784
   D68       -1.29135   0.00476   0.00000   0.00188   0.00212  -1.28923
   D69        0.42205  -0.00058   0.00000   0.00034   0.00037   0.42243
   D70        1.38547   0.00080   0.00000   0.00664   0.00625   1.39172
   D71        1.38729  -0.00009   0.00000  -0.00147  -0.00146   1.38583
   D72        2.35070   0.00129   0.00000   0.00483   0.00441   2.35512
   D73       -0.59154  -0.00101   0.00000   0.00680   0.00701  -0.58452
   D74        0.37188   0.00037   0.00000   0.01310   0.01289   0.38477
   D75       -0.88236   0.00029   0.00000   0.00898   0.00917  -0.87319
   D76        0.00000   0.00000   0.00000   0.00000   0.00000   0.00000
   D77        0.88236  -0.00029   0.00000  -0.00898  -0.00917   0.87319
   D78        0.07659  -0.00133   0.00000  -0.00587  -0.00559   0.07100
   D79       -0.81220   0.00099   0.00000   0.01230   0.01235  -0.79985
   D80       -1.70098   0.00331   0.00000   0.03047   0.03029  -1.67069
   D81        1.70098  -0.00331   0.00000  -0.03047  -0.03029   1.67069
   D82        0.81220  -0.00099   0.00000  -0.01230  -0.01235   0.79985
   D83       -0.07659   0.00133   0.00000   0.00587   0.00559  -0.07100
   D84        0.88879  -0.00232   0.00000  -0.01817  -0.01794   0.87085
   D85        0.00000   0.00000   0.00000   0.00000   0.00000   0.00000
   D86       -0.88879   0.00232   0.00000   0.01817   0.01794  -0.87085
   D87       -1.38974   0.00005   0.00000   0.00425   0.00414  -1.38561
   D88       -2.35401  -0.00130   0.00000  -0.00355  -0.00401  -2.35801
   D89       -0.42713   0.00055   0.00000   0.00943   0.00938  -0.41775
   D90       -1.39139  -0.00080   0.00000   0.00163   0.00124  -1.39015
   D91        0.58658   0.00098   0.00000   0.00980   0.00983   0.59641
   D92       -0.37769  -0.00037   0.00000   0.00200   0.00169  -0.37600
   D93       -0.63486   0.00168   0.00000   0.00397   0.00388  -0.63099
   D94        0.39440   0.00046   0.00000   0.01134   0.01130   0.40570
   D95        1.61163  -0.00282   0.00000   0.01598   0.01609   1.62772
   D96        0.24542   0.00355   0.00000   0.00246   0.00254   0.24795
   D97        1.27468   0.00232   0.00000   0.00984   0.00996   1.28464
   D98        2.49191  -0.00095   0.00000   0.01447   0.01475   2.50666
   D99       -0.95197  -0.00026   0.00000  -0.01276  -0.01257  -0.96454
   D100       0.07729  -0.00149   0.00000  -0.00539  -0.00515   0.07214
   D101       1.29453  -0.00476   0.00000  -0.00075  -0.00036   1.29417
   D102       0.87926  -0.00029   0.00000   0.00018   0.00010   0.87935
   D103       0.00000   0.00000   0.00000   0.00000   0.00000   0.00000
   D104      -0.87926   0.00029   0.00000  -0.00018  -0.00010  -0.87935
   D105       1.73807  -0.00563   0.00000  -0.03417  -0.03348   1.70459
   D106       2.57166  -0.00444   0.00000  -0.03060  -0.03004   2.54162
   D107       0.46853  -0.00105   0.00000  -0.01025  -0.00974   0.45880
   D108       1.30212   0.00014   0.00000  -0.00667  -0.00629   1.29583
   D109      -0.07323   0.00139   0.00000   0.00837   0.00806  -0.06517
   D110       0.76036   0.00258   0.00000   0.01194   0.01151   0.77187
   D111      -0.45192   0.00090   0.00000   0.00229   0.00255  -0.44937
   D112      -1.28476  -0.00031   0.00000  -0.00353  -0.00341  -1.28817
   D113      -1.73638   0.00570   0.00000   0.03526   0.03467  -1.70171
   D114      -2.56923   0.00449   0.00000   0.02945   0.02871  -2.54051
   D115       0.07525  -0.00136   0.00000  -0.00597  -0.00565   0.06960
   D116      -0.75760  -0.00257   0.00000  -0.01178  -0.01161  -0.76921
   D117       0.08720  -0.00151   0.00000  -0.00710  -0.00705   0.08015
   D118      -1.19500   0.00003   0.00000  -0.03334  -0.03370  -1.22870
   D119       0.00292   0.00002   0.00000  -0.00526  -0.00521  -0.00229
   D120      -0.09009   0.00148   0.00000   0.00511   0.00492  -0.08517
   D121       1.19348  -0.00004   0.00000   0.01568   0.01495   1.20843
   D122       0.78735  -0.00292   0.00000   0.02327   0.02396   0.81131
   D123      -0.79097   0.00291   0.00000   0.01303   0.01398  -0.77698
   D124       3.14122   0.00002   0.00000  -0.05978  -0.05773   3.08349
         Item               Value     Threshold  Converged?
 Maximum Force            0.023446     0.000450     NO 
 RMS     Force            0.004858     0.000300     NO 
 Maximum Displacement     0.131537     0.001800     NO 
 RMS     Displacement     0.011726     0.001200     NO 
 Predicted change in Energy=-1.474731D-02
 GradGradGradGradGradGradGradGradGradGradGradGradGradGradGradGradGradGrad

                          Input orientation:                          
 ---------------------------------------------------------------------
 Center     Atomic      Atomic             Coordinates (Angstroms)
 Number     Number       Type             X           Y           Z
 ---------------------------------------------------------------------
      1         14           0       -0.175817    0.007362    3.687916
      2         14           0       -0.980083    1.474059    1.818455
      3         14           0        1.017570   -0.027586    1.733007
      4         14           0       -1.044172   -1.432720    1.819668
      5         14           0        0.658623   -1.916834    0.000000
      6         14           0        0.733028    1.881392    0.000000
      7         14           0       -1.655553    0.032090    0.000000
      8         14           0       -0.980083    1.474059   -1.818455
      9         14           0        1.017570   -0.027586   -1.733007
     10         14           0       -1.044172   -1.432720   -1.819668
     11         14           0       -0.175817    0.007362   -3.687916
     12         14           0        2.628905   -0.038877    0.000000
 ---------------------------------------------------------------------
                    Distance matrix (angstroms):
                    1          2          3          4          5
     1  Si   0.000000
     2  Si   2.508570   0.000000
     3  Si   2.290647   2.500571   0.000000
     4  Si   2.513608   2.907485   2.496536   0.000000
     5  Si   4.242587   4.182140   2.588709   2.538714   0.000000
     6  Si   4.235411   2.531294   2.593930   4.177675   3.798954
     7  Si   3.973783   2.417088   3.186294   2.414673   3.025511
     8  Si   5.754839   3.636911   4.342631   4.657189   4.182140
     9  Si   5.550838   4.342631   3.466015   4.341277   2.588709
    10  Si   5.758590   4.657189   4.341277   3.639336   2.538714
    11  Si   7.375831   5.754839   5.550838   5.758590   4.242587
    12  Si   4.633500   4.315153   2.366398   4.329605   2.721898
                    6          7          8          9         10
     6  Si   0.000000
     7  Si   3.020801   0.000000
     8  Si   2.531294   2.417088   0.000000
     9  Si   2.593930   3.186294   2.500571   0.000000
    10  Si   4.177675   2.414673   2.907485   2.496536   0.000000
    11  Si   4.235411   3.973783   2.508570   2.290647   2.513608
    12  Si   2.698477   4.285046   4.315153   2.366398   4.329605
                   11         12
    11  Si   0.000000
    12  Si   4.633500   0.000000
 Stoichiometry    Si12(1-,2)
 Framework group  CS[SG(Si4),X(Si8)]
 Deg. of freedom    17
 Full point group                 CS      NOp   2
 Largest Abelian subgroup         CS      NOp   2
 Largest concise Abelian subgroup CS      NOp   2
                         Standard orientation:                         
 ---------------------------------------------------------------------
 Center     Atomic      Atomic             Coordinates (Angstroms)
 Number     Number       Type             X           Y           Z
 ---------------------------------------------------------------------
      1         14           0       -0.175783    0.008130    3.687916
      2         14           0       -0.973632    1.478327    1.818455
      3         14           0        1.017440   -0.032032    1.733007
      4         14           0       -1.050423   -1.428143    1.819668
      5         14           0        0.650241   -1.919694    0.000000
      6         14           0        0.741243    1.878170    0.000000
      7         14           0       -1.655397    0.039324    0.000000
      8         14           0       -0.973632    1.478327   -1.818455
      9         14           0        1.017440   -0.032032   -1.733007
     10         14           0       -1.050423   -1.428143   -1.819668
     11         14           0       -0.175783    0.008130   -3.687916
     12         14           0        2.628710   -0.050365    0.000000
 ---------------------------------------------------------------------
 Rotational constants (GHZ):      0.5553636      0.2908264      0.2853662
 Standard basis: LANL2DZ (5D, 7F)
 There are    56 symmetry adapted basis functions of A'  symmetry.
 There are    40 symmetry adapted basis functions of A"  symmetry.
 Integral buffers will be    131072 words long.
 Raffenetti 2 integral format.
 Two-electron integral symmetry is turned on.
    96 basis functions,   144 primitive gaussians,    96 cartesian basis functions
    25 alpha electrons       24 beta electrons
       nuclear repulsion energy       169.6896086969 Hartrees.
 NAtoms=   12 NActive=   12 NUniq=    8 SFac= 1.69D+00 NAtFMM=   80 NAOKFM=F Big=F
 One-electron integrals computed using PRISM.
   2 Symmetry operations used in ECPInt.
 ECPInt:  NShTT=    1176 NPrTT=    2652 LenC2=    1177 LenP2D=    2571.
 LDataN:  DoStor=T MaxTD1= 3 Len=   28
 NBasis=    96 RedAO= T  NBF=    56    40
 NBsUse=    96 1.00D-06 NBFU=    56    40
 Initial guess read from the read-write file.
 B after Tr=     0.000000    0.000000    0.000000
         Rot=    1.000000    0.000000    0.000000    0.000000 Ang=   0.00 deg.
 Initial guess orbital symmetries:
 Alpha Orbitals:
       Occupied  (A') (A") (A') (A') (A') (A") (A") (A") (A') (A')
                 (A') (A') (A') (A") (A') (A") (A") (A') (A') (A")
                 (A") (A') (A") (A') (A')
[...]
 ! D18   D(1,3,5,7)             67.1178         -DE/DX =    0.0                 !
 ! D19   D(1,3,5,9)            146.2123         -DE/DX =    0.0                 !
 ! D20   D(1,3,5,10)            98.0178         -DE/DX =    0.0                 !
 ! D21   D(2,3,5,7)              2.3954         -DE/DX =    0.0                 !
 ! D22   D(2,3,5,9)             81.4899         -DE/DX =    0.0                 !
 ! D23   D(2,3,5,10)            33.2955         -DE/DX =    0.0                 !
 ! D24   D(6,3,5,7)            -57.4367         -DE/DX =    0.0                 !
 ! D25   D(6,3,5,9)             21.6578         -DE/DX =    0.0                 !
 ! D26   D(6,3,5,10)           -26.5366         -DE/DX =    0.0                 !
 ! D27   D(1,3,6,7)            -67.8831         -DE/DX =    0.0                 !
 ! D28   D(1,3,6,8)            -90.5423         -DE/DX =    0.0                 !
 ! D29   D(1,3,6,9)           -141.4827         -DE/DX =    0.0                 !
 ! D30   D(4,3,6,7)             -3.3379         -DE/DX =    0.0                 !
 ! D31   D(4,3,6,8)            -25.9972         -DE/DX =    0.0                 !
 ! D32   D(4,3,6,9)            -76.9376         -DE/DX =    0.0                 !
 ! D33   D(5,3,6,7)             51.3091         -DE/DX =    0.0                 !
 ! D34   D(5,3,6,8)             28.6499         -DE/DX =    0.0                 !
 ! D35   D(5,3,6,9)            -22.2905         -DE/DX =    0.0                 !
 ! D36   D(1,3,12,9)           132.2922         -DE/DX =    0.0                 !
 ! D37   D(2,3,12,9)             0.6369         -DE/DX =    0.0                 !
 ! D38   D(4,3,12,9)            73.5932         -DE/DX =    0.0                 !
 ! D39   D(1,4,5,9)            -73.5383         -DE/DX =    0.0                 !
 ! D40   D(1,4,5,10)          -133.1401         -DE/DX =    0.0                 !
 ! D41   D(1,4,5,12)           -11.2694         -DE/DX =    0.0                 !
 ! D42   D(2,4,5,9)            -13.5366         -DE/DX =    0.0                 !
 ! D43   D(2,4,5,10)           -73.1384         -DE/DX =    0.0                 !
 ! D44   D(2,4,5,12)            48.7322         -DE/DX =    0.0                 !
 ! D45   D(1,4,7,6)             50.4269         -DE/DX =    0.0                 !
 ! D46   D(1,4,7,8)             73.4236         -DE/DX =    0.0                 !
 ! D47   D(1,4,7,10)           135.4832         -DE/DX =    0.0                 !
 ! D48   D(3,4,7,6)             -3.1805         -DE/DX =    0.0                 !
 ! D49   D(3,4,7,8)             19.8163         -DE/DX =    0.0                 !
 ! D50   D(3,4,7,10)            81.8759         -DE/DX =    0.0                 !
 ! D51   D(3,5,7,2)             -2.3261         -DE/DX =    0.0                 !
 ! D52   D(3,5,7,6)             39.3014         -DE/DX =    0.0                 !
 ! D53   D(3,5,7,8)             80.9289         -DE/DX =    0.0                 !
 ! D54   D(9,5,7,2)            -80.9289         -DE/DX =    0.0                 !
 ! D55   D(9,5,7,6)            -39.3014         -DE/DX =    0.0                 !
 ! D56   D(9,5,7,8)              2.3261         -DE/DX =    0.0                 !
 ! D57   D(12,5,7,2)           -41.6275         -DE/DX =    0.0                 !
 ! D58   D(12,5,7,6)             0.0            -DE/DX =    0.0                 !
 ! D59   D(12,5,7,8)            41.6275         -DE/DX =    0.0                 !
 ! D60   D(3,5,9,6)            -21.6578         -DE/DX =    0.0                 !
 ! D61   D(3,5,9,8)            -81.4899         -DE/DX =    0.0                 !
 ! D62   D(3,5,9,11)          -146.2123         -DE/DX =    0.0                 !
 ! D63   D(4,5,9,6)             26.5366         -DE/DX =    0.0                 !
 ! D64   D(4,5,9,8)            -33.2955         -DE/DX =    0.0                 !
 ! D65   D(4,5,9,11)           -98.0178         -DE/DX =    0.0                 !
 ! D66   D(7,5,9,6)             57.4367         -DE/DX =    0.0                 !
 ! D67   D(7,5,9,8)             -2.3954         -DE/DX =    0.0                 !
 ! D68   D(7,5,9,11)           -67.1178         -DE/DX =    0.0                 !
 ! D69   D(3,5,10,8)            13.5366         -DE/DX =    0.0                 !
 ! D70   D(3,5,10,11)           73.5383         -DE/DX =    0.0                 !
 ! D71   D(4,5,10,8)            73.1384         -DE/DX =    0.0                 !
 ! D72   D(4,5,10,11)          133.1401         -DE/DX =    0.0                 !
 ! D73   D(12,5,10,8)          -48.7322         -DE/DX =    0.0                 !
 ! D74   D(12,5,10,11)          11.2694         -DE/DX =    0.0                 !
 ! D75   D(4,5,12,6)           -54.6635         -DE/DX =    0.0                 !
 ! D76   D(7,5,12,6)             0.0            -DE/DX =    0.0                 !
 ! D77   D(10,5,12,6)           54.6635         -DE/DX =    0.0                 !
 ! D78   D(3,6,7,4)              3.3489         -DE/DX =    0.0                 !
 ! D79   D(3,6,7,5)            -42.6434         -DE/DX =    0.0                 !
 ! D80   D(3,6,7,10)           -88.6357         -DE/DX =    0.0                 !
 ! D81   D(9,6,7,4)             88.6357         -DE/DX =    0.0                 !
 ! D82   D(9,6,7,5)             42.6434         -DE/DX =    0.0                 !
 ! D83   D(9,6,7,10)            -3.3489         -DE/DX =    0.0                 !
 ! D84   D(12,6,7,4)            45.9923         -DE/DX =    0.0                 !
 ! D85   D(12,6,7,5)             0.0            -DE/DX =    0.0                 !
 ! D86   D(12,6,7,10)          -45.9923         -DE/DX =    0.0                 !
 ! D87   D(2,6,8,10)           -76.3334         -DE/DX =    0.0                 !
 ! D88   D(2,6,8,11)          -136.7786         -DE/DX =    0.0                 !
 ! D89   D(3,6,8,10)           -23.4699         -DE/DX =    0.0                 !
 ! D90   D(3,6,8,11)           -83.9151         -DE/DX =    0.0                 !
 ! D91   D(12,6,8,10)           21.4881         -DE/DX =    0.0                 !
 ! D92   D(12,6,8,11)          -38.9571         -DE/DX =    0.0                 !
 ! D93   D(2,6,9,5)            -28.6499         -DE/DX =    0.0                 !
 ! D94   D(2,6,9,10)            25.9972         -DE/DX =    0.0                 !
 ! D95   D(2,6,9,11)            90.5423         -DE/DX =    0.0                 !
 ! D96   D(3,6,9,5)             22.2905         -DE/DX =    0.0                 !
 ! D97   D(3,6,9,10)            76.9376         -DE/DX =    0.0                 !
 ! D98   D(3,6,9,11)           141.4827         -DE/DX =    0.0                 !
 ! D99   D(7,6,9,5)            -51.3091         -DE/DX =    0.0                 !
 ! D100  D(7,6,9,10)             3.3379         -DE/DX =    0.0                 !
 ! D101  D(7,6,9,11)            67.8831         -DE/DX =    0.0                 !
 ! D102  D(2,6,12,5)            42.2758         -DE/DX =    0.0                 !
 ! D103  D(7,6,12,5)             0.0            -DE/DX =    0.0                 !
 ! D104  D(8,6,12,5)           -42.2758         -DE/DX =    0.0                 !
 ! D105  D(2,7,8,9)             83.9633         -DE/DX =    0.0                 !
 ! D106  D(2,7,8,11)           140.2381         -DE/DX =    0.0                 !
 ! D107  D(4,7,8,9)             28.6161         -DE/DX =    0.0                 !
 ! D108  D(4,7,8,11)            84.891          -DE/DX =    0.0                 !
 ! D109  D(5,7,8,9)             -2.4941         -DE/DX =    0.0                 !
 ! D110  D(5,7,8,11)            53.7807         -DE/DX =    0.0                 !
 ! D111  D(2,7,10,9)           -19.8163         -DE/DX =    0.0                 !
 ! D112  D(2,7,10,11)          -73.4237         -DE/DX =    0.0                 !
 ! D113  D(4,7,10,9)           -81.8759         -DE/DX =    0.0                 !
 ! D114  D(4,7,10,11)         -135.4833         -DE/DX =    0.0                 !
 ! D115  D(6,7,10,9)             3.1805         -DE/DX =    0.0                 !
 ! D116  D(6,7,10,11)          -50.4269         -DE/DX =    0.0                 !
 ! D117  D(7,8,9,5)              3.0656         -DE/DX =    0.0                 !
 ! D118  D(7,8,9,12)           -47.679          -DE/DX =    0.0                 !
 ! D119  D(6,8,10,5)             5.8618         -DE/DX =    0.0                 !
 ! D120  D(6,9,10,7)            -4.6756         -DE/DX =    0.0                 !
 ! D121  D(12,9,10,7)           87.522          -DE/DX =    0.0                 !
 ! D122  D(8,9,12,3)            -0.6369         -DE/DX =    0.0                 !
 ! D123  D(10,9,12,3)          -73.5932         -DE/DX =    0.0                 !
 ! D124  D(11,9,12,3)         -132.2922         -DE/DX =    0.0                 !
 --------------------------------------------------------------------------------
 GradGradGradGradGradGradGradGradGradGradGradGradGradGradGradGradGradGrad

 1\1\GINC-NODE47\Freq\UB3LYP\6-311+G(d)\Si12(1-,2)\TAM\06-Mar-2012\0\\#
 N Geom=AllCheck Guess=TCheck SCRF=Check GenChk UB3LYP/6-311+G(d) Freq\
 \si12-an-d-01\\-1,2\Si,-0.131573102,0.0578258418,3.6072067307\Si,-1.01
 37336057,1.3525102155,1.6564478519\Si,1.1561390145,0.1878353724,1.6605
 828052\Si,-0.9326266382,-1.3391908031,1.7600162024\Si,0.6176819628,-1.
 8673541658,-0.0007186134\Si,0.683596748,2.1146324064,0.0010950044\Si,-
 2.150168067,-0.1335080046,-0.0004963319\Si,-1.0130615203,1.3540075906,
 -1.6556347423\Si,1.156812949,0.1893366616,-1.6599424727\Si,-0.93191195
 74,-1.3375985937,-1.7616041312\Si,-0.1301092961,0.0610875894,-3.607205
 437\Si,2.6734559867,-0.6407835094,0.0002531389\\Version=AM64L-G09RevA.
 02\State=2-A\HF=-3474.2108023\S2=0.756798\S2-1=0.\S2A=0.750029\RMSD=5.
 574e-09\RMSF=1.678e-05\ZeroPoint=0.018582\Thermal=0.0355607\Dipole=0.0
 876028,-0.2615253,-0.0001005\DipoleDeriv=0.016188,0.0006696,-0.101888,
 0.0241437,0.0356197,0.0349485,-0.080415,0.0184529,0.124559,-0.1192557,
 -0.0031212,0.0323674,-0.0423131,-0.1128426,0.0152241,-0.0092597,0.1446
 42,-0.1586277,-0.1495277,0.027962,0.0929994,0.0240499,-0.1620501,-0.04
 28653,0.1396179,-0.0383281,-0.1538521,-0.1649633,-0.0089485,0.0018378,
 -0.0602167,-0.172208,0.0402296,-0.0191643,-0.0446019,-0.1785963,-0.154
 1552,-0.0905259,-0.0000379,0.039699,-0.1728263,0.0000063,0.000021,-0.0
 000202,-0.1689143,-0.0431357,0.0637176,0.0000391,0.0354684,-0.0370021,
 0.0000328,0.0000263,0.0000386,-0.0937538,-0.049089,0.0208563,-0.000015
 3,0.0068112,-0.0561915,-0.000057,-0.0000218,-0.0000542,0.0729546,-0.11
 92464,-0.0030332,-0.0323543,-0.0423153,-0.1126982,-0.0151998,0.0092374
 ,-0.1446017,-0.1587817,-0.1494334,0.0280305,-0.0929723,0.0241587,-0.16
 21235,0.0428676,-0.1395944,0.038332,-0.1538731,-0.1649703,-0.0089649,-
 0.0018404,-0.0602177,-0.172212,-0.0402482,0.0191154,0.0446041,-0.17858
 53,0.0161141,0.0005849,0.1018447,0.0240852,0.035668,-0.0350191,0.08039
 29,-0.0185331,0.1245846,0.0814745,-0.0272272,0.0000199,0.0266468,0.088
 8667,0.0000805,0.0000442,0.0000695,-0.0771139\Polar=373.2811513,-3.378
 3202,347.8466232,-0.0318484,-0.0797453,522.711329\PG=C01 [X(Si12)]\NIm
 ag=0\\0.03987877,0.00296736,0.03356138,-0.01084832,0.00253269,0.133291
 54,-0.01166697,-0.00032020,-0.00988695,0.07190349,0.00109260,-0.013433
 04,0.01407512,-0.01033604,0.06809124,-0.01165550,0.01791412,-0.0282760
 2,0.00261915,-0.00719892,0.06928550,-0.02035915,-0.00050259,0.03442923
 ,-0.03469292,0.01964704,-0.00091588,0.10729120,-0.00043322,-0.00638300
 ,0.00413115,0.02539620,-0.00597127,-0.00240515,-0.02639944,0.05394438,
 0.03546358,0.00447925,-0.05962231,-0.00357393,-0.00701952,0.00344152,-
 0.05216928,0.00688484,0.11196363,-0.01051183,-0.00285758,-0.01122300,0
 .00176182,0.00323031,0.00684479,-0.01367415,-0.01122968,-0.00025665,0.
 06835711,-0.00294320,-0.01383071,-0.02089129,-0.00217250,-0.01737862,0
 .00127300,-0.00938642,-0.01030347,0.00531119,0.00180673,0.06357545,-0.
 01396360,-0.02329865,-0.03263588,0.00714930,0.00238712,-0.00178037,0.0
 0013477,0.00036535,-0.00014664,-0.00324586,0.01182927,0.09688948,0.002
 28607,-0.00064682,-0.00194232,-0.00226644,0.00523829,-0.00340648,0.000
 24378,-0.00240892,0.00012994,-0.02470622,0.00814588,0.01862989,0.10738
 421,0.00011902,-0.00046359,0.00182306,0.00236020,-0.00701573,0.0001153
 0,-0.00195633,-0.01524592,-0.00321558,0.00291103,0.00121771,-0.0067930
 3,0.00794454,0.05962656,0.00152060,-0.00166492,-0.00290737,0.00069281,
 -0.00598193,-0.00027086,-0.00339383,-0.00701953,-0.00239955,0.02530924
 ,-0.01168554,-0.03138663,0.00000687,-0.00001270,0.09129360,0.00037702,
 0.00192912,-0.00159448,-0.01497409,-0.00950034,0.01183469,-0.00092707,
 0.00078382,-0.00040645,-0.00285302,-0.00542061,-0.00210059,-0.00008838
 ,0.00408523,0.00000311,0.04274989,-0.00057183,0.00025633,-0.00282624,-
 0.00742011,-0.00689411,0.00859359,0.00109008,-0.01545085,0.00851826,-0
 .00294370,-0.00707943,0.00290898,-0.00297182,-0.00569219,-0.00000031,0
 .02103262,0.06630580,0.00129931,-0.00080736,-0.00071843,0.01307763,0.0
 1286260,-0.01370515,-0.00272001,0.00699466,-0.00890963,0.00378939,0.00
 702219,0.00083806,-0.00000008,0.00000112,-0.00632958,0.00000706,0.0000
 0944,0.05488968,-0.00169022,-0.00075059,0.00365587,-0.00683519,-0.0058
 9199,-0.00972108,-0.00655357,-0.00013946,-0.00703113,-0.01017260,0.006
 30701,-0.01243617,-0.01048421,0.00131379,-0.00000093,-0.00431993,0.002
 26134,0.00000128,0.07033549,0.00064701,0.00011028,0.00147817,-0.007779
 74,-0.01204262,-0.01148365,0.00009794,0.00247313,0.00010801,0.00903905
 ,-0.00937560,0.00943990,0.00239442,-0.00473598,-0.00000031,-0.00274255
 ,-0.00223705,0.00000095,-0.00278732,0.04501203,0.00083010,0.00052435,-
 0.00343731,-0.01017464,-0.01077863,-0.01406748,-0.00906369,-0.00136227
 ,0.00413381,-0.01725625,0.01006529,-0.01816129,-0.00000044,-0.00000053
 ,-0.00297527,-0.00000099,0.00000196,-0.00556393,-0.00000283,-0.0000155
 2,0.07805222,-0.00017366,0.00068804,0.00040923,0.00305339,-0.00168989,
 0.00056419,-0.00573509,0.00298117,0.00018663,0.00007787,-0.00270098,0.
 00158774,-0.00226755,0.00236087,-0.00069149,-0.01496399,-0.00740480,-0
 .01308485,-0.00684326,-0.00779360,0.01017053,0.07190563,-0.00124870,-0
 .00111327,-0.00108405,-0.00168906,0.00302149,-0.00078491,0.00092679,0.
 00004335,-0.00310518,0.00227375,-0.00483244,0.00275604,0.00523278,-0.0
 0702103,0.00597795,-0.00948443,-0.00687471,-0.01286028,-0.00590516,-0.
 01206275,0.01077805,-0.01033656,0.06807823,-0.00068490,-0.00075864,-0.
 00211675,-0.00056042,0.00079601,-0.01001586,-0.00127878,0.00223534,-0.
 00046564,-0.00325559,0.00176690,0.00052946,0.00341040,-0.00012044,-0.0
 0026446,-0.01184380,-0.00859042,-0.01373467,0.00971868,0.01148231,-0.0
 1403928,-0.00262742,0.00719364,0.06929641,-0.00144184,0.00045724,-0.00
 259348,-0.00573553,0.00092437,0.00127748,0.00429396,-0.00241287,-0.001
 11802,-0.00363878,0.00039624,-0.00016332,0.00024245,-0.00196070,0.0033
 9313,-0.00092834,0.00109108,0.00272424,-0.00656010,0.00008979,0.009059
 44,-0.03469473,0.01964336,0.00091817,0.10724884,-0.00008387,0.00013149
 ,-0.00057854,0.00298224,0.00004256,-0.00223367,-0.00241329,0.00263171,
 -0.00145025,-0.00226357,-0.00162312,0.00002312,-0.00241165,-0.01525516
 ,0.00700692,0.00078629,-0.01543682,-0.00700024,-0.00014637,0.00247200,
 0.00136071,0.02539198,-0.00597979,0.00240693,-0.02644378,0.05395687,-0
 .00413859,-0.00048921,-0.00271519,-0.00018607,0.00310601,-0.00046441,0
 .00112296,0.00146363,-0.01324949,0.00078346,-0.00341389,-0.00154524,-0
 .00013105,0.00320316,-0.00238898,0.00041040,-0.00852372,-0.00892239,0.
 00702667,-0.00010948,0.00414147,0.00358142,0.00701897,0.00345186,0.052
 14347,-0.00694803,0.11199344,-0.00154268,-0.00004784,0.00062823,0.0000
 7719,0.00227193,0.00325747,-0.00363853,-0.00226285,-0.00078636,0.00132
 795,0.00221875,0.00470439,-0.02468839,0.00293115,-0.02530389,-0.002852
 33,-0.00293909,-0.00379354,-0.01018466,0.00902726,0.01726766,0.0017675
 0,0.00323747,-0.00684042,-0.01367419,-0.01122975,0.00024101,0.06835448
 ,0.00167749,-0.00057496,0.00041454,-0.00269883,-0.00482835,-0.00177284
 ,0.00039470,-0.00162618,0.00341397,0.00222268,0.00277242,0.00077512,0.
 00815797,0.00120097,0.01171833,-0.00541965,-0.00707044,-0.00703154,0.0
 0629984,-0.00935797,-0.01005477,-0.00216551,-0.01737530,-0.00128798,-0
 .00938414,-0.01029833,-0.00532417,0.00180860,0.06359687,0.00119606,0.0
 0269749,-0.00143666,-0.00159037,-0.00275996,0.00052604,0.00016283,-0.0
 0002411,-0.00154242,-0.00469679,-0.00076046,-0.01244875,-0.01861981,0.
 00682369,-0.03138773,0.00209419,-0.00291732,0.00082838,0.01244511,-0.0
 0942828,-0.01816685,-0.00714983,-0.00239991,-0.00178937,-0.00014874,-0
 .00037909,-0.00015175,0.00323593,-0.01185866,0.09687071,0.00354668,0.0
 0031318,0.00002054,-0.00017377,-0.00124975,0.00068455,-0.00144457,-0.0
 0008785,0.00413902,-0.00154194,0.00167874,-0.00119458,0.00228590,0.000
 12113,-0.00151838,0.00037690,-0.00057181,-0.00129938,-0.00168840,0.000
 64836,-0.00082880,-0.01167571,0.00108776,0.01166323,-0.02033080,-0.000
 39949,-0.03544801,-0.01052205,-0.00296431,0.01396989,0.03986999,0.0003
 1305,0.00361214,0.00036891,0.00068810,-0.00111494,0.00075982,0.0004547
 0,0.00013052,0.00049197,-0.00004617,-0.00057215,-0.00269673,-0.0006492
 6,-0.00046345,0.00166686,0.00192735,0.00025304,0.00080902,-0.00074707,
 0.00011209,-0.00052145,-0.00032188,-0.01340412,-0.01790081,-0.00046965
 ,-0.00637526,-0.00443128,-0.00287719,-0.01387068,0.02331446,0.00295862
 ,0.03356605,-0.00001814,-0.00036401,-0.00166830,-0.00040782,0.00108444
 ,-0.00211497,0.00259441,0.00058108,-0.00271149,-0.00062832,-0.00041307
 ,-0.00144021,0.00194384,-0.00182080,-0.00290734,0.00159667,0.00282688,
 -0.00071502,-0.00365584,-0.00147470,-0.00344094,0.00989340,-0.01406124
 ,-0.02829619,-0.03441373,-0.00408316,-0.05965840,0.01122937,0.02090707
 ,-0.03258570,0.01081309,-0.00262167,0.13329568,0.00129780,-0.00122932,
 -0.00105456,-0.00045100,-0.00373653,-0.00138338,-0.02480389,0.01621310
 ,0.02542265,-0.00442621,0.00207038,0.00089802,-0.04794122,-0.02022992,
 -0.00001724,-0.00159667,-0.00065195,-0.00000103,-0.00500334,-0.0008406
 2,-0.00000008,-0.00045041,-0.00373801,0.00138085,-0.02478094,0.0162312
 6,-0.02540566,-0.00442429,0.00207115,-0.00089847,0.00129778,-0.0012305
 8,0.00105307,0.11128240,-0.00153570,-0.00187305,0.00055648,0.00098974,
 -0.00247661,-0.00277668,0.01804682,-0.00424240,-0.01441696,-0.00214285
 ,-0.00257004,0.00230351,-0.02802541,-0.00615219,-0.00000482,0.00202316
 ,-0.00007957,-0.00000055,0.00018598,-0.00036754,0.00000280,0.00099118,
 -0.00247964,0.00277715,0.01806907,-0.00426617,0.01444801,-0.00213844,-
 0.00256805,-0.00230786,-0.00153457,-0.00187324,-0.00056082,-0.00492897
 ,0.02894848,0.00099940,-0.00076512,0.00224268,0.00284130,-0.00057234,-
 0.00255795,0.03109728,-0.01184500,-0.03049179,0.00383559,-0.00010359,0
 .00128800,-0.00002076,-0.00000324,-0.00807584,0.00000018,-0.00000109,0
 .00204269,0.00000038,0.00000259,-0.00647515,-0.00283955,0.00057090,-0.
 00255551,-0.03107863,0.01187530,-0.03049094,-0.00383985,0.00010094,0.0
 0128409,-0.00100116,0.00076090,0.00224289,0.00000582,-0.00002025,0.071
 54681\\0.00000082,0.00000044,-0.00000217,0.00001512,0.00003355,0.00000
 706,-0.00002379,0.00000008,0.00001217,-0.00001092,-0.00000435,-0.00000
 763,-0.00001099,-0.00001016,0.,-0.00000767,-0.00002490,-0.00000002,0.0
 0006124,0.00000396,0.00000002,0.00001512,0.00003355,-0.00000701,-0.000
 02378,0.00000010,-0.00001220,-0.00001091,-0.00000436,0.00000762,0.0000
 0082,0.00000044,0.00000218,-0.00000506,-0.00002834,0.\\\@


 WE HAVE LEARNED THAT NOTHING IS SIMPLE AND
 RATIONAL EXCEPT WHAT WE OURSELVES HAVE INVENTED;
 THAT GOD THINKS IN TERMS NEITHER OF EUCLID OR RIEMANN; THAT SCIENCE HAS "EXPLAINED" NOTHING;
 THAT THE MORE WE KNOW THE MORE FANTASTIC THE WORLD BECOMES
 AND THE PROFOUNDER THE SURROUNDING DARKNESS.
   --  ALDOUS HUXLEY
 Job cpu time:  0 days  3 hours 58 minutes 37.7 seconds.
 File lengths (MBytes):  RWF=    434 Int=      0 D2E=      0 Chk=     13 Scr=      1
 Normal termination of Gaussian 09 at Tue Mar  6 11:24:15 2012.
