 Entering Gaussian System, Link 0=g16
 Input=Si12-neutral-singlet.com
 Output=Si12-neutral-singlet.log
 Initial command:
 /cm/shared/apps/spack/cpu/opt/spack/linux-centos8-zen/gcc-8.3.1/gaussian-16.C.01-po5bqktfeugvmjyga3v7eigbecnokxng/g16/l1.exe "/scratch/gridchem/job_39135093/Gau-120686.inp" -scrdir="/scratch/gridchem/job_39135093/"
 Entering Link 1 = /cm/shared/apps/spack/cpu/opt/spack/linux-centos8-zen/gcc-8.3.1/gaussian-16.C.01-po5bqktfeugvmjyga3v7eigbecnokxng/g16/l1.exe PID=    120688.
  
 Copyright (c) 1988-2019, Gaussian, Inc.  All Rights Reserved.
  
 This is part of the Gaussian(R) 16 program.  It is based on
 the Gaussian(R) 09 system (copyright 2009, Gaussian, Inc.),
 the Gaussian(R) 03 system (copyright 2003, Gaussian, Inc.),
 the Gaussian(R) 98 system (copyright 1998, Gaussian, Inc.),
 the Gaussian(R) 94 system (copyright 1995, Gaussian, Inc.),
 the Gaussian 92(TM) system (copyright 1992, Gaussian, Inc.),
 the Gaussian 90(TM) system (copyright 1990, Gaussian, Inc.),
 the Gaussian 88(TM) system (copyright 1988, Gaussian, Inc.),
 the Gaussian 86(TM) system (copyright 1986, Carnegie Mellon
 University), and the Gaussian 82(TM) system (copyright 1983,
 Carnegie Mellon University). Gaussian is a federally registered
 trademark of Gaussian, Inc.
  
 This software contains proprietary and confidential information,
 including trade secrets, belonging to Gaussian, Inc.
  
 This software is provided under written license and may be
 used, copied, transmitted, or stored only in accord with that
 written license.
  
 The following legend is applicable only to US Government
 contracts under FAR:
  
                    RESTRICTED RIGHTS LEGEND
  
 Use, reproduction and disclosure by the US Government is
 subject to restrictions as set forth in subparagraphs (a)
 and (c) of the Commercial Computer Software - Restricted
 Rights clause in FAR 52.227-19.
  
 Gaussian, Inc.
 340 Quinnipiac St., Bldg. 40, Wallingford CT 06492
  
  
 ---------------------------------------------------------------
 Warning -- This program may not be used in any manner that
 competes with the business of Gaussian, Inc. or will provide
 assistance to any competitor of Gaussian, Inc.  The licensee
 of this program is prohibited from giving any competitor of
 Gaussian, Inc. access to this program.  By using this program,
 the user acknowledges that Gaussian, Inc. is engaged in the
 business of creating and licensing software in the field of
 computational chemistry and represents and warrants to the
 licensee that it is not a competitor of Gaussian, Inc. and that
 it will not use this program in any manner prohibited above.
 ---------------------------------------------------------------
  

 Cite this work as:
 Gaussian 16, Revision C.01,
 M. J. Frisch, G. W. Trucks, H. B. Schlegel, G. E. Scuseria, 
 M. A. Robb, J. R. Cheeseman, G. Scalmani, V. Barone, 
 G. A. Petersson, H. Nakatsuji, X. Li, M. Caricato, A. V. Marenich, 
 J. Bloino, B. G. Janesko, R. Gomperts, B. Mennucci, H. P. Hratchian, 
 J. V. Ortiz, A. F. Izmaylov, J. L. Sonnenberg, D. Williams-Young, 
 F. Ding, F. Lipparini, F. Egidi, J. Goings, B. Peng, A. Petrone, 
 T. Henderson, D. Ranasinghe, V. G. Zakrzewski, J. Gao, N. Rega, 
 G. Zheng, W. Liang, M. Hada, M. Ehara, K. Toyota, R. Fukuda, 
 J. Hasegawa, M. Ishida, T. Nakajima, Y. Honda, O. Kitao, H. Nakai, 
 T. Vreven, K. Throssell, J. A. Montgomery, Jr., J. E. Peralta, 
 F. Ogliaro, M. J. Bearpark, J. J. Heyd, E. N. Brothers, K. N. Kudin, 
 V. N. Staroverov, T. A. Keith, R. Kobayashi, J. Normand, 
 K. Raghavachari, A. P. Rendell, J. C. Burant, S. S. Iyengar, 
 J. Tomasi, M. Cossi, J. M. Millam, M. Klene, C. Adamo, R. Cammi, 
 J. W. Ochterski, R. L. Martin, K. Morokuma, O. Farkas, 
 J. B. Foresman, and D. J. Fox, Gaussian, Inc., Wallingford CT, 2019.
 
 ******************************************
 Gaussian 16:  ES64L-G16RevC.01  3-Jul-2019
                 6-May-2025 
 ******************************************
 --------------------------------------------------
 #p b3lyp opt=(noeigentest) freq 6-311+g(d) scf=xqc
 --------------------------------------------------
 1/11=1,18=20,19=15,26=3,38=1/1,3;
 2/9=110,12=2,17=6,18=5,40=1/2;
 3/5=4,6=6,7=11,11=2,25=1,30=1,71=1,74=-5/1,2,3;
 4//1;
 5/5=2,8=3,13=1,38=5/2,8;
 6/7=2,8=2,9=2,10=2,28=1/1;
 7//1,2,3,16;
 1/11=1,18=20,19=15,26=3/3(2);
 2/9=110/2;
 99//99;
 2/9=110/2;
 3/5=4,6=6,7=11,11=2,25=1,30=1,71=1,74=-5/1,2,3;
 4/5=5,16=3,69=1/1;
 5/5=2,8=3,13=1,38=5/2,8;
 7//1,2,3,16;
 1/11=1,18=20,19=15,26=3/3(-5);
 2/9=110/2;
 6/7=2,8=2,9=2,10=2,19=2,28=1/1;
 99/9=1/99;
 Leave Link    1 at Tue May  6 04:10:31 2025, MaxMem=           0 cpu:               0.0 elap:               0.0
 (Enter /cm/shared/apps/spack/cpu/opt/spack/linux-centos8-zen/gcc-8.3.1/gaussian-16.C.01-po5bqktfeugvmjyga3v7eigbecnokxng/g16/l101.exe)
 --------------------
 Si12-neutral-singlet
 --------------------
 Symbolic Z-matrix:
 Charge =  0 Multiplicity = 1
 Si                   -0.19682   0.00594   3.68754 
 Si                   -0.97803   1.47295   1.82417 
 Si                    1.01234  -0.01952   1.74613 
 Si                   -1.036    -1.43304   1.82828 
 Si                    0.65365  -1.90125   0. 
 Si                    0.73394   1.87445   0. 
 Si                   -1.58595   0.02681   0. 
 Si                   -0.97803   1.47295  -1.82417 
 Si                    1.01234  -0.01952  -1.74613 
 Si                   -1.036    -1.43304  -1.82828 
 Si                   -0.19682   0.00594  -3.68754 
 Si                    2.59538  -0.05266   0. 
 
 ITRead=  0  0  0  0  0  0  0  0  0  0  0  0
 MicOpt= -1 -1 -1 -1 -1 -1 -1 -1 -1 -1 -1 -1
 NAtoms=     12 NQM=       12 NQMF=       0 NMMI=      0 NMMIF=      0
                NMic=       0 NMicF=      0.
                    Isotopes and Nuclear Properties:
 (Nuclear quadrupole moments (NQMom) in fm**2, nuclear magnetic moments (NMagM)
  in nuclear magnetons)

  Atom         1           2           3           4           5           6           7           8           9          10
 IAtWgt=          28          28          28          28          28          28          28          28          28          28
 AtmWgt=  27.9769284  27.9769284  27.9769284  27.9769284  27.9769284  27.9769284  27.9769284  27.9769284  27.9769284  27.9769284
 NucSpn=           0           0           0           0           0           0           0           0           0           0
 AtZEff=  -0.0000000  -0.0000000  -0.0000000  -0.0000000  -0.0000000  -0.0000000  -0.0000000  -0.0000000  -0.0000000  -0.0000000
 NQMom=    0.0000000   0.0000000   0.0000000   0.0000000   0.0000000   0.0000000   0.0000000   0.0000000   0.0000000   0.0000000
 NMagM=    0.0000000   0.0000000   0.0000000   0.0000000   0.0000000   0.0000000   0.0000000   0.0000000   0.0000000   0.0000000
 AtZNuc=  14.0000000  14.0000000  14.0000000  14.0000000  14.0000000  14.0000000  14.0000000  14.0000000  14.0000000  14.0000000

  Atom        11          12
 IAtWgt=          28          28
 AtmWgt=  27.9769284  27.9769284
 NucSpn=           0           0
 AtZEff=  -0.0000000  -0.0000000
 NQMom=    0.0000000   0.0000000
 NMagM=    0.0000000   0.0000000
 AtZNuc=  14.0000000  14.0000000
 Leave Link  101 at Tue May  6 04:10:31 2025, MaxMem=   104857600 cpu:               0.0 elap:               0.0
 (Enter /cm/shared/apps/spack/cpu/opt/spack/linux-centos8-zen/gcc-8.3.1/gaussian-16.C.01-po5bqktfeugvmjyga3v7eigbecnokxng/g16/l103.exe)

 GradGradGradGradGradGradGradGradGradGradGradGradGradGradGradGradGradGrad
 Berny optimization.
 Initialization pass.
                           ----------------------------
                           !    Initial Parameters    !
                           ! (Angstroms and Degrees)  !
 --------------------------                            --------------------------
 ! Name  Definition              Value          Derivative Info.                !
 --------------------------------------------------------------------------------
 ! R1    R(1,2)                  2.4969         estimate D2E/DX2                !
 ! R2    R(1,3)                  2.2873         estimate D2E/DX2                !
 ! R3    R(1,4)                  2.4963         estimate D2E/DX2                !
 ! R4    R(2,3)                  2.489          estimate D2E/DX2                !
 ! R5    R(2,6)                  2.5337         estimate D2E/DX2                !
 ! R6    R(2,7)                  2.4059         estimate D2E/DX2                !
 ! R7    R(3,4)                  2.4901         estimate D2E/DX2                !
 ! R8    R(3,5)                  2.592          estimate D2E/DX2                !
 ! R9    R(3,6)                  2.5911         estimate D2E/DX2                !
 ! R10   R(3,12)                 2.3571         estimate D2E/DX2                !
 ! R11   R(4,5)                  2.5331         estimate D2E/DX2                !
 ! R12   R(4,7)                  2.4034         estimate D2E/DX2                !
 ! R13   R(5,9)                  2.592          estimate D2E/DX2                !
 ! R14   R(5,10)                 2.5331         estimate D2E/DX2                !
 ! R15   R(5,12)                 2.681          estimate D2E/DX2                !
 ! R16   R(6,8)                  2.5337         estimate D2E/DX2                !
 ! R17   R(6,9)                  2.5911         estimate D2E/DX2                !
 ! R18   R(6,12)                 2.6793         estimate D2E/DX2                !
 ! R19   R(7,8)                  2.4059         estimate D2E/DX2                !
 ! R20   R(7,10)                 2.4034         estimate D2E/DX2                !
 ! R21   R(8,9)                  2.489          estimate D2E/DX2                !
 ! R22   R(8,11)                 2.4969         estimate D2E/DX2                !
 ! R23   R(9,10)                 2.4901         estimate D2E/DX2                !
 ! R24   R(9,11)                 2.2873         estimate D2E/DX2                !
 ! R25   R(9,12)                 2.3571         estimate D2E/DX2                !
 ! R26   R(10,11)                2.4963         estimate D2E/DX2                !
 ! A1    A(2,1,4)               71.1969         estimate D2E/DX2                !
 ! A2    A(1,2,6)              114.7708         estimate D2E/DX2                !
 ! A3    A(1,2,7)              106.9611         estimate D2E/DX2                !
 ! A4    A(3,2,7)               79.5056         estimate D2E/DX2                !
 ! A5    A(6,2,7)               73.7458         estimate D2E/DX2                !
 ! A6    A(1,3,5)              120.4448         estimate D2E/DX2                !
 ! A7    A(1,3,6)              120.4677         estimate D2E/DX2                !
 ! A8    A(2,3,4)               71.4304         estimate D2E/DX2                !
 ! A9    A(2,3,5)              110.2289         estimate D2E/DX2                !
 ! A10   A(2,3,12)             124.6601         estimate D2E/DX2                !
 ! A11   A(4,3,6)              110.4131         estimate D2E/DX2                !
 ! A12   A(4,3,12)             124.6745         estimate D2E/DX2                !
 ! A13   A(5,3,6)               93.5436         estimate D2E/DX2                !
 ! A14   A(1,4,5)              114.8265         estimate D2E/DX2                !
 ! A15   A(1,4,7)              107.0592         estimate D2E/DX2                !
 ! A16   A(3,4,7)               79.5328         estimate D2E/DX2                !
 ! A17   A(5,4,7)               73.4923         estimate D2E/DX2                !
 ! A18   A(3,5,9)               84.7001         estimate D2E/DX2                !
 ! A19   A(3,5,10)             116.3808         estimate D2E/DX2                !
 ! A20   A(4,5,9)              116.3808         estimate D2E/DX2                !
 ! A21   A(4,5,10)              92.3982         estimate D2E/DX2                !
 ! A22   A(4,5,12)             110.8334         estimate D2E/DX2                !
 ! A23   A(10,5,12)            110.8334         estimate D2E/DX2                !
 ! A24   A(2,6,8)               92.1029         estimate D2E/DX2                !
 ! A25   A(2,6,9)              116.2287         estimate D2E/DX2                !
 ! A26   A(2,6,12)             110.821          estimate D2E/DX2                !
 ! A27   A(3,6,8)              116.2287         estimate D2E/DX2                !
 ! A28   A(3,6,9)               84.7382         estimate D2E/DX2                !
 ! A29   A(8,6,12)             110.821          estimate D2E/DX2                !
 ! A30   A(2,7,4)               74.3663         estimate D2E/DX2                !
 ! A31   A(2,7,8)               98.6111         estimate D2E/DX2                !
 ! A32   A(2,7,10)             152.1357         estimate D2E/DX2                !
 ! A33   A(4,7,8)              152.1357         estimate D2E/DX2                !
 ! A34   A(4,7,10)              99.0544         estimate D2E/DX2                !
 ! A35   A(8,7,10)              74.3663         estimate D2E/DX2                !
 ! A36   A(6,8,7)               73.7458         estimate D2E/DX2                !
 ! A37   A(6,8,11)             114.7708         estimate D2E/DX2                !
 ! A38   A(7,8,9)               79.5056         estimate D2E/DX2                !
 ! A39   A(7,8,11)             106.9611         estimate D2E/DX2                !
 ! A40   A(5,9,6)               93.5436         estimate D2E/DX2                !
 ! A41   A(5,9,8)              110.2289         estimate D2E/DX2                !
 ! A42   A(5,9,11)             120.4448         estimate D2E/DX2                !
 ! A43   A(6,9,10)             110.4131         estimate D2E/DX2                !
 ! A44   A(6,9,11)             120.4677         estimate D2E/DX2                !
 ! A45   A(8,9,10)              71.4304         estimate D2E/DX2                !
 ! A46   A(8,9,12)             124.6601         estimate D2E/DX2                !
 ! A47   A(10,9,12)            124.6745         estimate D2E/DX2                !
 ! A48   A(5,10,7)              73.4923         estimate D2E/DX2                !
 ! A49   A(5,10,11)            114.8265         estimate D2E/DX2                !
 ! A50   A(7,10,9)              79.5328         estimate D2E/DX2                !
 ! A51   A(7,10,11)            107.0592         estimate D2E/DX2                !
 ! A52   A(8,11,10)             71.1969         estimate D2E/DX2                !
 ! A53   A(3,12,9)              95.5968         estimate D2E/DX2                !
 ! A54   A(5,12,6)              89.5854         estimate D2E/DX2                !
 ! A55   L(1,3,12,7,-1)        190.28           estimate D2E/DX2                !
 ! A56   L(11,9,12,7,-1)       190.28           estimate D2E/DX2                !
 ! A57   L(1,3,12,7,-2)        180.0228         estimate D2E/DX2                !
 ! A58   L(11,9,12,7,-2)       179.9772         estimate D2E/DX2                !
 ! D1    D(4,1,2,6)            -84.4791         estimate D2E/DX2                !
 ! D2    D(4,1,2,7)             -4.9389         estimate D2E/DX2                !
 ! D3    D(2,1,4,5)             84.255          estimate D2E/DX2                !
 ! D4    D(2,1,4,7)              4.9467         estimate D2E/DX2                !
 ! D5    D(7,2,3,4)            -51.3576         estimate D2E/DX2                !
 ! D6    D(7,2,3,5)             -4.9963         estimate D2E/DX2                !
 ! D7    D(7,2,3,12)            68.4684         estimate D2E/DX2                !
 ! D8    D(1,2,6,8)            134.8747         estimate D2E/DX2                !
 ! D9    D(1,2,6,9)             79.7209         estimate D2E/DX2                !
 ! D10   D(1,2,6,12)            21.6398         estimate D2E/DX2                !
 ! D11   D(7,2,6,8)             33.3305         estimate D2E/DX2                !
 ! D12   D(7,2,6,9)            -21.8233         estimate D2E/DX2                !
 ! D13   D(7,2,6,12)           -79.9044         estimate D2E/DX2                !
 ! D14   D(1,2,7,4)              5.043          estimate D2E/DX2                !
 ! D15   D(1,2,7,8)           -147.3454         estimate D2E/DX2                !
 ! D16   D(1,2,7,10)           -74.6062         estimate D2E/DX2                !
 ! D17   D(3,2,7,4)             52.8042         estimate D2E/DX2                !
 ! D18   D(3,2,7,8)            -99.5842         estimate D2E/DX2                !
 ! D19   D(3,2,7,10)           -26.845          estimate D2E/DX2                !
 ! D20   D(6,2,7,4)            116.5959         estimate D2E/DX2                !
 ! D21   D(6,2,7,8)            -35.7925         estimate D2E/DX2                !
 ! D22   D(6,2,7,10)            36.9466         estimate D2E/DX2                !
 ! D23   D(2,3,4,7)             51.4275         estimate D2E/DX2                !
 ! D24   D(6,3,4,7)              5.1618         estimate D2E/DX2                !
 ! D25   D(12,3,4,7)           -68.3811         estimate D2E/DX2                !
 ! D26   D(1,3,5,9)            142.7884         estimate D2E/DX2                !
 ! D27   D(1,3,5,10)            92.4327         estimate D2E/DX2                !
 ! D28   D(2,3,5,9)             73.1011         estimate D2E/DX2                !
 ! D29   D(2,3,5,10)            22.7454         estimate D2E/DX2                !
 ! D30   D(6,3,5,9)             14.0569         estimate D2E/DX2                !
 ! D31   D(6,3,5,10)           -36.2988         estimate D2E/DX2                !
 ! D32   D(1,3,6,8)            -92.3397         estimate D2E/DX2                !
 ! D33   D(1,3,6,9)           -142.776          estimate D2E/DX2                !
 ! D34   D(4,3,6,8)            -22.5973         estimate D2E/DX2                !
 ! D35   D(4,3,6,9)            -73.0337         estimate D2E/DX2                !
 ! D36   D(5,3,6,8)             36.3751         estimate D2E/DX2                !
 ! D37   D(5,3,6,9)            -14.0613         estimate D2E/DX2                !
 ! D38   D(2,3,12,9)           -45.112          estimate D2E/DX2                !
 ! D39   D(4,3,12,9)            45.3191         estimate D2E/DX2                !
 ! D40   D(1,4,5,9)            -79.3814         estimate D2E/DX2                !
 ! D41   D(1,4,5,10)          -134.6854         estimate D2E/DX2                !
 ! D42   D(1,4,5,12)           -21.307          estimate D2E/DX2                !
 ! D43   D(7,4,5,9)             22.1569         estimate D2E/DX2                !
 ! D44   D(7,4,5,10)           -33.1471         estimate D2E/DX2                !
 ! D45   D(7,4,5,12)            80.2313         estimate D2E/DX2                !
 ! D46   D(1,4,7,2)             -5.0468         estimate D2E/DX2                !
 ! D47   D(1,4,7,8)             73.6116         estimate D2E/DX2                !
 ! D48   D(1,4,7,10)           147.2058         estimate D2E/DX2                !
 ! D49   D(3,4,7,2)            -52.7652         estimate D2E/DX2                !
 ! D50   D(3,4,7,8)             25.8931         estimate D2E/DX2                !
 ! D51   D(3,4,7,10)            99.4874         estimate D2E/DX2                !
 ! D52   D(5,4,7,2)           -116.5859         estimate D2E/DX2                !
 ! D53   D(5,4,7,8)            -37.9275         estimate D2E/DX2                !
 ! D54   D(5,4,7,10)            35.6668         estimate D2E/DX2                !
 ! D55   D(3,5,9,6)            -14.0569         estimate D2E/DX2                !
 ! D56   D(3,5,9,8)            -73.1011         estimate D2E/DX2                !
 ! D57   D(3,5,9,11)          -142.7884         estimate D2E/DX2                !
 ! D58   D(4,5,9,6)             36.2988         estimate D2E/DX2                !
 ! D59   D(4,5,9,8)            -22.7454         estimate D2E/DX2                !
 ! D60   D(4,5,9,11)           -92.4327         estimate D2E/DX2                !
 ! D61   D(3,5,10,7)           -22.1569         estimate D2E/DX2                !
 ! D62   D(3,5,10,11)           79.3814         estimate D2E/DX2                !
 ! D63   D(4,5,10,7)            33.1471         estimate D2E/DX2                !
 ! D64   D(4,5,10,11)          134.6854         estimate D2E/DX2                !
 ! D65   D(12,5,10,7)          -80.2313         estimate D2E/DX2                !
 ! D66   D(12,5,10,11)          21.307          estimate D2E/DX2                !
 ! D67   D(4,5,12,6)           -50.5554         estimate D2E/DX2                !
 ! D68   D(10,5,12,6)           50.5554         estimate D2E/DX2                !
 ! D69   D(2,6,8,7)            -33.3305         estimate D2E/DX2                !
 ! D70   D(2,6,8,11)          -134.8747         estimate D2E/DX2                !
 ! D71   D(3,6,8,7)             21.8233         estimate D2E/DX2                !
 ! D72   D(3,6,8,11)           -79.7209         estimate D2E/DX2                !
 ! D73   D(12,6,8,7)            79.9044         estimate D2E/DX2                !
 ! D74   D(12,6,8,11)          -21.6398         estimate D2E/DX2                !
 ! D75   D(2,6,9,5)            -36.3751         estimate D2E/DX2                !
 ! D76   D(2,6,9,10)            22.5973         estimate D2E/DX2                !
 ! D77   D(2,6,9,11)            92.3397         estimate D2E/DX2                !
 ! D78   D(3,6,9,5)             14.0613         estimate D2E/DX2                !
 ! D79   D(3,6,9,10)            73.0337         estimate D2E/DX2                !
 ! D80   D(3,6,9,11)           142.776          estimate D2E/DX2                !
 ! D81   D(2,6,12,5)            50.3777         estimate D2E/DX2                !
 ! D82   D(8,6,12,5)           -50.3777         estimate D2E/DX2                !
 ! D83   D(2,7,8,6)             35.7925         estimate D2E/DX2                !
 ! D84   D(2,7,8,9)             99.5842         estimate D2E/DX2                !
 ! D85   D(2,7,8,11)           147.3454         estimate D2E/DX2                !
 ! D86   D(4,7,8,6)            -36.9466         estimate D2E/DX2                !
 ! D87   D(4,7,8,9)             26.845          estimate D2E/DX2                !
 ! D88   D(4,7,8,11)            74.6062         estimate D2E/DX2                !
 ! D89   D(10,7,8,6)          -116.5959         estimate D2E/DX2                !
 ! D90   D(10,7,8,9)           -52.8042         estimate D2E/DX2                !
 ! D91   D(10,7,8,11)           -5.043          estimate D2E/DX2                !
 ! D92   D(2,7,10,5)            37.9275         estimate D2E/DX2                !
 ! D93   D(2,7,10,9)           -25.8931         estimate D2E/DX2                !
 ! D94   D(2,7,10,11)          -73.6116         estimate D2E/DX2                !
 ! D95   D(4,7,10,5)           -35.6668         estimate D2E/DX2                !
 ! D96   D(4,7,10,9)           -99.4874         estimate D2E/DX2                !
 ! D97   D(4,7,10,11)         -147.2058         estimate D2E/DX2                !
 ! D98   D(8,7,10,5)           116.5859         estimate D2E/DX2                !
 ! D99   D(8,7,10,9)            52.7652         estimate D2E/DX2                !
 ! D100  D(8,7,10,11)            5.0468         estimate D2E/DX2                !
 ! D101  D(7,8,9,5)              4.9963         estimate D2E/DX2                !
 ! D102  D(7,8,9,10)            51.3576         estimate D2E/DX2                !
 ! D103  D(7,8,9,12)           -68.4684         estimate D2E/DX2                !
 ! D104  D(6,8,11,10)           84.4791         estimate D2E/DX2                !
 ! D105  D(7,8,11,10)            4.9389         estimate D2E/DX2                !
 ! D106  D(6,9,10,7)            -5.1618         estimate D2E/DX2                !
 ! D107  D(8,9,10,7)           -51.4275         estimate D2E/DX2                !
 ! D108  D(12,9,10,7)           68.3811         estimate D2E/DX2                !
 ! D109  D(8,9,12,3)            45.112          estimate D2E/DX2                !
 ! D110  D(10,9,12,3)          -45.3191         estimate D2E/DX2                !
 ! D111  D(5,10,11,8)          -84.255          estimate D2E/DX2                !
 ! D112  D(7,10,11,8)           -4.9467         estimate D2E/DX2                !
 --------------------------------------------------------------------------------
 Trust Radius=3.00D-01 FncErr=1.00D-07 GrdErr=1.00D-06 EigMax=2.50D+02 EigMin=1.00D-04
 Number of steps in this run=    100 maximum allowed number of steps=    100.
 GradGradGradGradGradGradGradGradGradGradGradGradGradGradGradGradGradGrad

 Leave Link  103 at Tue May  6 04:10:31 2025, MaxMem=   104857600 cpu:               0.0 elap:               0.0
 (Enter /cm/shared/apps/spack/cpu/opt/spack/linux-centos8-zen/gcc-8.3.1/gaussian-16.C.01-po5bqktfeugvmjyga3v7eigbecnokxng/g16/l202.exe)
                          Input orientation:                          
 ---------------------------------------------------------------------
 Center     Atomic      Atomic             Coordinates (Angstroms)
 Number     Number       Type             X           Y           Z
 ---------------------------------------------------------------------
      1         14           0       -0.196822    0.005940    3.687541
      2         14           0       -0.978032    1.472954    1.824172
      3         14           0        1.012344   -0.019524    1.746130
      4         14           0       -1.035998   -1.433043    1.828283
      5         14           0        0.653645   -1.901250    0.000000
      6         14           0        0.733938    1.874453    0.000000
      7         14           0       -1.585947    0.026806    0.000000
      8         14           0       -0.978032    1.472954   -1.824172
      9         14           0        1.012344   -0.019524   -1.746130
     10         14           0       -1.035998   -1.433043   -1.828283
     11         14           0       -0.196822    0.005940   -3.687541
     12         14           0        2.595379   -0.052662    0.000000
 ---------------------------------------------------------------------
                    Distance matrix (angstroms):
                    1          2          3          4          5
     1  Si   0.000000
     2  Si   2.496911   0.000000
     3  Si   2.287314   2.489011   0.000000
     4  Si   2.496343   2.906578   2.490078   0.000000
     5  Si   4.237762   4.168360   2.592012   2.533127   0.000000
     6  Si   4.237406   2.533702   2.591067   4.173107   3.776557
     7  Si   3.940566   2.405932   3.130852   2.403377   2.955194
     8  Si   5.756857   3.648344   4.351568   4.667827   4.168360
     9  Si   5.566643   4.351568   3.492260   4.355476   2.592012
    10  Si   5.761875   4.667827   4.355476   3.656566   2.533127
    11  Si   7.375082   5.756857   5.566643   5.761875   4.237762
    12  Si   4.625773   4.292362   2.357131   4.293596   2.680972
                    6          7          8          9         10
     6  Si   0.000000
     7  Si   2.965749   0.000000
     8  Si   2.533702   2.405932   0.000000
     9  Si   2.591067   3.130852   2.489011   0.000000
    10  Si   4.173107   2.403377   2.906578   2.490078   0.000000
    11  Si   4.237406   3.940566   2.496911   2.287314   2.496343
    12  Si   2.679316   4.182081   4.292362   2.357131   4.293596
                   11         12
    11  Si   0.000000
    12  Si   4.625773   0.000000
 Stoichiometry    Si12
 Framework group  CS[SG(Si4),X(Si8)]
 Deg. of freedom    17
 Full point group                 CS      NOp   2
 Largest Abelian subgroup         CS      NOp   2
 Largest concise Abelian subgroup CS      NOp   2
                         Standard orientation:                         
 ---------------------------------------------------------------------
 Center     Atomic      Atomic             Coordinates (Angstroms)
 Number     Number       Type             X           Y           Z
 ---------------------------------------------------------------------
      1         14           0       -0.196822    0.005939    3.687541
      2         14           0       -0.978036    1.472951    1.824172
      3         14           0        1.012344   -0.019521    1.746130
      4         14           0       -1.035994   -1.433046    1.828283
      5         14           0        0.653650   -1.901248    0.000000
      6         14           0        0.733933    1.874455    0.000000
      7         14           0       -1.585947    0.026802   -0.000000
      8         14           0       -0.978036    1.472951   -1.824172
      9         14           0        1.012344   -0.019521   -1.746130
     10         14           0       -1.035994   -1.433046   -1.828283
     11         14           0       -0.196822    0.005939   -3.687541
     12         14           0        2.595379   -0.052655    0.000000
 ---------------------------------------------------------------------
 Rotational constants (GHZ):           0.5648037           0.2903578           0.2865582
 Leave Link  202 at Tue May  6 04:10:31 2025, MaxMem=   104857600 cpu:               0.0 elap:               0.0
 (Enter /cm/shared/apps/spack/cpu/opt/spack/linux-centos8-zen/gcc-8.3.1/gaussian-16.C.01-po5bqktfeugvmjyga3v7eigbecnokxng/g16/l301.exe)
 Standard basis: 6-311+G(d) (5D, 7F)
 Ernie: Thresh=  0.10000D-02 Tol=  0.10000D-05 Strict=F.
 There are   216 symmetry adapted cartesian basis functions of A'  symmetry.
 There are   156 symmetry adapted cartesian basis functions of A"  symmetry.
 There are   208 symmetry adapted basis functions of A'  symmetry.
 There are   152 symmetry adapted basis functions of A"  symmetry.
   360 basis functions,   600 primitive gaussians,   372 cartesian basis functions
    84 alpha electrons       84 beta electrons
       nuclear repulsion energy      2086.3458754368 Hartrees.
 IExCor=  402 DFT=T Ex+Corr=B3LYP ExCW=0 ScaHFX=  0.200000
 ScaDFX=  0.800000  0.720000  1.000000  0.810000 ScalE2=  1.000000  1.000000
 IRadAn=      5 IRanWt=     -1 IRanGd=            0 ICorTp=0 IEmpDi=  4
 NAtoms=   12 NActive=   12 NUniq=    8 SFac= 2.25D+00 NAtFMM=   60 NAOKFM=F Big=F
 Integral buffers will be    131072 words long.
 Raffenetti 2 integral format.
 Two-electron integral symmetry is turned on.
 Leave Link  301 at Tue May  6 04:10:31 2025, MaxMem=   104857600 cpu:               0.0 elap:               0.0
 (Enter /cm/shared/apps/spack/cpu/opt/spack/linux-centos8-zen/gcc-8.3.1/gaussian-16.C.01-po5bqktfeugvmjyga3v7eigbecnokxng/g16/l302.exe)
 NPDir=0 NMtPBC=     1 NCelOv=     1 NCel=       1 NClECP=     1 NCelD=      1
         NCelK=      1 NCelE2=     1 NClLst=     1 CellRange=     0.0.
 One-electron integrals computed using PRISM.
 One-electron integral symmetry used in STVInt
 NBasis=   360 RedAO= T EigKep=  1.70D-05  NBF=   208   152
 NBsUse=   360 1.00D-06 EigRej= -1.00D+00 NBFU=   208   152
 Precomputing XC quadrature grid using
 IXCGrd= 4 IRadAn=           5 IRanWt=          -1 IRanGd=           0 AccXCQ= 0.00D+00.
 Generated NRdTot=       0 NPtTot=           0 NUsed=           0 NTot=          32
 NSgBfM=   357   357   357   357   357 MxSgAt=    12 MxSgA2=    12.
 Leave Link  302 at Tue May  6 04:10:32 2025, MaxMem=   104857600 cpu:               0.3 elap:               0.3
 (Enter /cm/shared/apps/spack/cpu/opt/spack/linux-centos8-zen/gcc-8.3.1/gaussian-16.C.01-po5bqktfeugvmjyga3v7eigbecnokxng/g16/l303.exe)
 DipDrv:  MaxL=1.
 Leave Link  303 at Tue May  6 04:10:32 2025, MaxMem=   104857600 cpu:               0.0 elap:               0.0
 (Enter /cm/shared/apps/spack/cpu/opt/spack/linux-centos8-zen/gcc-8.3.1/gaussian-16.C.01-po5bqktfeugvmjyga3v7eigbecnokxng/g16/l401.exe)
 ExpMin= 3.31D-02 ExpMax= 6.94D+04 ExpMxC= 2.33D+03 IAcc=3 IRadAn=         5 AccDes= 0.00D+00
 Harris functional with IExCor=  402 and IRadAn=       5 diagonalized for initial guess.
 HarFok:  IExCor=  402 AccDes= 0.00D+00 IRadAn=         5 IDoV= 1 UseB2=F ITyADJ=14
 ICtDFT=  3500011 ScaDFX=  1.000000  1.000000  1.000000  1.000000
 FoFCou: FMM=F IPFlag=           0 FMFlag=      100000 FMFlg1=           0
         NFxFlg=           0 DoJE=T BraDBF=F KetDBF=T FulRan=T
         wScrn=  0.000000 ICntrl=       500 IOpCl=  0 I1Cent=   200000004 NGrid=           0
         NMat0=    1 NMatS0=      1 NMatT0=    0 NMatD0=    1 NMtDS0=    0 NMtDT0=    0
 Petite list used in FoFCou.
 Harris En= -3473.51154069490    
 JPrj=0 DoOrth=F DoCkMO=F.
 Initial guess orbital symmetries:
       Occupied  (A") (A') (A') (A") (A') (A") (A') (A') (A') (A')
                 (A") (A') (A") (A') (A') (A") (A') (A') (A") (A')
                 (A") (A') (A') (A') (A") (A') (A") (A') (A") (A')
                 (A") (A') (A') (A") (A') (A') (A") (A") (A') (A')
                 (A") (A") (A') (A') (A") (A') (A") (A") (A") (A")
                 (A') (A') (A') (A') (A') (A") (A') (A') (A") (A')
                 (A') (A") (A') (A') (A') (A") (A") (A") (A') (A')
                 (A') (A') (A') (A') (A") (A") (A") (A') (A') (A")
                 (A') (A") (A") (A')
       Virtual   (A') (A') (A") (A') (A') (A') (A") (A') (A") (A')
                 (A") (A') (A') (A') (A") (A") (A") (A') (A') (A")
                 (A') (A') (A") (A") (A') (A') (A") (A") (A') (A')
                 (A") (A") (A') (A') (A') (A') (A") (A') (A") (A")
                 (A') (A') (A") (A') (A") (A') (A") (A') (A') (A")
                 (A') (A') (A") (A') (A") (A") (A') (A") (A') (A')
                 (A") (A") (A') (A') (A') (A') (A") (A') (A") (A")
                 (A') (A') (A") (A') (A") (A') (A') (A") (A') (A")
                 (A') (A') (A") (A") (A') (A") (A') (A') (A") (A')
                 (A") (A') (A") (A') (A') (A') (A") (A') (A") (A')
                 (A") (A") (A') (A') (A') (A") (A') (A") (A') (A")
                 (A") (A') (A') (A") (A') (A") (A') (A") (A") (A')
                 (A") (A') (A') (A") (A') (A") (A") (A") (A') (A')
                 (A') (A') (A') (A') (A") (A') (A") (A") (A") (A')
                 (A') (A") (A') (A") (A') (A") (A') (A') (A") (A')
                 (A') (A") (A') (A') (A') (A') (A') (A") (A') (A")
                 (A') (A") (A") (A") (A') (A') (A") (A') (A") (A')
                 (A") (A") (A") (A') (A') (A') (A") (A') (A') (A")
                 (A") (A') (A') (A") (A") (A') (A') (A') (A") (A')
                 (A') (A") (A") (A') (A') (A") (A") (A') (A') (A")
                 (A') (A') (A") (A") (A') (A") (A") (A') (A') (A')
                 (A") (A') (A") (A') (A") (A') (A') (A') (A") (A")
                 (A') (A') (A") (A') (A') (A') (A") (A') (A") (A')
                 (A") (A") (A') (A") (A') (A') (A') (A') (A") (A')
                 (A") (A') (A") (A") (A') (A') (A") (A") (A') (A')
                 (A') (A') (A') (A") (A") (A") (A') (A') (A") (A')
                 (A') (A") (A') (A") (A') (A") (A') (A") (A') (A')
                 (A") (A') (A') (A') (A") (A')
 The electronic state of the initial guess is 1-A'.
 Leave Link  401 at Tue May  6 04:10:33 2025, MaxMem=   104857600 cpu:               1.5 elap:               1.5
 (Enter /cm/shared/apps/spack/cpu/opt/spack/linux-centos8-zen/gcc-8.3.1/gaussian-16.C.01-po5bqktfeugvmjyga3v7eigbecnokxng/g16/l502.exe)
 Integral symmetry usage will be decided dynamically.
 Closed shell SCF:
 Using DIIS extrapolation, IDIIS=  1040.
 NGot=   104857600 LenX=   104574098 LenY=   104435273
 Requested convergence on RMS density matrix=1.00D-08 within  32 cycles.
 Requested convergence on MAX density matrix=1.00D-06.
 Requested convergence on             energy=1.00D-06.
 No special actions if energy rises.
 Fock matrices will be formed incrementally for  20 cycles.

 Cycle   1  Pass 1  IDiag  1:
 FoFJK:  IHMeth= 1 ICntrl=       0 DoSepK=F KAlg= 0 I1Cent=           0 FoldK=F
 IRaf= 840000000 NMat=       1 IRICut=       1 DoRegI=T DoRafI=F ISym2E= 1 IDoP0=0 IntGTp=1.
 FoFCou: FMM=F IPFlag=           0 FMFlag=      100000 FMFlg1=           0
         NFxFlg=           0 DoJE=F BraDBF=F KetDBF=F FulRan=T
         wScrn=  0.000000 ICntrl=         0 IOpCl=  0 I1Cent=           0 NGrid=           0
         NMat0=    1 NMatS0=      1 NMatT0=    0 NMatD0=    1 NMtDS0=    0 NMtDT0=    0
 Petite list used in FoFCou.
 E= -3474.07491910764    
 DIIS: error= 1.76D-02 at cycle   1 NSaved=   1.
 NSaved= 1 IEnMin= 1 EnMin= -3474.07491910764     IErMin= 1 ErrMin= 1.76D-02
 ErrMax= 1.76D-02  0.00D+00 EMaxC= 1.00D-01 BMatC= 1.23D-01 BMatP= 1.23D-01
 IDIUse=3 WtCom= 8.24D-01 WtEn= 1.76D-01
 Coeff-Com:  0.100D+01
 Coeff-En:   0.100D+01
 Coeff:      0.100D+01
 Gap=     0.112 Goal=   None    Shift=    0.000
 GapD=    0.112 DampG=1.000 DampE=0.500 DampFc=0.5000 IDamp=-1.
 Damping current iteration by 5.00D-01
 RMSDP=4.98D-02 MaxDP=1.09D+01              OVMax= 1.28D-01

 Cycle   2  Pass 1  IDiag  1:
 RMSU=  1.81D-02    CP:  1.23D+00
 E= -3474.07066692331     Delta-E=        0.004252184333 Rises=F Damp=T
 DIIS: error= 8.11D-03 at cycle   2 NSaved=   2.
 NSaved= 2 IEnMin= 1 EnMin= -3474.07491910764     IErMin= 2 ErrMin= 8.11D-03
 ErrMax= 8.11D-03  0.00D+00 EMaxC= 1.00D-01 BMatC= 3.74D-02 BMatP= 1.23D-01
 IDIUse=3 WtCom= 9.19D-01 WtEn= 8.11D-02
 Coeff-Com: -0.194D-01 0.102D+01
 Coeff-En:   0.539D+00 0.461D+00
 Coeff:      0.259D-01 0.974D+00
 Gap=     0.125 Goal=   None    Shift=    0.000
 RMSDP=3.45D-02 MaxDP=7.23D+00 DE= 4.25D-03 OVMax= 1.54D-01

 Cycle   3  Pass 1  IDiag  1:
 RMSU=  9.25D-03    CP:  8.57D-01 -1.03D-02
 E= -3474.00332920895     Delta-E=        0.067337714361 Rises=F Damp=F
 DIIS: error= 1.90D-02 at cycle   3 NSaved=   3.
 NSaved= 3 IEnMin= 1 EnMin= -3474.07491910764     IErMin= 2 ErrMin= 8.11D-03
 ErrMax= 1.90D-02  0.00D+00 EMaxC= 1.00D-01 BMatC= 7.77D-02 BMatP= 3.74D-02
 IDIUse=2 WtCom= 0.00D+00 WtEn= 1.00D+00
 Rare condition: small coef for last iteration:  0.000D+00
 Coeff-En:   0.220D+00 0.557D+00 0.223D+00
 Coeff:      0.220D+00 0.557D+00 0.223D+00
 Gap=     0.129 Goal=   None    Shift=    0.000
 RMSDP=2.97D-02 MaxDP=6.36D+00 DE= 6.73D-02 OVMax= 9.88D-02

 Cycle   4  Pass 1  IDiag  1:
 RMSU=  1.68D-03    CP:  1.17D+00  9.36D-01  3.96D-01
 E= -3474.10560086421     Delta-E=       -0.102271655261 Rises=F Damp=F
 DIIS: error= 5.25D-03 at cycle   4 NSaved=   4.
 NSaved= 4 IEnMin= 4 EnMin= -3474.10560086421     IErMin= 4 ErrMin= 5.25D-03
 ErrMax= 5.25D-03  0.00D+00 EMaxC= 1.00D-01 BMatC= 7.74D-03 BMatP= 3.74D-02
 IDIUse=3 WtCom= 9.47D-01 WtEn= 5.25D-02
 Coeff-Com:  0.159D+00-0.308D+00 0.126D+00 0.102D+01
 Coeff-En:   0.000D+00 0.000D+00 0.138D+00 0.862D+00
 Coeff:      0.150D+00-0.292D+00 0.127D+00 0.101D+01
 Gap=     0.121 Goal=   None    Shift=    0.000
 RMSDP=8.63D-03 MaxDP=1.78D+00 DE=-1.02D-01 OVMax= 3.30D-02

 Cycle   5  Pass 1  IDiag  1:
 RMSU=  1.98D-03    CP:  1.09D+00  6.43D-01  3.63D-01  6.43D-01
 E= -3474.11200823914     Delta-E=       -0.006407374930 Rises=F Damp=F
 DIIS: error= 3.62D-03 at cycle   5 NSaved=   5.
 NSaved= 5 IEnMin= 5 EnMin= -3474.11200823914     IErMin= 5 ErrMin= 3.62D-03
 ErrMax= 3.62D-03  0.00D+00 EMaxC= 1.00D-01 BMatC= 2.70D-03 BMatP= 7.74D-03
 IDIUse=3 WtCom= 9.64D-01 WtEn= 3.62D-02
 Coeff-Com:  0.251D+00-0.506D+00-0.200D-01 0.951D+00 0.324D+00
 Coeff-En:   0.000D+00 0.000D+00 0.000D+00 0.269D+00 0.731D+00
 Coeff:      0.242D+00-0.487D+00-0.193D-01 0.926D+00 0.339D+00
 Gap=     0.122 Goal=   None    Shift=    0.000
 RMSDP=2.73D-03 MaxDP=2.12D-01 DE=-6.41D-03 OVMax= 2.38D-02

 Cycle   6  Pass 1  IDiag  1:
 RMSU=  5.02D-04    CP:  1.09D+00  6.56D-01  5.53D-01  9.02D-01  1.41D-02
 E= -3474.11601471630     Delta-E=       -0.004006477164 Rises=F Damp=F
 DIIS: error= 6.20D-04 at cycle   6 NSaved=   6.
 NSaved= 6 IEnMin= 6 EnMin= -3474.11601471630     IErMin= 6 ErrMin= 6.20D-04
 ErrMax= 6.20D-04  0.00D+00 EMaxC= 1.00D-01 BMatC= 9.62D-05 BMatP= 2.70D-03
 IDIUse=3 WtCom= 9.94D-01 WtEn= 6.20D-03
 Coeff-Com:  0.140D+00-0.282D+00-0.157D-01 0.529D+00 0.233D+00 0.396D+00
 Coeff-En:   0.000D+00 0.000D+00 0.000D+00 0.000D+00 0.333D-01 0.967D+00
 Coeff:      0.139D+00-0.280D+00-0.156D-01 0.526D+00 0.231D+00 0.400D+00
 Gap=     0.121 Goal=   None    Shift=    0.000
 RMSDP=7.51D-04 MaxDP=5.94D-02 DE=-4.01D-03 OVMax= 3.20D-03

 Cycle   7  Pass 1  IDiag  1:
 RMSU=  1.15D-04    CP:  1.09D+00  6.44D-01  4.96D-01  9.16D-01  1.91D-01
                    CP:  4.93D-01
 E= -3474.11616531022     Delta-E=       -0.000150593914 Rises=F Damp=F
 DIIS: error= 5.57D-05 at cycle   7 NSaved=   7.
 NSaved= 7 IEnMin= 7 EnMin= -3474.11616531022     IErMin= 7 ErrMin= 5.57D-05
 ErrMax= 5.57D-05  0.00D+00 EMaxC= 1.00D-01 BMatC= 9.66D-07 BMatP= 9.62D-05
 IDIUse=1 WtCom= 1.00D+00 WtEn= 0.00D+00
 Coeff-Com:  0.367D-01-0.740D-01-0.310D-02 0.145D+00 0.716D-01 0.162D+00
 Coeff-Com:  0.662D+00
 Coeff:      0.367D-01-0.740D-01-0.310D-02 0.145D+00 0.716D-01 0.162D+00
 Coeff:      0.662D+00
 Gap=     0.121 Goal=   None    Shift=    0.000
 RMSDP=9.68D-05 MaxDP=1.31D-02 DE=-1.51D-04 OVMax= 3.92D-04

 Cycle   8  Pass 1  IDiag  1:
 RMSU=  4.72D-05    CP:  1.09D+00  6.41D-01  5.00D-01  9.19D-01  1.77D-01
                    CP:  5.33D-01  8.47D-01
 E= -3474.11616658182     Delta-E=       -0.000001271601 Rises=F Damp=F
 DIIS: error= 2.15D-05 at cycle   8 NSaved=   8.
 NSaved= 8 IEnMin= 8 EnMin= -3474.11616658182     IErMin= 8 ErrMin= 2.15D-05
 ErrMax= 2.15D-05  0.00D+00 EMaxC= 1.00D-01 BMatC= 1.16D-07 BMatP= 9.66D-07
 IDIUse=1 WtCom= 1.00D+00 WtEn= 0.00D+00
 Coeff-Com:  0.214D-02-0.436D-02 0.645D-03 0.113D-01 0.874D-02 0.246D-01
 Coeff-Com:  0.273D+00 0.684D+00
 Coeff:      0.214D-02-0.436D-02 0.645D-03 0.113D-01 0.874D-02 0.246D-01
 Coeff:      0.273D+00 0.684D+00
 Gap=     0.121 Goal=   None    Shift=    0.000
 RMSDP=3.46D-05 MaxDP=4.75D-03 DE=-1.27D-06 OVMax= 1.33D-04

 Cycle   9  Pass 1  IDiag  1:
 RMSU=  8.23D-06    CP:  1.09D+00  6.43D-01  4.99D-01  9.15D-01  1.82D-01
                    CP:  5.35D-01  8.99D-01  7.31D-01
 E= -3474.11616675644     Delta-E=       -0.000000174623 Rises=F Damp=F
 DIIS: error= 4.91D-06 at cycle   9 NSaved=   9.
 NSaved= 9 IEnMin= 9 EnMin= -3474.11616675644     IErMin= 9 ErrMin= 4.91D-06
 ErrMax= 4.91D-06  0.00D+00 EMaxC= 1.00D-01 BMatC= 1.07D-08 BMatP= 1.16D-07
 IDIUse=1 WtCom= 1.00D+00 WtEn= 0.00D+00
 Coeff-Com: -0.191D-03 0.360D-03 0.457D-03 0.661D-03 0.207D-02 0.713D-02
 Coeff-Com:  0.123D+00 0.359D+00 0.508D+00
 Coeff:     -0.191D-03 0.360D-03 0.457D-03 0.661D-03 0.207D-02 0.713D-02
 Coeff:      0.123D+00 0.359D+00 0.508D+00
 Gap=     0.121 Goal=   None    Shift=    0.000
 RMSDP=1.24D-05 MaxDP=1.05D-03 DE=-1.75D-07 OVMax= 8.10D-05

 Cycle  10  Pass 1  IDiag  1:
 RMSU=  7.47D-06    CP:  1.09D+00  6.42D-01  4.99D-01  9.16D-01  1.81D-01
                    CP:  5.32D-01  8.91D-01  7.48D-01 -7.04D-02
 E= -3474.11616675502     Delta-E=        0.000000001422 Rises=F Damp=F
 DIIS: error= 7.26D-06 at cycle  10 NSaved=  10.
 NSaved=10 IEnMin= 9 EnMin= -3474.11616675644     IErMin= 9 ErrMin= 4.91D-06
 ErrMax= 7.26D-06  0.00D+00 EMaxC= 1.00D-01 BMatC= 1.08D-08 BMatP= 1.07D-08
 IDIUse=1 WtCom= 1.00D+00 WtEn= 0.00D+00
 Coeff-Com: -0.453D-03 0.901D-03 0.295D-03-0.101D-02 0.551D-03 0.263D-02
 Coeff-Com:  0.668D-01 0.208D+00 0.442D+00 0.280D+00
 Coeff:     -0.453D-03 0.901D-03 0.295D-03-0.101D-02 0.551D-03 0.263D-02
 Coeff:      0.668D-01 0.208D+00 0.442D+00 0.280D+00
 Gap=     0.121 Goal=   None    Shift=    0.000
 RMSDP=7.80D-06 MaxDP=7.31D-04 DE= 1.42D-09 OVMax= 5.19D-05

 Cycle  11  Pass 1  IDiag  1:
 RMSU=  1.78D-06    CP:  1.09D+00  6.42D-01  4.99D-01  9.16D-01  1.81D-01
                    CP:  5.32D-01  8.91D-01  7.49D-01  5.58D-01  2.73D-01
 E= -3474.11616677153     Delta-E=       -0.000000016513 Rises=F Damp=F
 DIIS: error= 9.53D-07 at cycle  11 NSaved=  11.
 NSaved=11 IEnMin=11 EnMin= -3474.11616677153     IErMin=11 ErrMin= 9.53D-07
 ErrMax= 9.53D-07  0.00D+00 EMaxC= 1.00D-01 BMatC= 3.17D-10 BMatP= 1.07D-08
 IDIUse=1 WtCom= 1.00D+00 WtEn= 0.00D+00
 Coeff-Com: -0.186D-03 0.373D-03 0.675D-04-0.594D-03-0.546D-04 0.109D-03
 Coeff-Com:  0.137D-01 0.445D-01 0.155D+00 0.170D+00 0.616D+00
 Coeff:     -0.186D-03 0.373D-03 0.675D-04-0.594D-03-0.546D-04 0.109D-03
 Coeff:      0.137D-01 0.445D-01 0.155D+00 0.170D+00 0.616D+00
 Gap=     0.121 Goal=   None    Shift=    0.000
 RMSDP=1.48D-06 MaxDP=1.99D-04 DE=-1.65D-08 OVMax= 8.14D-06

 Cycle  12  Pass 1  IDiag  1:
 RMSU=  4.53D-07    CP:  1.09D+00  6.42D-01  4.99D-01  9.16D-01  1.81D-01
                    CP:  5.32D-01  8.94D-01  7.52D-01  5.07D-01  3.86D-01
                    CP:  7.53D-01
 E= -3474.11616677201     Delta-E=       -0.000000000480 Rises=F Damp=F
 DIIS: error= 3.45D-07 at cycle  12 NSaved=  12.
 NSaved=12 IEnMin=12 EnMin= -3474.11616677201     IErMin=12 ErrMin= 3.45D-07
 ErrMax= 3.45D-07  0.00D+00 EMaxC= 1.00D-01 BMatC= 4.85D-11 BMatP= 3.17D-10
 IDIUse=1 WtCom= 1.00D+00 WtEn= 0.00D+00
 Coeff-Com: -0.693D-04 0.139D-03 0.929D-05-0.267D-03-0.951D-04-0.290D-03
 Coeff-Com:  0.697D-03 0.280D-02 0.426D-01 0.682D-01 0.356D+00 0.530D+00
 Coeff:     -0.693D-04 0.139D-03 0.929D-05-0.267D-03-0.951D-04-0.290D-03
 Coeff:      0.697D-03 0.280D-02 0.426D-01 0.682D-01 0.356D+00 0.530D+00
 Gap=     0.121 Goal=   None    Shift=    0.000
 RMSDP=3.55D-07 MaxDP=2.89D-05 DE=-4.80D-10 OVMax= 3.24D-06

 Cycle  13  Pass 1  IDiag  1:
 RMSU=  1.42D-07    CP:  1.09D+00  6.42D-01  4.99D-01  9.16D-01  1.81D-01
                    CP:  5.32D-01  8.94D-01  7.50D-01  5.05D-01  3.73D-01
                    CP:  8.40D-01  6.80D-01
 E= -3474.11616677206     Delta-E=       -0.000000000046 Rises=F Damp=F
 DIIS: error= 7.14D-08 at cycle  13 NSaved=  13.
 NSaved=13 IEnMin=13 EnMin= -3474.11616677206     IErMin=13 ErrMin= 7.14D-08
 ErrMax= 7.14D-08  0.00D+00 EMaxC= 1.00D-01 BMatC= 2.14D-12 BMatP= 4.85D-11
 IDIUse=1 WtCom= 1.00D+00 WtEn= 0.00D+00
 Coeff-Com: -0.179D-04 0.361D-04-0.287D-05-0.815D-04-0.467D-04-0.175D-03
 Coeff-Com: -0.136D-02-0.443D-02 0.160D-02 0.111D-01 0.843D-01 0.210D+00
 Coeff-Com:  0.699D+00
 Coeff:     -0.179D-04 0.361D-04-0.287D-05-0.815D-04-0.467D-04-0.175D-03
 Coeff:     -0.136D-02-0.443D-02 0.160D-02 0.111D-01 0.843D-01 0.210D+00
 Coeff:      0.699D+00
 Gap=     0.121 Goal=   None    Shift=    0.000
 RMSDP=1.01D-07 MaxDP=1.14D-05 DE=-4.64D-11 OVMax= 1.01D-06

 Cycle  14  Pass 1  IDiag  1:
 RMSU=  4.19D-08    CP:  1.09D+00  6.42D-01  4.99D-01  9.16D-01  1.81D-01
                    CP:  5.32D-01  8.94D-01  7.51D-01  5.06D-01  3.76D-01
                    CP:  8.36D-01  7.25D-01  7.51D-01
 E= -3474.11616677205     Delta-E=        0.000000000006 Rises=F Damp=F
 DIIS: error= 1.61D-08 at cycle  14 NSaved=  14.
 NSaved=14 IEnMin=13 EnMin= -3474.11616677206     IErMin=14 ErrMin= 1.61D-08
 ErrMax= 1.61D-08  0.00D+00 EMaxC= 1.00D-01 BMatC= 1.51D-13 BMatP= 2.14D-12
 IDIUse=1 WtCom= 1.00D+00 WtEn= 0.00D+00
 Coeff-Com:  0.185D-05-0.365D-05-0.275D-05 0.650D-07-0.733D-05-0.377D-04
 Coeff-Com: -0.614D-03-0.202D-02-0.231D-02-0.636D-03 0.491D-02 0.307D-01
 Coeff-Com:  0.262D+00 0.708D+00
 Coeff:      0.185D-05-0.365D-05-0.275D-05 0.650D-07-0.733D-05-0.377D-04
 Coeff:     -0.614D-03-0.202D-02-0.231D-02-0.636D-03 0.491D-02 0.307D-01
 Coeff:      0.262D+00 0.708D+00
 Gap=     0.121 Goal=   None    Shift=    0.000
 RMSDP=4.46D-08 MaxDP=7.13D-06 DE= 6.37D-12 OVMax= 2.30D-07

 Cycle  15  Pass 1  IDiag  1:
 RMSU=  1.08D-08    CP:  1.09D+00  6.42D-01  4.99D-01  9.16D-01  1.81D-01
                    CP:  5.32D-01  8.94D-01  7.51D-01  5.06D-01  3.76D-01
                    CP:  8.43D-01  7.15D-01  8.35D-01  7.11D-01
 E= -3474.11616677209     Delta-E=       -0.000000000038 Rises=F Damp=F
 DIIS: error= 4.40D-09 at cycle  15 NSaved=  15.
 NSaved=15 IEnMin=15 EnMin= -3474.11616677209     IErMin=15 ErrMin= 4.40D-09
 ErrMax= 4.40D-09  0.00D+00 EMaxC= 1.00D-01 BMatC= 1.28D-14 BMatP= 1.51D-13
 IDIUse=1 WtCom= 1.00D+00 WtEn= 0.00D+00
 Coeff-Com:  0.507D-06-0.100D-05-0.630D-06 0.660D-06-0.861D-06-0.531D-05
 Coeff-Com: -0.132D-03-0.398D-03-0.793D-03-0.816D-03-0.323D-02-0.821D-03
 Coeff-Com:  0.541D-01 0.270D+00 0.682D+00
 Coeff:      0.507D-06-0.100D-05-0.630D-06 0.660D-06-0.861D-06-0.531D-05
 Coeff:     -0.132D-03-0.398D-03-0.793D-03-0.816D-03-0.323D-02-0.821D-03
 Coeff:      0.541D-01 0.270D+00 0.682D+00
 Gap=     0.121 Goal=   None    Shift=    0.000
 RMSDP=1.07D-08 MaxDP=1.17D-06 DE=-3.82D-11 OVMax= 5.44D-08

 Cycle  16  Pass 1  IDiag  1:
 RMSU=  2.14D-09    CP:  1.09D+00  6.42D-01  4.99D-01  9.16D-01  1.81D-01
                    CP:  5.32D-01  8.94D-01  7.51D-01  5.06D-01  3.76D-01
                    CP:  8.43D-01  7.21D-01  8.44D-01  7.76D-01  7.94D-01
 E= -3474.11616677204     Delta-E=        0.000000000047 Rises=F Damp=F
 DIIS: error= 1.77D-09 at cycle  16 NSaved=  16.
 NSaved=16 IEnMin=15 EnMin= -3474.11616677209     IErMin=16 ErrMin= 1.77D-09
 ErrMax= 1.77D-09  0.00D+00 EMaxC= 1.00D-01 BMatC= 1.72D-15 BMatP= 1.28D-14
 IDIUse=1 WtCom= 1.00D+00 WtEn= 0.00D+00
 Coeff-Com:  0.232D-06-0.465D-06-0.687D-07 0.930D-06 0.779D-06 0.134D-05
 Coeff-Com: -0.131D-05 0.160D-04-0.133D-03-0.299D-03-0.184D-02-0.263D-02
 Coeff-Com: -0.291D-02 0.452D-01 0.313D+00 0.650D+00
 Coeff:      0.232D-06-0.465D-06-0.687D-07 0.930D-06 0.779D-06 0.134D-05
 Coeff:     -0.131D-05 0.160D-04-0.133D-03-0.299D-03-0.184D-02-0.263D-02
 Coeff:     -0.291D-02 0.452D-01 0.313D+00 0.650D+00
 Gap=     0.121 Goal=   None    Shift=    0.000
 RMSDP=1.83D-09 MaxDP=1.26D-07 DE= 4.73D-11 OVMax= 2.44D-08

 SCF Done:  E(RB3LYP) =  -3474.11616677     A.U. after   16 cycles
            NFock= 16  Conv=0.18D-08     -V/T= 2.0017
 KE= 3.468292068086D+03 PE=-1.244964952665D+04 EE= 3.420895416353D+03
 Leave Link  502 at Tue May  6 04:13:47 2025, MaxMem=   104857600 cpu:             193.6 elap:             194.0
 (Enter /cm/shared/apps/spack/cpu/opt/spack/linux-centos8-zen/gcc-8.3.1/gaussian-16.C.01-po5bqktfeugvmjyga3v7eigbecnokxng/g16/l508.exe)
 QCSCF skips out because SCF is already converged.
 Leave Link  508 at Tue May  6 04:13:47 2025, MaxMem=   104857600 cpu:               0.0 elap:               0.0
 (Enter /cm/shared/apps/spack/cpu/opt/spack/linux-centos8-zen/gcc-8.3.1/gaussian-16.C.01-po5bqktfeugvmjyga3v7eigbecnokxng/g16/l601.exe)
 Copying SCF densities to generalized density rwf, IOpCl= 0 IROHF=0.

 **********************************************************************

            Population analysis using the SCF Density.

 **********************************************************************

 Orbital symmetries:
       Occupied  (A') (A") (A') (A') (A') (A') (A") (A') (A") (A')
                 (A") (A') (A') (A') (A") (A') (A') (A') (A") (A')
                 (A") (A') (A") (A') (A') (A') (A") (A") (A') (A")
                 (A') (A') (A") (A') (A') (A") (A') (A') (A") (A")
                 (A') (A') (A') (A") (A') (A") (A') (A") (A') (A")
                 (A") (A') (A") (A') (A") (A') (A") (A') (A") (A')
                 (A') (A") (A') (A') (A') (A") (A") (A") (A') (A')
                 (A') (A') (A') (A') (A") (A") (A") (A') (A') (A')
                 (A") (A") (A') (A")
       Virtual   (A') (A') (A") (A') (A') (A') (A") (A') (A") (A')
                 (A') (A") (A') (A') (A") (A") (A') (A") (A') (A")
                 (A') (A') (A") (A") (A') (A') (A") (A") (A') (A')
                 (A') (A') (A") (A") (A') (A') (A") (A') (A") (A")
                 (A') (A') (A") (A") (A') (A') (A") (A') (A') (A")
                 (A') (A') (A") (A") (A") (A') (A') (A") (A') (A')
                 (A") (A") (A') (A') (A') (A') (A') (A") (A") (A")
                 (A') (A") (A') (A') (A") (A') (A') (A") (A') (A")
                 (A') (A') (A") (A') (A") (A") (A') (A') (A') (A")
                 (A") (A') (A") (A') (A') (A') (A') (A") (A") (A')
                 (A") (A") (A') (A') (A') (A") (A') (A") (A') (A")
                 (A") (A') (A') (A') (A") (A") (A') (A") (A") (A')
                 (A') (A") (A') (A") (A') (A") (A") (A") (A') (A')
                 (A') (A') (A') (A') (A") (A') (A") (A") (A') (A")
                 (A') (A") (A') (A") (A') (A") (A') (A') (A") (A')
                 (A') (A") (A') (A') (A') (A') (A') (A") (A') (A')
                 (A") (A") (A') (A") (A") (A') (A") (A') (A") (A')
                 (A") (A") (A") (A') (A') (A') (A") (A') (A') (A")
                 (A") (A') (A') (A") (A") (A') (A') (A') (A") (A')
                 (A') (A") (A") (A') (A') (A") (A") (A') (A') (A")
                 (A') (A') (A") (A') (A") (A") (A') (A") (A') (A')
                 (A") (A') (A") (A') (A") (A') (A') (A') (A") (A')
                 (A") (A') (A') (A") (A') (A') (A") (A') (A") (A")
                 (A') (A") (A') (A') (A') (A") (A') (A") (A') (A')
                 (A") (A") (A') (A') (A") (A') (A") (A') (A") (A')
                 (A') (A') (A') (A") (A") (A') (A") (A') (A") (A')
                 (A') (A") (A') (A") (A') (A') (A") (A") (A') (A')
                 (A") (A') (A') (A') (A") (A')
 The electronic state is 1-A'.
 Alpha  occ. eigenvalues --  -66.13988 -66.13047 -66.13047 -66.12975 -66.12931
 Alpha  occ. eigenvalues --  -66.12927 -66.12446 -66.12446 -66.12422 -66.12422
 Alpha  occ. eigenvalues --  -66.11692 -66.11692  -5.31012  -5.30334  -5.30333
 Alpha  occ. eigenvalues --   -5.29865  -5.29763  -5.29759  -5.29427  -5.29427
 Alpha  occ. eigenvalues --   -5.29403  -5.29403  -5.28585  -5.28585  -3.67033
 Alpha  occ. eigenvalues --   -3.66745  -3.66586  -3.66199  -3.66199  -3.66165
 Alpha  occ. eigenvalues --   -3.66165  -3.65941  -3.65940  -3.65623  -3.65600
 Alpha  occ. eigenvalues --   -3.65588  -3.65555  -3.65551  -3.65501  -3.65498
 Alpha  occ. eigenvalues --   -3.65495  -3.65489  -3.65303  -3.65303  -3.65279
 Alpha  occ. eigenvalues --   -3.65279  -3.65197  -3.65197  -3.65172  -3.65172
 Alpha  occ. eigenvalues --   -3.65028  -3.65028  -3.65004  -3.65004  -3.64357
 Alpha  occ. eigenvalues --   -3.64357  -3.64321  -3.64321  -3.64292  -3.64292
 Alpha  occ. eigenvalues --   -0.69766  -0.63873  -0.58418  -0.56246  -0.53779
 Alpha  occ. eigenvalues --   -0.47127  -0.45588  -0.44250  -0.43243  -0.40911
 Alpha  occ. eigenvalues --   -0.37507  -0.32616  -0.31792  -0.30285  -0.29864
 Alpha  occ. eigenvalues --   -0.28372  -0.28108  -0.25768  -0.24517  -0.23720
 Alpha  occ. eigenvalues --   -0.23532  -0.23408  -0.22743  -0.22652
 Alpha virt. eigenvalues --   -0.10584  -0.10207  -0.09251  -0.08465  -0.08054
 Alpha virt. eigenvalues --   -0.06423  -0.06131  -0.05749  -0.05389  -0.04750
 Alpha virt. eigenvalues --   -0.04365  -0.04200  -0.02434  -0.01811  -0.00404
 Alpha virt. eigenvalues --   -0.00348   0.00505   0.00568   0.01750   0.02636
 Alpha virt. eigenvalues --    0.02729   0.03193   0.03214   0.03759   0.03842
 Alpha virt. eigenvalues --    0.03972   0.04877   0.04931   0.05075   0.05518
 Alpha virt. eigenvalues --    0.05984   0.05997   0.06145   0.06198   0.06588
 Alpha virt. eigenvalues --    0.07809   0.08259   0.08609   0.08842   0.09229
 Alpha virt. eigenvalues --    0.09726   0.09764   0.09976   0.10478   0.10600
 Alpha virt. eigenvalues --    0.10604   0.10871   0.10915   0.11298   0.11826
 Alpha virt. eigenvalues --    0.12359   0.12514   0.13358   0.13701   0.13799
 Alpha virt. eigenvalues --    0.13892   0.14232   0.14350   0.15010   0.15259
 Alpha virt. eigenvalues --    0.15524   0.15645   0.15818   0.17312   0.18052
 Alpha virt. eigenvalues --    0.18223   0.18311   0.18389   0.18465   0.19126
 Alpha virt. eigenvalues --    0.19737   0.20636   0.20682   0.20804   0.21205
 Alpha virt. eigenvalues --    0.22572   0.23077   0.24212   0.24757   0.25085
 Alpha virt. eigenvalues --    0.25401   0.26259   0.26336   0.27184   0.27290
 Alpha virt. eigenvalues --    0.28200   0.28468   0.30212   0.30349   0.30353
 Alpha virt. eigenvalues --    0.30420   0.30981   0.31953   0.32287   0.32459
 Alpha virt. eigenvalues --    0.32594   0.33127   0.33186   0.34130   0.35272
 Alpha virt. eigenvalues --    0.35390   0.35827   0.36240   0.36771   0.36969
 Alpha virt. eigenvalues --    0.37296   0.38984   0.40978   0.41080   0.42300
 Alpha virt. eigenvalues --    0.43985   0.44643   0.45606   0.46540   0.46758
 Alpha virt. eigenvalues --    0.49758   0.50035   0.50925   0.51853   0.53041
 Alpha virt. eigenvalues --    0.54312   0.54319   0.54390   0.55717   0.55728
 Alpha virt. eigenvalues --    0.56055   0.56767   0.57383   0.58188   0.59173
 Alpha virt. eigenvalues --    0.59720   0.60154   0.61344   0.62274   0.63400
 Alpha virt. eigenvalues --    0.64170   0.64780   0.65157   0.65538   0.65974
 Alpha virt. eigenvalues --    0.66088   0.66892   0.69205   0.70295   0.70869
 Alpha virt. eigenvalues --    0.71042   0.72308   0.72770   0.72872   0.75057
 Alpha virt. eigenvalues --    0.75238   0.75750   0.77371   0.79776   0.81239
 Alpha virt. eigenvalues --    0.81317   0.82830   0.84102   0.84908   0.85057
 Alpha virt. eigenvalues --    0.85139   0.86010   0.86993   0.87138   0.87344
 Alpha virt. eigenvalues --    0.88060   0.88272   0.88771   0.89125   0.89709
 Alpha virt. eigenvalues --    0.90066   0.90714   0.91375   0.91590   0.92803
 Alpha virt. eigenvalues --    0.93734   1.00753   1.08092   1.09628   1.12112
 Alpha virt. eigenvalues --    1.26940   1.27781   1.28525   1.30316   1.30714
 Alpha virt. eigenvalues --    1.31600   1.32103   1.33288   1.34142   1.34497
 Alpha virt. eigenvalues --    1.34902   1.37468   1.38685   1.38747   1.39833
 Alpha virt. eigenvalues --    1.40320   1.41552   1.41801   1.43022   1.43635
 Alpha virt. eigenvalues --    1.45192   1.47161   1.48765   1.50834   1.50998
 Alpha virt. eigenvalues --    1.51296   1.52350   1.52552   1.52998   1.57410
 Alpha virt. eigenvalues --    1.58432   1.58516   1.62569   1.64466   1.68452
 Alpha virt. eigenvalues --    1.70664   5.45269   5.46685   5.47433   5.47435
 Alpha virt. eigenvalues --    5.47618   5.50097   5.52165   5.52360   5.56097
 Alpha virt. eigenvalues --    5.60200   5.61446   5.63906  11.29980  11.31591
 Alpha virt. eigenvalues --   11.31919  11.32410  11.33139  11.33635  11.33803
 Alpha virt. eigenvalues --   11.34038  11.34302  11.35257  11.35441  11.35485
 Alpha virt. eigenvalues --   11.37220  11.37465  11.37762  11.38568  11.38841
 Alpha virt. eigenvalues --   11.40653  11.41486  11.42254  11.42320  11.44252
 Alpha virt. eigenvalues --   11.45541  11.45706  11.47030  11.49073  11.49117
 Alpha virt. eigenvalues --   11.52008  11.52101  11.52628  11.53436  11.58304
 Alpha virt. eigenvalues --   11.59251  11.62619  11.70410  11.70977 140.90143
 Alpha virt. eigenvalues --  140.91720 140.92769 140.94021 140.94130 140.96780
 Alpha virt. eigenvalues --  140.98823 140.99095 141.03480 141.07010 141.11243
 Alpha virt. eigenvalues --  141.14129
          Condensed to atoms (all electrons):
               1          2          3          4          5          6
     1  Si  15.939313  -0.657328  -1.665189  -0.620941   0.605451   0.637686
     2  Si  -0.657328  22.176962  -0.471872   1.416515   1.041326  -4.481412
     3  Si  -1.665189  -0.471872  19.032124  -0.487528  -1.378937  -1.393635
     4  Si  -0.620941   1.416515  -0.487528  22.075517  -4.396837   0.979558
     5  Si   0.605451   1.041326  -1.378937  -4.396837  20.804812  -1.078090
     6  Si   0.637686  -4.481412  -1.393635   0.979558  -1.078090  20.846826
     7  Si   1.459634 -10.683079   0.258232 -10.560310   4.349556   4.601319
     8  Si  -0.269977   4.816295  -0.226956   0.572910   1.041326  -4.481412
     9  Si  -0.006043  -0.226956   0.912276  -0.231982  -1.378937  -1.393635
    10  Si  -0.257302   0.572910  -0.231982   4.758356  -4.396837   0.979558
    11  Si   0.045829  -0.269977  -0.006043  -0.257302   0.605451   0.637686
    12  Si  -1.352990   1.066679  -0.611795   1.046318  -1.605491  -1.653088
               7          8          9         10         11         12
     1  Si   1.459634  -0.269977  -0.006043  -0.257302   0.045829  -1.352990
     2  Si -10.683079   4.816295  -0.226956   0.572910  -0.269977   1.066679
     3  Si   0.258232  -0.226956   0.912276  -0.231982  -0.006043  -0.611795
     4  Si -10.560310   0.572910  -0.231982   4.758356  -0.257302   1.046318
     5  Si   4.349556   1.041326  -1.378937  -4.396837   0.605451  -1.605491
     6  Si   4.601319  -4.481412  -1.393635   0.979558   0.637686  -1.653088
     7  Si  46.554352 -10.683079   0.258232 -10.560310   1.459634  -3.237796
     8  Si -10.683079  22.176962  -0.471872   1.416515  -0.657328   1.066679
     9  Si   0.258232  -0.471872  19.032124  -0.487528  -1.665189  -0.611795
    10  Si -10.560310   1.416515  -0.487528  22.075517  -0.620941   1.046318
    11  Si   1.459634  -0.657328  -1.665189  -0.620941  15.939313  -1.352990
    12  Si  -3.237796   1.066679  -0.611795   1.046318  -1.352990  20.207063
 Mulliken charges:
               1
     1  Si   0.141858
     2  Si  -0.300063
     3  Si   0.271305
     4  Si  -0.294274
     5  Si  -0.212792
     6  Si  -0.201362
     7  Si   0.783615
     8  Si  -0.300063
     9  Si   0.271305
    10  Si  -0.294274
    11  Si   0.141858
    12  Si  -0.007112
 Sum of Mulliken charges =  -0.00000
 Mulliken charges with hydrogens summed into heavy atoms:
               1
     1  Si   0.141858
     2  Si  -0.300063
     3  Si   0.271305
     4  Si  -0.294274
     5  Si  -0.212792
     6  Si  -0.201362
     7  Si   0.783615
     8  Si  -0.300063
     9  Si   0.271305
    10  Si  -0.294274
    11  Si   0.141858
    12  Si  -0.007112
 Electronic spatial extent (au):  <R**2>=           4286.6712
 Charge=              0.0000 electrons
 Dipole moment (field-independent basis, Debye):
    X=             -0.2349    Y=              0.0004    Z=              0.0000  Tot=              0.2349
 Quadrupole moment (field-independent basis, Debye-Ang):
   XX=           -156.9074   YY=           -160.1198   ZZ=           -162.0805
   XY=             -0.0118   XZ=              0.0000   YZ=             -0.0000
 Traceless Quadrupole moment (field-independent basis, Debye-Ang):
   XX=              2.7952   YY=             -0.4172   ZZ=             -2.3779
   XY=             -0.0118   XZ=              0.0000   YZ=             -0.0000
 Octapole moment (field-independent basis, Debye-Ang**2):
  XXX=             -9.3052  YYY=             -0.1279  ZZZ=              0.0000  XYY=              1.7125
  XXY=              0.2179  XXZ=             -0.0000  XZZ=             -0.1289  YZZ=              0.0296
  YYZ=             -0.0000  XYZ=              0.0000
 Hexadecapole moment (field-independent basis, Debye-Ang**3):
 XXXX=          -1591.9603 YYYY=          -1569.6067 ZZZZ=          -4176.7393 XXXY=             -0.6414
 XXXZ=              0.0000 YYYX=              0.2856 YYYZ=              0.0000 ZZZX=              0.0000
 ZZZY=             -0.0000 XXYY=           -534.7714 XXZZ=           -918.4767 YYZZ=           -901.9250
 XXYZ=              0.0000 YYXZ=              0.0000 ZZXY=              0.3783
 N-N= 2.086345875437D+03 E-N=-1.244964952657D+04  KE= 3.468292068086D+03
 Symmetry A'   KE= 2.209085316086D+03
 Symmetry A"   KE= 1.259206751999D+03
 No NMR shielding tensors so no spin-rotation constants.
 Leave Link  601 at Tue May  6 04:13:47 2025, MaxMem=   104857600 cpu:               0.2 elap:               0.2
 (Enter /cm/shared/apps/spack/cpu/opt/spack/linux-centos8-zen/gcc-8.3.1/gaussian-16.C.01-po5bqktfeugvmjyga3v7eigbecnokxng/g16/l701.exe)
 ... and contract with generalized density number  0.
 Compute integral first derivatives.
 Leave Link  701 at Tue May  6 04:13:48 2025, MaxMem=   104857600 cpu:               0.1 elap:               0.1
 (Enter /cm/shared/apps/spack/cpu/opt/spack/linux-centos8-zen/gcc-8.3.1/gaussian-16.C.01-po5bqktfeugvmjyga3v7eigbecnokxng/g16/l702.exe)
 L702 exits ... SP integral derivatives will be done elsewhere.
 Leave Link  702 at Tue May  6 04:13:48 2025, MaxMem=   104857600 cpu:               0.0 elap:               0.0
 (Enter /cm/shared/apps/spack/cpu/opt/spack/linux-centos8-zen/gcc-8.3.1/gaussian-16.C.01-po5bqktfeugvmjyga3v7eigbecnokxng/g16/l703.exe)
 Integral derivatives from FoFJK, PRISM(SPDF).
 Compute integral first derivatives, UseDBF=F ICtDFT=           0.
 Calling FoFJK, ICntrl=      2127 FMM=F ISym2X=1 I1Cent= 0 IOpClX= 0 NMat=1 NMatS=1 NMatT=0.
 FoFJK:  IHMeth= 1 ICntrl=    2127 DoSepK=F KAlg= 0 I1Cent=           0 FoldK=F
 IRaf=         0 NMat=       1 IRICut=       1 DoRegI=T DoRafI=F ISym2E= 1 IDoP0=0 IntGTp=1.
 FoFCou: FMM=F IPFlag=           0 FMFlag=      100000 FMFlg1=         800
         NFxFlg=           0 DoJE=F BraDBF=F KetDBF=F FulRan=T
         wScrn=  0.000000 ICntrl=      2127 IOpCl=  0 I1Cent=           0 NGrid=           0
         NMat0=    1 NMatS0=      1 NMatT0=    0 NMatD0=    1 NMtDS0=    0 NMtDT0=    0
 Petite list used in FoFCou.
 Leave Link  703 at Tue May  6 04:14:34 2025, MaxMem=   104857600 cpu:              46.2 elap:              46.3
 (Enter /cm/shared/apps/spack/cpu/opt/spack/linux-centos8-zen/gcc-8.3.1/gaussian-16.C.01-po5bqktfeugvmjyga3v7eigbecnokxng/g16/l716.exe)
 Dipole        =-9.24179407D-02 1.50334024D-04 2.84217714D-14
 ***** Axes restored to original set *****
 -------------------------------------------------------------------
 Center     Atomic                   Forces (Hartrees/Bohr)
 Number     Number              X              Y              Z
 -------------------------------------------------------------------
      1       14          -0.000021292    0.000023873    0.001282824
      2       14          -0.000887459    0.001237548   -0.000347221
      3       14           0.002006818   -0.000059711    0.001265254
      4       14          -0.000840177   -0.001223453   -0.000523959
      5       14          -0.000012792   -0.003057210   -0.000000000
      6       14          -0.000164841    0.002914605    0.000000000
      7       14          -0.002652621    0.000331994   -0.000000000
      8       14          -0.000887459    0.001237548    0.000347221
      9       14           0.002006818   -0.000059711   -0.001265254
     10       14          -0.000840177   -0.001223453    0.000523959
     11       14          -0.000021292    0.000023873   -0.001282824
     12       14           0.002314474   -0.000145902   -0.000000000
 -------------------------------------------------------------------
 Cartesian Forces:  Max     0.003057210 RMS     0.001233606
 Leave Link  716 at Tue May  6 04:14:34 2025, MaxMem=   104857600 cpu:               0.0 elap:               0.0
 (Enter /cm/shared/apps/spack/cpu/opt/spack/linux-centos8-zen/gcc-8.3.1/gaussian-16.C.01-po5bqktfeugvmjyga3v7eigbecnokxng/g16/l103.exe)

 GradGradGradGradGradGradGradGradGradGradGradGradGradGradGradGradGradGrad
 Berny optimization.
 FormGI is forming the generalized inverse of G from B-inverse, IUseBI=4.
 Internal  Forces:  Max     0.001309747 RMS     0.000323089
 Search for a local minimum.
 Step number   1 out of a maximum of  100
 All quantities printed in internal units (Hartrees-Bohrs-Radians)
 RMS Force = .32309D-03 SwitMx=.10000D-02 MixMth= 2
 Mixed Optimization -- En-DIIS/RFO-DIIS
 Second derivative matrix not updated -- first step.
 ITU=  0
     Eigenvalues ---    0.01629   0.02212   0.03299   0.04357   0.05585
     Eigenvalues ---    0.05756   0.06382   0.06581   0.06714   0.06740
     Eigenvalues ---    0.07589   0.07824   0.08156   0.08211   0.08442
     Eigenvalues ---    0.08497   0.09022   0.09224   0.09640   0.09880
     Eigenvalues ---    0.10014   0.10179   0.10235   0.10557   0.11362
     Eigenvalues ---    0.11747   0.12032   0.12940   0.13271   0.15879
 RFO step:  Lambda=-2.15901019D-04 EMin= 1.62908565D-02
 Linear search not attempted -- first point.
 Iteration  1 RMS(Cart)=  0.00216030 RMS(Int)=  0.00000501
 Iteration  2 RMS(Cart)=  0.00000262 RMS(Int)=  0.00000258
 Iteration  3 RMS(Cart)=  0.00000000 RMS(Int)=  0.00000258
 ITry= 1 IFail=0 DXMaxC= 1.33D-02 DCOld= 1.00D+10 DXMaxT= 3.00D-01 DXLimC= 3.00D+00 Rises=F
 ClnCor:  largest displacement from symmetrization is 1.34D-12 for atom    10.
 Variable       Old X    -DE/DX   Delta X   Delta X   Delta X     New X
                                 (Linear)    (Quad)   (Total)
    R1        4.71848   0.00068   0.00000   0.00686   0.00686   4.72534
    R2        4.32240   0.00039   0.00000   0.00383   0.00384   4.32623
    R3        4.71740   0.00072   0.00000   0.00704   0.00704   4.72444
    R4        4.70355   0.00114   0.00000   0.01133   0.01133   4.71488
    R5        4.78800   0.00040   0.00000   0.00420   0.00420   4.79221
    R6        4.54655   0.00045   0.00000   0.00485   0.00485   4.55140
    R7        4.70557   0.00104   0.00000   0.01042   0.01042   4.71598
    R8        4.89819   0.00097   0.00000   0.01148   0.01148   4.90968
    R9        4.89641   0.00092   0.00000   0.01143   0.01143   4.90784
   R10        4.45433   0.00046   0.00000   0.00675   0.00675   4.46108
   R11        4.78692   0.00044   0.00000   0.00401   0.00400   4.79092
   R12        4.54172   0.00044   0.00000   0.00546   0.00546   4.54719
   R13        4.89819   0.00097   0.00000   0.01148   0.01148   4.90968
   R14        4.78692   0.00044   0.00000   0.00401   0.00400   4.79092
   R15        5.06630   0.00119   0.00000   0.01343   0.01343   5.07974
   R16        4.78800   0.00040   0.00000   0.00420   0.00420   4.79221
   R17        4.89641   0.00092   0.00000   0.01143   0.01143   4.90784
   R18        5.06317   0.00131   0.00000   0.01491   0.01491   5.07809
   R19        4.54655   0.00045   0.00000   0.00485   0.00485   4.55140
   R20        4.54172   0.00044   0.00000   0.00546   0.00546   4.54719
   R21        4.70355   0.00114   0.00000   0.01133   0.01133   4.71488
   R22        4.71848   0.00068   0.00000   0.00686   0.00686   4.72534
   R23        4.70557   0.00104   0.00000   0.01042   0.01042   4.71598
   R24        4.32240   0.00039   0.00000   0.00383   0.00384   4.32623
   R25        4.45433   0.00046   0.00000   0.00675   0.00675   4.46108
   R26        4.71740   0.00072   0.00000   0.00704   0.00704   4.72444
    A1        1.24262   0.00011   0.00000   0.00090   0.00090   1.24352
    A2        2.00313  -0.00008   0.00000  -0.00016  -0.00016   2.00297
    A3        1.86682  -0.00012   0.00000  -0.00085  -0.00085   1.86597
    A4        1.38763   0.00020   0.00000   0.00233   0.00233   1.38997
    A5        1.28711   0.00039   0.00000   0.00328   0.00328   1.29039
    A6        2.10216  -0.00016   0.00000  -0.00189  -0.00189   2.10027
    A7        2.10256  -0.00020   0.00000  -0.00196  -0.00196   2.10060
    A8        1.24670  -0.00001   0.00000  -0.00030  -0.00030   1.24640
    A9        1.92386  -0.00001   0.00000  -0.00072  -0.00072   1.92314
   A10        2.17573  -0.00003   0.00000  -0.00062  -0.00062   2.17511
   A11        1.92707  -0.00005   0.00000  -0.00134  -0.00134   1.92573
   A12        2.17598  -0.00005   0.00000  -0.00100  -0.00100   2.17498
   A13        1.63264   0.00025   0.00000   0.00167   0.00167   1.63431
   A14        2.00410  -0.00006   0.00000  -0.00008  -0.00008   2.00402
   A15        1.86854  -0.00013   0.00000  -0.00108  -0.00108   1.86745
   A16        1.38811   0.00021   0.00000   0.00240   0.00239   1.39050
   A17        1.28268   0.00044   0.00000   0.00423   0.00424   1.28692
   A18        1.47829  -0.00026   0.00000  -0.00190  -0.00190   1.47639
   A19        2.03123  -0.00026   0.00000  -0.00201  -0.00201   2.02922
   A20        2.03123  -0.00026   0.00000  -0.00201  -0.00201   2.02922
   A21        1.61265  -0.00034   0.00000  -0.00286  -0.00287   1.60979
   A22        1.93441  -0.00005   0.00000  -0.00049  -0.00049   1.93392
   A23        1.93441  -0.00005   0.00000  -0.00049  -0.00049   1.93392
   A24        1.60750  -0.00030   0.00000  -0.00198  -0.00198   1.60552
   A25        2.02857  -0.00019   0.00000  -0.00135  -0.00135   2.02723
   A26        1.93419  -0.00002   0.00000  -0.00041  -0.00041   1.93378
   A27        2.02857  -0.00019   0.00000  -0.00135  -0.00135   2.02723
   A28        1.47896  -0.00025   0.00000  -0.00189  -0.00188   1.47708
   A29        1.93419  -0.00002   0.00000  -0.00041  -0.00041   1.93378
   A30        1.29794   0.00019   0.00000   0.00147   0.00147   1.29940
   A31        1.72109  -0.00037   0.00000  -0.00266  -0.00266   1.71843
   A32        2.65527  -0.00042   0.00000  -0.00408  -0.00408   2.65119
   A33        2.65527  -0.00042   0.00000  -0.00408  -0.00408   2.65119
   A34        1.72883  -0.00040   0.00000  -0.00407  -0.00408   1.72475
   A35        1.29794   0.00019   0.00000   0.00147   0.00147   1.29940
   A36        1.28711   0.00039   0.00000   0.00328   0.00328   1.29039
   A37        2.00313  -0.00008   0.00000  -0.00016  -0.00016   2.00297
   A38        1.38763   0.00020   0.00000   0.00233   0.00233   1.38997
   A39        1.86682  -0.00012   0.00000  -0.00085  -0.00085   1.86597
   A40        1.63264   0.00025   0.00000   0.00167   0.00167   1.63431
   A41        1.92386  -0.00001   0.00000  -0.00072  -0.00072   1.92314
   A42        2.10216  -0.00016   0.00000  -0.00189  -0.00189   2.10027
   A43        1.92707  -0.00005   0.00000  -0.00134  -0.00134   1.92573
   A44        2.10256  -0.00020   0.00000  -0.00196  -0.00196   2.10060
   A45        1.24670  -0.00001   0.00000  -0.00030  -0.00030   1.24640
   A46        2.17573  -0.00003   0.00000  -0.00062  -0.00062   2.17511
   A47        2.17598  -0.00005   0.00000  -0.00100  -0.00100   2.17498
   A48        1.28268   0.00044   0.00000   0.00423   0.00424   1.28692
   A49        2.00410  -0.00006   0.00000  -0.00008  -0.00008   2.00402
   A50        1.38811   0.00021   0.00000   0.00240   0.00239   1.39050
   A51        1.86854  -0.00013   0.00000  -0.00108  -0.00108   1.86745
   A52        1.24262   0.00011   0.00000   0.00090   0.00090   1.24352
   A53        1.66848  -0.00011   0.00000  -0.00048  -0.00048   1.66800
   A54        1.56356   0.00012   0.00000   0.00065   0.00065   1.56421
   A55        3.32101  -0.00009   0.00000  -0.00157  -0.00157   3.31944
   A56        3.32101  -0.00009   0.00000  -0.00157  -0.00157   3.31944
   A57        3.14199  -0.00000   0.00000   0.00011   0.00011   3.14210
   A58        3.14119   0.00000   0.00000  -0.00011  -0.00011   3.14108
    D1       -1.47444  -0.00012   0.00000  -0.00069  -0.00069  -1.47513
    D2       -0.08620   0.00025   0.00000   0.00261   0.00261  -0.08359
    D3        1.47053   0.00018   0.00000   0.00166   0.00167   1.47219
    D4        0.08634  -0.00025   0.00000  -0.00263  -0.00263   0.08371
    D5       -0.89636   0.00027   0.00000   0.00262   0.00262  -0.89374
    D6       -0.08720   0.00009   0.00000   0.00073   0.00073  -0.08647
    D7        1.19500   0.00020   0.00000   0.00122   0.00122   1.19622
    D8        2.35401  -0.00004   0.00000  -0.00090  -0.00090   2.35310
    D9        1.39139  -0.00006   0.00000  -0.00115  -0.00115   1.39024
   D10        0.37769   0.00011   0.00000   0.00047   0.00047   0.37816
   D11        0.58173  -0.00008   0.00000  -0.00133  -0.00133   0.58039
   D12       -0.38089  -0.00010   0.00000  -0.00158  -0.00158  -0.38247
   D13       -1.39460   0.00007   0.00000   0.00004   0.00004  -1.39455
   D14        0.08802  -0.00025   0.00000  -0.00265  -0.00265   0.08537
   D15       -2.57166   0.00011   0.00000   0.00114   0.00114  -2.57052
   D16       -1.30212  -0.00000   0.00000   0.00095   0.00095  -1.30117
   D17        0.92161  -0.00020   0.00000  -0.00210  -0.00211   0.91950
   D18       -1.73807   0.00017   0.00000   0.00169   0.00168  -1.73639
   D19       -0.46853   0.00005   0.00000   0.00150   0.00150  -0.46704
   D20        2.03498  -0.00024   0.00000  -0.00195  -0.00195   2.03303
   D21       -0.62470   0.00013   0.00000   0.00183   0.00183  -0.62286
   D22        0.64484   0.00001   0.00000   0.00165   0.00165   0.64649
   D23        0.89758  -0.00028   0.00000  -0.00281  -0.00281   0.89477
   D24        0.09009  -0.00011   0.00000  -0.00135  -0.00136   0.08874
   D25       -1.19348  -0.00024   0.00000  -0.00186  -0.00187  -1.19534
   D26        2.49213  -0.00012   0.00000  -0.00131  -0.00131   2.49082
   D27        1.61326  -0.00016   0.00000  -0.00181  -0.00181   1.61145
   D28        1.27585  -0.00003   0.00000  -0.00018  -0.00018   1.27568
   D29        0.39698  -0.00008   0.00000  -0.00068  -0.00068   0.39631
   D30        0.24534   0.00003   0.00000   0.00091   0.00091   0.24625
   D31       -0.63353  -0.00002   0.00000   0.00041   0.00041  -0.63313
   D32       -1.61163   0.00015   0.00000   0.00167   0.00167  -1.60996
   D33       -2.49191   0.00009   0.00000   0.00126   0.00126  -2.49065
   D34       -0.39440   0.00007   0.00000   0.00043   0.00043  -0.39397
   D35       -1.27468   0.00001   0.00000   0.00002   0.00002  -1.27466
   D36        0.63486   0.00004   0.00000  -0.00050  -0.00050   0.63437
   D37       -0.24542  -0.00003   0.00000  -0.00091  -0.00091  -0.24632
   D38       -0.78735   0.00005   0.00000   0.00078   0.00078  -0.78658
   D39        0.79097  -0.00002   0.00000  -0.00077  -0.00077   0.79019
   D40       -1.38547   0.00003   0.00000   0.00015   0.00015  -1.38532
   D41       -2.35070   0.00006   0.00000   0.00046   0.00045  -2.35025
   D42       -0.37188  -0.00015   0.00000  -0.00141  -0.00142  -0.37329
   D43        0.38671   0.00008   0.00000   0.00070   0.00070   0.38741
   D44       -0.57853   0.00011   0.00000   0.00100   0.00100  -0.57752
   D45        1.40030  -0.00010   0.00000  -0.00087  -0.00087   1.39943
   D46       -0.08808   0.00026   0.00000   0.00266   0.00266  -0.08542
   D47        1.28476   0.00009   0.00000   0.00233   0.00232   1.28709
   D48        2.56923  -0.00011   0.00000  -0.00071  -0.00071   2.56852
   D49       -0.92093   0.00018   0.00000   0.00186   0.00186  -0.91906
   D50        0.45192   0.00001   0.00000   0.00153   0.00152   0.45344
   D51        1.73638  -0.00018   0.00000  -0.00151  -0.00150   1.73488
   D52       -2.03481   0.00020   0.00000   0.00163   0.00163  -2.03318
   D53       -0.66196   0.00003   0.00000   0.00130   0.00129  -0.66067
   D54        0.62250  -0.00016   0.00000  -0.00174  -0.00174   0.62076
   D55       -0.24534  -0.00003   0.00000  -0.00091  -0.00091  -0.24625
   D56       -1.27585   0.00003   0.00000   0.00018   0.00018  -1.27568
   D57       -2.49213   0.00012   0.00000   0.00131   0.00131  -2.49082
   D58        0.63353   0.00002   0.00000  -0.00041  -0.00041   0.63313
   D59       -0.39698   0.00008   0.00000   0.00068   0.00068  -0.39631
   D60       -1.61326   0.00016   0.00000   0.00181   0.00181  -1.61145
   D61       -0.38671  -0.00008   0.00000  -0.00070  -0.00070  -0.38741
   D62        1.38547  -0.00003   0.00000  -0.00015  -0.00015   1.38532
   D63        0.57853  -0.00011   0.00000  -0.00100  -0.00100   0.57752
   D64        2.35070  -0.00006   0.00000  -0.00046  -0.00045   2.35025
   D65       -1.40030   0.00010   0.00000   0.00087   0.00087  -1.39943
   D66        0.37188   0.00015   0.00000   0.00141   0.00142   0.37329
   D67       -0.88236   0.00022   0.00000   0.00189   0.00190  -0.88046
   D68        0.88236  -0.00022   0.00000  -0.00189  -0.00190   0.88046
   D69       -0.58173   0.00008   0.00000   0.00133   0.00133  -0.58039
   D70       -2.35401   0.00004   0.00000   0.00090   0.00090  -2.35310
   D71        0.38089   0.00010   0.00000   0.00158   0.00158   0.38247
   D72       -1.39139   0.00006   0.00000   0.00115   0.00115  -1.39024
   D73        1.39460  -0.00007   0.00000  -0.00004  -0.00004   1.39455
   D74       -0.37769  -0.00011   0.00000  -0.00047  -0.00047  -0.37816
   D75       -0.63486  -0.00004   0.00000   0.00050   0.00050  -0.63437
   D76        0.39440  -0.00007   0.00000  -0.00043  -0.00043   0.39397
   D77        1.61163  -0.00015   0.00000  -0.00167  -0.00167   1.60996
   D78        0.24542   0.00003   0.00000   0.00091   0.00091   0.24632
   D79        1.27468  -0.00001   0.00000  -0.00002  -0.00002   1.27466
   D80        2.49191  -0.00009   0.00000  -0.00126  -0.00126   2.49065
   D81        0.87926  -0.00018   0.00000  -0.00134  -0.00134   0.87792
   D82       -0.87926   0.00018   0.00000   0.00134   0.00134  -0.87792
   D83        0.62470  -0.00013   0.00000  -0.00183  -0.00183   0.62286
   D84        1.73807  -0.00017   0.00000  -0.00169  -0.00168   1.73639
   D85        2.57166  -0.00011   0.00000  -0.00114  -0.00114   2.57052
   D86       -0.64484  -0.00001   0.00000  -0.00165  -0.00165  -0.64649
   D87        0.46853  -0.00005   0.00000  -0.00150  -0.00150   0.46704
   D88        1.30212   0.00000   0.00000  -0.00095  -0.00095   1.30117
[...]
 ! D44   D(7,4,5,10)           -32.5044         -DE/DX =    0.0                 !
 ! D45   D(7,4,5,12)            80.2749         -DE/DX =    0.0                 !
 ! D46   D(1,4,7,2)             -3.6328         -DE/DX =    0.0                 !
 ! D47   D(1,4,7,8)             74.7055         -DE/DX =    0.0                 !
 ! D48   D(1,4,7,10)           146.9846         -DE/DX =    0.0                 !
 ! D49   D(3,4,7,2)            -51.9192         -DE/DX =    0.0                 !
 ! D50   D(3,4,7,8)             26.4191         -DE/DX =    0.0                 !
 ! D51   D(3,4,7,10)            98.6982         -DE/DX =    0.0                 !
 ! D52   D(5,4,7,2)           -115.9528         -DE/DX =    0.0                 !
 ! D53   D(5,4,7,8)            -37.6145         -DE/DX =    0.0                 !
 ! D54   D(5,4,7,10)            34.6646         -DE/DX =    0.0                 !
 ! D55   D(3,5,9,6)            -14.4695         -DE/DX =    0.0                 !
 ! D56   D(3,5,9,8)            -73.0564         -DE/DX =    0.0                 !
 ! D57   D(3,5,9,11)          -142.3997         -DE/DX =    0.0                 !
 ! D58   D(4,5,9,6)             35.912          -DE/DX =    0.0                 !
 ! D59   D(4,5,9,8)            -22.6748         -DE/DX =    0.0                 !
 ! D60   D(4,5,9,11)           -92.0182         -DE/DX =    0.0                 !
 ! D61   D(3,5,10,7)           -22.6792         -DE/DX =    0.0                 !
 ! D62   D(3,5,10,11)           79.3814         -DE/DX =    0.0                 !
 ! D63   D(4,5,10,7)            32.5044         -DE/DX =    0.0                 !
 ! D64   D(4,5,10,11)          134.5651         -DE/DX =    0.0                 !
 ! D65   D(12,5,10,7)          -80.2749         -DE/DX =    0.0                 !
 ! D66   D(12,5,10,11)          21.7858         -DE/DX =    0.0                 !
 ! D67   D(4,5,12,6)           -50.1419         -DE/DX =    0.0                 !
 ! D68   D(10,5,12,6)           50.1419         -DE/DX =    0.0                 !
 ! D69   D(2,6,8,7)            -32.5146         -DE/DX =    0.0                 !
 ! D70   D(2,6,8,11)          -134.5757         -DE/DX =    0.0                 !
 ! D71   D(3,6,8,7)             22.6364         -DE/DX =    0.0                 !
 ! D72   D(3,6,8,11)           -79.4248         -DE/DX =    0.0                 !
 ! D73   D(12,6,8,7)            80.1579         -DE/DX =    0.0                 !
 ! D74   D(12,6,8,11)          -21.9032         -DE/DX =    0.0                 !
 ! D75   D(2,6,9,5)            -35.9196         -DE/DX =    0.0                 !
 ! D76   D(2,6,9,10)            22.6313         -DE/DX =    0.0                 !
 ! D77   D(2,6,9,11)            91.9811         -DE/DX =    0.0                 !
 ! D78   D(3,6,9,5)             14.4725         -DE/DX =    0.0                 !
 ! D79   D(3,6,9,10)            73.0234         -DE/DX =    0.0                 !
 ! D80   D(3,6,9,11)           142.3732         -DE/DX =    0.0                 !
 ! D81   D(2,6,12,5)            50.0877         -DE/DX =    0.0                 !
 ! D82   D(8,6,12,5)           -50.0877         -DE/DX =    0.0                 !
 ! D83   D(2,7,8,6)             34.677          -DE/DX =    0.0                 !
 ! D84   D(2,7,8,9)             98.6915         -DE/DX =    0.0                 !
 ! D85   D(2,7,8,11)           146.9952         -DE/DX =    0.0                 !
 ! D86   D(4,7,8,6)            -37.5456         -DE/DX =    0.0                 !
 ! D87   D(4,7,8,9)             26.4688         -DE/DX =    0.0                 !
 ! D88   D(4,7,8,11)            74.7725         -DE/DX =    0.0                 !
 ! D89   D(10,7,8,6)          -115.9505         -DE/DX =    0.0                 !
 ! D90   D(10,7,8,9)           -51.9361         -DE/DX =    0.0                 !
 ! D91   D(10,7,8,11)           -3.6324         -DE/DX =    0.0                 !
 ! D92   D(2,7,10,5)            37.6145         -DE/DX =    0.0                 !
 ! D93   D(2,7,10,9)           -26.4191         -DE/DX =    0.0                 !
 ! D94   D(2,7,10,11)          -74.7055         -DE/DX =    0.0                 !
 ! D95   D(4,7,10,5)           -34.6646         -DE/DX =    0.0                 !
 ! D96   D(4,7,10,9)           -98.6982         -DE/DX =    0.0                 !
 ! D97   D(4,7,10,11)         -146.9846         -DE/DX =    0.0                 !
 ! D98   D(8,7,10,5)           115.9528         -DE/DX =    0.0                 !
 ! D99   D(8,7,10,9)            51.9192         -DE/DX =    0.0                 !
 ! D100  D(8,7,10,11)            3.6328         -DE/DX =    0.0                 !
 ! D101  D(7,8,9,5)              4.6348         -DE/DX =    0.0                 !
 ! D102  D(7,8,9,10)            50.5092         -DE/DX =    0.0                 !
 ! D103  D(7,8,9,12)           -68.5793         -DE/DX =    0.0                 !
 ! D104  D(6,8,11,10)           84.5053         -DE/DX =    0.0                 !
 ! D105  D(7,8,11,10)            3.5573         -DE/DX =    0.0                 !
 ! D106  D(6,9,10,7)            -4.6296         -DE/DX =    0.0                 !
 ! D107  D(8,9,10,7)           -50.5187         -DE/DX =    0.0                 !
 ! D108  D(12,9,10,7)           68.7358         -DE/DX =    0.0                 !
 ! D109  D(8,9,12,3)            44.6517         -DE/DX =    0.0                 !
 ! D110  D(10,9,12,3)          -44.9722         -DE/DX =    0.0                 !
 ! D111  D(5,10,11,8)          -84.4825         -DE/DX =    0.0                 !
 ! D112  D(7,10,11,8)           -3.5579         -DE/DX =    0.0                 !
 --------------------------------------------------------------------------------
 GradGradGradGradGradGradGradGradGradGradGradGradGradGradGradGradGradGrad

 Leave Link  103 at Tue May  6 05:01:19 2025, MaxMem=   104857600 cpu:               0.0 elap:               0.0
 (Enter /cm/shared/apps/spack/cpu/opt/spack/linux-centos8-zen/gcc-8.3.1/gaussian-16.C.01-po5bqktfeugvmjyga3v7eigbecnokxng/g16/l9999.exe)

 ----------------------------------------------------------------------

 Electric dipole moment (input orientation):
 (Debye = 10**-18 statcoulomb cm , SI units = C m)
                  (au)            (Debye)         (10**-30 SI)
   Tot        0.855675D-01      0.217491D+00      0.725471D+00
   x         -0.855545D-01     -0.217458D+00     -0.725361D+00
   y          0.148936D-02      0.378559D-02      0.126274D-01
   z          0.000000D+00      0.000000D+00      0.000000D+00

 Dipole polarizability, Alpha (input orientation).
 (esu units = cm**3 , SI units = C**2 m**2 J**-1)
 Alpha(0;0):
               (au)            (10**-24 esu)      (10**-40 SI)
   iso        0.372800D+03      0.552433D+02      0.614664D+02
   aniso      0.170279D+03      0.252328D+02      0.280753D+02
   xx         0.315783D+03      0.467942D+02      0.520656D+02
   yx        -0.507965D-03     -0.752726D-04     -0.837521D-04
   yy         0.316298D+03      0.468706D+02      0.521506D+02
   zx         0.000000D+00      0.000000D+00      0.000000D+00
   zy         0.000000D+00      0.000000D+00      0.000000D+00
   zz         0.486319D+03      0.720651D+02      0.801832D+02

 ----------------------------------------------------------------------

 Dipole orientation:
    14          6.97273668         -0.12055305          0.38919693
    14          3.48189379          2.69685159          1.88996357
    14          3.31607103         -0.06175262         -1.93881502
    14          3.38558606         -2.80676764          1.90358580
    14         -0.06278898         -3.60682561         -1.30363244
    14          0.06269151          3.60122660         -1.32145261
    14          0.00014483          0.00831962          3.06377454
    14         -3.38591688          2.81640902          1.88996357
    14         -3.31621114          0.05370464         -1.93881502
    14         -3.48122759         -2.68722757          1.90358580
    14         -6.97270776          0.12221448          0.38919693
    14         -0.00027153         -0.01559758         -4.92655012

 Electric dipole moment (dipole orientation):
 (Debye = 10**-18 statcoulomb cm , SI units = C m)
                  (au)            (Debye)         (10**-30 SI)
   Tot        0.855675D-01      0.217491D+00      0.725471D+00
   x          0.000000D+00      0.000000D+00      0.000000D+00
   y          0.000000D+00      0.000000D+00      0.000000D+00
   z          0.855675D-01      0.217491D+00      0.725471D+00

 Dipole polarizability, Alpha (dipole orientation).
 (esu units = cm**3 , SI units = C**2 m**2 J**-1)
 Alpha(0;0):
               (au)            (10**-24 esu)      (10**-40 SI)
   iso        0.372800D+03      0.552433D+02      0.614664D+02
   aniso      0.170279D+03      0.252328D+02      0.280753D+02
   xx         0.486268D+03      0.720575D+02      0.801747D+02
   yx        -0.295890D+01     -0.438463D+00     -0.487856D+00
   yy         0.316350D+03      0.468782D+02      0.521590D+02
   zx         0.165006D-03      0.244514D-04      0.272058D-04
   zy         0.947843D-02      0.140456D-02      0.156278D-02
   zz         0.315783D+03      0.467942D+02      0.520656D+02

 ----------------------------------------------------------------------
 Unable to Open any file for archive entry.
 1\1\GINC-EXP-5-32\Freq\RB3LYP\6-311+G(d)\Si12\GRIDCHEM\06-May-2025\0\\
 #P Geom=AllCheck Guess=TCheck SCRF=Check GenChk RB3LYP/6-311+G(d) Freq
 \\Si12-neutral-singlet\\0,1\Si,-0.205915294,0.0040243786,3.6903647538\
 Si,-0.9745797413,1.4761538609,1.8174197708\Si,1.0257842276,-0.01998728
 68,1.7550921715\Si,-1.0324872795,-1.4361151368,1.8171559312\Si,0.65652
 15781,-1.9206573104,0.\Si,0.732351588,1.8935155161,0.\Si,-1.6209574138
 ,0.0326221212,0.\Si,-0.9745797413,1.4761538609,-1.8174197708\Si,1.0257
 842276,-0.0199872868,-1.7550921715\Si,-1.0324872795,-1.4361151368,-1.8
 171559312\Si,-0.205915294,0.0040243786,-3.6903647538\Si,2.6064794221,-
 0.0536309587,0.\\Version=ES64L-G16RevC.01\State=1-A'\HF=-3474.1164842\
 RMSD=3.755e-09\RMSF=3.849e-05\ZeroPoint=0.0182425\Thermal=0.0345857\ET
 ot=-3474.0818985\HTot=-3474.0809543\GTot=-3474.1408037\Dipole=-0.08555
 45,0.0014894,0.\DipoleDeriv=0.1311458,-0.0006631,-0.0550072,-0.0006124
 ,0.0954918,0.0011008,-0.0979372,0.0019122,0.4542311,-0.0464393,-0.0668
 344,-0.0615404,-0.0247648,0.0178163,-0.0410839,-0.0442974,0.0903253,-0
 .1390174,-0.0896518,-0.0009754,0.1132602,-0.0011879,-0.1536988,-0.0021
 72,0.2228457,-0.0046149,-0.0932491,-0.0427615,0.0690482,-0.0601197,0.0
 268966,0.0140847,0.0439814,-0.0479963,-0.0880252,-0.1391304,-0.0985671
 ,0.0100848,0.,0.0210863,-0.0144097,0.,0.,0.,-0.1193533,-0.0991714,-0.0
 06725,0.,-0.0177413,-0.0129359,0.,0.,0.,-0.1185107,-0.0362407,0.002129
 1,0.,0.0020562,0.0575699,0.,0.,0.,0.1652576,-0.0464393,-0.0668344,0.06
 15404,-0.0247648,0.0178163,0.0410839,0.0442974,-0.0903253,-0.1390174,-
 0.0896519,-0.0009754,-0.1132601,-0.0011879,-0.1536988,0.002172,-0.2228
 457,0.0046149,-0.0932491,-0.0427615,0.0690482,0.0601197,0.0268966,0.01
 40847,-0.0439814,0.0479963,0.0880252,-0.1391304,0.1311458,-0.0006631,0
 .0550072,-0.0006124,0.0954918,-0.0011008,0.0979372,-0.0019122,0.454231
 1,0.3293928,-0.0066395,0.,-0.0060644,0.0223878,0.,0.,0.,-0.0930623\Pol
 ar=315.7827985,-0.000508,316.2983508,0.,0.,486.3194027\Quadrupole=2.21
 93522,-0.1917951,-2.0275572,-0.0562111,0.,0.\PG=CS [SG(Si4),X(Si8)]\NI
 mag=1\\0.04207318,-0.00023222,0.03030517,-0.01926450,0.00036221,0.1371
 3002,-0.00978431,0.00166063,-0.00696505,0.05826383,0.00057032,-0.01325
 919,0.01258375,-0.01629129,0.06978464,-0.01109280,0.01860585,-0.026272
 07,0.00316416,0.00913216,0.08168340,-0.02409340,0.00040294,0.03787983,
 -0.02584593,0.01833446,0.00101427,0.11322563,0.00040418,-0.00359298,-0
 .00073630,0.02252035,-0.01603893,-0.00375701,-0.00118935,0.05787298,0.
 04177092,-0.00081011,-0.07011389,-0.00245151,-0.00636069,0.00373613,-0
 .06601489,0.00134184,0.13436734,-0.00988111,-0.00179150,-0.00745064,0.
 00031965,0.00345605,0.00628400,-0.02738545,-0.02202525,-0.00221513,0.0
 5956391,-0.00069733,-0.01315573,-0.01229165,-0.00387382,-0.00986578,-0
 .00144663,-0.01783960,-0.01443403,0.00643938,0.01667364,0.06844564,-0.
 01182543,-0.01814503,-0.02627730,0.00633619,0.00119382,-0.00252535,0.0
 0115664,0.00370440,0.00372577,0.00276694,-0.00922934,0.08168636,0.0022
 1021,-0.00203903,-0.00287156,-0.00316258,0.00710968,-0.00085181,0.0011
 4203,-0.00115973,0.00071748,-0.01605775,0.00297352,0.00844930,0.045912
 49,-0.00037157,-0.00044263,0.00245917,0.00215351,-0.00797391,-0.002840
 08,-0.00066735,-0.01710551,-0.00959673,0.00006871,-0.00048466,-0.00182
 516,-0.00378932,0.06463024,0.00050705,-0.00103487,-0.00172215,0.001375
 19,-0.00589245,0.00019974,-0.00206214,-0.01232884,-0.00930816,0.012565
 39,-0.00549060,-0.01550474,0.,0.,0.06543711,0.00229829,0.00193493,-0.0
 0296318,-0.01612532,-0.00235732,0.00849562,0.00119625,0.00043444,0.001
 08859,-0.00354194,-0.00729158,-0.00073625,0.00547641,0.00348524,0.,0.0
 4605206,0.00026313,-0.00053172,-0.00235052,0.00053723,-0.00040128,0.00
 150771,-0.00007381,-0.01715626,0.00958063,-0.00233536,-0.00759975,0.00
 288622,-0.00405975,-0.00905614,0.,0.00465291,0.06423536,0.00054585,0.0
 0100368,-0.00172221,0.01274308,0.00499542,-0.01547121,-0.00156115,0.01
 239061,-0.00932829,0.00161209,0.00583555,0.00020662,0.,0.,-0.00643136,
 0.,0.,0.06534548,-0.00474014,0.00010574,0.00353458,0.00149837,-0.00569
 439,-0.00963123,-0.00572141,0.00026270,-0.00682071,0.00191854,0.004882
 33,-0.00885510,-0.00798233,-0.00017972,0.,-0.00794900,0.00039478,0.,0.
 03921296,0.00010746,0.00082407,-0.00006702,-0.00563867,-0.01843640,-0.
 01907471,0.00026850,0.00760607,0.00013249,0.00482694,-0.01883107,0.019
 42525,-0.00037471,-0.00287752,0.,0.00058001,-0.00289812,0.,0.00054456,
 0.06628146,-0.00037829,0.00000929,-0.00745216,-0.01282863,-0.02254098,
 -0.02792313,-0.00266419,0.00004994,0.00351296,-0.01191939,0.02300578,-
 0.02786954,0.,0.,-0.00287887,0.,0.,-0.00287115,0.,0.,0.12935465,-0.000
 27015,-0.00097154,-0.00000909,0.00251763,-0.00200685,0.00132409,-0.003
 14926,0.00183163,-0.00012716,-0.00196224,-0.00289369,0.00253059,-0.003
 16258,0.00215351,-0.00137519,-0.01612532,0.00053723,-0.01274308,0.0014
 9837,-0.00563867,0.01282863,0.05826383,-0.00195447,-0.00017628,-0.0007
 6099,-0.00200685,0.00260836,-0.00158614,-0.00196076,-0.00045011,-0.003
 78106,0.00285610,-0.00292090,-0.00032875,0.00710968,-0.00797391,0.0058
 9245,-0.00235732,-0.00040128,-0.00499542,-0.00569439,-0.01843640,0.022
 54098,-0.01629129,0.06978464,0.00161869,-0.00264451,-0.00107158,-0.001
 32409,0.00158614,-0.01202139,-0.00264842,0.00280544,-0.00021698,-0.002
 54567,-0.00021961,0.00147931,0.00085181,0.00284008,0.00019974,-0.00849
 562,-0.00150771,-0.01547121,0.00963123,0.01907471,-0.02792313,-0.00316
 416,-0.00913216,0.08168340,-0.00251553,0.00001753,-0.00319341,-0.00314
 926,-0.00196076,0.00264842,0.00779036,-0.00020882,0.00097438,-0.003134
 01,0.00207172,0.00275365,0.00114203,-0.00066735,0.00206214,0.00119625,
 -0.00007381,0.00156115,-0.00572141,0.00026850,0.00266419,-0.02584593,0
 .01833446,-0.00101427,0.11322563,0.00002020,-0.00164724,0.00006573,0.0
 0183163,-0.00045011,-0.00280544,-0.00020882,-0.00200387,-0.00002740,-0
 .00172274,-0.00046581,0.00268627,-0.00115973,-0.01710551,0.01232884,0.
 00043444,-0.01715626,-0.01239061,0.00026270,0.00760607,-0.00004994,0.0
 2252035,-0.01603893,0.00375701,-0.00118935,0.05787298,-0.00488022,0.00
 009892,-0.00263584,0.00012716,0.00378106,-0.00021698,-0.00097438,0.000
 02740,-0.01436910,-0.00002036,-0.00378675,-0.00022848,-0.00071748,0.00
 959673,-0.00930816,-0.00108859,-0.00958063,-0.00932829,0.00682071,-0.0
 0013249,0.00351296,0.00245151,0.00636069,0.00373613,0.06601489,-0.0013
 4184,0.13436734,-0.00015623,0.00097306,0.00002227,-0.00196224,0.002856
 10,0.00254567,-0.00313401,-0.00172274,0.00002036,0.00267188,0.00201123
 ,0.00139564,-0.01605775,0.00006871,-0.01256539,-0.00354194,-0.00233536
 ,-0.00161209,0.00191854,0.00482694,0.01191939,0.00031965,0.00345605,-0
 .00628400,-0.02738545,-0.02202525,0.00221513,0.05956391,0.00195413,-0.
 00029061,0.00076032,-0.00289369,-0.00292090,0.00021961,0.00207172,-0.0
 0046581,0.00378675,0.00201123,0.00243884,0.00153196,0.00297352,-0.0004
 8466,0.00549060,-0.00729158,-0.00759975,-0.00583555,0.00488233,-0.0188
 3107,-0.02300579,-0.00387382,-0.00986578,0.00144663,-0.01783960,-0.014
 43403,-0.00643938,0.01667364,0.06844564,0.00172352,0.00258330,-0.00107
 505,-0.00253059,0.00032875,0.00147931,-0.00275365,-0.00268627,-0.00022
 848,-0.00139564,-0.00153196,-0.01203548,-0.00844930,0.00182516,-0.0155
 0474,0.00073625,-0.00288622,0.00020662,0.00885510,-0.01942525,-0.02786
 954,-0.00633619,-0.00119382,-0.00252535,-0.00115664,-0.00370440,0.0037
 2577,-0.00276694,0.00922934,0.08168636,0.00359834,-0.00001002,0.001073
 50,-0.00027015,-0.00195447,-0.00161869,-0.00251553,0.00002020,0.004880
 22,-0.00015623,0.00195413,-0.00172352,0.00221021,-0.00037157,-0.000507
 05,0.00229829,0.00026313,-0.00054585,-0.00474014,0.00010746,0.00037829
 ,-0.00978431,0.00057032,0.01109280,-0.02409340,0.00040418,-0.04177092,
 -0.00988111,-0.00069733,0.01182543,0.04207318,-0.00001002,0.00310646,-
 0.00002014,-0.00097154,-0.00017628,0.00264451,0.00001753,-0.00164724,-
 0.00009892,0.00097306,-0.00029061,-0.00258330,-0.00203903,-0.00044263,
 0.00103487,0.00193493,-0.00053172,-0.00100368,0.00010574,0.00082407,-0
 .00000929,0.00166063,-0.01325919,-0.01860585,0.00040294,-0.00359298,0.
 00081011,-0.00179150,-0.01315573,0.01814503,-0.00023222,0.03030517,-0.
 00107350,0.00002014,-0.00209867,0.00000909,0.00076099,-0.00107158,0.00
 319341,-0.00006573,-0.00263584,-0.00002227,-0.00076032,-0.00107505,0.0
 0287156,-0.00245917,-0.00172215,0.00296318,0.00235052,-0.00172221,-0.0
 0353458,0.00006702,-0.00745216,0.00696505,-0.01258375,-0.02627207,-0.0
 3787983,0.00073630,-0.07011389,0.00745064,0.01229165,-0.02627730,0.019
 26450,-0.00036221,0.13713002,0.00126086,-0.00005052,0.00020725,-0.0022
 9968,-0.00206152,-0.00228170,-0.03150927,0.00083239,0.02817746,-0.0023
 5526,0.00202944,-0.00224865,-0.01167039,-0.00188278,0.,-0.01123404,0.0
 0222969,0.,-0.00919233,0.00012169,0.,-0.00229968,-0.00206152,0.0022817
 0,-0.03150927,0.00083239,-0.02817746,-0.00235526,0.00202944,0.00224865
 ,0.00126086,-0.00005052,-0.00020725,0.10190347,-0.00005380,-0.00113934
 ,-0.00000457,0.00297251,-0.00287024,-0.00059982,0.00084455,0.00741567,
 -0.00060618,-0.00299088,-0.00283614,0.00068368,-0.00554510,-0.00068318
 ,0.,0.00584090,-0.00090311,0.,0.00012763,-0.00283117,0.,0.00297251,-0.
 00287024,0.00059982,0.00084455,0.00741567,0.00060618,-0.00299088,-0.00
 283614,-0.00068368,-0.00005380,-0.00113934,0.00000457,-0.00196820,0.00
 327760,0.00234870,-0.00004887,0.00331090,0.00234500,0.00043202,-0.0015
 9688,0.03543466,-0.00074550,-0.03914146,0.00234069,-0.00052387,-0.0015
 8212,0.,0.,-0.00345628,0.,0.,-0.00341280,0.,0.,-0.00414087,-0.00234500
 ,-0.00043202,-0.00159688,-0.03543466,0.00074550,-0.03914146,-0.0023406
 9,0.00052387,-0.00158212,-0.00234870,0.00004887,0.00331090,0.,0.,0.089
 02905\\-0.00005754,0.00000386,-0.00001871,0.00001339,-0.00006204,0.000
 04940,0.00005585,0.00000059,-0.00003429,0.00001244,0.00004330,0.000039
 98,-0.00004027,-0.00006093,0.,-0.00006395,0.00005561,0.,0.00005664,0.0
 0003809,0.,0.00001339,-0.00006204,-0.00004940,0.00005585,0.00000059,0.
 00003429,0.00001244,0.00004330,-0.00003998,-0.00005754,0.00000386,0.00
 001871,-0.00000072,-0.00000418,0.\\\@
 The archive entry for this job was punched.


 EVERYBODY NEEDS BEAUTY AS WELL AS BREAD, PLACES TO PLAY IN AND PRAY IN,
 WHERE NATURE MAY HEAL AND CHEER AND GIVE STRENGTH TO BODY AND SOUL ALIKE.

                                    -- JOHN MUIR
 Job cpu time:       0 days  0 hours 27 minutes  3.2 seconds.
 Elapsed time:       0 days  0 hours 27 minutes  6.2 seconds.
 File lengths (MBytes):  RWF=    162 Int=      0 D2E=      0 Chk=     12 Scr=      1
 Normal termination of Gaussian 16 at Tue May  6 05:01:19 2025.
