 Entering Gaussian System, Link 0=g03
 Initial command:
 /usr/local/chem/g03E01/l1.exe /temp0/tam/Gau-14428.inp -scrdir=/temp0/tam/
 Entering Link 1 = /usr/local/chem/g03E01/l1.exe PID=     14429.
  
 Copyright (c) 1988,1990,1992,1993,1995,1998,2003,2004,2007, Gaussian, Inc.
                  All Rights Reserved.
  
 This is the Gaussian(R) 03 program.  It is based on the
 the Gaussian(R) 98 system (copyright 1998, Gaussian, Inc.),
 the Gaussian(R) 94 system (copyright 1995, Gaussian, Inc.),
 the Gaussian 92(TM) system (copyright 1992, Gaussian, Inc.),
 the Gaussian 90(TM) system (copyright 1990, Gaussian, Inc.),
 the Gaussian 88(TM) system (copyright 1988, Gaussian, Inc.),
 the Gaussian 86(TM) system (copyright 1986, Carnegie Mellon
 University), and the Gaussian 82(TM) system (copyright 1983,
 Carnegie Mellon University). Gaussian is a federally registered
 trademark of Gaussian, Inc.
  
 This software contains proprietary and confidential information,
 including trade secrets, belonging to Gaussian, Inc.
  
 This software is provided under written license and may be
 used, copied, transmitted, or stored only in accord with that
 written license.
  
 The following legend is applicable only to US Government
 contracts under FAR:
  
                    RESTRICTED RIGHTS LEGEND
  
 Use, reproduction and disclosure by the US Government is
 subject to restrictions as set forth in subparagraphs (a)
 and (c) of the Commercial Computer Software - Restricted
 Rights clause in FAR 52.227-19.
  
 Gaussian, Inc.
 340 Quinnipiac St., Bldg. 40, Wallingford CT 06492
  
  
 ---------------------------------------------------------------
 Warning -- This program may not be used in any manner that
 competes with the business of Gaussian, Inc. or will provide
 assistance to any competitor of Gaussian, Inc.  The licensee
 of this program is prohibited from giving any competitor of
 Gaussian, Inc. access to this program.  By using this program,
 the user acknowledges that Gaussian, Inc. is engaged in the
 business of creating and licensing software in the field of
 computational chemistry and represents and warrants to the
 licensee that it is not a competitor of Gaussian, Inc. and that
 it will not use this program in any manner prohibited above.
 ---------------------------------------------------------------
  

 Cite this work as:
 Gaussian 03, Revision E.01,
 M. J. Frisch, G. W. Trucks, H. B. Schlegel, G. E. Scuseria, 
 M. A. Robb, J. R. Cheeseman, J. A. Montgomery, Jr., T. Vreven, 
 K. N. Kudin, J. C. Burant, J. M. Millam, S. S. Iyengar, J. Tomasi, 
 V. Barone, B. Mennucci, M. Cossi, G. Scalmani, N. Rega, 
 G. A. Petersson, H. Nakatsuji, M. Hada, M. Ehara, K. Toyota, 
 R. Fukuda, J. Hasegawa, M. Ishida, T. Nakajima, Y. Honda, O. Kitao, 
 H. Nakai, M. Klene, X. Li, J. E. Knox, H. P. Hratchian, J. B. Cross, 
 V. Bakken, C. Adamo, J. Jaramillo, R. Gomperts, R. E. Stratmann, 
 O. Yazyev, A. J. Austin, R. Cammi, C. Pomelli, J. W. Ochterski, 
 P. Y. Ayala, K. Morokuma, G. A. Voth, P. Salvador, J. J. Dannenberg, 
 V. G. Zakrzewski, S. Dapprich, A. D. Daniels, M. C. Strain, 
 O. Farkas, D. K. Malick, A. D. Rabuck, K. Raghavachari, 
 J. B. Foresman, J. V. Ortiz, Q. Cui, A. G. Baboul, S. Clifford, 
 J. Cioslowski, B. B. Stefanov, G. Liu, A. Liashenko, P. Piskorz, 
 I. Komaromi, R. L. Martin, D. J. Fox, T. Keith, M. A. Al-Laham, 
 C. Y. Peng, A. Nanayakkara, M. Challacombe, P. M. W. Gill, 
 B. Johnson, W. Chen, M. W. Wong, C. Gonzalez, and J. A. Pople, 
 Gaussian, Inc., Wallingford CT, 2004.
 
 ******************************************
 Gaussian 03:  AM64L-G03RevE.01 11-Sep-2007
                17-Jun-2011 
 ******************************************
 %NprocShared=4
 Will use up to    4 processors via shared memory.
 %mem=3750MB
 %chk=S9L-ne-d-01
 --------------------------------------
 # hf/6-311G(d) freq scfcyc=500 scf=xqc
 --------------------------------------
 1/10=4,30=1,38=1/1,3;
 2/17=6,18=5,40=1/2;
 3/5=4,6=6,7=1,11=9,16=1,25=1,30=1/1,2,3;
 4//1;
 5/5=2,7=500,8=3,13=1,38=5/2,8;
 8/6=4,10=90,11=11/1;
 10/13=10/2;
 11/6=2,8=1,9=11,15=111,16=1/1,2,10;
 10/6=1/2;
 6/7=2,8=2,9=2,10=2,18=1,28=1/1;
 7/8=1,10=1,25=1/1,2,3,16;
 1/10=4,30=1/3;
 99//99;
 ------
 si12-c
 ------
 Symbolic Z-matrix:
 Charge =  1 Multiplicity = 2
 Si                    3.67118  -0.15867   0.06485 
 Si                    1.83844   0.03346   1.74399 
 Si                    1.72593   0.79603  -0.71976 
 Si                    1.79244  -1.67809  -0.58881 
 Si                    0.       -0.62389  -2.02651 
 Si                   0.         1.57719   1.17483 
 Si                    0.00001  -1.30425   1.00592 
 Si                   -1.83843   0.03345   1.74399 
 Si                   -1.72593   0.79603  -0.71977 
 Si                   -1.79244  -1.67809  -0.58881 
 Si                   -3.67118  -0.15867   0.06486 
 Si                   0.         2.3655   -1.15478 
 

 GradGradGradGradGradGradGradGradGradGradGradGradGradGradGradGradGradGrad
 Berny optimization.
 Initialization pass.
 Trust Radius=3.00D-01 FncErr=1.00D-07 GrdErr=1.00D-07
 Number of steps in this run=   2 maximum allowed number of steps=   2.
 GradGradGradGradGradGradGradGradGradGradGradGradGradGradGradGradGradGrad

                          Input orientation:                          
 ---------------------------------------------------------------------
 Center     Atomic     Atomic              Coordinates (Angstroms)
 Number     Number      Type              X           Y           Z
 ---------------------------------------------------------------------
    1         14             0        3.671177   -0.158666    0.064848
    2         14             0        1.838438    0.033461    1.743993
    3         14             0        1.725927    0.796029   -0.719757
    4         14             0        1.792436   -1.678091   -0.588810
    5         14             0        0.000000   -0.623893   -2.026512
    6         14             0       -0.000002    1.577186    1.174827
    7         14             0        0.000006   -1.304249    1.005919
    8         14             0       -1.838433    0.033454    1.743994
    9         14             0       -1.725933    0.796026   -0.719766
   10         14             0       -1.792436   -1.678088   -0.588807
   11         14             0       -3.671178   -0.158669    0.064856
   12         14             0       -0.000003    2.365501   -1.154785
 ---------------------------------------------------------------------
                    Distance matrix (angstroms):
                    1          2          3          4          5
     1  Si   0.000000
     2  Si   2.493065   0.000000
     3  Si   2.304570   2.581518   0.000000
     4  Si   2.503116   2.893699   2.478475   0.000000
     5  Si   4.250619   4.246019   2.588940   2.528072   0.000000
     6  Si   4.209845   2.467164   2.679270   4.113402   3.885012
     7  Si   3.959226   2.390409   3.219927   2.428111   3.107816
     8  Si   5.763006   3.676871   4.399574   4.642690   4.246017
     9  Si   5.536773   4.399586   3.451860   4.303176   2.588938
    10  Si   5.708500   4.642693   4.303171   3.584872   2.528072
    11  Si   7.342355   5.763010   5.536769   5.708502   4.250624
    12  Si   4.619143   4.149842   2.373042   4.459126   3.113902
                    6          7          8          9         10
     6  Si   0.000000
     7  Si   2.886381   0.000000
     8  Si   2.467162   2.390410   0.000000
     9  Si   2.679278   3.219939   2.581528   0.000000
    10  Si   4.113397   2.428118   2.893692   2.478470   0.000000
    11  Si   4.209841   3.959235   2.493064   2.304572   2.503114
    12  Si   2.459376   4.258604   4.149842   2.373042   4.459121
                   11         12
    11  Si   0.000000
    12  Si   4.619143   0.000000
 Stoichiometry    Si12(1+,2)
 Framework group  C1[X(Si12)]
 Deg. of freedom    30
 Full point group                 C1
 Largest Abelian subgroup         C1      NOp   1
 Largest concise Abelian subgroup C1      NOp   1
                         Standard orientation:                         
 ---------------------------------------------------------------------
 Center     Atomic     Atomic              Coordinates (Angstroms)
 Number     Number      Type              X           Y           Z
 ---------------------------------------------------------------------
    1         14             0        3.671177   -0.158666    0.064848
    2         14             0        1.838438    0.033461    1.743993
    3         14             0        1.725927    0.796029   -0.719757
    4         14             0        1.792436   -1.678091   -0.588810
    5         14             0        0.000000   -0.623893   -2.026512
    6         14             0       -0.000002    1.577186    1.174827
    7         14             0        0.000006   -1.304249    1.005919
    8         14             0       -1.838433    0.033454    1.743994
    9         14             0       -1.725933    0.796026   -0.719766
   10         14             0       -1.792436   -1.678088   -0.588807
   11         14             0       -3.671178   -0.158669    0.064856
   12         14             0       -0.000003    2.365501   -1.154785
 ---------------------------------------------------------------------
 Rotational constants (GHZ):      0.5510952      0.2925299      0.2857191
 Standard basis: 6-311G(d) (5D, 7F)
 There are   312 symmetry adapted basis functions of A   symmetry.
 Integral buffers will be    131072 words long.
 Raffenetti 2 integral format.
 Two-electron integral symmetry is turned on.
   312 basis functions,   552 primitive gaussians,   324 cartesian basis functions
    84 alpha electrons       83 beta electrons
       nuclear repulsion energy      2077.7105361965 Hartrees.
 NAtoms=   12 NActive=   12 NUniq=   12 SFac= 7.50D-01 NAtFMM=   80 NAOKFM=F Big=F
 One-electron integrals computed using PRISM.
 NBasis=   312 RedAO= T  NBF=   312
 NBsUse=   312 1.00D-06 NBFU=   312
 Harris functional with IExCor=  205 diagonalized for initial guess.
 ExpMin= 6.54D-02 ExpMax= 6.94D+04 ExpMxC= 2.33D+03 IAcc=2 IRadAn=         4 AccDes= 0.00D+00
 HarFok:  IExCor= 205 AccDes= 0.00D+00 IRadAn=         4 IDoV=1
 ScaDFX=  1.000000  1.000000  1.000000  1.000000
 Initial guess orbital symmetries:
 Alpha Orbitals:
       Occupied  (A) (A) (A) (A) (A) (A) (A) (A) (A) (A) (A) (A)
                 (A) (A) (A) (A) (A) (A) (A) (A) (A) (A) (A) (A)
                 (A) (A) (A) (A) (A) (A) (A) (A) (A) (A) (A) (A)
                 (A) (A) (A) (A) (A) (A) (A) (A) (A) (A) (A) (A)
                 (A) (A) (A) (A) (A) (A) (A) (A) (A) (A) (A) (A)
                 (A) (A) (A) (A) (A) (A) (A) (A) (A) (A) (A) (A)
                 (A) (A) (A) (A) (A) (A) (A) (A) (A) (A) (A) (A)
       Virtual   (A) (A) (A) (A) (A) (A) (A) (A) (A) (A) (A) (A)
                 (A) (A) (A) (A) (A) (A) (A) (A) (A) (A) (A) (A)
                 (A) (A) (A) (A) (A) (A) (A) (A) (A) (A) (A) (A)
                 (A) (A) (A) (A) (A) (A) (A) (A) (A) (A) (A) (A)
                 (A) (A) (A) (A) (A) (A) (A) (A) (A) (A) (A) (A)
                 (A) (A) (A) (A) (A) (A) (A) (A) (A) (A) (A) (A)
                 (A) (A) (A) (A) (A) (A) (A) (A) (A) (A) (A) (A)
                 (A) (A) (A) (A) (A) (A) (A) (A) (A) (A) (A) (A)
                 (A) (A) (A) (A) (A) (A) (A) (A) (A) (A) (A) (A)
                 (A) (A) (A) (A) (A) (A) (A) (A) (A) (A) (A) (A)
                 (A) (A) (A) (A) (A) (A) (A) (A) (A) (A) (A) (A)
                 (A) (A) (A) (A) (A) (A) (A) (A) (A) (A) (A) (A)
                 (A) (A) (A) (A) (A) (A) (A) (A) (A) (A) (A) (A)
                 (A) (A) (A) (A) (A) (A) (A) (A) (A) (A) (A) (A)
                 (A) (A) (A) (A) (A) (A) (A) (A) (A) (A) (A) (A)
                 (A) (A) (A) (A) (A) (A) (A) (A) (A) (A) (A) (A)
                 (A) (A) (A) (A) (A) (A) (A) (A) (A) (A) (A) (A)
                 (A) (A) (A) (A) (A) (A) (A) (A) (A) (A) (A) (A)
                 (A) (A) (A) (A) (A) (A) (A) (A) (A) (A) (A) (A)
 Beta  Orbitals:
       Occupied  (A) (A) (A) (A) (A) (A) (A) (A) (A) (A) (A) (A)
                 (A) (A) (A) (A) (A) (A) (A) (A) (A) (A) (A) (A)
                 (A) (A) (A) (A) (A) (A) (A) (A) (A) (A) (A) (A)
                 (A) (A) (A) (A) (A) (A) (A) (A) (A) (A) (A) (A)
                 (A) (A) (A) (A) (A) (A) (A) (A) (A) (A) (A) (A)
                 (A) (A) (A) (A) (A) (A) (A) (A) (A) (A) (A) (A)
                 (A) (A) (A) (A) (A) (A) (A) (A) (A) (A) (A)
       Virtual   (A) (A) (A) (A) (A) (A) (A) (A) (A) (A) (A) (A)
                 (A) (A) (A) (A) (A) (A) (A) (A) (A) (A) (A) (A)
                 (A) (A) (A) (A) (A) (A) (A) (A) (A) (A) (A) (A)
                 (A) (A) (A) (A) (A) (A) (A) (A) (A) (A) (A) (A)
                 (A) (A) (A) (A) (A) (A) (A) (A) (A) (A) (A) (A)
                 (A) (A) (A) (A) (A) (A) (A) (A) (A) (A) (A) (A)
                 (A) (A) (A) (A) (A) (A) (A) (A) (A) (A) (A) (A)
                 (A) (A) (A) (A) (A) (A) (A) (A) (A) (A) (A) (A)
                 (A) (A) (A) (A) (A) (A) (A) (A) (A) (A) (A) (A)
                 (A) (A) (A) (A) (A) (A) (A) (A) (A) (A) (A) (A)
                 (A) (A) (A) (A) (A) (A) (A) (A) (A) (A) (A) (A)
                 (A) (A) (A) (A) (A) (A) (A) (A) (A) (A) (A) (A)
                 (A) (A) (A) (A) (A) (A) (A) (A) (A) (A) (A) (A)
                 (A) (A) (A) (A) (A) (A) (A) (A) (A) (A) (A) (A)
                 (A) (A) (A) (A) (A) (A) (A) (A) (A) (A) (A) (A)
                 (A) (A) (A) (A) (A) (A) (A) (A) (A) (A) (A) (A)
                 (A) (A) (A) (A) (A) (A) (A) (A) (A) (A) (A) (A)
                 (A) (A) (A) (A) (A) (A) (A) (A) (A) (A) (A) (A)
                 (A) (A) (A) (A) (A) (A) (A) (A) (A) (A) (A) (A)
                 (A)
 The electronic state of the initial guess is 2-A.
 <S**2> of initial guess= 0.7500
 Requested convergence on RMS density matrix=1.00D-08 within 128 cycles.
 Requested convergence on MAX density matrix=1.00D-06.
 Requested convergence on             energy=1.00D-06.
 No special actions if energy rises.
 Integral accuracy reduced to 1.0D-05 until final iterations.
 Initial convergence to 1.0D-05 achieved.  Increase integral accuracy.
 SCF Done:  E(UHF) =  -3466.74945925     A.U. after   36 cycles
             Convg  =    0.7304D-08             -V/T =  2.0000
             S**2   =   0.8985
 Annihilation of the first spin contaminant:
 S**2 before annihilation     0.8985,   after     0.7656
 QCSCF skips out because SCF is already converged.
 Range of M.O.s used for correlation:     1   312
 NBasis=   312 NAE=    84 NBE=    83 NFC=     0 NFV=     0
 NROrb=    312 NOA=    84 NOB=    83 NVA=   228 NVB=   229
          Differentiating once with respect to electric field.
                with respect to dipole field.
          Electric field/nuclear overlap derivatives assumed to be zero.
 Integrals replicated using symmetry in FoFDir.
 MinBra= 0 MaxBra= 2 Meth= 1.
 IRaf=       0 NMat=   3 IRICut=       1 DoRegI=T DoRafI=F ISym2E= 2 JSym2E=2.
          There are   3 degrees of freedom in the 1st order CPHF.
     3 vectors were produced by pass  0.
 AX will form   3 AO Fock derivatives at one time.
     3 vectors were produced by pass  1.
     3 vectors were produced by pass  2.
     3 vectors were produced by pass  3.
     3 vectors were produced by pass  4.
     3 vectors were produced by pass  5.
     3 vectors were produced by pass  6.
     3 vectors were produced by pass  7.
     3 vectors were produced by pass  8.
     3 vectors were produced by pass  9.
     3 vectors were produced by pass 10.
     3 vectors were produced by pass 11.
     3 vectors were produced by pass 12.
     3 vectors were produced by pass 13.
     3 vectors were produced by pass 14.
     3 vectors were produced by pass 15.
     3 vectors were produced by pass 16.
     3 vectors were produced by pass 17.
     1 vectors were produced by pass 18.
 Inv2:  IOpt= 1 Iter= 1 AM= 1.45D-14 Conv= 1.00D-12.
 Inverted reduced A of dimension   55 with in-core refinement.
 End of Minotr Frequency-dependent properties file   721 does not exist.
 Symmetrizing basis deriv contribution to polar:
 IMax=3 JMax=2 DiffMx= 0.00D+00
 G2DrvN: will do   13 centers at a time, making    1 passes doing MaxLOS=2.
 FoFDir/FoFCou used for L=0 through L=2.
 DoAtom=TTTTTTTTTTTT
          Differentiating once with respect to electric field.
                with respect to dipole field.
          Differentiating once with respect to nuclear coordinates.
 Integrals replicated using symmetry in FoFDir.
 MinBra= 0 MaxBra= 2 Meth= 1.
 IRaf=       0 NMat=  39 IRICut=      39 DoRegI=T DoRafI=T ISym2E= 2 JSym2E=2.
          There are  39 degrees of freedom in the 1st order CPHF.
    36 vectors were produced by pass  0.
 AX will form  36 AO Fock derivatives at one time.
    36 vectors were produced by pass  1.
    36 vectors were produced by pass  2.
    36 vectors were produced by pass  3.
    36 vectors were produced by pass  4.
    36 vectors were produced by pass  5.
    36 vectors were produced by pass  6.
    36 vectors were produced by pass  7.
    36 vectors were produced by pass  8.
    33 vectors were produced by pass  9.
     7 vectors were produced by pass 10.
     3 vectors were produced by pass 11.
     3 vectors were produced by pass 12.
 Inv2:  IOpt= 1 Iter= 1 AM= 8.20D-15 Conv= 1.00D-12.
 Inverted reduced A of dimension  370 with in-core refinement.
 Isotropic polarizability for W=    0.000000      342.39 Bohr**3.
 End of Minotr Frequency-dependent properties file   721 does not exist.

 **********************************************************************

            Population analysis using the SCF density.

 **********************************************************************

 Orbital symmetries:
 Alpha Orbitals:
       Occupied  (A) (A) (A) (A) (A) (A) (A) (A) (A) (A) (A) (A)
                 (A) (A) (A) (A) (A) (A) (A) (A) (A) (A) (A) (A)
                 (A) (A) (A) (A) (A) (A) (A) (A) (A) (A) (A) (A)
                 (A) (A) (A) (A) (A) (A) (A) (A) (A) (A) (A) (A)
                 (A) (A) (A) (A) (A) (A) (A) (A) (A) (A) (A) (A)
                 (A) (A) (A) (A) (A) (A) (A) (A) (A) (A) (A) (A)
                 (A) (A) (A) (A) (A) (A) (A) (A) (A) (A) (A) (A)
       Virtual   (A) (A) (A) (A) (A) (A) (A) (A) (A) (A) (A) (A)
                 (A) (A) (A) (A) (A) (A) (A) (A) (A) (A) (A) (A)
                 (A) (A) (A) (A) (A) (A) (A) (A) (A) (A) (A) (A)
                 (A) (A) (A) (A) (A) (A) (A) (A) (A) (A) (A) (A)
                 (A) (A) (A) (A) (A) (A) (A) (A) (A) (A) (A) (A)
                 (A) (A) (A) (A) (A) (A) (A) (A) (A) (A) (A) (A)
                 (A) (A) (A) (A) (A) (A) (A) (A) (A) (A) (A) (A)
                 (A) (A) (A) (A) (A) (A) (A) (A) (A) (A) (A) (A)
                 (A) (A) (A) (A) (A) (A) (A) (A) (A) (A) (A) (A)
                 (A) (A) (A) (A) (A) (A) (A) (A) (A) (A) (A) (A)
                 (A) (A) (A) (A) (A) (A) (A) (A) (A) (A) (A) (A)
                 (A) (A) (A) (A) (A) (A) (A) (A) (A) (A) (A) (A)
                 (A) (A) (A) (A) (A) (A) (A) (A) (A) (A) (A) (A)
                 (A) (A) (A) (A) (A) (A) (A) (A) (A) (A) (A) (A)
                 (A) (A) (A) (A) (A) (A) (A) (A) (A) (A) (A) (A)
                 (A) (A) (A) (A) (A) (A) (A) (A) (A) (A) (A) (A)
                 (A) (A) (A) (A) (A) (A) (A) (A) (A) (A) (A) (A)
                 (A) (A) (A) (A) (A) (A) (A) (A) (A) (A) (A) (A)
                 (A) (A) (A) (A) (A) (A) (A) (A) (A) (A) (A) (A)
 Beta  Orbitals:
       Occupied  (A) (A) (A) (A) (A) (A) (A) (A) (A) (A) (A) (A)
                 (A) (A) (A) (A) (A) (A) (A) (A) (A) (A) (A) (A)
                 (A) (A) (A) (A) (A) (A) (A) (A) (A) (A) (A) (A)
                 (A) (A) (A) (A) (A) (A) (A) (A) (A) (A) (A) (A)
                 (A) (A) (A) (A) (A) (A) (A) (A) (A) (A) (A) (A)
                 (A) (A) (A) (A) (A) (A) (A) (A) (A) (A) (A) (A)
                 (A) (A) (A) (A) (A) (A) (A) (A) (A) (A) (A)
       Virtual   (A) (A) (A) (A) (A) (A) (A) (A) (A) (A) (A) (A)
                 (A) (A) (A) (A) (A) (A) (A) (A) (A) (A) (A) (A)
                 (A) (A) (A) (A) (A) (A) (A) (A) (A) (A) (A) (A)
                 (A) (A) (A) (A) (A) (A) (A) (A) (A) (A) (A) (A)
                 (A) (A) (A) (A) (A) (A) (A) (A) (A) (A) (A) (A)
                 (A) (A) (A) (A) (A) (A) (A) (A) (A) (A) (A) (A)
                 (A) (A) (A) (A) (A) (A) (A) (A) (A) (A) (A) (A)
                 (A) (A) (A) (A) (A) (A) (A) (A) (A) (A) (A) (A)
                 (A) (A) (A) (A) (A) (A) (A) (A) (A) (A) (A) (A)
                 (A) (A) (A) (A) (A) (A) (A) (A) (A) (A) (A) (A)
                 (A) (A) (A) (A) (A) (A) (A) (A) (A) (A) (A) (A)
                 (A) (A) (A) (A) (A) (A) (A) (A) (A) (A) (A) (A)
                 (A) (A) (A) (A) (A) (A) (A) (A) (A) (A) (A) (A)
                 (A) (A) (A) (A) (A) (A) (A) (A) (A) (A) (A) (A)
                 (A) (A) (A) (A) (A) (A) (A) (A) (A) (A) (A) (A)
                 (A) (A) (A) (A) (A) (A) (A) (A) (A) (A) (A) (A)
                 (A) (A) (A) (A) (A) (A) (A) (A) (A) (A) (A) (A)
                 (A) (A) (A) (A) (A) (A) (A) (A) (A) (A) (A) (A)
                 (A) (A) (A) (A) (A) (A) (A) (A) (A) (A) (A) (A)
                 (A)
 The electronic state is 2-A.
 Alpha  occ. eigenvalues --  -68.98996 -68.97124 -68.95784 -68.95784 -68.95319
 Alpha  occ. eigenvalues --  -68.95319 -68.95091 -68.94986 -68.94986 -68.94872
 Alpha  occ. eigenvalues --  -68.93559 -68.93559  -6.33189  -6.31558  -6.30209
 Alpha  occ. eigenvalues --   -6.30208  -6.30033  -6.30033  -6.29444  -6.29437
 Alpha  occ. eigenvalues --   -6.29436  -6.29228  -6.27855  -6.27854  -4.44000
 Alpha  occ. eigenvalues --   -4.43393  -4.43234  -4.42072  -4.41938  -4.41768
 Alpha  occ. eigenvalues --   -4.40765  -4.40765  -4.40507  -4.40507  -4.40438
 Alpha  occ. eigenvalues --   -4.40437  -4.40430  -4.40430  -4.40402  -4.40401
 Alpha  occ. eigenvalues --   -4.40341  -4.40341  -4.39788  -4.39788  -4.39741
 Alpha  occ. eigenvalues --   -4.39647  -4.39646  -4.39588  -4.39573  -4.39570
 Alpha  occ. eigenvalues --   -4.39570  -4.39567  -4.39563  -4.39537  -4.38018
 Alpha  occ. eigenvalues --   -4.38018  -4.37938  -4.37938  -4.37916  -4.37916
 Alpha  occ. eigenvalues --   -1.05167  -0.97257  -0.90223  -0.89329  -0.84037
 Alpha  occ. eigenvalues --   -0.76145  -0.73129  -0.72320  -0.70848  -0.67121
 Alpha  occ. eigenvalues --   -0.63413  -0.55569  -0.54120  -0.51679  -0.51425
 Alpha  occ. eigenvalues --   -0.50904  -0.48698  -0.48202  -0.45579  -0.44018
 Alpha  occ. eigenvalues --   -0.43994  -0.42692  -0.42659  -0.41484
 Alpha virt. eigenvalues --   -0.15162  -0.13821  -0.12812  -0.12704  -0.10156
 Alpha virt. eigenvalues --   -0.09350  -0.09044  -0.08569  -0.07598  -0.05973
 Alpha virt. eigenvalues --   -0.05456  -0.04887  -0.03490  -0.03038  -0.00985
 Alpha virt. eigenvalues --   -0.00872  -0.00369   0.00595   0.03384   0.03462
 Alpha virt. eigenvalues --    0.03996   0.04504   0.04665   0.07161   0.07179
 Alpha virt. eigenvalues --    0.08260   0.08970   0.09937   0.10738   0.11544
 Alpha virt. eigenvalues --    0.11551   0.11916   0.13561   0.13749   0.14142
 Alpha virt. eigenvalues --    0.14939   0.15396   0.15433   0.17054   0.17271
 Alpha virt. eigenvalues --    0.18449   0.19330   0.19735   0.20177   0.20471
 Alpha virt. eigenvalues --    0.21368   0.22265   0.23078   0.24283   0.24516
 Alpha virt. eigenvalues --    0.25160   0.25883   0.26293   0.27215   0.27610
 Alpha virt. eigenvalues --    0.28852   0.28860   0.30819   0.31495   0.32619
 Alpha virt. eigenvalues --    0.36990   0.39864   0.42255   0.43310   0.48063
 Alpha virt. eigenvalues --    0.48538   0.48966   0.50623   0.51247   0.51534
 Alpha virt. eigenvalues --    0.53066   0.54036   0.54354   0.54871   0.56178
 Alpha virt. eigenvalues --    0.56365   0.56821   0.57627   0.58542   0.59023
 Alpha virt. eigenvalues --    0.60169   0.60210   0.61054   0.61148   0.63518
 Alpha virt. eigenvalues --    0.64518   0.64901   0.68874   0.68942   0.69834
 Alpha virt. eigenvalues --    0.69941   0.71079   0.71472   0.73517   0.73968
 Alpha virt. eigenvalues --    0.74277   0.74933   0.76450   0.76610   0.77165
 Alpha virt. eigenvalues --    0.77955   0.78828   0.80054   0.81138   0.81496
 Alpha virt. eigenvalues --    0.82354   0.83521   0.85357   0.86983   0.87145
 Alpha virt. eigenvalues --    0.88338   0.89164   0.90701   0.90720   0.91594
 Alpha virt. eigenvalues --    0.92275   0.93134   0.94007   0.94753   0.95093
 Alpha virt. eigenvalues --    0.96221   0.96638   0.97285   0.98376   0.98930
 Alpha virt. eigenvalues --    1.00756   1.00855   1.02006   1.05658   1.10444
 Alpha virt. eigenvalues --    1.15874   1.18557   1.25212   1.28361   1.31369
 Alpha virt. eigenvalues --    1.32641   1.34086   1.34199   1.35195   1.36687
 Alpha virt. eigenvalues --    1.38447   1.38531   1.40938   1.41444   1.41582
 Alpha virt. eigenvalues --    1.43060   1.44952   1.45732   1.46387   1.46944
 Alpha virt. eigenvalues --    1.47397   1.49617   1.49645   1.52044   1.53633
 Alpha virt. eigenvalues --    1.54578   1.55403   1.55689   1.57211   1.58440
 Alpha virt. eigenvalues --    1.59949   1.63654   1.64195   1.66304   1.70164
 Alpha virt. eigenvalues --    1.70258   1.74865   1.76211   5.68429   5.76267
 Alpha virt. eigenvalues --    5.76604   5.77462   5.79461   5.79497   5.81259
 Alpha virt. eigenvalues --    5.83031   5.84970   5.89767   5.91503   5.94088
 Alpha virt. eigenvalues --   11.92856  11.96797  11.97075  11.98033  11.99128
 Alpha virt. eigenvalues --   11.99227  12.00277  12.01062  12.01419  12.01939
 Alpha virt. eigenvalues --   12.02392  12.02602  12.02959  12.03213  12.05046
 Alpha virt. eigenvalues --   12.05504  12.05627  12.07230  12.07791  12.08238
 Alpha virt. eigenvalues --   12.08717  12.10105  12.11461  12.12758  12.15739
 Alpha virt. eigenvalues --   12.16129  12.17111  12.17563  12.18518  12.19954
 Alpha virt. eigenvalues --   12.20799  12.21839  12.24889  12.29354  12.35631
 Alpha virt. eigenvalues --   12.36476 143.45727 143.53768 143.55403 143.55448
 Alpha virt. eigenvalues --  143.58514 143.58803 143.60150 143.61783 143.64048
 Alpha virt. eigenvalues --  143.70400 143.72835 143.72948
  Beta  occ. eigenvalues --  -68.98511 -68.97210 -68.95611 -68.95611 -68.95349
  Beta  occ. eigenvalues --  -68.95349 -68.95039 -68.94961 -68.94961 -68.94887
  Beta  occ. eigenvalues --  -68.93558 -68.93558  -6.32524  -6.31652  -6.30063
  Beta  occ. eigenvalues --   -6.30063  -6.29991  -6.29990  -6.29412  -6.29411
  Beta  occ. eigenvalues --   -6.29390  -6.29237  -6.27854  -6.27854  -4.43007
  Beta  occ. eigenvalues --   -4.42962  -4.42347  -4.42302  -4.41997  -4.41992
  Beta  occ. eigenvalues --   -4.40590  -4.40590  -4.40505  -4.40505  -4.40427
  Beta  occ. eigenvalues --   -4.40426  -4.40311  -4.40310  -4.40263  -4.40263
  Beta  occ. eigenvalues --   -4.40080  -4.40080  -4.39746  -4.39745  -4.39708
  Beta  occ. eigenvalues --   -4.39631  -4.39604  -4.39604  -4.39554  -4.39536
  Beta  occ. eigenvalues --   -4.39533  -4.39483  -4.39483  -4.39378  -4.38009
  Beta  occ. eigenvalues --   -4.38009  -4.37941  -4.37941  -4.37914  -4.37914
  Beta  occ. eigenvalues --   -1.04846  -0.96921  -0.89989  -0.87664  -0.83770
  Beta  occ. eigenvalues --   -0.74884  -0.73044  -0.70864  -0.70324  -0.66073
  Beta  occ. eigenvalues --   -0.60604  -0.55636  -0.53488  -0.51325  -0.51111
  Beta  occ. eigenvalues --   -0.49285  -0.47763  -0.44953  -0.44436  -0.43758
  Beta  occ. eigenvalues --   -0.43096  -0.42226  -0.40627
  Beta virt. eigenvalues --   -0.20818  -0.14447  -0.12656  -0.12358  -0.11784
  Beta virt. eigenvalues --   -0.09195  -0.09069  -0.08393  -0.07551  -0.07418
  Beta virt. eigenvalues --   -0.05708  -0.04799  -0.04361  -0.02772  -0.02575
  Beta virt. eigenvalues --   -0.00655  -0.00292   0.00759   0.00856   0.03513
  Beta virt. eigenvalues --    0.04227   0.04245   0.04591   0.04888   0.07860
  Beta virt. eigenvalues --    0.08355   0.08903   0.09057   0.10366   0.10838
  Beta virt. eigenvalues --    0.11699   0.11951   0.12588   0.13782   0.13798
  Beta virt. eigenvalues --    0.14888   0.14968   0.16151   0.16249   0.17343
  Beta virt. eigenvalues --    0.17580   0.18467   0.19416   0.19958   0.20414
  Beta virt. eigenvalues --    0.20740   0.21498   0.22556   0.23478   0.24371
  Beta virt. eigenvalues --    0.24604   0.25438   0.26030   0.26359   0.27677
  Beta virt. eigenvalues --    0.27775   0.29110   0.29191   0.30865   0.31755
  Beta virt. eigenvalues --    0.32795   0.38040   0.40389   0.42465   0.43317
  Beta virt. eigenvalues --    0.48384   0.49019   0.49984   0.51087   0.51506
  Beta virt. eigenvalues --    0.51732   0.53633   0.54611   0.54881   0.55069
  Beta virt. eigenvalues --    0.56491   0.56829   0.57981   0.58112   0.59098
  Beta virt. eigenvalues --    0.59407   0.60406   0.60569   0.61324   0.61501
  Beta virt. eigenvalues --    0.63966   0.65163   0.65269   0.69166   0.69307
  Beta virt. eigenvalues --    0.69940   0.70415   0.71432   0.71507   0.74206
  Beta virt. eigenvalues --    0.74283   0.75102   0.75894   0.76614   0.76643
  Beta virt. eigenvalues --    0.77572   0.78394   0.79192   0.80271   0.81344
  Beta virt. eigenvalues --    0.81877   0.82800   0.83627   0.85516   0.87049
  Beta virt. eigenvalues --    0.87724   0.88601   0.90042   0.90907   0.90945
  Beta virt. eigenvalues --    0.92162   0.92600   0.93607   0.94063   0.94838
  Beta virt. eigenvalues --    0.95744   0.96283   0.96923   0.97559   0.98569
  Beta virt. eigenvalues --    0.99044   1.00992   1.01139   1.02202   1.05496
  Beta virt. eigenvalues --    1.10377   1.15873   1.18558   1.25402   1.28781
  Beta virt. eigenvalues --    1.31584   1.32807   1.34139   1.34329   1.35258
  Beta virt. eigenvalues --    1.36848   1.38732   1.38795   1.41187   1.41744
  Beta virt. eigenvalues --    1.41893   1.43350   1.45062   1.45669   1.46584
  Beta virt. eigenvalues --    1.47211   1.47695   1.49849   1.49942   1.52392
  Beta virt. eigenvalues --    1.53901   1.54791   1.55702   1.55967   1.57436
  Beta virt. eigenvalues --    1.58522   1.60174   1.63947   1.64431   1.66334
  Beta virt. eigenvalues --    1.70299   1.70470   1.74910   1.76299   5.68703
  Beta virt. eigenvalues --    5.76541   5.76700   5.77544   5.79630   5.79756
  Beta virt. eigenvalues --    5.81397   5.83085   5.85167   5.89799   5.91576
  Beta virt. eigenvalues --    5.94050  11.93005  11.96838  11.97243  11.98192
  Beta virt. eigenvalues --   11.99249  11.99356  12.00284  12.01120  12.01441
  Beta virt. eigenvalues --   12.02046  12.02441  12.02766  12.03074  12.03371
  Beta virt. eigenvalues --   12.05126  12.05711  12.05783  12.07288  12.07882
  Beta virt. eigenvalues --   12.08259  12.08712  12.10204  12.11501  12.12782
  Beta virt. eigenvalues --   12.15898  12.16243  12.17120  12.17602  12.18565
  Beta virt. eigenvalues --   12.20062  12.20932  12.22002  12.24999  12.29345
  Beta virt. eigenvalues --   12.35629  12.36462 143.45825 143.53800 143.55463
  Beta virt. eigenvalues --  143.55494 143.58580 143.58944 143.60223 143.61800
  Beta virt. eigenvalues --  143.64095 143.70401 143.72854 143.72935
          Condensed to atoms (all electrons):
              1          2          3          4          5          6
     1  Si  13.326490   0.194359   0.037794   0.200731  -0.014708  -0.011722
     2  Si   0.194359  13.656805  -0.067120   0.027752  -0.018750   0.134857
     3  Si   0.037794  -0.067120  14.368801  -0.098870   0.027219  -0.062393
     4  Si   0.200731   0.027752  -0.098870  13.741747   0.120061  -0.021871
     5  Si  -0.014708  -0.018750   0.027219   0.120061  13.692218  -0.027075
     6  Si  -0.011722   0.134857  -0.062393  -0.021871  -0.027075  13.755721
     7  Si  -0.020236   0.030125   0.007265   0.023994  -0.066921  -0.060477
     8  Si   0.002815  -0.037069  -0.007797   0.008216  -0.018750   0.134857
     9  Si   0.003557  -0.007798  -0.163941  -0.022713   0.027220  -0.062389
    10  Si   0.002018   0.008216  -0.022713  -0.052229   0.120059  -0.021871
    11  Si  -0.000610   0.002815   0.003557   0.002018  -0.014708  -0.011722
    12  Si  -0.003589  -0.016770   0.132846  -0.001124   0.014206   0.242726
              7          8          9         10         11         12
     1  Si  -0.020236   0.002815   0.003557   0.002018  -0.000610  -0.003589
     2  Si   0.030125  -0.037069  -0.007798   0.008216   0.002815  -0.016770
     3  Si   0.007265  -0.007797  -0.163941  -0.022713   0.003557   0.132846
     4  Si   0.023994   0.008216  -0.022713  -0.052229   0.002018  -0.001124
     5  Si  -0.066921  -0.018750   0.027220   0.120059  -0.014708   0.014206
     6  Si  -0.060477   0.134857  -0.062389  -0.021871  -0.011722   0.242726
     7  Si  14.085223   0.030126   0.007265   0.023995  -0.020235  -0.030588
     8  Si   0.030126  13.656804  -0.067117   0.027750   0.194358  -0.016770
     9  Si   0.007265  -0.067117  14.368790  -0.098870   0.037797   0.132848
    10  Si   0.023995   0.027750  -0.098870  13.741753   0.200731  -0.001125
    11  Si  -0.020235   0.194358   0.037797   0.200731  13.326489  -0.003589
    12  Si  -0.030588  -0.016770   0.132848  -0.001125  -0.003589  13.299313
 Mulliken atomic charges:
              1
     1  Si   0.283100
     2  Si   0.092577
     3  Si  -0.154648
     4  Si   0.072287
     5  Si   0.159930
     6  Si   0.011360
     7  Si  -0.009536
     8  Si   0.092578
     9  Si  -0.154648
    10  Si   0.072285
    11  Si   0.283100
    12  Si   0.251616
 Sum of Mulliken charges=   1.00000
 Atomic charges with hydrogens summed into heavy atoms:
              1
     1  Si   0.283100
     2  Si   0.092577
     3  Si  -0.154648
     4  Si   0.072287
     5  Si   0.159930
     6  Si   0.011360
     7  Si  -0.009536
     8  Si   0.092578
     9  Si  -0.154648
    10  Si   0.072285
    11  Si   0.283100
    12  Si   0.251616
 Sum of Mulliken charges=   1.00000
          Atomic-Atomic Spin Densities.
              1          2          3          4          5          6
     1  Si  -0.010585  -0.004695   0.003689   0.004613   0.001137   0.000835
     2  Si  -0.004695   0.238059   0.050360   0.014661  -0.020746   0.003174
     3  Si   0.003689   0.050360  -0.096898  -0.018584   0.007594  -0.015291
     4  Si   0.004613   0.014661  -0.018584   0.008020   0.026437   0.002364
     5  Si   0.001137  -0.020746   0.007594   0.026437   0.614934  -0.001277
     6  Si   0.000835   0.003174  -0.015291   0.002364  -0.001277  -0.085253
     7  Si  -0.003799   0.020215  -0.014385  -0.008688   0.043854  -0.011503
     8  Si   0.000583   0.001688   0.000057  -0.001716  -0.020746   0.003173
     9  Si  -0.000766   0.000057   0.013523   0.004772   0.007593  -0.015292
    10  Si  -0.000548  -0.001715   0.004772   0.003507   0.026438   0.002364
    11  Si   0.000054   0.000583  -0.000766  -0.000548   0.001137   0.000835
    12  Si  -0.000555  -0.014641  -0.011641   0.000585  -0.009108   0.043785
              7          8          9         10         11         12
     1  Si  -0.003799   0.000583  -0.000766  -0.000548   0.000054  -0.000555
     2  Si   0.020215   0.001688   0.000057  -0.001715   0.000583  -0.014641
     3  Si  -0.014385   0.000057   0.013523   0.004772  -0.000766  -0.011641
     4  Si  -0.008688  -0.001716   0.004772   0.003507  -0.000548   0.000585
     5  Si   0.043854  -0.020746   0.007593   0.026438   0.001137  -0.009108
     6  Si  -0.011503   0.003173  -0.015292   0.002364   0.000835   0.043785
     7  Si  -0.214976   0.020214  -0.014386  -0.008690  -0.003798   0.013001
     8  Si   0.020214   0.238073   0.050362   0.014663  -0.004695  -0.014641
     9  Si  -0.014386   0.050362  -0.096905  -0.018584   0.003690  -0.011640
    10  Si  -0.008690   0.014663  -0.018584   0.008018   0.004612   0.000585
    11  Si  -0.003798  -0.004695   0.003690   0.004612  -0.010584  -0.000555
    12  Si   0.013001  -0.014641  -0.011640   0.000585  -0.000555   0.112970
 Mulliken atomic spin densities:
              1
     1  Si  -0.010036
     2  Si   0.286999
     3  Si  -0.077571
     4  Si   0.035422
     5  Si   0.677248
     6  Si  -0.072085
     7  Si  -0.182942
     8  Si   0.287013
     9  Si  -0.077575
    10  Si   0.035419
    11  Si  -0.010036
    12  Si   0.108144
 Sum of Mulliken spin densities=   1.00000
 APT atomic charges:
              1
     1  Si   0.548098
     2  Si   0.018370
     3  Si  -0.236202
     4  Si  -0.012852
     5  Si   0.167725
     6  Si  -0.110585
     7  Si  -0.012722
     8  Si   0.018366
     9  Si  -0.236202
    10  Si  -0.012855
    11  Si   0.548099
    12  Si   0.320760
 Sum of APT charges=   1.00000
 APT Atomic charges with hydrogens summed into heavy atoms:
              1
     1  Si   0.548098
     2  Si   0.018370
     3  Si  -0.236202
     4  Si  -0.012852
     5  Si   0.167725
     6  Si  -0.110585
     7  Si  -0.012722
     8  Si   0.018366
     9  Si  -0.236202
    10  Si  -0.012855
    11  Si   0.548099
    12  Si   0.320760
 Sum of APT charges=   1.00000
 Electronic spatial extent (au):  <R**2>=  4254.3922
 Charge=     1.0000 electrons
 Dipole moment (field-independent basis, Debye):
    X=     0.0000    Y=    -0.5037    Z=     0.1056  Tot=     0.5147
 Quadrupole moment (field-independent basis, Debye-Ang):
   XX=  -135.1476   YY=  -145.7454   ZZ=  -137.3566
   XY=    -0.0001   XZ=     0.0000   YZ=    -0.7580
 Traceless Quadrupole moment (field-independent basis, Debye-Ang):
   XX=     4.2689   YY=    -6.3289   ZZ=     2.0600
   XY=    -0.0001   XZ=     0.0000   YZ=    -0.7580
 Octapole moment (field-independent basis, Debye-Ang**2):
  XXX=    -0.0001  YYY=    -2.1696  ZZZ=    -1.9748  XYY=     0.0002
  XXY=    -3.2563  XXZ=     8.7720  XZZ=    -0.0001  YZZ=    -3.7252
  YYZ=     5.9369  XYZ=     0.0001
 Hexadecapole moment (field-independent basis, Debye-Ang**3):
 XXXX= -3737.2388 YYYY= -1570.0506 ZZZZ= -1366.9630 XXXY=    -0.0002
 XXXZ=     0.0002 YYYX=    -0.0005 YYYZ=   -16.6415 ZZZX=     0.0000
 ZZZY=     8.7358 XXYY=  -865.7272 XXZZ=  -819.2489 YYZZ=  -503.1349
 XXYZ=    10.8068 YYXZ=     0.0000 ZZXY=    -0.0001
 N-N= 2.077710536196D+03 E-N=-1.240310807881D+04  KE= 3.466685959477D+03
  Exact polarizability: 441.871   0.000 301.541   0.000   1.586 283.771
 Approx polarizability: 624.019   0.000 527.996   0.000   7.437 496.869
                          Isotropic Fermi Contact Couplings
        Atom                 a.u.       MegaHertz       Gauss      10(-4) cm-1
     1  Si(29)            -0.00274       2.43933       0.87041       0.81367
     2  Si(29)             0.12562    -111.64556     -39.83791     -37.24095
     3  Si(29)             0.00832      -7.39595      -2.63906      -2.46702
     4  Si(29)            -0.01699      15.09900       5.38770       5.03648
     5  Si(29)             0.52859    -469.77189    -167.62628    -156.69903
     6  Si(29)             0.01597     -14.19503      -5.06514      -4.73495
     7  Si(29)             0.00197      -1.75512      -0.62627      -0.58544
     8  Si(29)             0.12563    -111.65481     -39.84121     -37.24403
     9  Si(29)             0.00832      -7.39591      -2.63905      -2.46701
    10  Si(29)            -0.01699      15.09935       5.38782       5.03660
    11  Si(29)            -0.00274       2.43865       0.87017       0.81345
    12  Si(29)            -0.01537      13.65892       4.87384       4.55613
 --------------------------------------------------------
       Center         ----  Spin Dipole Couplings  ----
                      3XX-RR        3YY-RR        3ZZ-RR
 --------------------------------------------------------
     1   Atom        0.010798     -0.013705      0.002907
     2   Atom       -0.210706     -0.170339      0.381046
     3   Atom        0.036784      0.045723     -0.082508
     4   Atom       -0.026345     -0.034072      0.060417
     5   Atom       -0.645935     -0.305763      0.951698
     6   Atom        0.061122     -0.018794     -0.042328
     7   Atom        0.139230      0.213090     -0.352320
     8   Atom       -0.210718     -0.170348      0.381066
     9   Atom        0.036786      0.045725     -0.082511
    10   Atom       -0.026350     -0.034069      0.060419
    11   Atom        0.010793     -0.013706      0.002913
    12   Atom       -0.096249     -0.175124      0.271373
 --------------------------------------------------------
                        XY            XZ            YZ
 --------------------------------------------------------
     1   Atom        0.020015      0.010202     -0.014441
     2   Atom        0.023269      0.107793     -0.164799
     3   Atom       -0.004903      0.050284      0.058279
     4   Atom       -0.034562      0.174167     -0.140692
     5   Atom        0.000001      0.000000     -0.361495
     6   Atom        0.000001      0.000001     -0.081167
     7   Atom        0.000000      0.000000      0.163623
     8   Atom       -0.023268     -0.107793     -0.164804
     9   Atom        0.004906     -0.050288      0.058282
    10   Atom        0.034558     -0.174165     -0.140696
    11   Atom       -0.020011     -0.010202     -0.014442
    12   Atom        0.000001     -0.000001     -0.082582
 --------------------------------------------------------


 ---------------------------------------------------------------------------------
              Anisotropic Spin Dipole Couplings in Principal Axis System
 ---------------------------------------------------------------------------------

       Atom             a.u.   MegaHertz   Gauss  10(-4) cm-1        Axes

              Baa    -0.0334     3.548     1.266     1.183 -0.4525  0.7779  0.4360
     1 Si(29) Bbb     0.0112    -1.184    -0.423    -0.395  0.0802 -0.4515  0.8887
              Bcc     0.0223    -2.363    -0.843    -0.788  0.8882  0.4371  0.1419
 
              Baa    -0.2714    28.792    10.274     9.604  0.7321 -0.6219 -0.2780
     2 Si(29) Bbb    -0.1699    18.021     6.430     6.011  0.6647  0.7415  0.0917
              Bcc     0.4413   -46.813   -16.704   -15.615  0.1491 -0.2520  0.9562
 
              Baa    -0.1202    12.753     4.551     4.254 -0.2977 -0.3242  0.8979
     3 Si(29) Bbb     0.0448    -4.749    -1.695    -1.584  0.8337 -0.5466  0.0791
              Bcc     0.0754    -8.004    -2.856    -2.670  0.4652  0.7721  0.4330
 
              Baa    -0.1933    20.505     7.317     6.840 -0.5959  0.4552  0.6615
     4 Si(29) Bbb    -0.0648     6.871     2.452     2.292  0.6200  0.7843  0.0188
              Bcc     0.2581   -27.376    -9.768    -9.132  0.5103 -0.4214  0.7497
 
              Baa    -0.6459    68.523    24.451    22.857  1.0000  0.0000  0.0000
     5 Si(29) Bbb    -0.4023    42.675    15.228    14.235  0.0000  0.9662  0.2580
              Bcc     1.0482  -111.199   -39.678   -37.092  0.0000 -0.2580  0.9662
 
              Baa    -0.1126    11.943     4.261     3.984  0.0000  0.6544  0.7561
     6 Si(29) Bbb     0.0515    -5.459    -1.948    -1.821  0.0000  0.7561 -0.6544
              Bcc     0.0611    -6.484    -2.314    -2.163  1.0000  0.0000  0.0000
 
              Baa    -0.3963    42.036    15.000    14.022  0.0000 -0.2593  0.9658
     7 Si(29) Bbb     0.1392   -14.770    -5.270    -4.927  1.0000  0.0000  0.0000
              Bcc     0.2570   -27.266    -9.729    -9.095  0.0000  0.9658  0.2593
 
              Baa    -0.2714    28.793    10.274     9.604  0.7321  0.6219  0.2780
     8 Si(29) Bbb    -0.1699    18.022     6.431     6.011 -0.6647  0.7415  0.0918
              Bcc     0.4413   -46.815   -16.705   -15.616 -0.1491 -0.2520  0.9562
 
              Baa    -0.1202    12.754     4.551     4.254  0.2977 -0.3242  0.8979
     9 Si(29) Bbb     0.0448    -4.750    -1.695    -1.584  0.8337  0.5466 -0.0791
              Bcc     0.0755    -8.004    -2.856    -2.670 -0.4651  0.7721  0.4330
 
              Baa    -0.1933    20.505     7.317     6.840  0.5959  0.4552  0.6615
    10 Si(29) Bbb    -0.0648     6.871     2.452     2.292 -0.6201  0.7843  0.0188
              Bcc     0.2581   -27.376    -9.768    -9.132 -0.5103 -0.4214  0.7497
 
              Baa    -0.0334     3.548     1.266     1.183  0.4525  0.7779  0.4360
    11 Si(29) Bbb     0.0112    -1.185    -0.423    -0.395 -0.0801 -0.4515  0.8887
              Bcc     0.0223    -2.363    -0.843    -0.788  0.8882 -0.4370 -0.1420
 
              Baa    -0.1899    20.146     7.189     6.720  0.0000  0.9843  0.1762
    12 Si(29) Bbb    -0.0962    10.210     3.643     3.406  1.0000  0.0000  0.0000
              Bcc     0.2862   -30.357   -10.832   -10.126  0.0000 -0.1762  0.9843
 

 ---------------------------------------------------------------------------------

 Full mass-weighted force constant matrix:
 Low frequencies ---  -23.6610  -21.5338   -0.0014    0.0001    0.0010   24.2016
 Low frequencies ---   78.7437  103.0701  119.5069
 Diagonal vibrational polarizability:
       30.6351820       7.0118079       5.2550277
 Diagonal vibrational hyperpolarizability:
       -0.0293602     -29.8749763      30.8406721
 Harmonic frequencies (cm**-1), IR intensities (KM/Mole), Raman scattering
 activities (A**4/AMU), depolarization ratios for plane and unpolarized
 incident light, reduced masses (AMU), force constants (mDyne/A),
 and normal coordinates:
                     1                      2                      3
                     A                      A                      A
 Frequencies --    73.8311               102.9460               119.4523
 Red. masses --    27.9769                27.9769                27.9769
 Frc consts  --     0.0899                 0.1747                 0.2352
 IR Inten    --     0.5486                 4.2935                 0.0621
 Raman Activ --     1.4019                 5.5014                 8.8052
 Depolar (P) --     0.7328                 0.7500                 0.3369
 Depolar (U) --     0.8458                 0.8571                 0.5040
 Atom AN      X      Y      Z        X      Y      Z        X      Y      Z
   1  14     0.02  -0.24   0.05     0.00   0.02  -0.08     0.07   0.30   0.27
   2  14    -0.02  -0.12  -0.04     0.05  -0.14   0.32    -0.09  -0.10   0.04
   3  14     0.08   0.06   0.13     0.08   0.10   0.41    -0.02  -0.02   0.20
   4  14    -0.06   0.02  -0.03    -0.01   0.11  -0.29     0.26   0.02  -0.07
   5  14     0.00   0.61   0.17    -0.41   0.00   0.00     0.00  -0.14  -0.08
   6  14     0.00   0.28  -0.08     0.03   0.00   0.00     0.00   0.04  -0.04
   7  14     0.00  -0.07   0.16     0.09   0.00   0.00     0.00  -0.09  -0.42
   8  14     0.02  -0.12  -0.04     0.05   0.14  -0.32     0.09  -0.10   0.04
   9  14    -0.08   0.06   0.13     0.08  -0.10  -0.41     0.02  -0.02   0.20
  10  14     0.06   0.02  -0.03    -0.01  -0.11   0.29    -0.26   0.02  -0.07
  11  14    -0.02  -0.24   0.05     0.00  -0.02   0.08    -0.07   0.30   0.27
  12  14     0.00  -0.24  -0.46     0.03   0.00   0.00     0.00  -0.21  -0.36
                     4                      5                      6
                     A                      A                      A
 Frequencies --   155.3023               167.0566               184.4718
 Red. masses --    27.9769                27.9769                27.9769
 Frc consts  --     0.3976                 0.4600                 0.5609
 IR Inten    --     0.9043                 0.1576                 0.2841
 Raman Activ --     5.9378                 4.8960                 5.7879
 Depolar (P) --     0.7500                 0.4069                 0.7165
 Depolar (U) --     0.8571                 0.5784                 0.8348
 Atom AN      X      Y      Z        X      Y      Z        X      Y      Z
   1  14     0.07  -0.11   0.11    -0.06  -0.19   0.44    -0.04   0.27   0.06
   2  14    -0.13   0.00  -0.18    -0.26   0.13  -0.03    -0.05  -0.10  -0.16
   3  14     0.33   0.32  -0.14     0.20   0.07  -0.21    -0.13  -0.10  -0.27
   4  14    -0.21   0.32  -0.17    -0.09   0.07  -0.11     0.15  -0.13   0.26
   5  14     0.02   0.00   0.00     0.00  -0.06  -0.05     0.00   0.42   0.07
   6  14    -0.03   0.00   0.00     0.00  -0.02  -0.21     0.00  -0.04  -0.09
   7  14    -0.15   0.00   0.00     0.00  -0.20  -0.04     0.00  -0.35   0.12
   8  14    -0.13   0.00   0.18     0.26   0.13  -0.03     0.05  -0.10  -0.16
   9  14     0.33  -0.32   0.14    -0.20   0.07  -0.21     0.13  -0.10  -0.27
  10  14    -0.21  -0.32   0.17     0.09   0.07  -0.11    -0.15  -0.13   0.26
  11  14     0.07   0.11  -0.11     0.06  -0.19   0.44     0.04   0.27   0.06
  12  14     0.04   0.00   0.00     0.00   0.12   0.14     0.00   0.08   0.13
                     7                      8                      9
                     A                      A                      A
 Frequencies --   186.7894               194.0186               207.3534
 Red. masses --    27.9769                27.9769                27.9769
 Frc consts  --     0.5751                 0.6205                 0.7087
 IR Inten    --     0.2578                 0.9277                 0.5113
 Raman Activ --     0.7225                22.8339                 5.1041
 Depolar (P) --     0.7500                 0.4541                 0.7500
 Depolar (U) --     0.8571                 0.6246                 0.8571
 Atom AN      X      Y      Z        X      Y      Z        X      Y      Z
   1  14     0.05   0.20  -0.07     0.11  -0.12   0.12    -0.04  -0.32  -0.26
   2  14    -0.01  -0.52  -0.10     0.13   0.07   0.04     0.07  -0.02   0.13
   3  14     0.00   0.07  -0.01     0.16  -0.12  -0.10    -0.05   0.22   0.16
   4  14     0.14   0.09   0.23     0.12  -0.18   0.14     0.00   0.09   0.18
   5  14    -0.09   0.00   0.00     0.00   0.35  -0.23     0.47   0.00   0.00
   6  14     0.15   0.00   0.00     0.00  -0.15   0.04    -0.02   0.00   0.00
   7  14    -0.38   0.00   0.00     0.00   0.54  -0.37    -0.01   0.00   0.00
   8  14    -0.01   0.52   0.10    -0.13   0.07   0.04     0.07   0.02  -0.13
   9  14     0.00  -0.07   0.01    -0.16  -0.12  -0.10    -0.05  -0.22  -0.16
  10  14     0.14  -0.09  -0.23    -0.12  -0.18   0.14     0.00  -0.09  -0.18
  11  14     0.05  -0.20   0.07    -0.11  -0.12   0.12    -0.04   0.32   0.26
  12  14    -0.06   0.00   0.00     0.00  -0.06   0.13    -0.40   0.00   0.00
                    10                     11                     12
                     A                      A                      A
 Frequencies --   220.0109               230.0037               231.6275
 Red. masses --    27.9769                27.9769                27.9769
 Frc consts  --     0.7979                 0.8720                 0.8844
 IR Inten    --     0.1309                 0.0622                 0.2292
 Raman Activ --     0.0117                12.7019                11.8177
 Depolar (P) --     0.7500                 0.6184                 0.7208
 Depolar (U) --     0.8571                 0.7642                 0.8377
 Atom AN      X      Y      Z        X      Y      Z        X      Y      Z
   1  14    -0.15   0.02   0.27     0.31   0.12  -0.06     0.11  -0.18  -0.08
   2  14     0.03  -0.20   0.10     0.12   0.03  -0.06     0.00  -0.03  -0.23
   3  14    -0.20   0.01  -0.15     0.35   0.10  -0.13     0.06   0.07   0.04
   4  14    -0.03   0.03  -0.30     0.10   0.16  -0.05     0.13  -0.03   0.14
   5  14     0.32   0.00   0.00     0.00  -0.04   0.29     0.00  -0.17   0.49
   6  14     0.46   0.00   0.00     0.00  -0.32   0.05     0.00   0.39   0.03
   7  14     0.17   0.00   0.00     0.00  -0.09   0.18     0.00  -0.08  -0.44
   8  14     0.03   0.20  -0.10    -0.12   0.03  -0.06     0.00  -0.03  -0.23
   9  14    -0.20  -0.01   0.15    -0.35   0.10  -0.13    -0.06   0.07   0.04
  10  14    -0.03  -0.03   0.30    -0.10   0.16  -0.05    -0.13  -0.03   0.14
  11  14    -0.15  -0.02  -0.27    -0.31   0.12  -0.06    -0.11  -0.18  -0.08
  12  14    -0.24   0.00   0.00     0.00  -0.36   0.07     0.00   0.20   0.17
                    13                     14                     15
                     A                      A                      A
 Frequencies --   247.7968               248.2166               258.0396
 Red. masses --    27.9769                27.9769                27.9769
 Frc consts  --     1.0121                 1.0156                 1.0975
 IR Inten    --     0.0062                 0.0799                 3.9614
 Raman Activ --    18.3909                30.0514                10.1140
 Depolar (P) --     0.7500                 0.1228                 0.7500
 Depolar (U) --     0.8571                 0.2188                 0.8571
 Atom AN      X      Y      Z        X      Y      Z        X      Y      Z
   1  14    -0.05  -0.19  -0.10    -0.14   0.04  -0.02     0.09   0.13  -0.15
   2  14    -0.31  -0.13   0.04    -0.01  -0.12   0.23    -0.13  -0.08  -0.23
   3  14     0.02  -0.04  -0.17    -0.04   0.06  -0.06    -0.14  -0.15   0.29
   4  14     0.44  -0.02  -0.23     0.07  -0.10  -0.13    -0.12   0.06  -0.22
   5  14     0.02   0.00   0.00     0.00   0.04   0.55     0.51   0.00   0.00
   6  14    -0.33   0.00   0.00     0.00  -0.32  -0.44    -0.14   0.00   0.00
   7  14     0.07   0.00   0.00     0.00   0.26  -0.04    -0.07   0.00   0.00
   8  14    -0.31   0.13  -0.04     0.01  -0.12   0.23    -0.13   0.08   0.23
   9  14     0.02   0.04   0.17     0.04   0.06  -0.06    -0.14   0.15  -0.29
  10  14     0.44   0.02   0.23    -0.07  -0.10  -0.13    -0.12  -0.06   0.22
  11  14    -0.05   0.19   0.10     0.14   0.04  -0.02     0.09  -0.13   0.15
  12  14     0.02   0.00   0.00     0.00   0.25  -0.10     0.30   0.00   0.00
                    16                     17                     18
                     A                      A                      A
 Frequencies --   272.6489               273.2745               292.4696
 Red. masses --    27.9769                27.9769                27.9769
 Frc consts  --     1.2253                 1.2310                 1.4100
 IR Inten    --     1.0881                 0.0014                 0.1977
 Raman Activ --     7.3853                 2.7947                28.1309
 Depolar (P) --     0.7416                 0.7500                 0.2655
 Depolar (U) --     0.8516                 0.8571                 0.4197
 Atom AN      X      Y      Z        X      Y      Z        X      Y      Z
   1  14    -0.04   0.07  -0.09     0.10  -0.21   0.28    -0.13   0.12   0.06
   2  14    -0.09   0.43   0.04     0.18  -0.05  -0.39    -0.14  -0.19   0.01
   3  14    -0.05  -0.21   0.12    -0.14   0.00   0.23     0.02  -0.07  -0.28
   4  14    -0.05  -0.19  -0.25     0.14   0.02  -0.03    -0.04  -0.06  -0.19
   5  14     0.00   0.22   0.25    -0.22   0.00   0.00     0.00  -0.08   0.20
   6  14     0.00   0.00   0.08    -0.19   0.00   0.00     0.00   0.37   0.42
   7  14     0.00  -0.21  -0.16     0.11   0.00   0.00     0.00   0.36   0.10
   8  14     0.09   0.43   0.04     0.18   0.05   0.39     0.14  -0.19   0.01
   9  14     0.05  -0.21   0.12    -0.14   0.00  -0.23    -0.02  -0.07  -0.28
  10  14     0.05  -0.19  -0.25     0.14  -0.03   0.03     0.04  -0.06  -0.19
  11  14     0.04   0.07  -0.09     0.11   0.21  -0.28     0.13   0.12   0.06
  12  14     0.00  -0.22   0.17    -0.28   0.00   0.00     0.00  -0.25   0.08
                    19                     20                     21
                     A                      A                      A
 Frequencies --   311.3715               313.6176               324.2737
 Red. masses --    27.9769                27.9769                27.9769
 Frc consts  --     1.5981                 1.6213                 1.7333
 IR Inten    --     0.0060                 1.8006                 0.0326
 Raman Activ --     4.6425                16.7768               117.1915
 Depolar (P) --     0.7500                 0.4024                 0.0025
 Depolar (U) --     0.8571                 0.5739                 0.0050
 Atom AN      X      Y      Z        X      Y      Z        X      Y      Z
   1  14    -0.02  -0.14   0.00     0.27   0.04   0.13     0.10  -0.11  -0.12
   2  14     0.09   0.01   0.10     0.07  -0.04  -0.18     0.03   0.05   0.41
   3  14    -0.22  -0.22  -0.10    -0.01  -0.18   0.16     0.08   0.00  -0.18
   4  14     0.02   0.54   0.13     0.12  -0.14  -0.25     0.34  -0.06  -0.08
   5  14    -0.09   0.00   0.00     0.00  -0.03  -0.06     0.00   0.01  -0.15
   6  14    -0.02   0.00   0.00     0.00   0.22  -0.25     0.00   0.28   0.12
   7  14     0.07   0.00   0.00     0.00   0.18   0.43     0.00  -0.28   0.08
   8  14     0.09  -0.01  -0.10    -0.07  -0.04  -0.18    -0.03   0.05   0.41
   9  14    -0.22   0.22   0.10     0.01  -0.18   0.16    -0.08   0.00  -0.18
  10  14     0.02  -0.54  -0.13    -0.12  -0.14  -0.25    -0.34  -0.06  -0.08
  11  14    -0.02   0.14   0.00    -0.27   0.04   0.13    -0.10  -0.11  -0.12
  12  14     0.29   0.00   0.00     0.00   0.26   0.16     0.00   0.22  -0.10
                    22                     23                     24
                     A                      A                      A
 Frequencies --   353.9195               354.8507               365.9094
 Red. masses --    27.9769                27.9769                27.9769
 Frc consts  --     2.0647                 2.0756                 2.2070
 IR Inten    --     3.6944                13.7494                14.0982
 Raman Activ --    44.5078                 3.3567                 0.7003
 Depolar (P) --     0.1171                 0.7500                 0.7500
 Depolar (U) --     0.2097                 0.8571                 0.8571
 Atom AN      X      Y      Z        X      Y      Z        X      Y      Z
   1  14    -0.06   0.05   0.13    -0.21  -0.07  -0.06     0.41  -0.03  -0.03
   2  14     0.21   0.09  -0.15    -0.21   0.22  -0.19    -0.22   0.14   0.07
   3  14     0.08   0.24  -0.01    -0.08   0.14   0.18     0.03  -0.27   0.02
   4  14    -0.06  -0.36  -0.07     0.20   0.03   0.06     0.01   0.08  -0.04
   5  14     0.00  -0.06   0.05    -0.12   0.00   0.00    -0.07   0.00   0.00
   6  14     0.00  -0.16   0.41     0.60   0.00   0.00     0.30   0.00   0.00
   7  14     0.00  -0.09   0.07    -0.08   0.00   0.00    -0.24   0.00   0.00
   8  14    -0.21   0.09  -0.15    -0.21  -0.22   0.19    -0.22  -0.14  -0.07
   9  14    -0.08   0.24  -0.01    -0.08  -0.14  -0.18     0.03   0.27  -0.02
  10  14     0.06  -0.36  -0.07     0.20  -0.03  -0.06     0.01  -0.08   0.04
  11  14     0.06   0.05   0.13    -0.21   0.07   0.06     0.41   0.03   0.03
  12  14     0.00   0.29  -0.33     0.22   0.00   0.00    -0.44   0.00   0.00
                    25                     26                     27
                     A                      A                      A
 Frequencies --   369.5995               384.2695               409.7689
 Red. masses --    27.9769                27.9769                27.9769
 Frc consts  --     2.2517                 2.4340                 2.7678
 IR Inten    --     2.7086                15.8341                10.1357
 Raman Activ --    51.1447                14.7550                 8.1532
 Depolar (P) --     0.1256                 0.3658                 0.5012
 Depolar (U) --     0.2231                 0.5357                 0.6678
 Atom AN      X      Y      Z        X      Y      Z        X      Y      Z
   1  14     0.15   0.22  -0.04    -0.04   0.03  -0.21     0.31   0.04  -0.06
   2  14     0.08  -0.13   0.20    -0.45  -0.01  -0.06    -0.31  -0.02   0.03
   3  14     0.19   0.07  -0.01     0.19   0.23   0.16     0.02  -0.25  -0.03
   4  14    -0.40  -0.22   0.05     0.15  -0.24   0.09    -0.20   0.08   0.06
   5  14     0.00  -0.01  -0.08     0.00  -0.01  -0.17     0.00   0.05   0.10
   6  14     0.00   0.29  -0.28     0.00  -0.07  -0.05     0.00  -0.19   0.27
   7  14     0.00  -0.14  -0.17     0.00   0.12   0.15     0.00   0.05  -0.06
   8  14    -0.08  -0.13   0.20     0.45  -0.01  -0.06     0.31  -0.02   0.03
   9  14    -0.19   0.07  -0.01    -0.19   0.23   0.16    -0.02  -0.25  -0.03
  10  14     0.40  -0.22   0.05    -0.15  -0.24   0.09     0.20   0.08   0.06
  11  14    -0.15   0.22  -0.04     0.04   0.03  -0.21    -0.31   0.04  -0.06
  12  14     0.00  -0.02   0.13     0.00  -0.06   0.09     0.00   0.39  -0.31
                    28                     29                     30
                     A                      A                      A
 Frequencies --   419.5042               505.4838               536.7326
 Red. masses --    27.9769                27.9769                27.9769
 Frc consts  --     2.9008                 4.2118                 4.7486
 IR Inten    --    13.6210                82.3298                15.2580
 Raman Activ --     7.2862                 2.4693                54.7590
 Depolar (P) --     0.7500                 0.7500                 0.1449
 Depolar (U) --     0.8571                 0.8571                 0.2531
 Atom AN      X      Y      Z        X      Y      Z        X      Y      Z
   1  14     0.13   0.01  -0.05    -0.37   0.08  -0.03     0.35  -0.10   0.07
   2  14    -0.30  -0.17  -0.06     0.02  -0.02  -0.12    -0.09   0.03   0.06
   3  14    -0.01   0.05   0.02     0.38  -0.34   0.10    -0.44   0.30  -0.12
   4  14    -0.16   0.00   0.20     0.02   0.13   0.04    -0.04  -0.11  -0.04
   5  14    -0.10   0.00   0.00     0.06   0.00   0.00     0.00  -0.01   0.02
   6  14     0.07   0.00   0.00     0.02   0.00   0.00     0.00  -0.05  -0.01
   7  14     0.75   0.00   0.00     0.14   0.00   0.00     0.00   0.05  -0.02
   8  14    -0.30   0.17   0.06     0.02   0.02   0.12     0.09   0.03   0.06
   9  14    -0.01  -0.05  -0.02     0.38   0.34  -0.10     0.44   0.30  -0.12
  10  14    -0.16   0.00  -0.20     0.02  -0.13  -0.04     0.04  -0.11  -0.04
  11  14     0.13  -0.01   0.05    -0.37  -0.08   0.03    -0.35  -0.10   0.07
  12  14    -0.03   0.00   0.00    -0.30   0.00   0.00     0.00  -0.22   0.07

 -------------------
 - Thermochemistry -
 -------------------
 Temperature   298.150 Kelvin.  Pressure   1.00000 Atm.
 Atom  1 has atomic number 14 and mass  27.97693
 Atom  2 has atomic number 14 and mass  27.97693
 Atom  3 has atomic number 14 and mass  27.97693
 Atom  4 has atomic number 14 and mass  27.97693
 Atom  5 has atomic number 14 and mass  27.97693
 Atom  6 has atomic number 14 and mass  27.97693
 Atom  7 has atomic number 14 and mass  27.97693
 Atom  8 has atomic number 14 and mass  27.97693
 Atom  9 has atomic number 14 and mass  27.97693
 Atom 10 has atomic number 14 and mass  27.97693
 Atom 11 has atomic number 14 and mass  27.97693
 Atom 12 has atomic number 14 and mass  27.97693
 Molecular mass:   335.72314 amu.
 Principal axes and moments of inertia in atomic units:
                           1         2         3
     EIGENVALUES --  3274.826516169.424846316.48690
           X            1.00000   0.00000   0.00000
           Y            0.00000   1.00000   0.00000
           Z            0.00000   0.00000   1.00000
 This molecule is an asymmetric top.
 Rotational symmetry number  1.
 Warning -- assumption of classical behavior for rotation
           may cause significant error
 Rotational temperatures (Kelvin)      0.02645     0.01404     0.01371
 Rotational constants (GHZ):           0.55110     0.29253     0.28572
 Zero-point vibrational energy      49732.4 (Joules/Mol)
                                   11.88633 (Kcal/Mol)
 Warning -- explicit consideration of  30 degrees of freedom as
           vibrations may cause significant error
 Vibrational temperatures:    106.23   148.12   171.87   223.45   240.36
          (Kelvin)            265.41   268.75   279.15   298.33   316.55
                              330.92   333.26   356.52   357.13   371.26
                              392.28   393.18   420.80   447.99   451.23
                              466.56   509.21   510.55   526.46   531.77
                              552.88   589.57   603.57   727.28   772.24
 
 Zero-point correction=                           0.018942 (Hartree/Particle)
 Thermal correction to Energy=                    0.035806
 Thermal correction to Enthalpy=                  0.036750
 Thermal correction to Gibbs Free Energy=        -0.025182
 Sum of electronic and zero-point Energies=          -3466.730517
 Sum of electronic and thermal Energies=             -3466.713653
 Sum of electronic and thermal Enthalpies=           -3466.712709
 Sum of electronic and thermal Free Energies=        -3466.774641
 
                     E (Thermal)             CV                S
                      KCal/Mol        Cal/Mol-Kelvin    Cal/Mol-Kelvin
 Total                   22.469             56.722            130.347
 Electronic               0.000              0.000              1.377
 Translational            0.889              2.981             43.328
 Rotational               0.889              2.981             33.212
 Vibrational             20.691             50.760             52.430
 Vibration  1             0.599              1.966              4.049
 Vibration  2             0.605              1.947              3.398
 Vibration  3             0.609              1.933              3.109
 Vibration  4             0.620              1.897              2.606
 Vibration  5             0.624              1.883              2.468
 Vibration  6             0.631              1.861              2.283
 Vibration  7             0.632              1.858              2.259
 Vibration  8             0.635              1.848              2.189
 Vibration  9             0.641              1.829              2.067
 Vibration 10             0.647              1.811              1.959
 Vibration 11             0.652              1.795              1.879
 Vibration 12             0.653              1.793              1.866
 Vibration 13             0.661              1.766              1.746
 Vibration 14             0.662              1.766              1.743
 Vibration 15             0.667              1.749              1.675
 Vibration 16             0.676              1.724              1.579
 Vibration 17             0.676              1.723              1.575
 Vibration 18             0.688              1.688              1.460
 Vibration 19             0.700              1.652              1.355
 Vibration 20             0.701              1.648              1.343
 Vibration 21             0.709              1.627              1.288
 Vibration 22             0.730              1.567              1.149
 Vibration 23             0.731              1.565              1.145
 Vibration 24             0.739              1.542              1.097
 Vibration 25             0.742              1.535              1.081
 Vibration 26             0.753              1.504              1.022
 Vibration 27             0.774              1.449              0.927
 Vibration 28             0.782              1.428              0.894
 Vibration 29             0.861              1.238              0.645
 Vibration 30             0.892              1.169              0.572
                       Q            Log10(Q)             Ln(Q)
 Total Bot       0.382754D+12         11.582920         26.670658
 Total V=0       0.197539D+21         20.295652         46.732466
 Vib (Bot)       0.195732D-03         -3.708338         -8.538764
 Vib (Bot)  1    0.279195D+01          0.445908          1.026741
 Vib (Bot)  2    0.199239D+01          0.299375          0.689337
 Vib (Bot)  3    0.171100D+01          0.233251          0.537081
 Vib (Bot)  4    0.130361D+01          0.115148          0.265137
 Vib (Bot)  5    0.120748D+01          0.081881          0.188538
 Vib (Bot)  6    0.108709D+01          0.036265          0.083504
 Vib (Bot)  7    0.107272D+01          0.030485          0.070195
 Vib (Bot)  8    0.103003D+01          0.012850          0.029588
 Vib (Bot)  9    0.958874D+00         -0.018238         -0.041996
 Vib (Bot) 10    0.899060D+00         -0.046212         -0.106406
 Vib (Bot) 11    0.856326D+00         -0.067361         -0.155105
 Vib (Bot) 12    0.849717D+00         -0.070726         -0.162852
 Vib (Bot) 13    0.788447D+00         -0.103227         -0.237690
 Vib (Bot) 14    0.786958D+00         -0.104048         -0.239580
 Vib (Bot) 15    0.753444D+00         -0.122949         -0.283101
 Vib (Bot) 16    0.707868D+00         -0.150047         -0.345497
 Vib (Bot) 17    0.706020D+00         -0.151183         -0.348111
 Vib (Bot) 18    0.652974D+00         -0.185104         -0.426218
 Vib (Bot) 19    0.606806D+00         -0.216950         -0.499546
 Vib (Bot) 20    0.601670D+00         -0.220642         -0.508046
 Vib (Bot) 21    0.578215D+00         -0.237910         -0.547809
 Vib (Bot) 22    0.519973D+00         -0.284019         -0.653979
 Vib (Bot) 23    0.518291D+00         -0.285426         -0.657218
 Vib (Bot) 24    0.498936D+00         -0.301955         -0.695277
 Vib (Bot) 25    0.492719D+00         -0.307400         -0.707816
 Vib (Bot) 26    0.469108D+00         -0.328727         -0.756922
 Vib (Bot) 27    0.431836D+00         -0.364682         -0.839710
 Vib (Bot) 28    0.418723D+00         -0.378074         -0.870547
 Vib (Bot) 29    0.323554D+00         -0.490053         -1.128388
 Vib (Bot) 30    0.296095D+00         -0.528568         -1.217073
 Vib (V=0)       0.101017D+06          5.004394         11.523044
 Vib (V=0)  1    0.333637D+01          0.523274          1.204883
 Vib (V=0)  2    0.255418D+01          0.407251          0.937730
 Vib (V=0)  3    0.228256D+01          0.358423          0.825300
 Vib (V=0)  4    0.189621D+01          0.277886          0.639856
 Vib (V=0)  5    0.180691D+01          0.256937          0.591619
 Vib (V=0)  6    0.169656D+01          0.229570          0.528605
 Vib (V=0)  7    0.168352D+01          0.226219          0.520888
 Vib (V=0)  8    0.164497D+01          0.216159          0.497724
 Vib (V=0)  9    0.158141D+01          0.199043          0.458314
 Vib (V=0) 10    0.152874D+01          0.184334          0.424445
 Vib (V=0) 11    0.149161D+01          0.173656          0.399857
 Vib (V=0) 12    0.148591D+01          0.171992          0.396027
 Vib (V=0) 13    0.143362D+01          0.156434          0.360204
 Vib (V=0) 14    0.143236D+01          0.156054          0.359327
 Vib (V=0) 15    0.140426D+01          0.147446          0.339507
 Vib (V=0) 16    0.136665D+01          0.135656          0.312361
 Vib (V=0) 17    0.136514D+01          0.135177          0.311256
 Vib (V=0) 18    0.132242D+01          0.121369          0.279463
 Vib (V=0) 19    0.128627D+01          0.109331          0.251743
 Vib (V=0) 20    0.128231D+01          0.107993          0.248662
 Vib (V=0) 21    0.126442D+01          0.101890          0.234611
 Vib (V=0) 22    0.122137D+01          0.086846          0.199971
 Vib (V=0) 23    0.122016D+01          0.086416          0.198979
 Vib (V=0) 24    0.120636D+01          0.081475          0.187604
 Vib (V=0) 25    0.120198D+01          0.079896          0.183968
 Vib (V=0) 26    0.118561D+01          0.073942          0.170258
 Vib (V=0) 27    0.116067D+01          0.064708          0.148996
 Vib (V=0) 28    0.115217D+01          0.061517          0.141649
 Vib (V=0) 29    0.109556D+01          0.039635          0.091262
 Vib (V=0) 30    0.108110D+01          0.033864          0.077975
 Electronic      0.200000D+01          0.301030          0.693147
 Translational   0.241784D+09          8.383427         19.303554
 Rotational      0.404390D+07          6.606801         15.212721
 ***** Axes restored to original set *****
 -------------------------------------------------------------------
 Center     Atomic                   Forces (Hartrees/Bohr)
 Number     Number              X              Y              Z
 -------------------------------------------------------------------
    1         14           0.001318161    0.001333249   -0.003339762
    2         14          -0.008802102    0.001612003   -0.010006229
    3         14           0.002751116    0.004737739   -0.003177964
    4         14           0.002422375   -0.007702242   -0.006147097
    5         14          -0.000000160   -0.012065773    0.028130277
    6         14           0.000000152   -0.002615278    0.007091999
    7         14          -0.000000701    0.005008314    0.002802915
    8         14           0.008802099    0.001612163   -0.010006789
    9         14          -0.002750804    0.004738339   -0.003176974
   10         14          -0.002422027   -0.007703007   -0.006146875
   11         14          -0.001318006    0.001333095   -0.003339936
   12         14          -0.000000104    0.009711399    0.007316433
 -------------------------------------------------------------------
 Cartesian Forces:  Max     0.028130277 RMS     0.007170067
 ------------------------------------------------------------------------
           Internal Coordinate Forces (Hartree/Bohr or radian)
 Cent Atom N1     Length/X     N2     Alpha/Y      N3      Beta/Z       J
 ------------------------------------------------------------------------
   1  Si        0.001318(   1)      0.001333(  13)     -0.003340(  25)
   2  Si       -0.008802(   2)      0.001612(  14)     -0.010006(  26)
   3  Si        0.002751(   3)      0.004738(  15)     -0.003178(  27)
   4  Si        0.002422(   4)     -0.007702(  16)     -0.006147(  28)
   5  Si        0.000000(   5)     -0.012066(  17)      0.028130(  29)
   6  Si        0.000000(   6)     -0.002615(  18)      0.007092(  30)
   7  Si       -0.000001(   7)      0.005008(  19)      0.002803(  31)
   8  Si        0.008802(   8)      0.001612(  20)     -0.010007(  32)
   9  Si       -0.002751(   9)      0.004738(  21)     -0.003177(  33)
  10  Si       -0.002422(  10)     -0.007703(  22)     -0.006147(  34)
  11  Si       -0.001318(  11)      0.001333(  23)     -0.003340(  35)
  12  Si        0.000000(  12)      0.009711(  24)      0.007316(  36)
 ------------------------------------------------------------------------
 Internal  Forces:  Max     0.028130277 RMS     0.007170067

 GradGradGradGradGradGradGradGradGradGradGradGradGradGradGradGradGradGrad
 Berny optimization.
 Search for a local minimum.
 Step number   1 out of a maximum of   2
 All quantities printed in internal units (Hartrees-Bohrs-Radians)
 Second derivative matrix not updated -- analytic derivatives used.
     Eigenvalues ---    0.00577   0.01122   0.01511   0.02554   0.02955
     Eigenvalues ---    0.03603   0.03694   0.03985   0.04552   0.05125
     Eigenvalues ---    0.05601   0.05680   0.06501   0.06523   0.07050
     Eigenvalues ---    0.07870   0.07907   0.09056   0.10265   0.10413
     Eigenvalues ---    0.11133   0.13262   0.13332   0.14176   0.14463
     Eigenvalues ---    0.15634   0.17777   0.18632   0.27052   0.30501
 Quadratic step=1.846D+00 exceeds max=3.000D-01 adjusted using Lamda=-7.864D-02.
 Angle between NR and scaled steps=  45.53 degrees.
 Angle between quadratic step and forces=  15.78 degrees.
 Linear search not attempted -- first point.
 TrRot=  0.000000  0.000000  0.000000  0.000000  0.000000  0.000000
 Variable       Old X    -DE/DX   Delta X   Delta X   Delta X     New X
                                 (Linear)    (Quad)   (Total)
    X1        6.93752   0.00132   0.00000   0.00153   0.00153   6.93905
    Y1       -0.29984   0.00133   0.00000   0.00999   0.00999  -0.28984
    Z1        0.12254  -0.00334   0.00000  -0.03182  -0.03182   0.09072
    X2        3.47414  -0.00880   0.00000  -0.04087  -0.04087   3.43328
    Y2        0.06323   0.00161   0.00000   0.01694   0.01694   0.08017
    Z2        3.29567  -0.01001   0.00000  -0.05791  -0.05791   3.23776
    X3        3.26153   0.00275   0.00000   0.01877   0.01877   3.28030
    Y3        1.50428   0.00474   0.00000   0.02607   0.02607   1.53035
    Z3       -1.36014  -0.00318   0.00000  -0.03767  -0.03767  -1.39782
    X4        3.38721   0.00242   0.00000   0.01000   0.01000   3.39721
    Y4       -3.17113  -0.00770   0.00000  -0.03421  -0.03421  -3.20534
    Z4       -1.11269  -0.00615   0.00000  -0.03654  -0.03654  -1.14923
    X5        0.00000   0.00000   0.00000   0.00000   0.00000   0.00000
    Y5       -1.17899  -0.01207   0.00000  -0.11462  -0.11462  -1.29361
    Z5       -3.82955   0.02813   0.00000   0.19351   0.19351  -3.63604
    X6        0.00000   0.00000   0.00000   0.00000   0.00000   0.00000
    Y6        2.98045  -0.00262   0.00000  -0.01610  -0.01610   2.96435
    Z6        2.22010   0.00709   0.00000   0.02865   0.02865   2.24876
    X7        0.00001   0.00000   0.00000   0.00000   0.00000   0.00001
    Y7       -2.46467   0.00501   0.00000   0.01398   0.01398  -2.45069
    Z7        1.90091   0.00280   0.00000   0.01206   0.01206   1.91297
    X8       -3.47413   0.00880   0.00000   0.04087   0.04087  -3.43327
    Y8        0.06322   0.00161   0.00000   0.01694   0.01694   0.08016
    Z8        3.29567  -0.01001   0.00000  -0.05791  -0.05791   3.23776
    X9       -3.26154  -0.00275   0.00000  -0.01877  -0.01877  -3.28031
    Y9        1.50427   0.00474   0.00000   0.02608   0.02608   1.53035
    Z9       -1.36016  -0.00318   0.00000  -0.03766  -0.03766  -1.39782
   X10       -3.38721  -0.00242   0.00000  -0.01000  -0.01000  -3.39721
   Y10       -3.17113  -0.00770   0.00000  -0.03422  -0.03422  -3.20534
   Z10       -1.11268  -0.00615   0.00000  -0.03654  -0.03654  -1.14922
   X11       -6.93752  -0.00132   0.00000  -0.00153  -0.00153  -6.93905
   Y11       -0.29984   0.00133   0.00000   0.00999   0.00999  -0.28985
   Z11        0.12256  -0.00334   0.00000  -0.03183  -0.03183   0.09073
   X12       -0.00001   0.00000   0.00000   0.00000   0.00000  -0.00001
   Y12        4.47015   0.00971   0.00000   0.07915   0.07915   4.54930
   Z12       -2.18223   0.00732   0.00000   0.09366   0.09366  -2.08857
         Item               Value     Threshold  Converged?
 Maximum Force            0.028130     0.000450     NO 
 RMS     Force            0.007170     0.000300     NO 
 Maximum Displacement     0.193513     0.001800     NO 
 RMS     Displacement     0.050003     0.001200     NO 
 Predicted change in Energy=-9.749392D-03
 GradGradGradGradGradGradGradGradGradGradGradGradGradGradGradGradGradGrad

 1\1\GINC-NODE151\Freq\UHF\6-311G(d)\Si12(1+,2)\TAM\17-Jun-2011\0\\# hf
 /6-311G(d) freq scfcyc=500 scf=xqc\\si12-c\\1,2\Si,3.671177,-0.158666,
 0.064848\Si,1.838438,0.033461,1.743993\Si,1.725927,0.796029,-0.719757\
 Si,1.792436,-1.678091,-0.58881\Si,-0.0000000584,-0.623893,-2.026512\Si
 ,-0.000002,1.577186,1.174827\Si,0.000006,-1.304249,1.005919\Si,-1.8384
 33,0.033454,1.743994\Si,-1.725933,0.796026,-0.719766\Si,-1.792436,-1.6
 78088,-0.588807\Si,-3.671178,-0.158669,0.064856\Si,-0.000003,2.365501,
 -1.154785\\Version=AM64L-G03RevE.01\State=2-A\HF=-3466.7494592\S2=0.89
 8458\S2-1=0.\S2A=0.765579\RMSD=7.304e-09\RMSF=7.170e-03\ZeroPoint=0.01
 89421\Thermal=0.0358059\Dipole=-0.0000033,-0.1981788,0.0415438\DipoleD
 eriv=1.1555824,-0.0987922,0.0628862,-0.0311173,0.2491952,0.001249,0.08
 755,-0.0213704,0.2395173,-0.2273296,0.0477577,0.2614358,-0.057663,0.08
 53881,0.0524116,0.0793386,0.0565645,0.1970504,-0.4555328,0.3044962,-0.
 1763273,0.2306614,-0.188221,-0.1561533,-0.3406242,-0.0217496,-0.064853
 4,-0.2548887,-0.213569,-0.1105063,-0.158474,0.1677693,0.0956975,-0.052
 5405,0.0899131,0.0485645,0.2503921,0.0000003,-0.0000106,0.0000055,0.06
 16676,0.1089076,0.0000031,0.0430104,0.1911141,-0.1256482,0.0000012,0.0
 000036,0.0000004,-0.1066131,0.1428264,-0.0000066,0.1881304,-0.0994938,
 0.2046548,0.0000013,0.0000083,0.000005,-0.0463753,-0.0630058,0.0000066
 ,-0.1748433,-0.1964441,-0.2273332,-0.0477617,-0.2614375,0.0576508,0.08
 53859,0.0524132,-0.0793478,0.0565612,0.197044,-0.4555273,-0.3044943,0.
 1763339,-0.2306582,-0.1882191,-0.1561538,0.3406293,-0.0217453,-0.06485
 9,-0.2548889,0.2135685,0.1105099,0.1584692,0.1677664,0.0957016,0.05254
 37,0.0899133,0.0485574,1.1555799,0.0987928,-0.0628939,0.0311232,0.2491
 971,0.0012472,-0.0875542,-0.0213708,0.2395203,0.2349395,-0.000001,-0.0
 000022,-0.000003,0.4630589,-0.1751413,0.0000019,-0.2630135,0.2642822\P
[...]
 ! D11   D(1,2,7,10)           -69.357          -DE/DX =    0.0                 !
 ! D12   D(3,2,7,8)            -96.2904         -DE/DX =    0.0                 !
 ! D13   D(3,2,7,10)           -23.2349         -DE/DX =    0.0                 !
 ! D14   D(6,3,4,7)             12.3089         -DE/DX =    0.0                 !
 ! D15   D(12,3,4,7)           -36.1347         -DE/DX =    0.0                 !
 ! D16   D(1,3,5,9)            146.5227         -DE/DX =    0.0                 !
 ! D17   D(1,3,5,10)            97.9275         -DE/DX =    0.0                 !
 ! D18   D(2,3,5,9)             83.6206         -DE/DX =    0.0                 !
 ! D19   D(2,3,5,10)            35.0254         -DE/DX =    0.0                 !
 ! D20   D(6,3,5,9)             31.0559         -DE/DX =    0.0                 !
 ! D21   D(6,3,5,10)           -17.5393         -DE/DX =    0.0                 !
 ! D22   D(12,3,5,9)           -22.9984         -DE/DX =    0.0                 !
 ! D23   D(12,3,5,10)          -71.5936         -DE/DX =    0.0                 !
 ! D24   D(1,3,6,7)            -75.2195         -DE/DX =    0.0                 !
 ! D25   D(1,3,6,8)           -104.7692         -DE/DX =    0.0                 !
 ! D26   D(1,3,6,9)           -149.4588         -DE/DX =    0.0                 !
 ! D27   D(4,3,6,7)            -11.0813         -DE/DX =    0.0                 !
 ! D28   D(4,3,6,8)            -40.631          -DE/DX =    0.0                 !
 ! D29   D(4,3,6,9)            -85.3207         -DE/DX =    0.0                 !
 ! D30   D(5,3,6,7)             44.6818         -DE/DX =    0.0                 !
 ! D31   D(5,3,6,8)             15.1321         -DE/DX =    0.0                 !
 ! D32   D(5,3,6,9)            -29.5576         -DE/DX =    0.0                 !
 ! D33   D(1,3,12,9)          -134.269          -DE/DX =    0.0                 !
 ! D34   D(2,3,12,9)           -78.3018         -DE/DX =    0.0                 !
 ! D35   D(4,3,12,9)            -5.0543         -DE/DX =    0.0                 !
 ! D36   D(5,3,12,9)            24.772          -DE/DX =    0.0                 !
 ! D37   D(1,4,5,9)            -70.0197         -DE/DX =    0.0                 !
 ! D38   D(1,4,5,10)          -132.6828         -DE/DX =    0.0                 !
 ! D39   D(2,4,5,9)            -13.7941         -DE/DX =    0.0                 !
 ! D40   D(2,4,5,10)           -76.4573         -DE/DX =    0.0                 !
 ! D41   D(7,4,5,9)             31.5225         -DE/DX =    0.0                 !
 ! D42   D(7,4,5,10)           -31.1407         -DE/DX =    0.0                 !
 ! D43   D(1,4,7,6)             35.4507         -DE/DX =    0.0                 !
 ! D44   D(1,4,7,8)             72.2023         -DE/DX =    0.0                 !
 ! D45   D(1,4,7,10)           142.987          -DE/DX =    0.0                 !
 ! D46   D(3,4,7,6)            -12.2497         -DE/DX =    0.0                 !
 ! D47   D(3,4,7,8)             24.5019         -DE/DX =    0.0                 !
 ! D48   D(3,4,7,10)            95.2867         -DE/DX =    0.0                 !
 ! D49   D(5,4,7,6)            -76.561          -DE/DX =    0.0                 !
 ! D50   D(5,4,7,8)            -39.8094         -DE/DX =    0.0                 !
 ! D51   D(5,4,7,10)            30.9754         -DE/DX =    0.0                 !
 ! D52   D(1,4,9,6)            -40.8629         -DE/DX =    0.0                 !
 ! D53   D(1,4,9,8)            -94.6904         -DE/DX =    0.0                 !
 ! D54   D(1,4,9,11)          -143.6415         -DE/DX =    0.0                 !
 ! D55   D(1,4,9,12)            14.186          -DE/DX =    0.0                 !
 ! D56   D(2,4,9,6)              4.9665         -DE/DX =    0.0                 !
 ! D57   D(2,4,9,8)            -48.861          -DE/DX =    0.0                 !
 ! D58   D(2,4,9,11)           -97.8121         -DE/DX =    0.0                 !
 ! D59   D(2,4,9,12)            60.0154         -DE/DX =    0.0                 !
 ! D60   D(7,4,9,6)             62.1196         -DE/DX =    0.0                 !
 ! D61   D(7,4,9,8)              8.2921         -DE/DX =    0.0                 !
 ! D62   D(7,4,9,11)           -40.659          -DE/DX =    0.0                 !
 ! D63   D(7,4,9,12)           117.1685         -DE/DX =    0.0                 !
 ! D64   D(3,5,9,6)            -31.0573         -DE/DX =    0.0                 !
 ! D65   D(3,5,9,8)            -83.6229         -DE/DX =    0.0                 !
 ! D66   D(3,5,9,11)          -146.5249         -DE/DX =    0.0                 !
 ! D67   D(3,5,9,12)            22.9984         -DE/DX =    0.0                 !
 ! D68   D(4,5,9,6)             17.5446         -DE/DX =    0.0                 !
 ! D69   D(4,5,9,8)            -35.021          -DE/DX =    0.0                 !
 ! D70   D(4,5,9,11)           -97.923          -DE/DX =    0.0                 !
 ! D71   D(4,5,9,12)            71.6003         -DE/DX =    0.0                 !
 ! D72   D(3,5,10,7)           -31.5256         -DE/DX =    0.0                 !
 ! D73   D(3,5,10,8)            13.7859         -DE/DX =    0.0                 !
 ! D74   D(3,5,10,11)           70.0087         -DE/DX =    0.0                 !
 ! D75   D(4,5,10,7)            31.1404         -DE/DX =    0.0                 !
 ! D76   D(4,5,10,8)            76.4519         -DE/DX =    0.0                 !
 ! D77   D(4,5,10,11)          132.6747         -DE/DX =    0.0                 !
 ! D78   D(3,6,7,4)             11.7986         -DE/DX =    0.0                 !
 ! D79   D(3,6,7,10)           -92.9518         -DE/DX =    0.0                 !
 ! D80   D(9,6,7,4)             92.9558         -DE/DX =    0.0                 !
 ! D81   D(9,6,7,10)           -11.7946         -DE/DX =    0.0                 !
 ! D82   D(12,6,7,4)            52.3767         -DE/DX =    0.0                 !
 ! D83   D(12,6,7,10)          -52.3737         -DE/DX =    0.0                 !
 ! D84   D(2,6,8,10)           -71.5599         -DE/DX =    0.0                 !
 ! D85   D(2,6,8,11)          -130.0591         -DE/DX =    0.0                 !
 ! D86   D(3,6,8,10)            -9.1667         -DE/DX =    0.0                 !
 ! D87   D(3,6,8,11)           -67.6659         -DE/DX =    0.0                 !
 ! D88   D(12,6,8,10)           52.1136         -DE/DX =    0.0                 !
 ! D89   D(12,6,8,11)           -6.3856         -DE/DX =    0.0                 !
 ! D90   D(2,6,9,5)            -15.1309         -DE/DX =    0.0                 !
 ! D91   D(2,6,9,10)            40.6316         -DE/DX =    0.0                 !
 ! D92   D(2,6,9,11)           104.7723         -DE/DX =    0.0                 !
 ! D93   D(3,6,9,5)             29.5567         -DE/DX =    0.0                 !
 ! D94   D(3,6,9,10)            85.3192         -DE/DX =    0.0                 !
 ! D95   D(3,6,9,11)           149.4599         -DE/DX =    0.0                 !
 ! D96   D(7,6,9,5)            -44.6842         -DE/DX =    0.0                 !
 ! D97   D(7,6,9,10)            11.0782         -DE/DX =    0.0                 !
 ! D98   D(7,6,9,11)            75.2189         -DE/DX =    0.0                 !
 ! D99   D(2,7,8,9)             96.2877         -DE/DX =    0.0                 !
 ! D100  D(2,7,8,11)           142.4101         -DE/DX =    0.0                 !
 ! D101  D(4,7,8,9)             23.2446         -DE/DX =    0.0                 !
 ! D102  D(4,7,8,11)            69.367          -DE/DX =    0.0                 !
 ! D103  D(2,7,10,5)            39.8003         -DE/DX =    0.0                 !
 ! D104  D(2,7,10,9)           -24.5152         -DE/DX =    0.0                 !
 ! D105  D(2,7,10,11)          -72.2186         -DE/DX =    0.0                 !
 ! D106  D(4,7,10,5)           -30.9756         -DE/DX =    0.0                 !
 ! D107  D(4,7,10,9)           -95.291          -DE/DX =    0.0                 !
 ! D108  D(4,7,10,11)         -142.9945         -DE/DX =    0.0                 !
 ! D109  D(6,7,10,5)            76.5608         -DE/DX =    0.0                 !
 ! D110  D(6,7,10,9)            12.2453         -DE/DX =    0.0                 !
 ! D111  D(6,7,10,11)          -35.4581         -DE/DX =    0.0                 !
 ! D112  D(7,8,9,5)              9.7063         -DE/DX =    0.0                 !
 ! D113  D(7,8,9,12)           -82.6882         -DE/DX =    0.0                 !
 ! D114  D(6,8,10,5)            -1.8223         -DE/DX =    0.0                 !
 ! D115  D(6,9,10,7)           -12.3053         -DE/DX =    0.0                 !
 ! D116  D(12,9,10,7)           36.1466         -DE/DX =    0.0                 !
 ! D117  D(5,9,12,3)           -24.7713         -DE/DX =    0.0                 !
 ! D118  D(8,9,12,3)            78.3035         -DE/DX =    0.0                 !
 ! D119  D(10,9,12,3)            5.0467         -DE/DX =    0.0                 !
 ! D120  D(11,9,12,3)          134.2736         -DE/DX =    0.0                 !
 --------------------------------------------------------------------------------
 GradGradGradGradGradGradGradGradGradGradGradGradGradGradGradGradGradGrad

 1\1\GINC-NODE151\Freq\UB3LYP\6-311+G(d)\Si12(1+,2)\TAM\18-Jun-2011\0\\
 #N Geom=AllCheck Guess=Read SCRF=Check GenChk UB3LYP/6-311+G(d) Freq\\
 si12-c\\1,2\Si,3.701660425,-0.0757828254,-0.0235118073\Si,1.8802076452
 ,0.058005094,1.6695360981\Si,1.7098450209,0.8177803471,-0.82718517\Si,
 1.8694882953,-1.7269799918,-0.548390704\Si,0.0000535943,-0.8706130584,
 -1.835151932\Si,-0.0000430788,1.5112079099,1.2576428822\Si,-0.00004678
 67,-1.2954191188,0.9487172276\Si,-1.8802095922,0.0579491921,1.66961803
 93\Si,-1.7098284273,0.8177520524,-0.8271124587\Si,-1.8694780504,-1.726
 9576597,-0.548551739\Si,-3.7016428899,-0.0758432139,-0.0234370864\Si,-
 0.0000072179,2.5089022724,-0.9121733497\\Version=AM64L-G03RevE.01\Stat
 e=2-A\HF=-3473.8599874\S2=0.767042\S2-1=0.\S2A=0.750197\RMSD=4.120e-09
 \RMSF=7.101e-06\ZeroPoint=0.0179704\Thermal=0.0353399\Dipole=0.0000448
 ,-0.0086113,-0.0155102\DipoleDeriv=0.832976,-0.0533441,0.0184554,-0.03
 73013,0.1798843,-0.0129366,0.042423,-0.0251641,0.2254274,-0.0627823,0.
 027859,0.1933986,-0.0088987,0.0790641,0.0283692,0.0343493,0.030888,0.1
 340971,-0.2380234,0.2157892,-0.1354008,0.1350682,-0.0895569,-0.1003606
 ,-0.1438535,-0.0344037,-0.0345897,-0.0630017,-0.1837595,-0.0968357,-0.
 1463869,0.1932539,0.0684467,-0.0241176,0.0999162,0.0757027,0.0883662,0
 .0000214,0.0000513,0.0000093,0.038215,0.0858848,-0.0000031,0.0112295,0
 .0452325,-0.1186063,-0.0000044,-0.0000174,0.,-0.0379727,0.1331443,-0.0
 00011,0.1424002,-0.0019649,0.0181035,0.000007,-0.000037,-0.0000159,-0.
 131486,-0.0801829,-0.0000393,-0.1364393,-0.0528485,-0.0628,-0.0278445,
 -0.1933686,0.0089111,0.0790827,0.0283392,-0.0343754,0.030895,0.1341303
 ,-0.238015,-0.2158111,0.1353673,-0.1350605,-0.0895946,-0.1003855,0.143
 8804,-0.0344015,-0.0345662,-0.0629991,0.1837298,0.0968154,0.146372,0.1
 932512,0.0684551,0.0241717,0.0999154,0.0757351,0.832974,0.0533505,-0.0
 184596,0.0373033,0.1798834,-0.0129338,-0.0424231,-0.0251598,0.2254096,
 0.0738082,0.0000067,0.0000312,-0.0000004,0.4059755,-0.1058399,-0.00000
 17,-0.1596759,0.2082347\Polar=459.8499412,0.0013059,304.2809066,-0.002
 5444,3.5419511,276.9926538\PG=C01 [X(Si12)]\NImag=0\\0.12650669,-0.008
 64386,0.03644644,0.00647773,-0.00387016,0.03623938,-0.02547610,0.00121
 584,0.02440923,0.09646024,-0.00024889,-0.00901802,-0.00136425,-0.00667
 136,0.04881400,0.01846492,-0.00142213,-0.01356717,0.00301725,0.0030795
 6,0.05876994,-0.06211936,0.02663974,-0.02328888,0.00186815,-0.00307813
 ,-0.00626915,0.11190054,0.02384819,-0.01685530,0.00682953,0.00030390,-
 0.00198739,0.00599721,-0.04630654,0.09333985,-0.02113145,0.00572681,-0
 .01247305,-0.00232831,0.00750551,-0.02391663,0.02218200,-0.01180566,0.
 04313815,-0.02054485,-0.02175726,-0.00545949,-0.00147730,0.00840810,-0
 .00276070,-0.00016360,0.00490794,0.00131480,0.08631770,-0.01468674,-0.
 01291069,-0.00235247,0.00281565,-0.00329834,-0.00345330,0.00477303,-0.
 03054735,0.00061526,-0.00566598,0.06353114,-0.00331737,-0.00202987,-0.
 01021813,-0.00824631,-0.01079476,-0.00482792,0.00571893,0.00604336,0.0
 0296083,0.00090651,0.00741648,0.04438325,-0.00591038,0.00212099,-0.002
 52439,0.00096266,-0.00405911,-0.00295175,-0.00294408,-0.00605070,0.001
 10249,-0.02458567,0.00613585,-0.02025950,0.07238798,-0.00001754,0.0006
 3776,-0.00186417,-0.00104735,-0.00064796,0.00192665,-0.00656284,-0.008
 63733,-0.00465791,0.00924125,-0.00574437,0.00850382,0.00000434,0.03550
 261,0.00286235,0.00100070,0.00156265,0.00076307,-0.00049236,-0.0079680
 8,-0.00487710,-0.00732666,-0.00329796,-0.01450981,0.00835384,-0.009983
 75,0.00000196,-0.00109510,0.05683626,-0.00340468,0.00259654,-0.0007797
 9,-0.03243095,0.02361062,-0.00460694,-0.00030929,-0.00121628,0.0043758
 8,0.00066425,0.00421147,0.00528478,-0.00561202,0.00000080,-0.00000003,
 0.08585602,-0.00236638,0.00213553,-0.00093590,0.01836944,-0.01704355,0
 .00877532,0.00397695,-0.00461597,-0.00131273,-0.00031553,-0.00446113,-
 0.00454982,-0.00000130,-0.00572587,-0.00726088,0.00000374,0.07443763,0
 .00003547,-0.00154353,0.00090237,-0.00898277,0.01026091,-0.00494414,-0
 .00035350,-0.00208046,-0.01034496,-0.00044323,-0.00121858,-0.00277530,
 0.00000055,-0.00679938,-0.00137787,0.00000076,-0.02643050,0.08471345,-
 0.00552185,-0.00059087,0.00021913,-0.02684060,-0.02336766,-0.01277981,
 0.00277589,-0.00053188,-0.00072459,-0.02593767,0.00592076,0.02431131,0
 .00063945,0.00000061,-0.00000025,-0.00367407,-0.00000079,0.00000127,0.
 11662792,0.00269838,-0.00191770,0.00325314,-0.01611964,-0.00743416,-0.
 00897749,-0.00739733,-0.00067854,0.00211641,0.00139643,-0.00350731,-0.
 00754306,0.00000035,-0.00168989,0.00141224,-0.00000002,-0.01044687,0.0
 0051176,-0.00000881,0.04789419,-0.00251535,0.00293830,-0.00132109,-0.0
 0310015,-0.00624008,-0.00537221,0.00532019,0.00092231,-0.00075912,0.01
 684097,-0.00673438,-0.01083828,-0.00000022,0.00302772,-0.01460975,-0.0
 0000075,-0.00102099,-0.00016351,-0.00000799,0.01425948,0.04942551,-0.0
 0011220,-0.00059252,-0.00387610,-0.01129045,0.00056211,0.00402876,-0.0
 0230249,-0.00038108,0.00191472,0.00059294,-0.00153097,0.00132495,0.000
 96348,0.00104602,-0.00076291,-0.03243084,-0.01837128,0.00898315,-0.026
 85128,0.01612782,0.00310935,0.09647451,0.00077812,-0.00266103,0.001633
 68,-0.00056203,-0.00072649,-0.00313215,-0.00438357,-0.00027444,0.00208
 094,0.00190893,-0.00347319,-0.00394212,0.00406037,-0.00064791,-0.00049
 349,-0.02361235,-0.01704596,0.01026492,0.02337610,-0.00743858,-0.00624
 607,0.00666507,0.04881843,-0.00246575,-0.00081612,-0.00146079,-0.00402
 885,-0.00313200,0.00954162,0.00027090,-0.00158426,-0.00021390,-0.00022
 173,0.00125852,-0.00315795,0.00295161,0.00192512,-0.00796538,0.0046094
 6,0.00877675,-0.00494554,0.01278387,-0.00898022,-0.00537316,-0.0030222
 8,0.00307818,0.05876730,-0.00015331,-0.00444317,0.00406547,-0.00230200
 ,0.00438256,-0.00027001,-0.01730132,-0.00373995,-0.00162896,-0.0006846
 9,-0.00149303,-0.00226750,-0.00294312,0.00656043,0.00487466,-0.0003117
 1,-0.00397730,0.00035022,0.00277591,0.00739669,-0.00532030,0.00186604,
 0.00307807,0.00627030,0.11189492,-0.00234743,-0.00158497,0.00061500,0.
 00038208,-0.00027356,-0.00158398,0.00373894,0.00442661,0.00000046,0.00
 531246,-0.00393209,0.00414835,0.00604855,-0.00863504,-0.00732694,0.001
 21496,-0.00461692,-0.00208173,0.00053021,-0.00067951,0.00092007,-0.000
 30546,-0.00198737,0.00599737,0.04631028,0.09335038,0.00080693,0.000078
 44,-0.00050982,-0.00191472,0.00208112,-0.00021437,0.00162938,0.0000003
 0,0.00258771,0.00029599,-0.00064171,-0.00163626,-0.00110314,-0.0046565
 2,-0.00329796,-0.00437832,-0.00131460,-0.01034763,0.00072430,0.0021166
 9,-0.00075748,0.00232993,0.00750472,-0.02391504,-0.02217952,-0.0118039
 8,0.04313963,0.00071834,0.00271526,0.00203784,0.00059201,-0.00190994,0
 .00022145,-0.00068474,-0.00531145,-0.00029569,-0.01361796,-0.00139304,
 -0.00196207,-0.02459157,-0.00924166,0.01450854,0.00066457,0.00031667,0
 .00044388,-0.02593080,-0.00139683,-0.01684129,-0.00148015,-0.00840791,
 0.00275988,-0.00016072,-0.00490744,-0.00131534,0.08631746,0.00065395,0
 .00024927,-0.00066089,0.00153168,-0.00347325,0.00125895,0.00149405,-0.
 00393326,-0.00064183,0.00139287,0.00646304,-0.00057234,-0.00613873,-0.
 00574286,0.00835446,-0.00421225,-0.00446117,-0.00121896,-0.00591980,-0
 .00350659,-0.00673338,-0.00281429,-0.00329506,-0.00344960,-0.00477334,
 -0.03055838,0.00061305,0.00566623,0.06353676,0.00016847,0.00056192,-0.
 00183249,-0.00132535,-0.00394192,-0.00315649,0.00226750,0.00414693,-0.
 00163678,0.00196300,-0.00057119,0.00129010,0.02025989,0.00850359,-0.00
 998065,-0.00528442,-0.00455092,-0.00277432,-0.02430895,-0.00754426,-0.
 01084493,0.00824345,-0.01078909,-0.00482672,-0.00571892,0.00604253,0.0
 0296054,-0.00090710,0.00741561,0.04438372,-0.00439510,-0.00035504,-0.0
 0036683,-0.00011268,-0.00077777,0.00246765,-0.00015236,0.00234708,-0.0
 0080735,0.00071845,-0.00065423,-0.00016910,-0.00591038,0.00001608,-0.0
 0286207,-0.00340499,0.00236650,-0.00003574,-0.00552288,-0.00269751,0.0
 0251407,-0.02547814,0.00024906,-0.01846815,-0.06211348,-0.02384691,0.0
 2113017,-0.02054475,0.01468690,0.00331919,0.12650434,0.00035502,0.0040
 2191,-0.00051691,0.00059206,-0.00266113,-0.00081711,0.00444305,-0.0015
 8414,0.00007848,-0.00271465,0.00024909,0.00056271,-0.00212134,0.000637
 81,0.00100030,-0.00259685,0.00213552,-0.00154325,0.00059172,-0.0019185
 2,0.00293822,-0.00121623,-0.00901769,-0.00142266,-0.02663834,-0.016855
 29,0.00572705,0.02175678,-0.01291041,-0.00203015,0.00864294,0.03644605
 ,0.00036634,-0.00051643,0.00500541,0.00387632,0.00163272,-0.00146089,-
 0.00406517,0.00061513,-0.00050997,-0.00203865,-0.00066173,-0.00183211,
 0.00252307,-0.00186274,0.00156179,0.00077890,-0.00093548,0.00090197,-0
 .00021856,0.00325296,-0.00132079,-0.02441237,-0.00136480,-0.01356754,0
 .02328833,0.00682992,-0.01247368,0.00546283,-0.00235414,-0.01021803,-0
 .00647486,-0.00386841,0.03624162,0.00041279,0.00109434,-0.00091392,0.0
 0004703,0.00314947,0.00143831,-0.03056734,0.03213077,-0.00397356,-0.00
 128160,0.00156723,-0.00132463,-0.00245636,-0.00000014,0.00000157,-0.00
 560629,-0.00000071,-0.00000005,-0.00254001,0.00000047,0.00000146,0.000
 04859,-0.00314985,-0.00143926,-0.03056654,-0.03213024,0.00397433,-0.00
 128169,-0.00156728,0.00132324,0.00041196,-0.00109416,0.00091383,0.0733
 7946,-0.00002283,0.00145679,-0.00076660,-0.00081028,-0.00225015,-0.001
 65154,0.02266265,-0.02865275,0.00029426,-0.00211456,-0.00236880,0.0027
 5724,0.00000073,0.00069305,0.00387389,-0.00000036,-0.01029124,0.021878
 79,0.00000042,-0.00867651,0.00196878,0.00081081,-0.00225070,-0.0016510
 8,-0.02266290,-0.02865385,0.00029546,0.00211333,-0.00236811,0.00275695
 ,0.00002288,0.00145680,-0.00076700,0.00000010,0.08190547,0.00024771,-0
 .00010794,-0.00232726,-0.00213942,0.00140555,-0.00288366,0.00146490,-0
 .00175774,0.00446569,0.00411233,-0.00201074,-0.00336450,-0.00000057,-0
 .00295108,-0.00147930,0.00000045,0.03075975,-0.04884453,0.00000026,0.0
 0612235,0.00193480,0.00213935,0.00140529,-0.00288291,-0.00146377,-0.00
 175708,0.00446437,-0.00411294,-0.00201092,-0.00336396,-0.00024698,-0.0
 0010827,-0.00232778,-0.00000131,-0.02898916,0.05660904\\0.00000529,0.0
 0000392,-0.00000051,0.00000027,-0.00000890,-0.00000625,-0.00001119,0.0
 0000470,0.00000426,0.00000916,0.00000168,-0.00000045,0.00000072,0.0000
 1499,0.00000019,-0.00000277,-0.00001725,0.00000941,-0.00000377,-0.0000
 1081,-0.00000208,0.00000209,-0.00000947,-0.00000705,0.00001367,0.00000
 312,0.00000282,-0.00000970,0.00000482,-0.00000387,-0.00000439,0.000002
 03,0.00000416,0.00000062,0.00001115,-0.00000064\\\@


 EDUCATION DOESN'T COST 
           ... IT PAYS!

 -- POSTMARK, UNIV. OF MISSISSIPPI, DEC 78
 Job cpu time:  0 days  7 hours 17 minutes 25.7 seconds.
 File lengths (MBytes):  RWF=    550 Int=      0 D2E=      0 Chk=     16 Scr=      1
 Normal termination of Gaussian 03 at Sat Jun 18 01:37:31 2011.
