 Entering Gaussian System, Link 0=g03
 Initial command:
 /usr/local/chem/g03E01/l1.exe /temp0/tam/Gau-24402.inp -scrdir=/temp0/tam/
 Entering Link 1 = /usr/local/chem/g03E01/l1.exe PID=     24403.
  
 Copyright (c) 1988,1990,1992,1993,1995,1998,2003,2004,2007, Gaussian, Inc.
                  All Rights Reserved.
  
 This is the Gaussian(R) 03 program.  It is based on the
 the Gaussian(R) 98 system (copyright 1998, Gaussian, Inc.),
 the Gaussian(R) 94 system (copyright 1995, Gaussian, Inc.),
 the Gaussian 92(TM) system (copyright 1992, Gaussian, Inc.),
 the Gaussian 90(TM) system (copyright 1990, Gaussian, Inc.),
 the Gaussian 88(TM) system (copyright 1988, Gaussian, Inc.),
 the Gaussian 86(TM) system (copyright 1986, Carnegie Mellon
 University), and the Gaussian 82(TM) system (copyright 1983,
 Carnegie Mellon University). Gaussian is a federally registered
 trademark of Gaussian, Inc.
  
 This software contains proprietary and confidential information,
 including trade secrets, belonging to Gaussian, Inc.
  
 This software is provided under written license and may be
 used, copied, transmitted, or stored only in accord with that
 written license.
  
 The following legend is applicable only to US Government
 contracts under FAR:
  
                    RESTRICTED RIGHTS LEGEND
  
 Use, reproduction and disclosure by the US Government is
 subject to restrictions as set forth in subparagraphs (a)
 and (c) of the Commercial Computer Software - Restricted
 Rights clause in FAR 52.227-19.
  
 Gaussian, Inc.
 340 Quinnipiac St., Bldg. 40, Wallingford CT 06492
  
  
 ---------------------------------------------------------------
 Warning -- This program may not be used in any manner that
 competes with the business of Gaussian, Inc. or will provide
 assistance to any competitor of Gaussian, Inc.  The licensee
 of this program is prohibited from giving any competitor of
 Gaussian, Inc. access to this program.  By using this program,
 the user acknowledges that Gaussian, Inc. is engaged in the
 business of creating and licensing software in the field of
 computational chemistry and represents and warrants to the
 licensee that it is not a competitor of Gaussian, Inc. and that
 it will not use this program in any manner prohibited above.
 ---------------------------------------------------------------
  

 Cite this work as:
 Gaussian 03, Revision E.01,
 M. J. Frisch, G. W. Trucks, H. B. Schlegel, G. E. Scuseria, 
 M. A. Robb, J. R. Cheeseman, J. A. Montgomery, Jr., T. Vreven, 
 K. N. Kudin, J. C. Burant, J. M. Millam, S. S. Iyengar, J. Tomasi, 
 V. Barone, B. Mennucci, M. Cossi, G. Scalmani, N. Rega, 
 G. A. Petersson, H. Nakatsuji, M. Hada, M. Ehara, K. Toyota, 
 R. Fukuda, J. Hasegawa, M. Ishida, T. Nakajima, Y. Honda, O. Kitao, 
 H. Nakai, M. Klene, X. Li, J. E. Knox, H. P. Hratchian, J. B. Cross, 
 V. Bakken, C. Adamo, J. Jaramillo, R. Gomperts, R. E. Stratmann, 
 O. Yazyev, A. J. Austin, R. Cammi, C. Pomelli, J. W. Ochterski, 
 P. Y. Ayala, K. Morokuma, G. A. Voth, P. Salvador, J. J. Dannenberg, 
 V. G. Zakrzewski, S. Dapprich, A. D. Daniels, M. C. Strain, 
 O. Farkas, D. K. Malick, A. D. Rabuck, K. Raghavachari, 
 J. B. Foresman, J. V. Ortiz, Q. Cui, A. G. Baboul, S. Clifford, 
 J. Cioslowski, B. B. Stefanov, G. Liu, A. Liashenko, P. Piskorz, 
 I. Komaromi, R. L. Martin, D. J. Fox, T. Keith, M. A. Al-Laham, 
 C. Y. Peng, A. Nanayakkara, M. Challacombe, P. M. W. Gill, 
 B. Johnson, W. Chen, M. W. Wong, C. Gonzalez, and J. A. Pople, 
 Gaussian, Inc., Wallingford CT, 2004.
 
 ******************************************
 Gaussian 03:  AM64L-G03RevE.01 11-Sep-2007
                 6-Apr-2011 
 ******************************************
 %NprocShared=4
 Will use up to    4 processors via shared memory.
 %mem=3750MB
 %chk=S9L-ne-d-01
 ----------------------------------------------------------------------
 # b3lyp/LANL2DZ opt=(calcall,noeigentest,maxcycle=500) scfcyc=500 scf=
 xqc
 ----------------------------------------------------------------------
 1/6=500,10=4,11=1,14=-1,18=20,26=3,38=1/1,3;
 2/9=110,17=6,18=5,40=1/2;
 3/5=6,6=3,11=2,16=1,25=1,30=1,74=-5/1,2,3;
 4//1;
 5/5=2,7=500,8=3,13=1,38=5/2,8;
 8/6=4,10=90,11=11/1;
 11/6=1,8=1,9=11,15=111,16=1/1,2,10;
 10/6=1/2;
 6/7=2,8=2,9=2,10=2,18=1,28=1/1;
 7/10=1,25=1/1,2,3,16;
 1/6=500,10=4,11=1,14=-1,18=20/3(3);
 2/9=110/2;
 7/8=1,9=1,25=1,44=-1/16;
 99//99;
 2/9=110/2;
 3/5=6,6=3,11=2,16=1,25=1,30=1,74=-5/1,2,3;
 4/5=5,16=3/1;
 5/5=2,7=500,8=3,13=1,38=5/2,8;
 8/6=4,10=90,11=11/1;
 11/6=1,8=1,9=11,15=111,16=1/1,2,10;
 10/6=1/2;
 7/10=1,25=1/1,2,3,16;
 1/6=500,10=4,11=1,14=-1,18=20/3(-8);
 2/9=110/2;
 6/7=2,8=2,9=2,10=2,18=1,19=2,28=1/1;
 7/8=1,9=1,25=1,44=-1/16;
 99//99;
 ------
 si12-n
 ------
 Symbolic Z-matrix:
 Charge =  0 Multiplicity = 1
 Si                    3.679    -0.07033  -0.17127 
 Si                    1.84722  -1.75414  -0.19851 
 Si                    1.72016   0.59052   0.90797 
 Si                    1.768     0.72113  -1.59491 
 Si                   -0.00004   1.95784  -0.40111 
 Si                    0.00004  -1.47641   1.35922 
 Si                   0.        -0.99939  -1.474 
 Si                   -1.84717  -1.7542   -0.19846 
 Si                   -1.72013   0.5905    0.90794 
 Si                   -1.76803   0.72108  -1.59494 
 Si                   -3.67897  -0.07041  -0.17124 
 Si                    0.00001   0.60567   2.56731 
 

 GradGradGradGradGradGradGradGradGradGradGradGradGradGradGradGradGradGrad
 Berny optimization.
 Initialization pass.
                           ----------------------------
                           !    Initial Parameters    !
                           ! (Angstroms and Degrees)  !
 --------------------------                            --------------------------
 ! Name  Definition              Value          Derivative Info.                !
 --------------------------------------------------------------------------------
 ! R1    R(1,2)                  2.4883         calculate D2E/DX2 analytically  !
 ! R2    R(1,3)                  2.3321         calculate D2E/DX2 analytically  !
 ! R3    R(1,4)                  2.511          calculate D2E/DX2 analytically  !
 ! R4    R(2,3)                  2.5957         calculate D2E/DX2 analytically  !
 ! R5    R(2,4)                  2.8431         calculate D2E/DX2 analytically  !
 ! R6    R(2,6)                  2.4322         calculate D2E/DX2 analytically  !
 ! R7    R(2,7)                  2.3683         calculate D2E/DX2 analytically  !
 ! R8    R(3,4)                  2.5067         calculate D2E/DX2 analytically  !
 ! R9    R(3,5)                  2.5578         calculate D2E/DX2 analytically  !
 ! R10   R(3,6)                  2.7267         calculate D2E/DX2 analytically  !
 ! R11   R(3,12)                 2.3901         calculate D2E/DX2 analytically  !
 ! R12   R(4,5)                  2.4659         calculate D2E/DX2 analytically  !
 ! R13   R(4,7)                  2.4699         calculate D2E/DX2 analytically  !
 ! R14   R(5,9)                  2.5577         calculate D2E/DX2 analytically  !
 ! R15   R(5,10)                 2.4659         calculate D2E/DX2 analytically  !
 ! R16   R(6,7)                  2.8731         calculate D2E/DX2 analytically  !
 ! R17   R(6,8)                  2.4322         calculate D2E/DX2 analytically  !
 ! R18   R(6,9)                  2.7267         calculate D2E/DX2 analytically  !
 ! R19   R(6,12)                 2.4072         calculate D2E/DX2 analytically  !
 ! R20   R(7,8)                  2.3683         calculate D2E/DX2 analytically  !
 ! R21   R(7,10)                 2.4699         calculate D2E/DX2 analytically  !
 ! R22   R(8,9)                  2.5957         calculate D2E/DX2 analytically  !
 ! R23   R(8,10)                 2.8431         calculate D2E/DX2 analytically  !
 ! R24   R(8,11)                 2.4883         calculate D2E/DX2 analytically  !
 ! R25   R(9,10)                 2.5067         calculate D2E/DX2 analytically  !
 ! R26   R(9,11)                 2.3321         calculate D2E/DX2 analytically  !
 ! R27   R(9,12)                 2.3901         calculate D2E/DX2 analytically  !
 ! R28   R(10,11)                2.511          calculate D2E/DX2 analytically  !
 ! A1    A(1,2,6)              118.347          calculate D2E/DX2 analytically  !
 ! A2    A(1,2,7)              111.373          calculate D2E/DX2 analytically  !
 ! A3    A(3,2,7)               84.4642         calculate D2E/DX2 analytically  !
 ! A4    A(4,2,6)              101.1854         calculate D2E/DX2 analytically  !
 ! A5    A(1,3,5)              118.6547         calculate D2E/DX2 analytically  !
 ! A6    A(1,3,6)              113.0584         calculate D2E/DX2 analytically  !
 ! A7    A(1,3,12)             158.0644         calculate D2E/DX2 analytically  !
 ! A8    A(2,3,5)              107.3145         calculate D2E/DX2 analytically  !
 ! A9    A(2,3,12)             109.6875         calculate D2E/DX2 analytically  !
 ! A10   A(4,3,6)              102.5197         calculate D2E/DX2 analytically  !
 ! A11   A(4,3,12)             134.9581         calculate D2E/DX2 analytically  !
 ! A12   A(5,3,6)               93.7647         calculate D2E/DX2 analytically  !
 ! A13   A(5,3,12)              82.4096         calculate D2E/DX2 analytically  !
 ! A14   A(1,4,5)              115.4213         calculate D2E/DX2 analytically  !
 ! A15   A(1,4,7)              107.3046         calculate D2E/DX2 analytically  !
 ! A16   A(2,4,5)              102.6409         calculate D2E/DX2 analytically  !
 ! A17   A(3,4,7)               84.3281         calculate D2E/DX2 analytically  !
 ! A18   A(5,4,7)               79.1887         calculate D2E/DX2 analytically  !
 ! A19   A(3,5,9)               84.5236         calculate D2E/DX2 analytically  !
 ! A20   A(3,5,10)             117.5073         calculate D2E/DX2 analytically  !
 ! A21   A(4,5,9)              117.5067         calculate D2E/DX2 analytically  !
 ! A22   A(4,5,10)              91.613          calculate D2E/DX2 analytically  !
 ! A23   A(2,6,8)               98.8342         calculate D2E/DX2 analytically  !
 ! A24   A(2,6,9)              117.3663         calculate D2E/DX2 analytically  !
 ! A25   A(2,6,12)             114.8472         calculate D2E/DX2 analytically  !
 ! A26   A(3,6,7)               73.199          calculate D2E/DX2 analytically  !
 ! A27   A(3,6,8)              117.3682         calculate D2E/DX2 analytically  !
 ! A28   A(3,6,9)               78.2273         calculate D2E/DX2 analytically  !
 ! A29   A(7,6,9)               73.1976         calculate D2E/DX2 analytically  !
 ! A30   A(7,6,12)             110.5667         calculate D2E/DX2 analytically  !
 ! A31   A(8,6,12)             114.8468         calculate D2E/DX2 analytically  !
 ! A32   A(2,7,8)              102.516          calculate D2E/DX2 analytically  !
 ! A33   A(2,7,10)             143.7737         calculate D2E/DX2 analytically  !
 ! A34   A(4,7,6)               99.4343         calculate D2E/DX2 analytically  !
 ! A35   A(4,7,8)              143.7725         calculate D2E/DX2 analytically  !
 ! A36   A(4,7,10)              91.4196         calculate D2E/DX2 analytically  !
 ! A37   A(6,7,10)              99.4359         calculate D2E/DX2 analytically  !
 ! A38   A(6,8,10)             101.1857         calculate D2E/DX2 analytically  !
 ! A39   A(6,8,11)             118.3472         calculate D2E/DX2 analytically  !
 ! A40   A(7,8,9)               84.4626         calculate D2E/DX2 analytically  !
 ! A41   A(7,8,11)             111.3713         calculate D2E/DX2 analytically  !
 ! A42   A(5,9,6)               93.7661         calculate D2E/DX2 analytically  !
 ! A43   A(5,9,8)              107.3169         calculate D2E/DX2 analytically  !
 ! A44   A(5,9,11)             118.6558         calculate D2E/DX2 analytically  !
 ! A45   A(5,9,12)              82.4111         calculate D2E/DX2 analytically  !
 ! A46   A(6,9,10)             102.5209         calculate D2E/DX2 analytically  !
 ! A47   A(6,9,11)             113.0583         calculate D2E/DX2 analytically  !
 ! A48   A(8,9,12)             109.6868         calculate D2E/DX2 analytically  !
 ! A49   A(10,9,12)            134.9605         calculate D2E/DX2 analytically  !
 ! A50   A(11,9,12)            158.0622         calculate D2E/DX2 analytically  !
 ! A51   A(5,10,7)              79.1888         calculate D2E/DX2 analytically  !
 ! A52   A(5,10,8)             102.6394         calculate D2E/DX2 analytically  !
 ! A53   A(5,10,11)            115.4191         calculate D2E/DX2 analytically  !
 ! A54   A(7,10,9)              84.3268         calculate D2E/DX2 analytically  !
 ! A55   A(7,10,11)            107.3035         calculate D2E/DX2 analytically  !
 ! A56   A(3,12,9)              92.0588         calculate D2E/DX2 analytically  !
 ! A57   L(1,2,6,8,-1)         177.9901         calculate D2E/DX2 analytically  !
 ! A58   L(3,5,10,7,-1)        121.3164         calculate D2E/DX2 analytically  !
 ! A59   L(6,8,11,2,-1)        177.9892         calculate D2E/DX2 analytically  !
 ! A60   L(1,2,6,8,-2)         281.0382         calculate D2E/DX2 analytically  !
 ! A61   L(3,5,10,7,-2)        157.0029         calculate D2E/DX2 analytically  !
 ! A62   L(6,8,11,2,-2)        281.0359         calculate D2E/DX2 analytically  !
 ! D1    D(7,2,3,5)             -7.6132         calculate D2E/DX2 analytically  !
 ! D2    D(7,2,3,12)            80.3577         calculate D2E/DX2 analytically  !
 ! D3    D(6,2,4,5)              4.4691         calculate D2E/DX2 analytically  !
 ! D4    D(1,2,6,8)            130.995          calculate D2E/DX2 analytically  !
 ! D5    D(1,2,6,9)             70.182          calculate D2E/DX2 analytically  !
 ! D6    D(1,2,6,12)             8.2714         calculate D2E/DX2 analytically  !
 ! D7    D(4,2,6,8)             74.0691         calculate D2E/DX2 analytically  !
 ! D8    D(4,2,6,9)             13.2561         calculate D2E/DX2 analytically  !
 ! D9    D(4,2,6,12)           -48.6545         calculate D2E/DX2 analytically  !
 ! D10   D(1,2,7,8)           -140.8486         calculate D2E/DX2 analytically  !
 ! D11   D(1,2,7,10)           -64.3926         calculate D2E/DX2 analytically  !
 ! D12   D(3,2,7,8)            -92.4201         calculate D2E/DX2 analytically  !
 ! D13   D(3,2,7,10)           -15.9641         calculate D2E/DX2 analytically  !
 ! D14   D(6,3,4,7)              5.9049         calculate D2E/DX2 analytically  !
 ! D15   D(12,3,4,7)           -47.5903         calculate D2E/DX2 analytically  !
 ! D16   D(1,3,5,9)            142.824          calculate D2E/DX2 analytically  !
 ! D17   D(1,3,5,10)            91.0734         calculate D2E/DX2 analytically  !
 ! D18   D(2,3,5,9)             77.6414         calculate D2E/DX2 analytically  !
 ! D19   D(2,3,5,10)            25.8908         calculate D2E/DX2 analytically  !
 ! D20   D(6,3,5,9)             23.9256         calculate D2E/DX2 analytically  !
 ! D21   D(6,3,5,10)           -27.8249         calculate D2E/DX2 analytically  !
 ! D22   D(12,3,5,9)           -30.6867         calculate D2E/DX2 analytically  !
 ! D23   D(12,3,5,10)          -82.4372         calculate D2E/DX2 analytically  !
 ! D24   D(1,3,6,7)            -70.3576         calculate D2E/DX2 analytically  !
 ! D25   D(1,3,6,8)            -99.0921         calculate D2E/DX2 analytically  !
 ! D26   D(1,3,6,9)           -146.1449         calculate D2E/DX2 analytically  !
 ! D27   D(4,3,6,7)             -5.2748         calculate D2E/DX2 analytically  !
 ! D28   D(4,3,6,8)            -34.0093         calculate D2E/DX2 analytically  !
 ! D29   D(4,3,6,9)            -81.0621         calculate D2E/DX2 analytically  !
 ! D30   D(5,3,6,7)             53.0303         calculate D2E/DX2 analytically  !
 ! D31   D(5,3,6,8)             24.2958         calculate D2E/DX2 analytically  !
 ! D32   D(5,3,6,9)            -22.757          calculate D2E/DX2 analytically  !
 ! D33   D(1,3,10,7)            43.5143         calculate D2E/DX2 analytically  !
 ! D34   D(1,3,10,8)            98.3544         calculate D2E/DX2 analytically  !
 ! D35   D(1,3,10,11)          142.9348         calculate D2E/DX2 analytically  !
 ! D36   D(2,3,10,7)            -6.7144         calculate D2E/DX2 analytically  !
 ! D37   D(2,3,10,8)            48.1257         calculate D2E/DX2 analytically  !
 ! D38   D(2,3,10,11)           92.7061         calculate D2E/DX2 analytically  !
 ! D39   D(6,3,10,7)           -62.2245         calculate D2E/DX2 analytically  !
 ! D40   D(6,3,10,8)            -7.3844         calculate D2E/DX2 analytically  !
 ! D41   D(6,3,10,11)           37.196          calculate D2E/DX2 analytically  !
 ! D42   D(12,3,10,7)         -119.1714         calculate D2E/DX2 analytically  !
 ! D43   D(12,3,10,8)          -64.3313         calculate D2E/DX2 analytically  !
 ! D44   D(12,3,10,11)         -19.7509         calculate D2E/DX2 analytically  !
 ! D45   D(1,3,12,9)          -131.6481         calculate D2E/DX2 analytically  !
 ! D46   D(2,3,12,9)           -72.7803         calculate D2E/DX2 analytically  !
 ! D47   D(4,3,12,9)             4.9632         calculate D2E/DX2 analytically  !
 ! D48   D(5,3,12,9)            32.9559         calculate D2E/DX2 analytically  !
 ! D49   D(1,4,5,9)            -79.5629         calculate D2E/DX2 analytically  !
 ! D50   D(1,4,5,10)          -136.0501         calculate D2E/DX2 analytically  !
 ! D51   D(2,4,5,9)            -22.576          calculate D2E/DX2 analytically  !
 ! D52   D(2,4,5,10)           -79.0632         calculate D2E/DX2 analytically  !
 ! D53   D(7,4,5,9)             24.591          calculate D2E/DX2 analytically  !
 ! D54   D(7,4,5,10)           -31.8962         calculate D2E/DX2 analytically  !
 ! D55   D(1,4,7,6)             45.4948         calculate D2E/DX2 analytically  !
 ! D56   D(1,4,7,8)             84.6942         calculate D2E/DX2 analytically  !
 ! D57   D(1,4,7,10)           145.3036         calculate D2E/DX2 analytically  !
 ! D58   D(3,4,7,6)             -5.5445         calculate D2E/DX2 analytically  !
 ! D59   D(3,4,7,8)             33.6549         calculate D2E/DX2 analytically  !
 ! D60   D(3,4,7,10)            94.2643         calculate D2E/DX2 analytically  !
 ! D61   D(5,4,7,6)            -67.9741         calculate D2E/DX2 analytically  !
 ! D62   D(5,4,7,8)            -28.7747         calculate D2E/DX2 analytically  !
 ! D63   D(5,4,7,10)            31.8347         calculate D2E/DX2 analytically  !
 ! D64   D(3,5,9,6)            -23.9256         calculate D2E/DX2 analytically  !
 ! D65   D(3,5,9,8)            -77.6412         calculate D2E/DX2 analytically  !
 ! D66   D(3,5,9,11)          -142.8251         calculate D2E/DX2 analytically  !
 ! D67   D(3,5,9,12)            30.6865         calculate D2E/DX2 analytically  !
 ! D68   D(4,5,9,6)             27.8243         calculate D2E/DX2 analytically  !
 ! D69   D(4,5,9,8)            -25.8913         calculate D2E/DX2 analytically  !
 ! D70   D(4,5,9,11)           -91.0752         calculate D2E/DX2 analytically  !
 ! D71   D(4,5,9,12)            82.4364         calculate D2E/DX2 analytically  !
 ! D72   D(3,5,10,7)           -24.5896         calculate D2E/DX2 analytically  !
 ! D73   D(3,5,10,8)            22.5776         calculate D2E/DX2 analytically  !
 ! D74   D(3,5,10,11)           79.5632         calculate D2E/DX2 analytically  !
 ! D75   D(4,5,10,7)            31.8964         calculate D2E/DX2 analytically  !
 ! D76   D(4,5,10,8)            79.0636         calculate D2E/DX2 analytically  !
 ! D77   D(4,5,10,11)          136.0493         calculate D2E/DX2 analytically  !
 ! D78   D(3,6,7,4)              5.2978         calculate D2E/DX2 analytically  !
 ! D79   D(3,6,7,10)           -87.7445         calculate D2E/DX2 analytically  !
 ! D80   D(9,6,7,4)             87.744          calculate D2E/DX2 analytically  !
 ! D81   D(9,6,7,10)            -5.2983         calculate D2E/DX2 analytically  !
 ! D82   D(12,6,7,4)            46.5217         calculate D2E/DX2 analytically  !
 ! D83   D(12,6,7,10)          -46.5207         calculate D2E/DX2 analytically  !
 ! D84   D(2,6,8,10)           -74.0677         calculate D2E/DX2 analytically  !
 ! D85   D(2,6,8,11)          -130.993          calculate D2E/DX2 analytically  !
 ! D86   D(3,6,8,10)           -13.2548         calculate D2E/DX2 analytically  !
 ! D87   D(3,6,8,11)           -70.1801         calculate D2E/DX2 analytically  !
 ! D88   D(12,6,8,10)           48.6562         calculate D2E/DX2 analytically  !
 ! D89   D(12,6,8,11)           -8.2691         calculate D2E/DX2 analytically  !
 ! D90   D(2,6,9,5)            -24.2966         calculate D2E/DX2 analytically  !
 ! D91   D(2,6,9,10)            34.01           calculate D2E/DX2 analytically  !
 ! D92   D(2,6,9,11)            99.0933         calculate D2E/DX2 analytically  !
 ! D93   D(3,6,9,5)             22.7577         calculate D2E/DX2 analytically  !
 ! D94   D(3,6,9,10)            81.0643         calculate D2E/DX2 analytically  !
 ! D95   D(3,6,9,11)           146.1477         calculate D2E/DX2 analytically  !
 ! D96   D(7,6,9,5)            -53.0313         calculate D2E/DX2 analytically  !
 ! D97   D(7,6,9,10)             5.2753         calculate D2E/DX2 analytically  !
 ! D98   D(7,6,9,11)            70.3586         calculate D2E/DX2 analytically  !
 ! D99   D(2,7,8,9)             92.4211         calculate D2E/DX2 analytically  !
 ! D100  D(2,7,8,11)           140.8493         calculate D2E/DX2 analytically  !
 ! D101  D(4,7,8,9)             15.9675         calculate D2E/DX2 analytically  !
 ! D102  D(4,7,8,11)            64.3956         calculate D2E/DX2 analytically  !
 ! D103  D(2,7,10,5)            28.7713         calculate D2E/DX2 analytically  !
 ! D104  D(2,7,10,9)           -33.6564         calculate D2E/DX2 analytically  !
 ! D105  D(2,7,10,11)          -84.6954         calculate D2E/DX2 analytically  !
 ! D106  D(4,7,10,5)           -31.8345         calculate D2E/DX2 analytically  !
 ! D107  D(4,7,10,9)           -94.2622         calculate D2E/DX2 analytically  !
 ! D108  D(4,7,10,11)         -145.3012         calculate D2E/DX2 analytically  !
 ! D109  D(6,7,10,5)            67.9727         calculate D2E/DX2 analytically  !
 ! D110  D(6,7,10,9)             5.545          calculate D2E/DX2 analytically  !
 ! D111  D(6,7,10,11)          -45.4939         calculate D2E/DX2 analytically  !
 ! D112  D(7,8,9,5)              7.6123         calculate D2E/DX2 analytically  !
 ! D113  D(7,8,9,12)           -80.3609         calculate D2E/DX2 analytically  !
 ! D114  D(6,8,10,5)            -4.471          calculate D2E/DX2 analytically  !
 ! D115  D(6,9,10,7)            -5.9054         calculate D2E/DX2 analytically  !
 ! D116  D(12,9,10,7)           47.5897         calculate D2E/DX2 analytically  !
 ! D117  D(5,9,12,3)           -32.9568         calculate D2E/DX2 analytically  !
 ! D118  D(8,9,12,3)            72.7824         calculate D2E/DX2 analytically  !
 ! D119  D(10,9,12,3)           -4.9627         calculate D2E/DX2 analytically  !
 ! D120  D(11,9,12,3)          131.6513         calculate D2E/DX2 analytically  !
 --------------------------------------------------------------------------------
 Trust Radius=3.00D-01 FncErr=1.00D-07 GrdErr=1.00D-06
 Number of steps in this run= 100 maximum allowed number of steps= 100.
 GradGradGradGradGradGradGradGradGradGradGradGradGradGradGradGradGradGrad

                          Input orientation:                          
 ---------------------------------------------------------------------
 Center     Atomic     Atomic              Coordinates (Angstroms)
 Number     Number      Type              X           Y           Z
 ---------------------------------------------------------------------
    1         14             0        3.679000   -0.070325   -0.171272
    2         14             0        1.847218   -1.754140   -0.198511
    3         14             0        1.720160    0.590524    0.907969
    4         14             0        1.767996    0.721130   -1.594914
    5         14             0       -0.000037    1.957840   -0.401109
    6         14             0        0.000037   -1.476406    1.359221
    7         14             0       -0.000002   -0.999392   -1.474001
    8         14             0       -1.847166   -1.754202   -0.198460
    9         14             0       -1.720126    0.590496    0.907941
   10         14             0       -1.768031    0.721079   -1.594941
   11         14             0       -3.678973   -0.070414   -0.171237
   12         14             0        0.000005    0.605669    2.567305
 ---------------------------------------------------------------------
                    Distance matrix (angstroms):
                    1          2          3          4          5
     1  Si   0.000000
     2  Si   2.488252   0.000000
     3  Si   2.332067   2.595745   0.000000
     4  Si   2.510995   2.843093   2.506745   0.000000
     5  Si   4.207326   4.151168   2.557795   2.465880   0.000000
     6  Si   4.225428   2.432230   2.726656   4.084331   3.859120
     7  Si   4.011898   2.368278   3.340744   2.469946   3.145841
     8  Si   5.777083   3.694384   4.409959   4.598559   4.151169
     9  Si   5.545444   4.409932   3.440286   4.295153   2.557723
    10  Si   5.685358   4.598560   4.295239   3.536027   2.465890
    11  Si   7.357973   5.777064   5.545463   5.685321   4.207282
    12  Si   4.635922   4.078067   2.390096   4.523626   3.261878
                    6          7          8          9         10
     6  Si   0.000000
     7  Si   2.873098   0.000000
     8  Si   2.432221   2.368282   0.000000
     9  Si   2.726664   3.340691   2.595741   0.000000
    10  Si   4.084370   2.469934   2.843139   2.506744   0.000000
    11  Si   4.225427   4.011860   2.488252   2.332061   2.510995
    12  Si   2.407177   4.348376   4.078050   2.390098   4.523667
                   11         12
    11  Si   0.000000
    12  Si   4.635901   0.000000
 Stoichiometry    Si12
 Framework group  C1[X(Si12)]
 Deg. of freedom    30
 Full point group                 C1
 Largest Abelian subgroup         C1      NOp   1
 Largest concise Abelian subgroup C1      NOp   1
                         Standard orientation:                         
 ---------------------------------------------------------------------
 Center     Atomic     Atomic              Coordinates (Angstroms)
 Number     Number      Type              X           Y           Z
 ---------------------------------------------------------------------
    1         14             0        3.678993   -0.165946    0.010708
    2         14             0        1.847191   -0.005797    1.687089
    3         14             0        1.720162    0.833124   -0.766065
    4         14             0        1.767997   -1.668762   -0.617571
    5         14             0       -0.000020   -0.619867   -1.979370
    6         14             0        0.000015    1.511394    1.237854
    7         14             0       -0.000021   -1.357298    1.078818
    8         14             0       -1.847193   -0.005742    1.687101
    9         14             0       -1.720124    0.833097   -0.766075
   10         14             0       -1.768030   -1.668785   -0.617559
   11         14             0       -3.678980   -0.165905    0.010705
   12         14             0        0.000008    2.480486   -0.965635
 ---------------------------------------------------------------------
 Rotational constants (GHZ):      0.5498591      0.2949755      0.2834028
 Standard basis: LANL2DZ (5D, 7F)
 There are    96 symmetry adapted basis functions of A   symmetry.
 Integral buffers will be    131072 words long.
 Raffenetti 2 integral format.
 Two-electron integral symmetry is turned on.
    96 basis functions,   144 primitive gaussians,    96 cartesian basis functions
    24 alpha electrons       24 beta electrons
       nuclear repulsion energy       169.5111590364 Hartrees.
 NAtoms=   12 NActive=   12 NUniq=   12 SFac= 7.50D-01 NAtFMM=   80 NAOKFM=F Big=F
 One-electron integrals computed using PRISM.
   1 Symmetry operations used in ECPInt.
 ECPInt:  NShTT=    1176 NPrTT=    2652 LenC2=    1177 LenP2D=    2550.
 LDataN:  DoStor=F MaxTD1= 3 Len=   28
 LDataN:  DoStor=T MaxTD1= 3 Len=   28
 NBasis=    96 RedAO= T  NBF=    96
 NBsUse=    96 1.00D-06 NBFU=    96
 Harris functional with IExCor=  402 diagonalized for initial guess.
 ExpMin= 8.85D-02 ExpMax= 2.58D+00 ExpMxC= 2.58D+00 IAcc=2 IRadAn=         4 AccDes= 0.00D+00
 HarFok:  IExCor= 402 AccDes= 0.00D+00 IRadAn=         4 IDoV=1
 ScaDFX=  1.000000  1.000000  1.000000  1.000000
 Initial guess orbital symmetries:
       Occupied  (A) (A) (A) (A) (A) (A) (A) (A) (A) (A) (A) (A)
                 (A) (A) (A) (A) (A) (A) (A) (A) (A) (A) (A) (A)
       Virtual   (A) (A) (A) (A) (A) (A) (A) (A) (A) (A) (A) (A)
                 (A) (A) (A) (A) (A) (A) (A) (A) (A) (A) (A) (A)
                 (A) (A) (A) (A) (A) (A) (A) (A) (A) (A) (A) (A)
                 (A) (A) (A) (A) (A) (A) (A) (A) (A) (A) (A) (A)
                 (A) (A) (A) (A) (A) (A) (A) (A) (A) (A) (A) (A)
                 (A) (A) (A) (A) (A) (A) (A) (A) (A) (A) (A) (A)
 The electronic state of the initial guess is 1-A.
 Requested convergence on RMS density matrix=1.00D-08 within 128 cycles.
 Requested convergence on MAX density matrix=1.00D-06.
 Requested convergence on             energy=1.00D-06.
 No special actions if energy rises.
 Keep R1 integrals in memory in canonical form, NReq=    12705918.
 Integral accuracy reduced to 1.0D-05 until final iterations.
 Initial convergence to 1.0D-05 achieved.  Increase integral accuracy.
 SCF Done:  E(RB+HF-LYP) =  -46.2903853823     A.U. after   18 cycles
             Convg  =    0.9133D-08             -V/T =  3.5362
             S**2   =   0.0000
 QCSCF skips out because SCF is already converged.
 Range of M.O.s used for correlation:     1    96
 NBasis=    96 NAE=    24 NBE=    24 NFC=     0 NFV=     0
 NROrb=     96 NOA=    24 NOB=    24 NVA=    72 NVB=    72

 **** Warning!!: The smallest alpha delta epsilon is  0.85339888D-01

   1 Symmetry operations used in ECPInt.
 ECPInt:  NShTT=    1176 NPrTT=    2652 LenC2=    1177 LenP2D=    2550.
 LDataN:  DoStor=F MaxTD1= 4 Len=   56
 LDataN:  DoStor=T MaxTD1= 4 Len=   56
 Symmetrizing basis deriv contribution to polar:
 IMax=3 JMax=2 DiffMx= 0.00D+00
 G2DrvN: will do   13 centers at a time, making    1 passes doing MaxLOS=1.
 FoFDir/FoFCou used for L=0 through L=1.
 DoAtom=TTTTTTTTTTTT
          Differentiating once with respect to electric field.
                with respect to dipole field.
          Differentiating once with respect to nuclear coordinates.
          Store integrals in memory, NReq=    11644854.
          There are  39 degrees of freedom in the 1st order CPHF.
    36 vectors were produced by pass  0.
 AX will form  36 AO Fock derivatives at one time.
    36 vectors were produced by pass  1.
    36 vectors were produced by pass  2.
    36 vectors were produced by pass  3.
    36 vectors were produced by pass  4.
    36 vectors were produced by pass  5.
    32 vectors were produced by pass  6.
     5 vectors were produced by pass  7.
     3 vectors were produced by pass  8.
 Inv2:  IOpt= 1 Iter= 1 AM= 2.37D-15 Conv= 1.00D-12.
 Inverted reduced A of dimension  256 with in-core refinement.
 Isotropic polarizability for W=    0.000000      349.56 Bohr**3.
 End of Minotr Frequency-dependent properties file   721 does not exist.

 **********************************************************************

            Population analysis using the SCF density.

 **********************************************************************

 Orbital symmetries:
       Occupied  (A) (A) (A) (A) (A) (A) (A) (A) (A) (A) (A) (A)
                 (A) (A) (A) (A) (A) (A) (A) (A) (A) (A) (A) (A)
       Virtual   (A) (A) (A) (A) (A) (A) (A) (A) (A) (A) (A) (A)
                 (A) (A) (A) (A) (A) (A) (A) (A) (A) (A) (A) (A)
                 (A) (A) (A) (A) (A) (A) (A) (A) (A) (A) (A) (A)
                 (A) (A) (A) (A) (A) (A) (A) (A) (A) (A) (A) (A)
                 (A) (A) (A) (A) (A) (A) (A) (A) (A) (A) (A) (A)
                 (A) (A) (A) (A) (A) (A) (A) (A) (A) (A) (A) (A)
 The electronic state is 1-A.
 Alpha  occ. eigenvalues --   -0.74700  -0.68384  -0.62387  -0.60686  -0.57236
 Alpha  occ. eigenvalues --   -0.50369  -0.48434  -0.46917  -0.46749  -0.43055
 Alpha  occ. eigenvalues --   -0.38861  -0.35487  -0.33803  -0.32622  -0.31650
 Alpha  occ. eigenvalues --   -0.30848  -0.29331  -0.28040  -0.27380  -0.26816
 Alpha  occ. eigenvalues --   -0.25829  -0.24889  -0.23649  -0.22390
 Alpha virt. eigenvalues --   -0.13856  -0.11648  -0.10700  -0.10400  -0.09302
 Alpha virt. eigenvalues --   -0.08825  -0.07507  -0.07469  -0.07081  -0.05628
 Alpha virt. eigenvalues --   -0.04580  -0.02336  -0.02101  -0.01249  -0.00562
 Alpha virt. eigenvalues --    0.00394   0.01439   0.03364   0.04233   0.05000
 Alpha virt. eigenvalues --    0.05773   0.06493   0.09437   0.12065   0.25682
 Alpha virt. eigenvalues --    0.26591   0.27071   0.27162   0.27823   0.28365
 Alpha virt. eigenvalues --    0.29522   0.29671   0.29745   0.30804   0.30854
 Alpha virt. eigenvalues --    0.31342   0.31596   0.31754   0.33266   0.33714
 Alpha virt. eigenvalues --    0.34545   0.35240   0.35448   0.36202   0.36848
 Alpha virt. eigenvalues --    0.38314   0.38625   0.38858   0.39014   0.39623
 Alpha virt. eigenvalues --    0.40552   0.41801   0.41919   0.43380   0.43507
 Alpha virt. eigenvalues --    0.44523   0.46210   0.47996   0.53586   0.57747
 Alpha virt. eigenvalues --    8.21226   9.94881  10.85336  11.40912  12.04309
 Alpha virt. eigenvalues --   12.23241  12.40243  12.53221  13.25395  13.30037
 Alpha virt. eigenvalues --   14.21912  14.30750
          Condensed to atoms (all electrons):
              1          2          3          4          5          6
     1  Si   3.710623   0.135884  -0.071049   0.090612  -0.017647  -0.014146
     2  Si   0.135884   3.958897  -0.096435  -0.069312  -0.033403   0.122333
     3  Si  -0.071049  -0.096435   4.881421  -0.091121   0.007669  -0.099453
     4  Si   0.090612  -0.069312  -0.091121   3.993595   0.098269  -0.029763
     5  Si  -0.017647  -0.033403   0.007669   0.098269   3.984919  -0.025837
     6  Si  -0.014146   0.122333  -0.099453  -0.029763  -0.025837   4.157781
     7  Si  -0.038606   0.060759  -0.065839   0.040802  -0.057962  -0.103799
     8  Si   0.002798  -0.072041  -0.009181   0.009556  -0.033403   0.122337
     9  Si   0.003191  -0.009182  -0.143071  -0.022300   0.007663  -0.099453
    10  Si   0.002761   0.009557  -0.022294  -0.086734   0.098268  -0.029760
    11  Si  -0.000170   0.002798   0.003191   0.002761  -0.017649  -0.014146
    12  Si   0.000907  -0.040305   0.069955   0.006894  -0.069274   0.073082
              7          8          9         10         11         12
     1  Si  -0.038606   0.002798   0.003191   0.002761  -0.000170   0.000907
     2  Si   0.060759  -0.072041  -0.009182   0.009557   0.002798  -0.040305
     3  Si  -0.065839  -0.009181  -0.143071  -0.022294   0.003191   0.069955
     4  Si   0.040802   0.009556  -0.022300  -0.086734   0.002761   0.006894
     5  Si  -0.057962  -0.033403   0.007663   0.098268  -0.017649  -0.069274
     6  Si  -0.103799   0.122337  -0.099453  -0.029760  -0.014146   0.073082
     7  Si   4.338838   0.060755  -0.065841   0.040800  -0.038608  -0.008575
     8  Si   0.060755   3.958890  -0.096437  -0.069310   0.135887  -0.040306
     9  Si  -0.065841  -0.096437   4.881485  -0.091131  -0.071063   0.069953
    10  Si   0.040800  -0.069310  -0.091131   3.993573   0.090617   0.006896
    11  Si  -0.038608   0.135887  -0.071063   0.090617   3.710640   0.000906
    12  Si  -0.008575  -0.040306   0.069953   0.006896   0.000906   3.602832
 Mulliken atomic charges:
              1
     1  Si   0.194841
     2  Si   0.030451
     3  Si  -0.363792
     4  Si   0.056742
     5  Si   0.058387
     6  Si  -0.059174
     7  Si  -0.162723
     8  Si   0.030454
     9  Si  -0.363814
    10  Si   0.056758
    11  Si   0.194836
    12  Si   0.327034
 Sum of Mulliken charges=   0.00000
 Atomic charges with hydrogens summed into heavy atoms:
              1
     1  Si   0.194841
     2  Si   0.030451
     3  Si  -0.363792
     4  Si   0.056742
     5  Si   0.058387
     6  Si  -0.059174
     7  Si  -0.162723
     8  Si   0.030454
     9  Si  -0.363814
    10  Si   0.056758
    11  Si   0.194836
    12  Si   0.327034
 Sum of Mulliken charges=   0.00000
 APT atomic charges:
              1
     1  Si   0.295521
     2  Si  -0.079529
     3  Si  -0.159271
     4  Si  -0.040777
     5  Si  -0.074883
     6  Si  -0.114146
     7  Si  -0.003277
     8  Si  -0.079519
     9  Si  -0.159277
    10  Si  -0.040763
    11  Si   0.295513
    12  Si   0.160409
 Sum of APT charges=   0.00000
 APT Atomic charges with hydrogens summed into heavy atoms:
              1
     1  Si   0.295521
     2  Si  -0.079529
     3  Si  -0.159271
     4  Si  -0.040777
     5  Si  -0.074883
     6  Si  -0.114146
     7  Si  -0.003277
     8  Si  -0.079519
     9  Si  -0.159277
    10  Si  -0.040763
    11  Si   0.295513
    12  Si   0.160409
 Sum of APT charges=   0.00000
 Electronic spatial extent (au):  <R**2>=  1467.3917
 Charge=     0.0000 electrons
 Dipole moment (field-independent basis, Debye):
    X=     0.0001    Y=     0.2010    Z=     0.5053  Tot=     0.5438
 Quadrupole moment (field-independent basis, Debye-Ang):
   XX=  -152.8226   YY=  -147.4585   ZZ=  -157.2134
   XY=     0.0004   XZ=    -0.0001   YZ=    -0.8611
 Traceless Quadrupole moment (field-independent basis, Debye-Ang):
   XX=    -0.3244   YY=     5.0397   ZZ=    -4.7152
   XY=     0.0004   XZ=    -0.0001   YZ=    -0.8611
 Octapole moment (field-independent basis, Debye-Ang**2):
  XXX=     0.0023  YYY=     2.1804  ZZZ=     4.9615  XYY=    -0.0008
  XXY=    -2.5049  XXZ=    -2.6656  XZZ=     0.0001  YZZ=    -0.3093
  YYZ=     4.4609  XYZ=    -0.0002
 Hexadecapole moment (field-independent basis, Debye-Ang**3):
 XXXX= -3859.8744 YYYY= -1589.3249 ZZZZ= -1533.7634 XXXY=     0.0038
 XXXZ=    -0.0004 YYYX=     0.0032 YYYZ=    -6.7654 ZZZX=    -0.0011
 ZZZY=    -6.6603 XXYY=  -853.2443 XXZZ=  -844.1929 YYZZ=  -514.9386
 XXYZ=     6.1383 YYXZ=     0.0004 ZZXY=     0.0003
 N-N= 1.695111590364D+02 E-N=-4.224945550806D+02  KE= 1.825194242416D+01
  Exact polarizability: 456.163   0.000 301.372   0.000  -1.598 291.157
 Approx polarizability:1470.133   0.0041127.093  -0.002 -15.0791079.280
   1 Symmetry operations used in ECPInt.
 ECPInt:  NShTT=    1176 NPrTT=    2652 LenC2=    1177 LenP2D=    2652.
 LDataN:  DoStor=F MaxTD1= 5 Len=  102
 LDataN:  DoStor=T MaxTD1= 5 Len=  102
 ***** Axes restored to original set *****
 -------------------------------------------------------------------
 Center     Atomic                   Forces (Hartrees/Bohr)
 Number     Number              X              Y              Z
 -------------------------------------------------------------------
    1         14           0.016367260   -0.000018096    0.001081566
    2         14           0.005424360   -0.031345175    0.002167933
    3         14           0.007523114    0.014916179    0.017507747
    4         14           0.003910353    0.009662850   -0.020388903
    5         14           0.000000950    0.040219500   -0.004118241
    6         14           0.000000050   -0.021283667    0.015326713
    7         14           0.000000608   -0.008957125   -0.025322328
    8         14          -0.005423676   -0.031344392    0.002166954
    9         14          -0.007523477    0.014914894    0.017511065
   10         14          -0.003910622    0.009661496   -0.020388376
   11         14          -0.016368625   -0.000018692    0.001081520
   12         14          -0.000000295    0.003592228    0.013374351
 -------------------------------------------------------------------
 Cartesian Forces:  Max     0.040219500 RMS     0.014932330

 GradGradGradGradGradGradGradGradGradGradGradGradGradGradGradGradGradGrad
 Berny optimization.
 Internal  Forces:  Max     0.013179102 RMS     0.003587283
 Search for a local minimum.
 Step number   1 out of a maximum of 100
 All quantities printed in internal units (Hartrees-Bohrs-Radians)
 Second derivative matrix not updated -- analytic derivatives used.
     Eigenvalues ---    0.00274   0.00599   0.00643   0.00757   0.00944
     Eigenvalues ---    0.01023   0.01185   0.01355   0.01408   0.01503
     Eigenvalues ---    0.01792   0.02071   0.02359   0.02516   0.02834
     Eigenvalues ---    0.02977   0.03149   0.03520   0.03619   0.03737
     Eigenvalues ---    0.03887   0.04040   0.04283   0.04736   0.05090
     Eigenvalues ---    0.05916   0.06040   0.06225   0.07147   0.07970
     Eigenvalues --- 1000.000001000.000001000.000001000.000001000.00000
     Eigenvalues --- 1000.000001000.000001000.000001000.000001000.00000
     Eigenvalues --- 1000.000001000.000001000.000001000.000001000.00000
     Eigenvalues --- 1000.000001000.000001000.000001000.000001000.00000
     Eigenvalues --- 1000.000001000.000001000.000001000.000001000.00000
     Eigenvalues --- 1000.000001000.000001000.000001000.000001000.00000
     Eigenvalues --- 1000.000001000.000001000.000001000.000001000.00000
     Eigenvalues --- 1000.000001000.000001000.000001000.000001000.00000
     Eigenvalues --- 1000.000001000.000001000.000001000.000001000.00000
     Eigenvalues --- 1000.000001000.000001000.000001000.000001000.00000
     Eigenvalues --- 1000.000001000.000001000.000001000.000001000.00000
     Eigenvalues --- 1000.000001000.000001000.000001000.000001000.00000
     Eigenvalues --- 1000.000001000.000001000.000001000.000001000.00000
     Eigenvalues --- 1000.000001000.000001000.000001000.000001000.00000
     Eigenvalues --- 1000.000001000.000001000.000001000.000001000.00000
     Eigenvalues --- 1000.000001000.000001000.000001000.000001000.00000
     Eigenvalues --- 1000.000001000.000001000.000001000.000001000.00000
     Eigenvalues --- 1000.000001000.000001000.000001000.000001000.00000
     Eigenvalues --- 1000.000001000.000001000.000001000.000001000.00000
     Eigenvalues --- 1000.000001000.000001000.000001000.000001000.00000
     Eigenvalues --- 1000.000001000.000001000.000001000.000001000.00000
     Eigenvalues --- 1000.000001000.000001000.000001000.000001000.00000
     Eigenvalues --- 1000.000001000.000001000.000001000.000001000.00000
     Eigenvalues --- 1000.000001000.000001000.000001000.000001000.00000
     Eigenvalues --- 1000.000001000.000001000.000001000.000001000.00000
     Eigenvalues --- 1000.000001000.000001000.000001000.000001000.00000
     Eigenvalues --- 1000.000001000.000001000.000001000.000001000.00000
     Eigenvalues --- 1000.000001000.000001000.000001000.000001000.00000
     Eigenvalues --- 1000.000001000.000001000.000001000.000001000.00000
     Eigenvalues --- 1000.000001000.000001000.000001000.000001000.00000
     Eigenvalues --- 1000.000001000.000001000.000001000.000001000.00000
     Eigenvalues --- 1000.000001000.000001000.000001000.000001000.00000
     Eigenvalues --- 1000.000001000.000001000.000001000.000001000.00000
     Eigenvalues --- 1000.000001000.000001000.000001000.000001000.00000
     Eigenvalues --- 1000.000001000.000001000.000001000.000001000.00000
     Eigenvalues --- 1000.000001000.000001000.000001000.000001000.00000
 RFO step:  Lambda=-3.44728413D-02.
 Linear search not attempted -- first point.
 Maximum step size (   0.300) exceeded in Quadratic search.
    -- Step size scaled by   0.448
 Iteration  1 RMS(Cart)=  0.01246746 RMS(Int)=  0.00014321
 Iteration  2 RMS(Cart)=  0.00008673 RMS(Int)=  0.00010244
 Iteration  3 RMS(Cart)=  0.00000001 RMS(Int)=  0.00010244
 Variable       Old X    -DE/DX   Delta X   Delta X   Delta X     New X
                                 (Linear)    (Quad)   (Total)
    R1        4.70212   0.00789   0.00000   0.04707   0.04694   4.74905
    R2        4.40697   0.00692   0.00000   0.03048   0.03049   4.43746
    R3        4.74509   0.00789   0.00000   0.04666   0.04656   4.79165
    R4        4.90525   0.01261   0.00000   0.07762   0.07781   4.98306
    R5        5.37267   0.01157   0.00000   0.07488   0.07491   5.44757
    R6        4.59625   0.00544   0.00000   0.02460   0.02439   4.62064
    R7        4.47540   0.00697   0.00000   0.03811   0.03812   4.51351
    R8        4.73706   0.00876   0.00000   0.04795   0.04768   4.78474
    R9        4.83353   0.01318   0.00000   0.07415   0.07449   4.90802
   R10        5.15263   0.00887   0.00000   0.05914   0.05919   5.21182
   R11        4.51663   0.00528   0.00000   0.02530   0.02513   4.54176
   R12        4.65984   0.01132   0.00000   0.05627   0.05655   4.71639
   R13        4.66752   0.00719   0.00000   0.04189   0.04183   4.70935
   R14        4.83340   0.01292   0.00000   0.07271   0.07303   4.90643
   R15        4.65986   0.01134   0.00000   0.05694   0.05722   4.71708
   R16        5.42937   0.01165   0.00000   0.06807   0.06817   5.49754
   R17        4.59623   0.00538   0.00000   0.02386   0.02364   4.61987
   R18        5.15265   0.00887   0.00000   0.06002   0.06009   5.21274
   R19        4.54891   0.00848   0.00000   0.03778   0.03767   4.58658
   R20        4.47540   0.00696   0.00000   0.03817   0.03817   4.51358
   R21        4.66750   0.00756   0.00000   0.04274   0.04265   4.71015
   R22        4.90524   0.01257   0.00000   0.07802   0.07823   4.98347
   R23        5.37275   0.01187   0.00000   0.07583   0.07585   5.44860
   R24        4.70212   0.00764   0.00000   0.04620   0.04605   4.74816
   R25        4.73706   0.00875   0.00000   0.04773   0.04747   4.78453
   R26        4.40696   0.00698   0.00000   0.03054   0.03055   4.43751
   R27        4.51663   0.00532   0.00000   0.02541   0.02525   4.54189
   R28        4.74509   0.00796   0.00000   0.04724   0.04715   4.79224
    A1        2.06554  -0.00092   0.00000  -0.00629  -0.00626   2.05928
    A2        1.94383  -0.00080   0.00000  -0.00644  -0.00643   1.93739
    A3        1.47418   0.00030   0.00000   0.00172   0.00169   1.47587
    A4        1.76602  -0.00051   0.00000  -0.00270  -0.00274   1.76328
    A5        2.07091  -0.00057   0.00000  -0.00234  -0.00230   2.06861
    A6        1.97324  -0.00151   0.00000  -0.01102  -0.01104   1.96220
    A7        2.75874  -0.00108   0.00000  -0.00872  -0.00883   2.74992
    A8        1.87299   0.00206   0.00000   0.01009   0.01001   1.88300
    A9        1.91441  -0.00062   0.00000  -0.00961  -0.00958   1.90482
   A10        1.78931  -0.00064   0.00000  -0.00436  -0.00434   1.78496
   A11        2.35546   0.00041   0.00000  -0.00058  -0.00064   2.35483
   A12        1.63650   0.00294   0.00000   0.01611   0.01602   1.65252
   A13        1.43832   0.00168   0.00000   0.00961   0.00967   1.44799
   A14        2.01448  -0.00008   0.00000  -0.00076  -0.00068   2.01380
   A15        1.87282  -0.00069   0.00000  -0.00629  -0.00628   1.86654
   A16        1.79142   0.00285   0.00000   0.01557   0.01555   1.80697
   A17        1.47180   0.00106   0.00000   0.00711   0.00716   1.47896
   A18        1.38210   0.00426   0.00000   0.02463   0.02459   1.40670
   A19        1.47522  -0.00374   0.00000  -0.01942  -0.01931   1.45590
   A20        2.05089  -0.00516   0.00000  -0.02730  -0.02713   2.02376
   A21        2.05088  -0.00525   0.00000  -0.02736  -0.02718   2.02370
   A22        1.59895  -0.00407   0.00000  -0.02190  -0.02192   1.57703
   A23        1.72498  -0.00066   0.00000  -0.00466  -0.00469   1.72029
   A24        2.04843  -0.00028   0.00000  -0.00221  -0.00221   2.04622
   A25        2.00446   0.00054   0.00000   0.00262   0.00262   2.00708
   A26        1.27756   0.00049   0.00000   0.00214   0.00213   1.27969
   A27        2.04846  -0.00024   0.00000  -0.00192  -0.00192   2.04654
   A28        1.36532  -0.00175   0.00000  -0.01148  -0.01147   1.35386
   A29        1.27754   0.00046   0.00000   0.00196   0.00195   1.27949
   A30        1.92975   0.00071   0.00000   0.00174   0.00171   1.93146
   A31        2.00445   0.00054   0.00000   0.00253   0.00253   2.00699
   A32        1.78924  -0.00165   0.00000  -0.01308  -0.01310   1.77614
   A33        2.50932  -0.00194   0.00000  -0.01187  -0.01190   2.49742
   A34        1.73546  -0.00086   0.00000  -0.00449  -0.00454   1.73092
   A35        2.50930  -0.00196   0.00000  -0.01215  -0.01219   2.49712
   A36        1.59557  -0.00231   0.00000  -0.01551  -0.01556   1.58002
   A37        1.73548  -0.00083   0.00000  -0.00435  -0.00439   1.73109
   A38        1.76602  -0.00047   0.00000  -0.00243  -0.00247   1.76355
   A39        2.06555  -0.00088   0.00000  -0.00610  -0.00608   2.05947
   A40        1.47415   0.00027   0.00000   0.00156   0.00153   1.47568
   A41        1.94380  -0.00076   0.00000  -0.00630  -0.00630   1.93749
   A42        1.63653   0.00300   0.00000   0.01621   0.01612   1.65265
   A43        1.87303   0.00212   0.00000   0.01030   0.01022   1.88326
   A44        2.07093  -0.00049   0.00000  -0.00166  -0.00162   2.06931
   A45        1.43835   0.00172   0.00000   0.00988   0.00993   1.44828
   A46        1.78933  -0.00053   0.00000  -0.00419  -0.00419   1.78514
   A47        1.97324  -0.00159   0.00000  -0.01169  -0.01171   1.96152
   A48        1.91440  -0.00064   0.00000  -0.01007  -0.01006   1.90434
   A49        2.35551   0.00052   0.00000  -0.00005  -0.00012   2.35539
   A50        2.75871  -0.00121   0.00000  -0.00978  -0.00989   2.74881
   A51        1.38210   0.00419   0.00000   0.02436   0.02432   1.40643
   A52        1.79140   0.00274   0.00000   0.01509   0.01508   1.80647
   A53        2.01444  -0.00010   0.00000  -0.00102  -0.00094   2.01351
   A54        1.47178   0.00095   0.00000   0.00692   0.00698   1.47876
   A55        1.87280  -0.00086   0.00000  -0.00682  -0.00680   1.86600
   A56        1.60673  -0.00110   0.00000  -0.00230  -0.00238   1.60435
   A57        3.10651  -0.00035   0.00000  -0.00214  -0.00210   3.10441
   A58        2.11737  -0.00499   0.00000  -0.02639  -0.02622   2.09115
   A59        3.10650  -0.00028   0.00000  -0.00175  -0.00171   3.10479
   A60        4.90504   0.00049   0.00000   0.00361   0.00356   4.90861
   A61        2.74022  -0.00170   0.00000  -0.00909  -0.00909   2.73113
   A62        4.90500   0.00048   0.00000   0.00341   0.00336   4.90837
    D1       -0.13288  -0.00071   0.00000  -0.00119  -0.00112  -0.13400
    D2        1.40251   0.00168   0.00000   0.01004   0.01005   1.41256
    D3        0.07800   0.00125   0.00000   0.00568   0.00564   0.08364
    D4        2.28629  -0.00016   0.00000  -0.00080  -0.00079   2.28550
    D5        1.22491  -0.00126   0.00000  -0.00764  -0.00761   1.21730
    D6        0.14436  -0.00064   0.00000  -0.00207  -0.00204   0.14232
    D7        1.29275   0.00040   0.00000   0.00323   0.00323   1.29598
    D8        0.23136  -0.00070   0.00000  -0.00362  -0.00359   0.22777
    D9       -0.84918  -0.00008   0.00000   0.00196   0.00198  -0.84720
   D10       -2.45827   0.00079   0.00000   0.00444   0.00438  -2.45389
   D11       -1.12386   0.00028   0.00000   0.00091   0.00093  -1.12294
   D12       -1.61304   0.00063   0.00000   0.00092   0.00090  -1.61213
   D13       -0.27863   0.00012   0.00000  -0.00261  -0.00255  -0.28118
   D14        0.10306  -0.00027   0.00000  -0.00219  -0.00222   0.10084
   D15       -0.83061   0.00007   0.00000   0.00401   0.00399  -0.82662
   D16        2.49275  -0.00078   0.00000  -0.00571  -0.00566   2.48709
   D17        1.58953   0.00026   0.00000  -0.00065  -0.00079   1.58874
   D18        1.35510  -0.00100   0.00000  -0.00703  -0.00682   1.34828
   D19        0.45188   0.00004   0.00000  -0.00197  -0.00194   0.44994
   D20        0.41758  -0.00070   0.00000  -0.00224  -0.00212   0.41546
   D21       -0.48564   0.00034   0.00000   0.00282   0.00275  -0.48288
   D22       -0.53558  -0.00075   0.00000   0.00068   0.00073  -0.53485
   D23       -1.43880   0.00029   0.00000   0.00574   0.00561  -1.43319
   D24       -1.22797   0.00070   0.00000   0.00294   0.00294  -1.22503
   D25       -1.72948   0.00011   0.00000   0.00011   0.00017  -1.72932
   D26       -2.55071  -0.00018   0.00000  -0.00180  -0.00175  -2.55246
   D27       -0.09206   0.00030   0.00000   0.00228   0.00230  -0.08976
   D28       -0.59357  -0.00028   0.00000  -0.00055  -0.00047  -0.59405
   D29       -1.41480  -0.00057   0.00000  -0.00246  -0.00239  -1.41719
   D30        0.92555   0.00113   0.00000   0.00521   0.00510   0.93065
   D31        0.42404   0.00055   0.00000   0.00239   0.00232   0.42637
   D32       -0.39718   0.00026   0.00000   0.00047   0.00041  -0.39678
   D33        0.75947  -0.00044   0.00000  -0.00374  -0.00378   0.75569
   D34        1.71661  -0.00082   0.00000  -0.00735  -0.00737   1.70924
   D35        2.49468  -0.00066   0.00000  -0.00651  -0.00658   2.48811
   D36       -0.11719  -0.00016   0.00000  -0.00234  -0.00233  -0.11951
   D37        0.83995  -0.00055   0.00000  -0.00594  -0.00592   0.83403
   D38        1.61803  -0.00038   0.00000  -0.00510  -0.00512   1.61290
   D39       -1.08602   0.00074   0.00000   0.00569   0.00566  -1.08037
   D40       -0.12888   0.00036   0.00000   0.00208   0.00206  -0.12682
   D41        0.64919   0.00052   0.00000   0.00292   0.00286   0.65205
   D42       -2.07993   0.00077   0.00000   0.00860   0.00859  -2.07135
   D43       -1.12279   0.00039   0.00000   0.00499   0.00499  -1.11780
   D44       -0.34472   0.00055   0.00000   0.00583   0.00579  -0.33893
   D45       -2.29769   0.00094   0.00000   0.01396   0.01356  -2.28413
   D46       -1.27026  -0.00125   0.00000  -0.01019  -0.01017  -1.28042
   D47        0.08662  -0.00192   0.00000  -0.01782  -0.01779   0.06884
   D48        0.57519   0.00153   0.00000   0.00410   0.00395   0.57913
   D49       -1.38863  -0.00087   0.00000  -0.00263  -0.00256  -1.39120
   D50       -2.37452   0.00092   0.00000   0.00706   0.00687  -2.36765
   D51       -0.39403  -0.00002   0.00000   0.00107   0.00102  -0.39300
   D52       -1.37991   0.00177   0.00000   0.01076   0.01045  -1.36946
   D53        0.42919   0.00024   0.00000   0.00133   0.00146   0.43065
   D54       -0.55669   0.00204   0.00000   0.01102   0.01089  -0.54581
   D55        0.79403   0.00085   0.00000   0.00437   0.00440   0.79844
   D56        1.47819   0.00003   0.00000  -0.00198  -0.00192   1.47627
   D57        2.53603  -0.00044   0.00000  -0.00297  -0.00289   2.53314
   D58       -0.09677   0.00030   0.00000   0.00214   0.00217  -0.09461
   D59        0.58739  -0.00052   0.00000  -0.00421  -0.00416   0.58323
   D60        1.64522  -0.00099   0.00000  -0.00520  -0.00513   1.64010
   D61       -1.18637  -0.00021   0.00000  -0.00161  -0.00161  -1.18799
   D62       -0.50221  -0.00102   0.00000  -0.00796  -0.00794  -0.51015
   D63        0.55562  -0.00150   0.00000  -0.00895  -0.00890   0.54672
   D64       -0.41758   0.00070   0.00000   0.00231   0.00219  -0.41539
   D65       -1.35509   0.00100   0.00000   0.00741   0.00720  -1.34789
   D66       -2.49277   0.00082   0.00000   0.00626   0.00621  -2.48656
   D67        0.53558   0.00074   0.00000  -0.00072  -0.00077   0.53481
   D68        0.48562  -0.00033   0.00000  -0.00279  -0.00273   0.48290
   D69       -0.45189  -0.00003   0.00000   0.00231   0.00228  -0.44961
   D70       -1.58956  -0.00021   0.00000   0.00115   0.00129  -1.58827
   D71        1.43879  -0.00029   0.00000  -0.00582  -0.00569   1.43310
   D72       -0.42917  -0.00023   0.00000  -0.00133  -0.00145  -0.43062
   D73        0.39405  -0.00001   0.00000  -0.00116  -0.00111   0.39294
   D74        1.38864   0.00068   0.00000   0.00194   0.00188   1.39052
   D75        0.55670  -0.00208   0.00000  -0.01110  -0.01097   0.54573
   D76        1.37992  -0.00187   0.00000  -0.01093  -0.01063   1.36929
   D77        2.37451  -0.00118   0.00000  -0.00783  -0.00763   2.36687
   D78        0.09246  -0.00028   0.00000  -0.00216  -0.00219   0.09027
   D79       -1.53143   0.00240   0.00000   0.01534   0.01533  -1.51610
   D80        1.53142  -0.00242   0.00000  -0.01561  -0.01560   1.51582
   D81       -0.09247   0.00026   0.00000   0.00189   0.00191  -0.09056
   D82        0.81196  -0.00134   0.00000  -0.00875  -0.00875   0.80320
   D83       -0.81194   0.00134   0.00000   0.00875   0.00876  -0.80318
   D84       -1.29273  -0.00043   0.00000  -0.00319  -0.00318  -1.29591
   D85       -2.28626   0.00011   0.00000   0.00063   0.00063  -2.28563
   D86       -0.23134   0.00067   0.00000   0.00357   0.00355  -0.22779
   D87       -1.22487   0.00121   0.00000   0.00740   0.00737  -1.21751
   D88        0.84921   0.00005   0.00000  -0.00185  -0.00187   0.84734
   D89       -0.14432   0.00059   0.00000   0.00197   0.00194  -0.14238
   D90       -0.42406  -0.00056   0.00000  -0.00242  -0.00236  -0.42641
   D91        0.59359   0.00031   0.00000   0.00089   0.00082   0.59441
   D92        1.72950  -0.00003   0.00000   0.00045   0.00039   1.72989
   D93        0.39720  -0.00024   0.00000  -0.00034  -0.00028   0.39692
   D94        1.41484   0.00063   0.00000   0.00297   0.00290   1.41774
   D95        2.55076   0.00029   0.00000   0.00253   0.00247   2.55323
   D96       -0.92557  -0.00115   0.00000  -0.00529  -0.00518  -0.93075
   D97        0.09207  -0.00028   0.00000  -0.00198  -0.00200   0.09007
   D98        1.22799  -0.00062   0.00000  -0.00242  -0.00243   1.22556
   D99        1.61305  -0.00060   0.00000  -0.00054  -0.00053   1.61253
   D100       2.45828  -0.00075   0.00000  -0.00417  -0.00411   2.45418
   D101       0.27868  -0.00006   0.00000   0.00314   0.00308   0.28176
   D102       1.12392  -0.00021   0.00000  -0.00048  -0.00050   1.12341
   D103       0.50215   0.00096   0.00000   0.00762   0.00759   0.50975
   D104      -0.58742   0.00051   0.00000   0.00425   0.00420  -0.58321
   D105      -1.47821  -0.00007   0.00000   0.00194   0.00189  -1.47632
   D106      -0.55562   0.00149   0.00000   0.00900   0.00896  -0.54665
   D107      -1.64519   0.00104   0.00000   0.00564   0.00557  -1.63961
   D108      -2.53598   0.00046   0.00000   0.00333   0.00326  -2.53272
   D109       1.18635   0.00018   0.00000   0.00154   0.00153   1.18788
   D110       0.09678  -0.00028   0.00000  -0.00183  -0.00186   0.09492
   D111      -0.79402  -0.00085   0.00000  -0.00414  -0.00417  -0.79819
   D112       0.13286   0.00070   0.00000   0.00083   0.00076   0.13362
   D113      -1.40256  -0.00174   0.00000  -0.01062  -0.01062  -1.41319
   D114      -0.07803  -0.00121   0.00000  -0.00571  -0.00566  -0.08370
   D115      -0.10307   0.00025   0.00000   0.00188   0.00191  -0.10116
   D116       0.83060  -0.00003   0.00000  -0.00458  -0.00458   0.82602
   D117      -0.57520  -0.00156   0.00000  -0.00427  -0.00412  -0.57932
   D118       1.27029   0.00129   0.00000   0.01036   0.01032   1.28061
   D119      -0.08662   0.00185   0.00000   0.01804   0.01803  -0.06858
   D120       2.29775  -0.00099   0.00000  -0.01472  -0.01428   2.28347
         Item               Value     Threshold  Converged?
 Maximum Force            0.013179     0.000450     NO 
 RMS     Force            0.003587     0.000300     NO 
 Maximum Displacement     0.111007     0.001800     NO 
 RMS     Displacement     0.012472     0.001200     NO 
 Predicted change in Energy=-1.352873D-02
 GradGradGradGradGradGradGradGradGradGradGradGradGradGradGradGradGradGrad

                          Input orientation:                          
 ---------------------------------------------------------------------
 Center     Atomic     Atomic              Coordinates (Angstroms)
 Number     Number      Type              X           Y           Z
 ---------------------------------------------------------------------
    1         14             0        3.695854   -0.073009   -0.168813
    2         14             0        1.853187   -1.781633   -0.197151
    3         14             0        1.727868    0.604358    0.918505
    4         14             0        1.770252    0.729762   -1.610009
    5         14             0        0.000008    2.016582   -0.410266
    6         14             0       -0.000028   -1.496803    1.372295
    7         14             0       -0.000008   -1.020677   -1.497652
    8         14             0       -1.853022   -1.781561   -0.196790
    9         14             0       -1.727641    0.605107    0.917929
   10         14             0       -1.770594    0.729998   -1.610489
   11         14             0       -3.695675   -0.073614   -0.168514
   12         14             0       -0.000118    0.603347    2.588945
 ---------------------------------------------------------------------
                    Distance matrix (angstroms):
                    1          2          3          4          5
     1  Si   0.000000
     2  Si   2.513090   0.000000
     3  Si   2.348202   2.636920   0.000000
     4  Si   2.535632   2.882733   2.531976   0.000000
     5  Si   4.252525   4.231563   2.597212   2.495807   0.000000
     6  Si   4.249912   2.445137   2.757975   4.121361   3.939721
     7  Si   4.040208   2.388448   3.385868   2.492083   3.226043
     8  Si   5.806028   3.706209   4.445139   4.629475   4.231452
     9  Si   5.572715   4.445476   3.455509   4.317553   2.596370
    10  Si   5.710106   4.630076   4.318661   3.540846   2.496170
    11  Si   7.391529   5.805860   5.572797   5.709612   4.252697
    12  Si   4.660783   4.109161   2.403395   4.558662   3.315494
                    6          7          8          9         10
     6  Si   0.000000
     7  Si   2.909174   0.000000
     8  Si   2.444729   2.388483   0.000000
     9  Si   2.758464   3.385694   2.637139   0.000000
    10  Si   4.121960   2.492504   2.883274   2.531865   0.000000
    11  Si   4.249396   4.039987   2.512619   2.348229   2.535945
    12  Si   2.427111   4.397468   4.108693   2.403463   4.559153
                   11         12
    11  Si   0.000000
    12  Si   4.660364   0.000000
 Stoichiometry    Si12
 Framework group  C1[X(Si12)]
 Deg. of freedom    30
 Full point group                 C1
 Largest Abelian subgroup         C1      NOp   1
 Largest concise Abelian subgroup C1      NOp   1
                         Standard orientation:                         
 ---------------------------------------------------------------------
 Center     Atomic     Atomic              Coordinates (Angstroms)
 Number     Number      Type              X           Y           Z
 ---------------------------------------------------------------------
    1         14             0        3.695845   -0.162883    0.017145
    2         14             0        1.853179    0.041517    1.713737
    3         14             0        1.727874    0.822204   -0.801849
    4         14             0        1.770219   -1.699863   -0.582099
    5         14             0       -0.000007   -0.686311   -2.020174
    6         14             0       -0.000012    1.557651    1.218041
    7         14             0       -0.000036   -1.350388    1.136779
    8         14             0       -1.853030    0.041921    1.713613
    9         14             0       -1.727635    0.821584   -0.802516
   10         14             0       -1.770627   -1.700317   -0.582271
   11         14             0       -3.695684   -0.162393    0.017696
   12         14             0       -0.000086    2.477278   -1.028102
 ---------------------------------------------------------------------
 Rotational constants (GHZ):      0.5344641      0.2905265      0.2801937
 Standard basis: LANL2DZ (5D, 7F)
 There are    96 symmetry adapted basis functions of A   symmetry.
 Integral buffers will be    131072 words long.
 Raffenetti 2 integral format.
 Two-electron integral symmetry is turned on.
    96 basis functions,   144 primitive gaussians,    96 cartesian basis functions
    24 alpha electrons       24 beta electrons
       nuclear repulsion energy       167.8828138593 Hartrees.
 NAtoms=   12 NActive=   12 NUniq=   12 SFac= 7.50D-01 NAtFMM=   80 NAOKFM=F Big=F
 One-electron integrals computed using PRISM.
   1 Symmetry operations used in ECPInt.
 ECPInt:  NShTT=    1176 NPrTT=    2652 LenC2=    1177 LenP2D=    2550.
 LDataN:  DoStor=F MaxTD1= 3 Len=   28
 LDataN:  DoStor=T MaxTD1= 3 Len=   28
 NBasis=    96 RedAO= T  NBF=    96
 NBsUse=    96 1.00D-06 NBFU=    96
 Initial guess read from the read-write file:
 Initial guess orbital symmetries:
       Occupied  (A) (A) (A) (A) (A) (A) (A) (A) (A) (A) (A) (A)
                 (A) (A) (A) (A) (A) (A) (A) (A) (A) (A) (A) (A)
       Virtual   (A) (A) (A) (A) (A) (A) (A) (A) (A) (A) (A) (A)
                 (A) (A) (A) (A) (A) (A) (A) (A) (A) (A) (A) (A)
                 (A) (A) (A) (A) (A) (A) (A) (A) (A) (A) (A) (A)
                 (A) (A) (A) (A) (A) (A) (A) (A) (A) (A) (A) (A)
                 (A) (A) (A) (A) (A) (A) (A) (A) (A) (A) (A) (A)
                 (A) (A) (A) (A) (A) (A) (A) (A) (A) (A) (A) (A)
 Harris functional with IExCor=  402 diagonalized for initial guess.
 ExpMin= 8.85D-02 ExpMax= 2.58D+00 ExpMxC= 2.58D+00 IAcc=2 IRadAn=         4 AccDes= 0.00D+00
 HarFok:  IExCor= 402 AccDes= 0.00D+00 IRadAn=         4 IDoV=1
 ScaDFX=  1.000000  1.000000  1.000000  1.000000
 Requested convergence on RMS density matrix=1.00D-08 within 128 cycles.
 Requested convergence on MAX density matrix=1.00D-06.
 Requested convergence on             energy=1.00D-06.
 No special actions if energy rises.
 Keep R1 integrals in memory in canonical form, NReq=    12705918.
 Integral accuracy reduced to 1.0D-05 until final iterations.
 Initial convergence to 1.0D-05 achieved.  Increase integral accuracy.
 SCF Done:  E(RB+HF-LYP) =  -46.3039588289     A.U. after   17 cycles
             Convg  =    0.9100D-08             -V/T =  3.5602
             S**2   =   0.0000
 QCSCF skips out because SCF is already converged.
 Range of M.O.s used for correlation:     1    96
 NBasis=    96 NAE=    24 NBE=    24 NFC=     0 NFV=     0
 NROrb=     96 NOA=    24 NOB=    24 NVA=    72 NVB=    72

 **** Warning!!: The smallest alpha delta epsilon is  0.86569387D-01

   1 Symmetry operations used in ECPInt.
 ECPInt:  NShTT=    1176 NPrTT=    2652 LenC2=    1177 LenP2D=    2550.
 LDataN:  DoStor=F MaxTD1= 4 Len=   56
 LDataN:  DoStor=T MaxTD1= 4 Len=   56
 Symmetrizing basis deriv contribution to polar:
 IMax=3 JMax=2 DiffMx= 0.00D+00
 G2DrvN: will do   13 centers at a time, making    1 passes doing MaxLOS=1.
 FoFDir/FoFCou used for L=0 through L=1.
 DoAtom=TTTTTTTTTTTT
          Differentiating once with respect to electric field.
                with respect to dipole field.
          Differentiating once with respect to nuclear coordinates.
          Store integrals in memory, NReq=    11644861.
          There are  39 degrees of freedom in the 1st order CPHF.
    36 vectors were produced by pass  0.
 AX will form  36 AO Fock derivatives at one time.
    36 vectors were produced by pass  1.
    36 vectors were produced by pass  2.
    36 vectors were produced by pass  3.
    36 vectors were produced by pass  4.
    36 vectors were produced by pass  5.
    31 vectors were produced by pass  6.
     4 vectors were produced by pass  7.
     3 vectors were produced by pass  8.
 Inv2:  IOpt= 1 Iter= 1 AM= 3.40D-15 Conv= 1.00D-12.
 Inverted reduced A of dimension  254 with in-core refinement.
 Isotropic polarizability for W=    0.000000      354.77 Bohr**3.
 End of Minotr Frequency-dependent properties file   721 does not exist.
   1 Symmetry operations used in ECPInt.
 ECPInt:  NShTT=    1176 NPrTT=    2652 LenC2=    1177 LenP2D=    2652.
 LDataN:  DoStor=F MaxTD1= 5 Len=  102
 LDataN:  DoStor=T MaxTD1= 5 Len=  102
 ***** Axes restored to original set *****
 -------------------------------------------------------------------
 Center     Atomic                   Forces (Hartrees/Bohr)
 Number     Number              X              Y              Z
 -------------------------------------------------------------------
    1         14           0.012049631   -0.000124793    0.000996987
    2         14           0.003608678   -0.024507342    0.001979155
    3         14           0.006415090    0.012602658    0.013408148
    4         14           0.002785668    0.007721634   -0.015361831
    5         14           0.000012121    0.030048884   -0.003674244
    6         14           0.000011929   -0.016521558    0.011694342
    7         14          -0.000026887   -0.006515215   -0.019446531
    8         14          -0.003607691   -0.024505196    0.001949706
    9         14          -0.006412179    0.012551786    0.013448550
   10         14          -0.002768747    0.007668828   -0.015352066
   11         14          -0.012063747   -0.000090189    0.000985190
   12         14          -0.000003867    0.001670503    0.009372594
 -------------------------------------------------------------------
 Cartesian Forces:  Max     0.030048884 RMS     0.011462272

 GradGradGradGradGradGradGradGradGradGradGradGradGradGradGradGradGradGrad
 Berny optimization.
 Internal  Forces:  Max     0.010078611 RMS     0.002726595
 Search for a local minimum.
 Step number   2 out of a maximum of 100
 All quantities printed in internal units (Hartrees-Bohrs-Radians)
 Second derivative matrix not updated -- analytic derivatives used.
 Trust test= 1.00D+00 RLast= 3.00D-01 DXMaxT set to 4.24D-01
 Maximum step size (   0.424) exceeded in linear search.
    -- Step size scaled by   0.794
 Quintic linear search produced a step of  1.41427.
 Iteration  1 RMS(Cart)=  0.01763321 RMS(Int)=  0.00039245
 Iteration  2 RMS(Cart)=  0.00016762 RMS(Int)=  0.00034313
 Iteration  3 RMS(Cart)=  0.00000008 RMS(Int)=  0.00034313
 Variable       Old X    -DE/DX   Delta X   Delta X   Delta X     New X
                                 (Linear)    (Quad)   (Total)
    R1        4.74905   0.00603   0.06638   0.00000   0.06594   4.81499
    R2        4.43746   0.00493   0.04312   0.00000   0.04318   4.48064
    R3        4.79165   0.00601   0.06585   0.00000   0.06551   4.85716
    R4        4.98306   0.00982   0.11004   0.00000   0.11067   5.09372
    R5        5.44757   0.00911   0.10594   0.00000   0.10603   5.55361
    R6        4.62064   0.00387   0.03450   0.00000   0.03380   4.65444
    R7        4.51351   0.00524   0.05391   0.00000   0.05394   4.56745
    R8        4.78474   0.00652   0.06743   0.00000   0.06653   4.85127
    R9        4.90802   0.01008   0.10534   0.00000   0.10641   5.01443
   R10        5.21182   0.00704   0.08370   0.00000   0.08384   5.29566
   R11        4.54176   0.00381   0.03554   0.00000   0.03499   4.57675
   R12        4.71639   0.00839   0.07998   0.00000   0.08090   4.79729
   R13        4.70935   0.00549   0.05916   0.00000   0.05898   4.76834
   R14        4.90643   0.00988   0.10329   0.00000   0.10434   5.01076
   R15        4.71708   0.00842   0.08093   0.00000   0.08185   4.79893
   R16        5.49754   0.00890   0.09642   0.00000   0.09677   5.59431
   R17        4.61987   0.00381   0.03343   0.00000   0.03267   4.65254
   R18        5.21274   0.00708   0.08499   0.00000   0.08522   5.29796
   R19        4.58658   0.00608   0.05327   0.00000   0.05292   4.63950
   R20        4.51358   0.00524   0.05399   0.00000   0.05402   4.56759
   R21        4.71015   0.00573   0.06032   0.00000   0.06003   4.77018
   R22        4.98347   0.00982   0.11064   0.00000   0.11134   5.09481
   R23        5.44860   0.00931   0.10727   0.00000   0.10732   5.55592
   R24        4.74816   0.00586   0.06512   0.00000   0.06463   4.81280
   R25        4.78453   0.00651   0.06714   0.00000   0.06627   4.85080
   R26        4.43751   0.00496   0.04321   0.00000   0.04325   4.48076
   R27        4.54189   0.00384   0.03572   0.00000   0.03520   4.57709
   R28        4.79224   0.00608   0.06668   0.00000   0.06639   4.85863
    A1        2.05928  -0.00073  -0.00886   0.00000  -0.00877   2.05052
    A2        1.93739  -0.00067  -0.00910   0.00000  -0.00908   1.92831
    A3        1.47587   0.00022   0.00239   0.00000   0.00229   1.47816
    A4        1.76328  -0.00039  -0.00387   0.00000  -0.00400   1.75928
    A5        2.06861  -0.00040  -0.00326   0.00000  -0.00314   2.06547
    A6        1.96220  -0.00123  -0.01561   0.00000  -0.01566   1.94654
    A7        2.74992  -0.00092  -0.01248   0.00000  -0.01284   2.73708
    A8        1.88300   0.00148   0.01416   0.00000   0.01390   1.89690
    A9        1.90482  -0.00067  -0.01355   0.00000  -0.01347   1.89135
   A10        1.78496  -0.00051  -0.00614   0.00000  -0.00610   1.77887
   A11        2.35483   0.00020  -0.00090   0.00000  -0.00107   2.35375
   A12        1.65252   0.00218   0.02265   0.00000   0.02233   1.67485
   A13        1.44799   0.00128   0.01367   0.00000   0.01385   1.46184
   A14        2.01380  -0.00006  -0.00096   0.00000  -0.00069   2.01311
   A15        1.86654  -0.00060  -0.00888   0.00000  -0.00882   1.85772
   A16        1.80697   0.00213   0.02199   0.00000   0.02190   1.82887
   A17        1.47896   0.00085   0.01013   0.00000   0.01029   1.48925
   A18        1.40670   0.00321   0.03478   0.00000   0.03463   1.44133
   A19        1.45590  -0.00274  -0.02731   0.00000  -0.02691   1.42899
   A20        2.02376  -0.00378  -0.03836   0.00000  -0.03773   1.98604
   A21        2.02370  -0.00383  -0.03843   0.00000  -0.03779   1.98591
   A22        1.57703  -0.00303  -0.03100   0.00000  -0.03102   1.54601
   A23        1.72029  -0.00053  -0.00664   0.00000  -0.00675   1.71354
   A24        2.04622  -0.00023  -0.00312   0.00000  -0.00312   2.04310
   A25        2.00708   0.00039   0.00370   0.00000   0.00371   2.01079
   A26        1.27969   0.00035   0.00301   0.00000   0.00297   1.28266
   A27        2.04654  -0.00020  -0.00272   0.00000  -0.00273   2.04381
   A28        1.35386  -0.00137  -0.01622   0.00000  -0.01617   1.33768
   A29        1.27949   0.00033   0.00276   0.00000   0.00273   1.28223
   A30        1.93146   0.00045   0.00242   0.00000   0.00232   1.93378
   A31        2.00699   0.00039   0.00358   0.00000   0.00359   2.01057
   A32        1.77614  -0.00138  -0.01853   0.00000  -0.01860   1.75754
   A33        2.49742  -0.00149  -0.01684   0.00000  -0.01694   2.48048
   A34        1.73092  -0.00064  -0.00642   0.00000  -0.00658   1.72434
   A35        2.49712  -0.00152  -0.01723   0.00000  -0.01735   2.47977
   A36        1.58002  -0.00184  -0.02200   0.00000  -0.02217   1.55784
   A37        1.73109  -0.00062  -0.00621   0.00000  -0.00637   1.72472
   A38        1.76355  -0.00036  -0.00350   0.00000  -0.00363   1.75992
   A39        2.05947  -0.00071  -0.00860   0.00000  -0.00852   2.05095
   A40        1.47568   0.00020   0.00216   0.00000   0.00207   1.47775
   A41        1.93749  -0.00065  -0.00891   0.00000  -0.00891   1.92859
   A42        1.65265   0.00221   0.02280   0.00000   0.02247   1.67512
   A43        1.88326   0.00152   0.01446   0.00000   0.01418   1.89744
   A44        2.06931  -0.00033  -0.00229   0.00000  -0.00217   2.06714
   A45        1.44828   0.00132   0.01405   0.00000   0.01423   1.46251
   A46        1.78514  -0.00044  -0.00592   0.00000  -0.00593   1.77921
   A47        1.96152  -0.00130  -0.01657   0.00000  -0.01663   1.94489
   A48        1.90434  -0.00070  -0.01422   0.00000  -0.01416   1.89018
   A49        2.35539   0.00028  -0.00016   0.00000  -0.00039   2.35500
   A50        2.74881  -0.00103  -0.01399   0.00000  -0.01435   2.73446
   A51        1.40643   0.00317   0.03440   0.00000   0.03426   1.44069
   A52        1.80647   0.00205   0.02132   0.00000   0.02124   1.82771
   A53        2.01351  -0.00007  -0.00132   0.00000  -0.00104   2.01247
   A54        1.47876   0.00078   0.00987   0.00000   0.01007   1.48883
   A55        1.86600  -0.00071  -0.00962   0.00000  -0.00954   1.85646
   A56        1.60435  -0.00071  -0.00336   0.00000  -0.00363   1.60072
   A57        3.10441  -0.00027  -0.00297   0.00000  -0.00283   3.10158
   A58        2.09115  -0.00365  -0.03708   0.00000  -0.03645   2.05470
   A59        3.10479  -0.00022  -0.00241   0.00000  -0.00228   3.10252
   A60        4.90861   0.00040   0.00504   0.00000   0.00488   4.91349
   A61        2.73113  -0.00127  -0.01285   0.00000  -0.01285   2.71828
   A62        4.90837   0.00039   0.00476   0.00000   0.00460   4.91296
    D1       -0.13400  -0.00043  -0.00158   0.00000  -0.00134  -0.13534
    D2        1.41256   0.00128   0.01421   0.00000   0.01423   1.42678
    D3        0.08364   0.00088   0.00797   0.00000   0.00782   0.09145
    D4        2.28550  -0.00012  -0.00112   0.00000  -0.00110   2.28441
    D5        1.21730  -0.00097  -0.01076   0.00000  -0.01065   1.20664
    D6        0.14232  -0.00043  -0.00288   0.00000  -0.00278   0.13955
    D7        1.29598   0.00034   0.00457   0.00000   0.00456   1.30054
    D8        0.22777  -0.00051  -0.00508   0.00000  -0.00499   0.22278
    D9       -0.84720   0.00002   0.00280   0.00000   0.00288  -0.84432
   D10       -2.45389   0.00059   0.00620   0.00000   0.00601  -2.44788
   D11       -1.12294   0.00021   0.00131   0.00000   0.00138  -1.12156
   D12       -1.61213   0.00037   0.00128   0.00000   0.00122  -1.61091
   D13       -0.28118  -0.00001  -0.00361   0.00000  -0.00341  -0.28459
   D14        0.10084  -0.00023  -0.00314   0.00000  -0.00324   0.09760
   D15       -0.82662   0.00017   0.00564   0.00000   0.00555  -0.82107
   D16        2.48709  -0.00061  -0.00800   0.00000  -0.00784   2.47925
   D17        1.58874   0.00010  -0.00111   0.00000  -0.00158   1.58717
   D18        1.34828  -0.00074  -0.00964   0.00000  -0.00893   1.33935
   D19        0.44994  -0.00003  -0.00275   0.00000  -0.00267   0.44727
   D20        0.41546  -0.00043  -0.00300   0.00000  -0.00259   0.41287
   D21       -0.48288   0.00028   0.00390   0.00000   0.00367  -0.47921
   D22       -0.53485  -0.00038   0.00104   0.00000   0.00121  -0.53364
   D23       -1.43319   0.00033   0.00793   0.00000   0.00747  -1.42573
   D24       -1.22503   0.00049   0.00416   0.00000   0.00415  -1.22088
   D25       -1.72932   0.00008   0.00024   0.00000   0.00042  -1.72889
   D26       -2.55246  -0.00015  -0.00248   0.00000  -0.00231  -2.55477
   D27       -0.08976   0.00025   0.00325   0.00000   0.00332  -0.08645
   D28       -0.59405  -0.00016  -0.00067   0.00000  -0.00041  -0.59446
   D29       -1.41719  -0.00039  -0.00338   0.00000  -0.00314  -1.42033
   D30        0.93065   0.00078   0.00721   0.00000   0.00681   0.93746
   D31        0.42637   0.00037   0.00329   0.00000   0.00308   0.42945
   D32       -0.39678   0.00014   0.00057   0.00000   0.00035  -0.39643
   D33        0.75569  -0.00038  -0.00534   0.00000  -0.00544   0.75025
   D34        1.70924  -0.00072  -0.01042   0.00000  -0.01048   1.69875
   D35        2.48811  -0.00060  -0.00930   0.00000  -0.00950   2.47861
   D36       -0.11951  -0.00017  -0.00329   0.00000  -0.00325  -0.12277
   D37        0.83403  -0.00051  -0.00837   0.00000  -0.00829   0.82574
   D38        1.61290  -0.00039  -0.00725   0.00000  -0.00730   1.60560
   D39       -1.08037   0.00061   0.00800   0.00000   0.00789  -1.07247
   D40       -0.12682   0.00027   0.00292   0.00000   0.00285  -0.12397
   D41        0.65205   0.00038   0.00404   0.00000   0.00384   0.65589
   D42       -2.07135   0.00072   0.01214   0.00000   0.01209  -2.05926
   D43       -1.11780   0.00038   0.00706   0.00000   0.00705  -1.11075
   D44       -0.33893   0.00050   0.00819   0.00000   0.00804  -0.33089
   D45       -2.28413   0.00093   0.01918   0.00000   0.01784  -2.26629
   D46       -1.28042  -0.00104  -0.01438   0.00000  -0.01428  -1.29470
   D47        0.06884  -0.00167  -0.02515   0.00000  -0.02503   0.04381
   D48        0.57913   0.00096   0.00558   0.00000   0.00506   0.58419
   D49       -1.39120  -0.00055  -0.00362   0.00000  -0.00341  -1.39461
   D50       -2.36765   0.00071   0.00972   0.00000   0.00906  -2.35859
   D51       -0.39300   0.00002   0.00144   0.00000   0.00128  -0.39172
[...]
   A59        3.12668   0.00000   0.00000  -0.00072  -0.00072   3.12596
   A60        4.95170   0.00000   0.00000  -0.00032  -0.00032   4.95137
   A61        2.75122   0.00000   0.00000  -0.00071  -0.00071   2.75051
   A62        4.95170   0.00000   0.00000  -0.00033  -0.00033   4.95137
    D1       -0.11414   0.00000   0.00000  -0.00041  -0.00041  -0.11455
    D2        1.36980   0.00000   0.00000   0.00130   0.00129   1.37109
    D3        0.05302   0.00000   0.00000   0.00081   0.00081   0.05383
    D4        2.31789   0.00000   0.00000  -0.00052  -0.00052   2.31737
    D5        1.28032   0.00000   0.00000  -0.00155  -0.00155   1.27878
    D6        0.20521   0.00000   0.00000  -0.00186  -0.00186   0.20335
    D7        1.34938   0.00000   0.00000  -0.00063  -0.00063   1.34875
    D8        0.31182   0.00000   0.00000  -0.00166  -0.00166   0.31016
    D9       -0.76330   0.00000   0.00000  -0.00197  -0.00197  -0.76527
   D10       -2.52043   0.00001   0.00000   0.00118   0.00118  -2.51925
   D11       -1.19265   0.00000   0.00000   0.00129   0.00129  -1.19136
   D12       -1.70071   0.00001   0.00000   0.00134   0.00134  -1.69937
   D13       -0.37293   0.00000   0.00000   0.00145   0.00144  -0.37148
   D14        0.11258   0.00000   0.00000  -0.00001  -0.00001   0.11257
   D15       -0.94079   0.00000   0.00000   0.00272   0.00273  -0.93806
   D16        2.47763   0.00000   0.00000  -0.00011  -0.00012   2.47751
   D17        1.59872   0.00000   0.00000  -0.00015  -0.00015   1.59857
   D18        1.29695   0.00000   0.00000   0.00064   0.00064   1.29759
   D19        0.41804   0.00000   0.00000   0.00060   0.00060   0.41864
   D20        0.33009   0.00000   0.00000   0.00139   0.00139   0.33148
   D21       -0.54882   0.00000   0.00000   0.00136   0.00136  -0.54747
   D22       -0.63934   0.00000   0.00000   0.00188   0.00188  -0.63746
   D23       -1.51825   0.00000   0.00000   0.00184   0.00184  -1.51641
   D24       -1.27043   0.00001   0.00000   0.00079   0.00079  -1.26963
   D25       -1.69048   0.00000   0.00000  -0.00088  -0.00088  -1.69136
   D26       -2.53982   0.00000   0.00000  -0.00046  -0.00046  -2.54028
   D27       -0.09940   0.00000   0.00000   0.00000   0.00000  -0.09940
   D28       -0.51945   0.00000   0.00000  -0.00167  -0.00167  -0.52113
   D29       -1.36879   0.00000   0.00000  -0.00125  -0.00125  -1.37004
   D30        0.94803   0.00000   0.00000  -0.00003  -0.00003   0.94800
   D31        0.52798   0.00000   0.00000  -0.00170  -0.00170   0.52628
   D32       -0.32136   0.00000   0.00000  -0.00128  -0.00128  -0.32264
   D33        0.74993   0.00000   0.00000  -0.00037  -0.00037   0.74956
   D34        1.70873   0.00000   0.00000  -0.00043  -0.00043   1.70830
   D35        2.46989   0.00000   0.00000   0.00000  -0.00001   2.46988
   D36       -0.14147   0.00000   0.00000   0.00022   0.00022  -0.14125
   D37        0.81732   0.00000   0.00000   0.00016   0.00016   0.81748
   D38        1.57848   0.00000   0.00000   0.00059   0.00058   1.57907
   D39       -1.13416   0.00000   0.00000   0.00103   0.00103  -1.13313
   D40       -0.17537   0.00000   0.00000   0.00098   0.00097  -0.17439
   D41        0.58580   0.00001   0.00000   0.00140   0.00140   0.58719
   D42       -2.18129   0.00000   0.00000   0.00227   0.00227  -2.17901
   D43       -1.22249   0.00000   0.00000   0.00222   0.00222  -1.22027
   D44       -0.46133   0.00000   0.00000   0.00264   0.00264  -0.45869
   D45       -2.36843   0.00000   0.00000   0.00289   0.00288  -2.36555
   D46       -1.16371   0.00000   0.00000  -0.00301  -0.00300  -1.16671
   D47        0.30240  -0.00001   0.00000  -0.00530  -0.00531   0.29709
   D48        0.70496   0.00000   0.00000  -0.00225  -0.00226   0.70271
   D49       -1.39795  -0.00001   0.00000  -0.00023  -0.00023  -1.39818
   D50       -2.34879   0.00000   0.00000  -0.00012  -0.00012  -2.34892
   D51       -0.41147   0.00000   0.00000   0.00028   0.00028  -0.41119
   D52       -1.36232   0.00000   0.00000   0.00038   0.00038  -1.36193
   D53        0.39849   0.00000   0.00000   0.00067   0.00067   0.39916
   D54       -0.55235   0.00001   0.00000   0.00078   0.00078  -0.55158
   D55        0.76640   0.00001   0.00000   0.00066   0.00066   0.76707
   D56        1.38599   0.00000   0.00000   0.00156   0.00156   1.38755
   D57        2.55312  -0.00001   0.00000  -0.00052  -0.00052   2.55260
   D58       -0.10247   0.00000   0.00000  -0.00007  -0.00006  -0.10253
   D59        0.51712   0.00000   0.00000   0.00083   0.00083   0.51795
   D60        1.68425  -0.00001   0.00000  -0.00125  -0.00125   1.68300
   D61       -1.20614   0.00001   0.00000   0.00009   0.00009  -1.20605
   D62       -0.58655   0.00000   0.00000   0.00099   0.00099  -0.58557
   D63        0.58057  -0.00001   0.00000  -0.00110  -0.00109   0.57948
   D64       -0.33009  -0.00001   0.00000  -0.00139  -0.00139  -0.33148
   D65       -1.29694   0.00000   0.00000  -0.00065  -0.00065  -1.29759
   D66       -2.47762   0.00000   0.00000   0.00010   0.00010  -2.47751
   D67        0.63934   0.00000   0.00000  -0.00188  -0.00188   0.63746
   D68        0.54882   0.00000   0.00000  -0.00136  -0.00136   0.54747
   D69       -0.41803   0.00000   0.00000  -0.00061  -0.00061  -0.41864
   D70       -1.59871   0.00001   0.00000   0.00014   0.00014  -1.59857
   D71        1.51825   0.00000   0.00000  -0.00184  -0.00184   1.51641
   D72       -0.39850   0.00000   0.00000  -0.00067  -0.00066  -0.39916
   D73        0.41147   0.00000   0.00000  -0.00027  -0.00027   0.41119
   D74        1.39794   0.00001   0.00000   0.00023   0.00023   1.39818
   D75        0.55235  -0.00001   0.00000  -0.00077  -0.00077   0.55158
   D76        1.36231   0.00000   0.00000  -0.00038  -0.00038   1.36193
   D77        2.34879   0.00000   0.00000   0.00012   0.00012   2.34892
   D78        0.09952   0.00000   0.00000   0.00001   0.00001   0.09953
   D79       -1.60332   0.00001   0.00000   0.00171   0.00171  -1.60161
   D80        1.60331  -0.00001   0.00000  -0.00171  -0.00171   1.60161
   D81       -0.09952   0.00000   0.00000   0.00000   0.00000  -0.09953
   D82        0.85142  -0.00001   0.00000  -0.00085  -0.00085   0.85057
   D83       -0.85142   0.00001   0.00000   0.00085   0.00085  -0.85057
   D84       -1.34939   0.00000   0.00000   0.00064   0.00064  -1.34875
   D85       -2.31790   0.00000   0.00000   0.00053   0.00053  -2.31737
   D86       -0.31182   0.00000   0.00000   0.00166   0.00167  -0.31016
   D87       -1.28033   0.00000   0.00000   0.00156   0.00156  -1.27878
   D88        0.76330   0.00000   0.00000   0.00197   0.00197   0.76527
   D89       -0.20521   0.00000   0.00000   0.00187   0.00186  -0.20335
   D90       -0.52797   0.00000   0.00000   0.00169   0.00169  -0.52628
   D91        0.51946   0.00000   0.00000   0.00167   0.00167   0.52113
   D92        1.69048   0.00000   0.00000   0.00087   0.00087   1.69136
   D93        0.32136   0.00000   0.00000   0.00128   0.00128   0.32264
   D94        1.36879   0.00000   0.00000   0.00125   0.00125   1.37004
   D95        2.53982   0.00000   0.00000   0.00046   0.00046   2.54028
   D96       -0.94803   0.00000   0.00000   0.00002   0.00002  -0.94800
   D97        0.09940   0.00000   0.00000   0.00000   0.00000   0.09940
   D98        1.27043  -0.00001   0.00000  -0.00080  -0.00080   1.26963
   D99        1.70071  -0.00001   0.00000  -0.00134  -0.00134   1.69937
   D100       2.52043  -0.00001   0.00000  -0.00118  -0.00118   2.51925
   D101       0.37292   0.00000   0.00000  -0.00144  -0.00143   0.37148
   D102       1.19263   0.00000   0.00000  -0.00128  -0.00127   1.19136
   D103       0.58657   0.00000   0.00000  -0.00100  -0.00100   0.58557
   D104      -0.51710   0.00000   0.00000  -0.00085  -0.00085  -0.51795
   D105      -1.38598   0.00000   0.00000  -0.00157  -0.00157  -1.38755
   D106      -0.58057   0.00001   0.00000   0.00110   0.00110  -0.57948
   D107      -1.68425   0.00001   0.00000   0.00125   0.00125  -1.68300
   D108      -2.55312   0.00001   0.00000   0.00053   0.00052  -2.55260
   D109       1.20614  -0.00001   0.00000  -0.00009  -0.00009   1.20605
   D110       0.10247   0.00000   0.00000   0.00006   0.00006   0.10253
   D111      -0.76640  -0.00001   0.00000  -0.00066  -0.00067  -0.76707
   D112       0.11414   0.00000   0.00000   0.00041   0.00041   0.11455
   D113      -1.36979   0.00000   0.00000  -0.00130  -0.00130  -1.37109
   D114      -0.05302   0.00000   0.00000  -0.00081  -0.00081  -0.05383
   D115      -0.11259   0.00000   0.00000   0.00002   0.00002  -0.11257
   D116       0.94077   0.00000   0.00000  -0.00271  -0.00271   0.93806
   D117      -0.70496   0.00000   0.00000   0.00225   0.00226  -0.70271
   D118       1.16370   0.00000   0.00000   0.00301   0.00301   1.16671
   D119      -0.30239   0.00001   0.00000   0.00529   0.00530  -0.29709
   D120       2.36839   0.00000   0.00000  -0.00285  -0.00284   2.36555
         Item               Value     Threshold  Converged?
 Maximum Force            0.000022     0.000450     YES
 RMS     Force            0.000006     0.000300     YES
 Maximum Displacement     0.005638     0.001800     NO 
 RMS     Displacement     0.000726     0.001200     YES
 Predicted change in Energy=-3.293225D-07
 GradGradGradGradGradGradGradGradGradGradGradGradGradGradGradGradGradGrad

 1\1\GINC-NODE32\Freq\RB3LYP\6-311+G(d)\Si12\TAM\06-Apr-2011\0\\#N Geom
 =AllCheck Guess=Read SCRF=Check GenChk RB3LYP/6-311+G(d) Freq\\si12-n\
 \0,1\Si,3.6711846714,-0.1201802895,-0.1713379506\Si,1.8384552557,-1.80
 97041191,-0.2159121424\Si,1.7259286863,0.5231998222,0.8836922575\Si,1.
 7924399537,0.7395194781,-1.5844290788\Si,-0.0000044956,2.0156658944,-0
 .3395441694\Si,0.0000109382,-1.4620141887,1.3922345897\Si,0.0000190657
 ,-0.8918273991,-1.4372687063\Si,-1.8384163847,-1.8097255477,-0.2159234
 036\Si,-1.7259304271,0.5231894598,0.8836863199\Si,-1.792431708,0.73949
 60213,-1.5844303976\Si,-3.6711707619,-0.1202297006,-0.1713519184\Si,-0
 .0000037937,0.7344695687,2.4985756002\\Version=AM64L-G03RevE.01\State=
 1-A\HF=-3474.1168487\RMSD=6.337e-09\RMSF=2.489e-05\ZeroPoint=0.0184722
 \Thermal=0.0355746\Dipole=0.0000003,-0.1171543,-0.0324814\DipoleDeriv=
 0.4648082,-0.0432942,-0.0792582,-0.0156884,0.1120528,0.0245597,-0.0561
 167,0.014549,0.106497,-0.1335081,-0.050565,-0.0320474,0.0319804,-0.004
 5219,-0.0278556,-0.1002241,0.008852,-0.0486887,-0.0991567,0.0837203,0.
 1862373,0.039687,-0.0963226,0.0272873,0.0899149,0.0848655,-0.1021922,-
 0.1342742,0.1245082,-0.0923003,-0.0050226,-0.0565309,-0.058281,-0.0228
 681,-0.079991,0.0243193,-0.0592454,0.000001,0.0000012,0.0000016,-0.027
 913,-0.0325458,0.0000004,-0.0258387,-0.0258308,-0.2150576,-0.0000029,0
 .0000006,-0.0000024,-0.0450427,-0.024808,0.0000001,-0.0545901,-0.12956
 13,0.1613002,-0.0000006,0.0000012,0.0000008,0.095925,-0.0058653,0.0000
 005,0.0082747,-0.0785933,-0.1335105,0.0505649,0.0320449,-0.0319808,-0.
 0045214,-0.0278539,0.1002226,0.0088536,-0.0486901,-0.0991499,-0.083720
 4,-0.1862375,-0.0396868,-0.0963231,0.0272827,-0.0899155,0.0848653,-0.1
 021935,-0.1342741,-0.1245102,0.0922996,0.0050183,-0.0565347,-0.0582801
 ,0.0228684,-0.0799922,0.0243181,0.4648055,0.0433,0.0792599,0.0156946,0
 .1120539,0.0245606,0.0561185,0.01455,0.1064987,-0.0827374,-0.0000011,-
 0.0000012,-0.0000016,0.0676786,0.1317996,-0.000001,0.0156021,0.274117\
 Polar=484.0096731,0.0010567,316.612572,0.0002145,-1.2886835,318.165820
 6\PG=C01 [X(Si12)]\NImag=0\\0.13560806,-0.00836465,0.03536316,-0.01416
 650,0.00489741,0.03873488,-0.02615974,-0.02355536,-0.00181918,0.093927
 71,-0.01605856,-0.01381797,0.00085996,-0.00709465,0.07051627,-0.000346
 39,-0.00047782,-0.00912778,0.00339190,0.00113201,0.05028844,-0.0678966
 3,0.02120803,0.03401579,0.00166006,0.00382962,-0.00524128,0.12819839,0
 .01897083,-0.00953288,-0.00789421,0.00321430,-0.02354033,-0.01026144,-
 0.02194282,0.05051362,0.03103338,-0.00842452,-0.01911276,0.00018383,-0
 .00675687,-0.00456618,-0.05730226,0.00906799,0.11240538,-0.02645034,0.
 01067048,-0.01878959,-0.00310058,0.00221136,0.00566716,0.00416043,-0.0
 0254371,0.00315480,0.07643500,0.00688968,-0.01244694,0.00212122,0.0050
 8715,-0.00818991,0.00757851,-0.00721569,0.00253153,0.00222174,0.007302
 62,0.05419182,-0.01312580,0.00274577,-0.01199529,0.00453104,0.00081336
 ,-0.00114822,0.00279631,0.00628174,-0.04695414,-0.00059791,-0.01263388
 ,0.07692025,-0.00151363,0.00000597,0.00069082,0.00096569,0.00733029,-0
 .00122097,-0.01044028,0.00813654,-0.00642604,-0.01293418,0.01220673,0.
 00643708,0.05816915,-0.00351295,0.00161543,0.00031820,0.00362199,-0.01
 098712,0.00135309,0.00932604,-0.01265543,0.00701190,0.00831950,-0.0091
 8349,-0.00579837,0.00000004,0.06574223,-0.00079646,0.00239617,0.000249
 35,-0.00174496,-0.00355545,-0.00036005,-0.00524075,0.00808281,-0.00350
 080,0.00569923,-0.00785974,-0.00876825,-0.00000017,-0.00256196,0.03041
 704,-0.00208114,-0.00113611,0.00205934,-0.02392653,0.00297162,0.019605
 08,-0.00460763,-0.01096325,0.00069009,-0.00007379,-0.00433956,0.003682
 06,-0.00699662,0.00000003,-0.00000008,0.07992942,0.00043494,-0.0002417
 9,0.00162929,0.00441562,-0.00297003,-0.01081143,-0.00452386,-0.0126785
 8,0.00402564,-0.00084097,-0.00265719,0.00231753,-0.00000006,-0.0048887
 7,0.00916761,0.00000047,0.07966246,-0.00317965,0.00052952,0.00236458,0
 .01151717,-0.00659447,-0.01705874,0.00356362,0.00581025,-0.00172123,-0
 .00091249,0.00647717,-0.00715858,0.,0.00223276,0.00191769,0.00000026,0
 .01114989,0.07022894,-0.00736233,0.00064436,-0.00044076,-0.03017952,0.
 01374232,-0.02452173,0.00449848,-0.00242771,-0.00332424,-0.02431882,-0
 .02439264,0.00137757,-0.00423329,0.00000001,0.00000007,-0.00378047,-0.
 00000001,0.00000005,0.12791242,0.00242042,-0.00123556,-0.00271825,0.01
 150790,-0.00855388,0.01132306,-0.00542263,0.00406852,-0.00394493,-0.02
 137075,-0.01844678,0.00561846,0.,0.00057233,-0.00150445,0.,-0.00782731
 ,-0.00188067,0.00000124,0.05695131,0.00273042,-0.00276925,-0.00286821,
 -0.01835468,0.01084388,-0.00818653,-0.00562409,-0.00487821,-0.00318148
 ,0.00117200,0.00558492,0.00080267,0.00000003,-0.00107444,-0.00625287,0
 .00000002,0.00053658,-0.01148518,0.00000019,-0.01378943,0.05114225,-0.
 00103168,0.00402351,0.00009871,-0.01249376,-0.00302892,-0.00154277,-0.
 00135843,-0.00235126,-0.00027583,0.00130648,-0.00086227,-0.00223594,0.
 00096581,-0.00362193,0.00174504,-0.02392656,-0.00441601,-0.01151754,-0
 .03017926,-0.01150794,0.01835420,0.09392793,0.00043450,0.00081259,0.00
 119824,0.00302866,0.00460772,0.00162808,0.00409535,-0.00168087,0.00141
 265,0.00108708,-0.00288941,-0.00214994,-0.00733016,-0.01098715,-0.0035
 5546,-0.00297183,-0.00297016,-0.00659457,-0.01374247,-0.00855417,0.010
 84384,0.00709455,0.07051550,-0.00023216,0.00009010,-0.00203713,0.00154
 274,0.00162813,0.00005261,-0.00220880,-0.00226401,-0.00277070,0.002341
 84,0.00324636,-0.00203997,0.00122090,0.00135302,-0.00036008,-0.0196054
 3,-0.01081180,-0.01705931,0.02452130,0.01132304,-0.00818608,-0.0033910
 4,0.00113158,0.05028847,-0.00268245,-0.00212731,-0.00443602,-0.0013584
 5,-0.00409543,0.00220890,-0.01482671,0.00048321,-0.00147723,0.00033102
 ,0.00274846,-0.00195377,-0.01044026,-0.00932605,0.00524070,-0.00460736
 ,0.00452363,-0.00356356,0.00449851,0.00542261,0.00562421,0.00165997,-0
 .00382899,0.00524154,0.12819660,-0.00135709,-0.00105576,0.00022473,0.0
 0235125,-0.00168087,-0.00226397,-0.00048347,-0.00159641,0.00060310,-0.
 00143637,-0.00012188,0.00011551,-0.00813658,-0.01265554,0.00808286,0.0
 1096293,-0.01267805,0.00580997,0.00242776,0.00406852,-0.00487818,-0.00
 321367,-0.02353934,-0.01026079,0.02194393,0.05051273,-0.00272122,-0.00
 056109,-0.00207552,0.00027568,0.00141264,-0.00277069,0.00147701,0.0006
 0302,0.00716577,0.00390102,-0.00269845,-0.00400738,0.00642610,0.007012
 03,-0.00350091,-0.00068993,0.00402544,-0.00172125,0.00332444,-0.003944
 85,-0.00318139,-0.00018362,-0.00675631,-0.00456598,0.05730162,0.009068
 32,0.11240677,-0.00119362,-0.00110281,0.00174514,0.00130639,-0.0010869
 7,-0.00234192,0.00033108,0.00143639,-0.00390105,-0.01146380,0.00127298
 ,-0.00130762,-0.01293398,-0.00831957,-0.00569906,-0.00007384,0.0008410
 1,0.00091244,-0.02431859,0.02136967,-0.00117188,-0.00310038,-0.0022112
 8,-0.00566738,0.00416037,0.00254374,-0.00315462,0.07643465,-0.00066843
 ,-0.00125850,-0.00109278,0.00086239,-0.00288942,0.00324635,-0.00274845
 ,-0.00012179,-0.00269856,-0.00127322,0.00123758,-0.00073573,-0.0122068
 0,-0.00918384,-0.00785976,0.00433948,-0.00265708,0.00647714,0.02439161
 ,-0.01844541,0.00558478,-0.00508707,-0.00819033,0.00757864,0.00721578,
 0.00253185,0.00222164,-0.00730117,0.05419110,0.00048490,0.00032913,0.0
 0113195,0.00223597,-0.00214990,-0.00203995,0.00195378,0.00011548,-0.00
 400735,0.00130753,-0.00073572,0.00453060,-0.00643695,-0.00579845,-0.00
 876807,-0.00368202,0.00231753,-0.00715861,-0.00137761,0.00561843,0.000
 80251,-0.00453116,0.00081340,-0.00114827,-0.00279620,0.00628169,-0.046
 95538,0.00059773,-0.01263402,0.07692148,-0.00210068,-0.00082837,-0.000
 57752,-0.00103159,-0.00043454,0.00023213,-0.00268257,0.00135711,0.0027
 2127,-0.00119367,0.00066843,-0.00048489,-0.00151360,0.00351290,0.00079
 639,-0.00208124,-0.00043492,0.00317957,-0.00736219,-0.00242052,-0.0027
 3045,-0.02616042,0.01605848,0.00034636,-0.06789533,-0.01897183,-0.0310
 3322,-0.02645044,-0.00689001,0.01312590,0.13560748,0.00082827,0.003604
 68,0.00037451,-0.00402353,0.00081251,0.00009011,0.00212737,-0.00105575
 ,-0.00056109,0.00110285,-0.00125843,0.00032910,-0.00000594,0.00161544,
 0.00239621,0.00113609,-0.00024180,0.00052958,-0.00064449,-0.00123553,-
 0.00276931,0.02355522,-0.01381738,-0.00047767,-0.02120904,-0.00953356,
 -0.00842507,-0.01067084,-0.01244727,0.00274596,0.00836624,0.03536357,0
 .00057749,0.00037450,0.00351761,-0.00009873,0.00119820,-0.00203716,0.0
 0443602,0.00022484,-0.00207553,-0.00174510,-0.00109282,0.00113196,-0.0
 0069085,0.00031819,0.00024935,-0.00205946,0.00162926,0.00236462,0.0004
 4074,-0.00271824,-0.00286825,0.00181916,0.00086002,-0.00912776,-0.0340
 1565,-0.00789481,-0.01911291,0.01878971,0.00212155,-0.01199522,0.01416
 645,0.00489766,0.03873498,0.00286420,0.00056226,0.00161978,0.00039032,
 0.00171386,0.00410989,-0.03703617,0.00663035,0.03492327,-0.00269776,0.
 00063412,0.00088186,0.00090517,0.,0.00000005,-0.00777423,0.00000015,0.
 00000013,-0.00517495,0.,0.00000003,0.00039032,-0.00171388,-0.00410987,
 -0.03703591,-0.00663060,-0.03492327,-0.00269783,-0.00063412,-0.0008818
 8,0.00286424,-0.00056221,-0.00161977,0.08500261,-0.00001695,-0.0018064
 6,0.00008168,0.00058426,-0.00330699,-0.00253655,0.00175049,0.00574836,
 -0.00195706,-0.00322886,-0.00276690,0.00309645,-0.00000003,0.00099591,
 -0.00322885,0.00000014,-0.02985170,-0.02394656,0.00000002,-0.00136204,
 -0.00323518,-0.00058422,-0.00330701,-0.00253660,-0.00175080,0.00574831
 ,-0.00195732,0.00322885,-0.00276688,0.00309646,0.00001702,-0.00180648,
 0.00008165,0.00000007,0.03448187,-0.00025801,0.00087006,0.00121831,-0.
 00166078,0.00116850,-0.00304575,0.02737464,-0.00488826,-0.03168097,-0.
 00119849,-0.00220932,-0.00131364,0.00000005,-0.00436596,-0.00132241,0.
 00000006,-0.01517553,-0.01351293,-0.00000003,-0.00338218,-0.00653744,0
 .00166078,0.00116847,-0.00304579,-0.02737454,-0.00488843,-0.03168113,0
 .00119850,-0.00220925,-0.00131371,0.00025802,0.00087001,0.00121832,-0.
 00000022,0.03304188,0.09101714\\-0.00000767,-0.00000331,0.00000254,0.0
 0000551,-0.00000804,0.00003709,-0.00000996,-0.00001608,-0.00004419,0.0
 0001447,-0.00000421,-0.00001858,0.,-0.00001905,-0.00003750,-0.00000008
 ,0.00002956,0.00004217,0.00000071,0.00002887,0.00007899,-0.00000548,-0
 .00000839,0.00003705,0.00000989,-0.00001505,-0.00004456,-0.00001492,-0
 .00000406,-0.00001779,0.00000751,-0.00000344,0.00000246,0.00000002,0.0
 0002320,-0.00003767\\\@


 NEVER LOSE YOUR IGNORANCE, IT CAN'T BE REPLACED.
   -- ANDY CAPP
 Job cpu time:  0 days  3 hours 22 minutes 57.5 seconds.
 File lengths (MBytes):  RWF=    276 Int=      0 D2E=      0 Chk=     15 Scr=      1
 Normal termination of Gaussian 03 at Wed Apr  6 21:13:54 2011.
