 Entering Gaussian System, Link 0=g03
 Initial command:
 /usr/local/chem/g03E01/l1.exe /temp0/tam/Gau-26756.inp -scrdir=/temp0/tam/
 Entering Link 1 = /usr/local/chem/g03E01/l1.exe PID=     26757.
  
 Copyright (c) 1988,1990,1992,1993,1995,1998,2003,2004,2007, Gaussian, Inc.
                  All Rights Reserved.
  
 This is the Gaussian(R) 03 program.  It is based on the
 the Gaussian(R) 98 system (copyright 1998, Gaussian, Inc.),
 the Gaussian(R) 94 system (copyright 1995, Gaussian, Inc.),
 the Gaussian 92(TM) system (copyright 1992, Gaussian, Inc.),
 the Gaussian 90(TM) system (copyright 1990, Gaussian, Inc.),
 the Gaussian 88(TM) system (copyright 1988, Gaussian, Inc.),
 the Gaussian 86(TM) system (copyright 1986, Carnegie Mellon
 University), and the Gaussian 82(TM) system (copyright 1983,
 Carnegie Mellon University). Gaussian is a federally registered
 trademark of Gaussian, Inc.
  
 This software contains proprietary and confidential information,
 including trade secrets, belonging to Gaussian, Inc.
  
 This software is provided under written license and may be
 used, copied, transmitted, or stored only in accord with that
 written license.
  
 The following legend is applicable only to US Government
 contracts under FAR:
  
                    RESTRICTED RIGHTS LEGEND
  
 Use, reproduction and disclosure by the US Government is
 subject to restrictions as set forth in subparagraphs (a)
 and (c) of the Commercial Computer Software - Restricted
 Rights clause in FAR 52.227-19.
  
 Gaussian, Inc.
 340 Quinnipiac St., Bldg. 40, Wallingford CT 06492
  
  
 ---------------------------------------------------------------
 Warning -- This program may not be used in any manner that
 competes with the business of Gaussian, Inc. or will provide
 assistance to any competitor of Gaussian, Inc.  The licensee
 of this program is prohibited from giving any competitor of
 Gaussian, Inc. access to this program.  By using this program,
 the user acknowledges that Gaussian, Inc. is engaged in the
 business of creating and licensing software in the field of
 computational chemistry and represents and warrants to the
 licensee that it is not a competitor of Gaussian, Inc. and that
 it will not use this program in any manner prohibited above.
 ---------------------------------------------------------------
  

 Cite this work as:
 Gaussian 03, Revision E.01,
 M. J. Frisch, G. W. Trucks, H. B. Schlegel, G. E. Scuseria, 
 M. A. Robb, J. R. Cheeseman, J. A. Montgomery, Jr., T. Vreven, 
 K. N. Kudin, J. C. Burant, J. M. Millam, S. S. Iyengar, J. Tomasi, 
 V. Barone, B. Mennucci, M. Cossi, G. Scalmani, N. Rega, 
 G. A. Petersson, H. Nakatsuji, M. Hada, M. Ehara, K. Toyota, 
 R. Fukuda, J. Hasegawa, M. Ishida, T. Nakajima, Y. Honda, O. Kitao, 
 H. Nakai, M. Klene, X. Li, J. E. Knox, H. P. Hratchian, J. B. Cross, 
 V. Bakken, C. Adamo, J. Jaramillo, R. Gomperts, R. E. Stratmann, 
 O. Yazyev, A. J. Austin, R. Cammi, C. Pomelli, J. W. Ochterski, 
 P. Y. Ayala, K. Morokuma, G. A. Voth, P. Salvador, J. J. Dannenberg, 
 V. G. Zakrzewski, S. Dapprich, A. D. Daniels, M. C. Strain, 
 O. Farkas, D. K. Malick, A. D. Rabuck, K. Raghavachari, 
 J. B. Foresman, J. V. Ortiz, Q. Cui, A. G. Baboul, S. Clifford, 
 J. Cioslowski, B. B. Stefanov, G. Liu, A. Liashenko, P. Piskorz, 
 I. Komaromi, R. L. Martin, D. J. Fox, T. Keith, M. A. Al-Laham, 
 C. Y. Peng, A. Nanayakkara, M. Challacombe, P. M. W. Gill, 
 B. Johnson, W. Chen, M. W. Wong, C. Gonzalez, and J. A. Pople, 
 Gaussian, Inc., Wallingford CT, 2004.
 
 ******************************************
 Gaussian 03:  AM64L-G03RevE.01 11-Sep-2007
                 8-Jan-2012 
 ******************************************
 %NprocShared=6
 Will use up to    6 processors via shared memory.
 %mem=18000MB
 %chk=S9L-ne-d-01
 ----------------------------------------------------------------------
 # b3lyp/LANL2DZ opt=(calcall,noeigentest,maxcycle=500) scfcyc=500 scf=
 xqc
 ----------------------------------------------------------------------
 1/6=500,10=4,11=1,14=-1,18=20,26=3,38=1/1,3;
 2/9=110,17=6,18=5,40=1/2;
 3/5=6,6=3,11=2,16=1,25=1,30=1,74=-5/1,2,3;
 4//1;
 5/5=2,7=500,8=3,13=1,38=5/2,8;
 8/6=4,10=90,11=11/1;
 11/6=1,8=1,9=11,15=111,16=1/1,2,10;
 10/6=1/2;
 6/7=2,8=2,9=2,10=2,18=1,28=1/1;
 7/10=1,25=1/1,2,3,16;
 1/6=500,10=4,11=1,14=-1,18=20/3(3);
 2/9=110/2;
 7/8=1,9=1,25=1,44=-1/16;
 99//99;
 2/9=110/2;
 3/5=6,6=3,11=2,16=1,25=1,30=1,74=-5/1,2,3;
 4/5=5,16=3/1;
 5/5=2,7=500,8=3,13=1,38=5/2,8;
 8/6=4,10=90,11=11/1;
 11/6=1,8=1,9=11,15=111,16=1/1,2,10;
 10/6=1/2;
 7/10=1,25=1/1,2,3,16;
 1/6=500,10=4,11=1,14=-1,18=20/3(-8);
 2/9=110/2;
 6/7=2,8=2,9=2,10=2,18=1,19=2,28=1/1;
 7/8=1,9=1,25=1,44=-1/16;
 99//99;
 ------
 si13-c
 ------
 Symbolic Z-matrix:
 Charge =  1 Multiplicity = 2
 Si                    0.00039  -1.65155  -1.50976 
 Si                    0.00072  -3.18561   0.26395 
 Si                    1.44861  -1.27476   0.7479 
 Si                    1.7357   0.        -1.57877 
 Si                    1.44802   1.27578   0.74725 
 Si                   -0.00072   3.18574   0.26234 
 Si                   -1.44862   1.27513   0.74723 
 Si                   -0.00003   0.0006    2.38271 
 Si                   -1.44804  -1.27541   0.74786 
 Si                   -1.73567  -0.00079  -1.57881 
 Si                   -0.00036   1.65079  -1.51059 
 Si                    3.42686   0.00082   0.13939 
 Si                   -3.42687  -0.00075   0.13931 
 

 GradGradGradGradGradGradGradGradGradGradGradGradGradGradGradGradGradGrad
 Berny optimization.
 Initialization pass.
                           ----------------------------
                           !    Initial Parameters    !
                           ! (Angstroms and Degrees)  !
 --------------------------                            --------------------------
 ! Name  Definition              Value          Derivative Info.                !
 --------------------------------------------------------------------------------
 ! R1    R(1,2)                  2.3451         calculate D2E/DX2 analytically  !
 ! R2    R(1,3)                  2.7086         calculate D2E/DX2 analytically  !
 ! R3    R(1,4)                  2.3966         calculate D2E/DX2 analytically  !
 ! R4    R(1,9)                  2.7086         calculate D2E/DX2 analytically  !
 ! R5    R(1,10)                 2.3966         calculate D2E/DX2 analytically  !
 ! R6    R(2,3)                  2.4458         calculate D2E/DX2 analytically  !
 ! R7    R(2,9)                  2.4458         calculate D2E/DX2 analytically  !
 ! R8    R(3,4)                  2.6685         calculate D2E/DX2 analytically  !
 ! R9    R(3,5)                  2.5505         calculate D2E/DX2 analytically  !
 ! R10   R(3,8)                  2.5294         calculate D2E/DX2 analytically  !
 ! R11   R(3,9)                  2.8966         calculate D2E/DX2 analytically  !
 ! R12   R(3,12)                 2.4312         calculate D2E/DX2 analytically  !
 ! R13   R(4,5)                  2.6685         calculate D2E/DX2 analytically  !
 ! R14   R(4,11)                 2.3966         calculate D2E/DX2 analytically  !
 ! R15   R(4,12)                 2.4108         calculate D2E/DX2 analytically  !
 ! R16   R(5,6)                  2.4458         calculate D2E/DX2 analytically  !
 ! R17   R(5,7)                  2.8966         calculate D2E/DX2 analytically  !
 ! R18   R(5,8)                  2.5294         calculate D2E/DX2 analytically  !
 ! R19   R(5,11)                 2.7086         calculate D2E/DX2 analytically  !
 ! R20   R(5,12)                 2.4312         calculate D2E/DX2 analytically  !
 ! R21   R(6,7)                  2.4458         calculate D2E/DX2 analytically  !
 ! R22   R(6,11)                 2.3451         calculate D2E/DX2 analytically  !
 ! R23   R(7,8)                  2.5294         calculate D2E/DX2 analytically  !
 ! R24   R(7,9)                  2.5505         calculate D2E/DX2 analytically  !
 ! R25   R(7,10)                 2.6685         calculate D2E/DX2 analytically  !
 ! R26   R(7,11)                 2.7086         calculate D2E/DX2 analytically  !
 ! R27   R(7,13)                 2.4312         calculate D2E/DX2 analytically  !
 ! R28   R(8,9)                  2.5294         calculate D2E/DX2 analytically  !
 ! R29   R(9,10)                 2.6685         calculate D2E/DX2 analytically  !
 ! R30   R(9,13)                 2.4312         calculate D2E/DX2 analytically  !
 ! R31   R(10,11)                2.3966         calculate D2E/DX2 analytically  !
 ! R32   R(10,13)                2.4108         calculate D2E/DX2 analytically  !
 ! A1    A(2,1,4)              118.1954         calculate D2E/DX2 analytically  !
 ! A2    A(2,1,10)             118.1953         calculate D2E/DX2 analytically  !
 ! A3    A(3,1,10)             108.3919         calculate D2E/DX2 analytically  !
 ! A4    A(4,1,9)              108.3916         calculate D2E/DX2 analytically  !
 ! A5    A(4,1,10)              92.8095         calculate D2E/DX2 analytically  !
 ! A6    A(1,3,5)               97.977          calculate D2E/DX2 analytically  !
 ! A7    A(1,3,8)              107.6168         calculate D2E/DX2 analytically  !
 ! A8    A(1,3,12)             107.4232         calculate D2E/DX2 analytically  !
 ! A9    A(2,3,4)              105.3305         calculate D2E/DX2 analytically  !
 ! A10   A(2,3,5)              141.3605         calculate D2E/DX2 analytically  !
 ! A11   A(2,3,8)              100.5315         calculate D2E/DX2 analytically  !
 ! A12   A(2,3,12)             147.3601         calculate D2E/DX2 analytically  !
 ! A13   A(4,3,8)              112.5997         calculate D2E/DX2 analytically  !
 ! A14   A(4,3,9)               96.1816         calculate D2E/DX2 analytically  !
 ! A15   A(5,3,9)               89.9995         calculate D2E/DX2 analytically  !
 ! A16   A(8,3,12)             111.2995         calculate D2E/DX2 analytically  !
 ! A17   A(9,3,12)             144.4688         calculate D2E/DX2 analytically  !
 ! A18   A(1,4,5)              103.0794         calculate D2E/DX2 analytically  !
 ! A19   A(1,4,11)              87.0964         calculate D2E/DX2 analytically  !
 ! A20   A(1,4,12)             119.1854         calculate D2E/DX2 analytically  !
 ! A21   A(3,4,11)             103.0798         calculate D2E/DX2 analytically  !
 ! A22   A(11,4,12)            119.1851         calculate D2E/DX2 analytically  !
 ! A23   A(3,5,6)              141.3616         calculate D2E/DX2 analytically  !
 ! A24   A(3,5,7)               90.0005         calculate D2E/DX2 analytically  !
 ! A25   A(3,5,11)              97.9777         calculate D2E/DX2 analytically  !
 ! A26   A(4,5,6)              105.3307         calculate D2E/DX2 analytically  !
 ! A27   A(4,5,7)               96.1824         calculate D2E/DX2 analytically  !
 ! A28   A(4,5,8)              112.6001         calculate D2E/DX2 analytically  !
 ! A29   A(6,5,8)              100.5321         calculate D2E/DX2 analytically  !
 ! A30   A(6,5,12)             147.3594         calculate D2E/DX2 analytically  !
 ! A31   A(7,5,12)             144.4699         calculate D2E/DX2 analytically  !
 ! A32   A(8,5,11)             107.6174         calculate D2E/DX2 analytically  !
 ! A33   A(8,5,12)             111.2999         calculate D2E/DX2 analytically  !
 ! A34   A(11,5,12)            107.4233         calculate D2E/DX2 analytically  !
 ! A35   A(5,7,9)               89.9996         calculate D2E/DX2 analytically  !
 ! A36   A(5,7,10)              96.1817         calculate D2E/DX2 analytically  !
 ! A37   A(5,7,13)             144.4689         calculate D2E/DX2 analytically  !
 ! A38   A(6,7,8)              100.5318         calculate D2E/DX2 analytically  !
 ! A39   A(6,7,9)              141.3606         calculate D2E/DX2 analytically  !
 ! A40   A(6,7,10)             105.3304         calculate D2E/DX2 analytically  !
 ! A41   A(6,7,13)             147.3598         calculate D2E/DX2 analytically  !
 ! A42   A(8,7,10)             112.5996         calculate D2E/DX2 analytically  !
 ! A43   A(8,7,11)             107.6169         calculate D2E/DX2 analytically  !
 ! A44   A(8,7,13)             111.2995         calculate D2E/DX2 analytically  !
 ! A45   A(9,7,11)              97.977          calculate D2E/DX2 analytically  !
 ! A46   A(11,7,13)            107.4231         calculate D2E/DX2 analytically  !
 ! A47   A(3,8,7)               99.4487         calculate D2E/DX2 analytically  !
 ! A48   A(5,8,9)               99.4481         calculate D2E/DX2 analytically  !
 ! A49   A(1,9,7)               97.9778         calculate D2E/DX2 analytically  !
 ! A50   A(1,9,8)              107.6174         calculate D2E/DX2 analytically  !
 ! A51   A(1,9,13)             107.4234         calculate D2E/DX2 analytically  !
 ! A52   A(2,9,7)              141.3615         calculate D2E/DX2 analytically  !
 ! A53   A(2,9,8)              100.5318         calculate D2E/DX2 analytically  !
 ! A54   A(2,9,10)             105.3307         calculate D2E/DX2 analytically  !
 ! A55   A(2,9,13)             147.3597         calculate D2E/DX2 analytically  !
 ! A56   A(3,9,7)               90.0004         calculate D2E/DX2 analytically  !
 ! A57   A(3,9,10)              96.1823         calculate D2E/DX2 analytically  !
 ! A58   A(3,9,13)             144.4698         calculate D2E/DX2 analytically  !
 ! A59   A(8,9,10)             112.6002         calculate D2E/DX2 analytically  !
 ! A60   A(8,9,13)             111.2999         calculate D2E/DX2 analytically  !
 ! A61   A(1,10,7)             103.0797         calculate D2E/DX2 analytically  !
 ! A62   A(1,10,11)             87.0964         calculate D2E/DX2 analytically  !
 ! A63   A(1,10,13)            119.1853         calculate D2E/DX2 analytically  !
 ! A64   A(9,10,11)            103.0795         calculate D2E/DX2 analytically  !
 ! A65   A(11,10,13)           119.1853         calculate D2E/DX2 analytically  !
 ! A66   A(4,11,6)             118.1953         calculate D2E/DX2 analytically  !
 ! A67   A(4,11,7)             108.3918         calculate D2E/DX2 analytically  !
 ! A68   A(4,11,10)             92.8095         calculate D2E/DX2 analytically  !
 ! A69   A(5,11,10)            108.3916         calculate D2E/DX2 analytically  !
 ! A70   A(6,11,10)            118.1954         calculate D2E/DX2 analytically  !
 ! D1    D(10,1,3,5)           -38.763          calculate D2E/DX2 analytically  !
 ! D2    D(10,1,3,8)            21.9182         calculate D2E/DX2 analytically  !
 ! D3    D(10,1,3,12)          -98.0221         calculate D2E/DX2 analytically  !
 ! D4    D(2,1,4,5)            -58.1164         calculate D2E/DX2 analytically  !
 ! D5    D(2,1,4,11)          -120.9822         calculate D2E/DX2 analytically  !
 ! D6    D(2,1,4,12)             1.0861         calculate D2E/DX2 analytically  !
 ! D7    D(9,1,4,5)              4.0536         calculate D2E/DX2 analytically  !
 ! D8    D(9,1,4,11)           -58.8123         calculate D2E/DX2 analytically  !
 ! D9    D(9,1,4,12)            63.2561         calculate D2E/DX2 analytically  !
 ! D10   D(10,1,4,5)            66.1501         calculate D2E/DX2 analytically  !
 ! D11   D(10,1,4,11)            3.2843         calculate D2E/DX2 analytically  !
 ! D12   D(10,1,4,12)          125.3526         calculate D2E/DX2 analytically  !
 ! D13   D(4,1,9,7)             38.7633         calculate D2E/DX2 analytically  !
 ! D14   D(4,1,9,8)            -21.9184         calculate D2E/DX2 analytically  !
 ! D15   D(4,1,9,13)            98.0227         calculate D2E/DX2 analytically  !
 ! D16   D(2,1,10,7)            58.1164         calculate D2E/DX2 analytically  !
 ! D17   D(2,1,10,11)          120.9823         calculate D2E/DX2 analytically  !
 ! D18   D(2,1,10,13)           -1.0862         calculate D2E/DX2 analytically  !
 ! D19   D(3,1,10,7)            -4.0536         calculate D2E/DX2 analytically  !
 ! D20   D(3,1,10,11)           58.8123         calculate D2E/DX2 analytically  !
 ! D21   D(3,1,10,13)          -63.2561         calculate D2E/DX2 analytically  !
 ! D22   D(4,1,10,7)           -66.1502         calculate D2E/DX2 analytically  !
 ! D23   D(4,1,10,11)           -3.2843         calculate D2E/DX2 analytically  !
 ! D24   D(4,1,10,13)         -125.3528         calculate D2E/DX2 analytically  !
 ! D25   D(2,3,4,11)            93.3637         calculate D2E/DX2 analytically  !
 ! D26   D(8,3,4,11)           -15.2627         calculate D2E/DX2 analytically  !
 ! D27   D(9,3,4,11)            39.3728         calculate D2E/DX2 analytically  !
 ! D28   D(1,3,5,6)             38.8263         calculate D2E/DX2 analytically  !
 ! D29   D(1,3,5,7)             57.32           calculate D2E/DX2 analytically  !
 ! D30   D(1,3,5,11)            -0.0003         calculate D2E/DX2 analytically  !
 ! D31   D(2,3,5,6)             -0.0004         calculate D2E/DX2 analytically  !
 ! D32   D(2,3,5,7)             18.4934         calculate D2E/DX2 analytically  !
 ! D33   D(2,3,5,11)           -38.8269         calculate D2E/DX2 analytically  !
 ! D34   D(9,3,5,6)            -18.4935         calculate D2E/DX2 analytically  !
 ! D35   D(9,3,5,7)              0.0002         calculate D2E/DX2 analytically  !
 ! D36   D(9,3,5,11)           -57.3201         calculate D2E/DX2 analytically  !
 ! D37   D(1,3,8,7)            -28.6881         calculate D2E/DX2 analytically  !
 ! D38   D(2,3,8,7)            -83.8852         calculate D2E/DX2 analytically  !
 ! D39   D(4,3,8,7)             27.7483         calculate D2E/DX2 analytically  !
 ! D40   D(12,3,8,7)            88.7632         calculate D2E/DX2 analytically  !
 ! D41   D(4,3,9,7)            -61.2692         calculate D2E/DX2 analytically  !
 ! D42   D(4,3,9,10)             0.0002         calculate D2E/DX2 analytically  !
 ! D43   D(4,3,9,13)           -35.7715         calculate D2E/DX2 analytically  !
 ! D44   D(5,3,9,7)             -0.0002         calculate D2E/DX2 analytically  !
 ! D45   D(5,3,9,10)            61.2692         calculate D2E/DX2 analytically  !
 ! D46   D(5,3,9,13)            25.4975         calculate D2E/DX2 analytically  !
 ! D47   D(12,3,9,7)           -25.4977         calculate D2E/DX2 analytically  !
 ! D48   D(12,3,9,10)           35.7717         calculate D2E/DX2 analytically  !
 ! D49   D(12,3,9,13)            0.0001         calculate D2E/DX2 analytically  !
 ! D50   D(1,4,5,6)            -93.3643         calculate D2E/DX2 analytically  !
 ! D51   D(1,4,5,7)            -39.3731         calculate D2E/DX2 analytically  !
 ! D52   D(1,4,5,8)             15.2631         calculate D2E/DX2 analytically  !
 ! D53   D(1,4,11,6)           120.9824         calculate D2E/DX2 analytically  !
 ! D54   D(1,4,11,7)            58.8125         calculate D2E/DX2 analytically  !
 ! D55   D(1,4,11,10)           -3.2843         calculate D2E/DX2 analytically  !
 ! D56   D(3,4,11,6)            58.1165         calculate D2E/DX2 analytically  !
 ! D57   D(3,4,11,7)            -4.0535         calculate D2E/DX2 analytically  !
 ! D58   D(3,4,11,10)          -66.1502         calculate D2E/DX2 analytically  !
 ! D59   D(12,4,11,6)           -1.0862         calculate D2E/DX2 analytically  !
 ! D60   D(12,4,11,7)          -63.2561         calculate D2E/DX2 analytically  !
 ! D61   D(12,4,11,10)        -125.3529         calculate D2E/DX2 analytically  !
 ! D62   D(3,5,7,9)             -0.0002         calculate D2E/DX2 analytically  !
 ! D63   D(3,5,7,10)           -61.2691         calculate D2E/DX2 analytically  !
 ! D64   D(3,5,7,13)           -25.4977         calculate D2E/DX2 analytically  !
 ! D65   D(4,5,7,9)             61.269          calculate D2E/DX2 analytically  !
 ! D66   D(4,5,7,10)             0.0002         calculate D2E/DX2 analytically  !
 ! D67   D(4,5,7,13)            35.7716         calculate D2E/DX2 analytically  !
 ! D68   D(12,5,7,9)            25.4976         calculate D2E/DX2 analytically  !
 ! D69   D(12,5,7,10)          -35.7713         calculate D2E/DX2 analytically  !
 ! D70   D(12,5,7,13)            0.0001         calculate D2E/DX2 analytically  !
 ! D71   D(4,5,8,9)            -27.7488         calculate D2E/DX2 analytically  !
 ! D72   D(6,5,8,9)             83.8854         calculate D2E/DX2 analytically  !
 ! D73   D(11,5,8,9)            28.688          calculate D2E/DX2 analytically  !
 ! D74   D(12,5,8,9)           -88.764          calculate D2E/DX2 analytically  !
 ! D75   D(3,5,11,10)           38.7635         calculate D2E/DX2 analytically  !
 ! D76   D(8,5,11,10)          -21.9182         calculate D2E/DX2 analytically  !
 ! D77   D(12,5,11,10)          98.0229         calculate D2E/DX2 analytically  !
 ! D78   D(6,7,8,3)            -83.885          calculate D2E/DX2 analytically  !
 ! D79   D(10,7,8,3)            27.7486         calculate D2E/DX2 analytically  !
 ! D80   D(11,7,8,3)           -28.6878         calculate D2E/DX2 analytically  !
 ! D81   D(13,7,8,3)            88.7634         calculate D2E/DX2 analytically  !
 ! D82   D(5,7,9,1)            -57.32           calculate D2E/DX2 analytically  !
 ! D83   D(5,7,9,2)            -18.4931         calculate D2E/DX2 analytically  !
 ! D84   D(5,7,9,3)              0.0002         calculate D2E/DX2 analytically  !
 ! D85   D(6,7,9,1)            -38.8264         calculate D2E/DX2 analytically  !
 ! D86   D(6,7,9,2)              0.0005         calculate D2E/DX2 analytically  !
 ! D87   D(6,7,9,3)             18.4938         calculate D2E/DX2 analytically  !
 ! D88   D(11,7,9,1)            -0.0001         calculate D2E/DX2 analytically  !
 ! D89   D(11,7,9,2)            38.8269         calculate D2E/DX2 analytically  !
 ! D90   D(11,7,9,3)            57.3201         calculate D2E/DX2 analytically  !
 ! D91   D(5,7,10,1)            39.3728         calculate D2E/DX2 analytically  !
 ! D92   D(6,7,10,1)            93.3638         calculate D2E/DX2 analytically  !
 ! D93   D(8,7,10,1)           -15.2629         calculate D2E/DX2 analytically  !
 ! D94   D(8,7,11,4)            21.918          calculate D2E/DX2 analytically  !
 ! D95   D(9,7,11,4)           -38.7632         calculate D2E/DX2 analytically  !
 ! D96   D(13,7,11,4)          -98.0223         calculate D2E/DX2 analytically  !
 ! D97   D(5,8,9,1)             28.6883         calculate D2E/DX2 analytically  !
 ! D98   D(5,8,9,2)             83.8857         calculate D2E/DX2 analytically  !
 ! D99   D(5,8,9,10)           -27.7485         calculate D2E/DX2 analytically  !
 ! D100  D(5,8,9,13)           -88.7638         calculate D2E/DX2 analytically  !
 ! D101  D(2,9,10,11)          -93.3642         calculate D2E/DX2 analytically  !
 ! D102  D(3,9,10,11)          -39.3731         calculate D2E/DX2 analytically  !
 ! D103  D(8,9,10,11)           15.2629         calculate D2E/DX2 analytically  !
 ! D104  D(1,10,11,4)            3.2843         calculate D2E/DX2 analytically  !
 ! D105  D(1,10,11,5)          -58.8124         calculate D2E/DX2 analytically  !
 ! D106  D(1,10,11,6)         -120.9824         calculate D2E/DX2 analytically  !
 ! D107  D(9,10,11,4)           66.1502         calculate D2E/DX2 analytically  !
 ! D108  D(9,10,11,5)            4.0535         calculate D2E/DX2 analytically  !
 ! D109  D(9,10,11,6)          -58.1165         calculate D2E/DX2 analytically  !
 ! D110  D(13,10,11,4)         125.3527         calculate D2E/DX2 analytically  !
 ! D111  D(13,10,11,5)          63.256          calculate D2E/DX2 analytically  !
 ! D112  D(13,10,11,6)           1.0861         calculate D2E/DX2 analytically  !
 --------------------------------------------------------------------------------
 Trust Radius=3.00D-01 FncErr=1.00D-07 GrdErr=1.00D-06
 Number of steps in this run= 100 maximum allowed number of steps= 100.
 GradGradGradGradGradGradGradGradGradGradGradGradGradGradGradGradGradGrad

                          Input orientation:                          
 ---------------------------------------------------------------------
 Center     Atomic     Atomic              Coordinates (Angstroms)
 Number     Number      Type              X           Y           Z
 ---------------------------------------------------------------------
    1         14             0        0.000392   -1.651550   -1.509756
    2         14             0        0.000719   -3.185610    0.263946
    3         14             0        1.448611   -1.274757    0.747898
    4         14             0        1.735700   -0.000004   -1.578775
    5         14             0        1.448016    1.275782    0.747252
    6         14             0       -0.000725    3.185744    0.262337
    7         14             0       -1.448623    1.275135    0.747226
    8         14             0       -0.000026    0.000598    2.382709
    9         14             0       -1.448036   -1.275405    0.747861
   10         14             0       -1.735666   -0.000793   -1.578813
   11         14             0       -0.000359    1.650786   -1.510588
   12         14             0        3.426864    0.000821    0.139388
   13         14             0       -3.426867   -0.000746    0.139314
 ---------------------------------------------------------------------
                    Distance matrix (angstroms):
                    1          2          3          4          5
     1  Si   0.000000
     2  Si   2.345071   0.000000
     3  Si   2.708562   2.445804   0.000000
     4  Si   2.396594   4.068644   2.668487   0.000000
     5  Si   3.969758   4.715112   2.550540   2.668482   0.000000
     6  Si   5.151673   6.371355   4.715126   4.068643   2.445802
     7  Si   3.969773   4.715124   3.859523   4.144415   2.896640
     8  Si   4.228579   3.826366   2.529365   4.325055   2.529356
     9  Si   2.708553   2.445802   2.896647   4.144401   3.859492
    10  Si   2.396594   4.068642   4.144416   3.471366   4.144400
    11  Si   3.302337   5.151670   3.969770   2.396593   2.708553
    12  Si   4.146169   4.680526   2.431228   2.410834   2.431227
    13  Si   4.146166   4.680517   5.075802   5.440949   5.075786
                    6          7          8          9         10
     6  Si   0.000000
     7  Si   2.445804   0.000000
     8  Si   3.826374   2.529364   0.000000
     9  Si   4.715114   2.550540   2.529357   0.000000
    10  Si   4.068645   2.668490   4.325055   2.668478   0.000000
    11  Si   2.345071   2.708562   4.228580   3.969755   2.396593
    12  Si   4.680515   5.075797   4.095859   5.075790   5.440949
    13  Si   4.680524   2.431229   4.095859   2.431225   2.410834
                   11         12         13
    11  Si   0.000000
    12  Si   4.146163   0.000000
    13  Si   4.146166   6.853731   0.000000
 Stoichiometry    Si13(1+,2)
 Framework group  C1[X(Si13)]
 Deg. of freedom    33
 Full point group                 C1
 Largest Abelian subgroup         C1      NOp   1
 Largest concise Abelian subgroup C1      NOp   1
                         Standard orientation:                         
 ---------------------------------------------------------------------
 Center     Atomic     Atomic              Coordinates (Angstroms)
 Number     Number      Type              X           Y           Z
 ---------------------------------------------------------------------
    1         14             0        0.000021   -1.651550   -1.509756
    2         14             0        0.000003   -3.185610    0.263946
    3         14             0        1.448325   -1.275083    0.747898
    4         14             0        1.735700   -0.000394   -1.578775
    5         14             0        1.448303    1.275457    0.747252
    6         14             0       -0.000009    3.185744    0.262337
    7         14             0       -1.448337    1.275460    0.747226
    8         14             0       -0.000026    0.000598    2.382709
    9         14             0       -1.448323   -1.275080    0.747861
   10         14             0       -1.735666   -0.000403   -1.578813
   11         14             0        0.000012    1.650786   -1.510588
   12         14             0        3.426864    0.000051    0.139388
   13         14             0       -3.426867    0.000024    0.139314
 ---------------------------------------------------------------------
 Rotational constants (GHZ):      0.3620686      0.3252515      0.2574794
 Standard basis: LANL2DZ (5D, 7F)
 There are   104 symmetry adapted basis functions of A   symmetry.
 Integral buffers will be    131072 words long.
 Raffenetti 2 integral format.
 Two-electron integral symmetry is turned on.
   104 basis functions,   156 primitive gaussians,   104 cartesian basis functions
    26 alpha electrons       25 beta electrons
       nuclear repulsion energy       196.3440094862 Hartrees.
 NAtoms=   13 NActive=   13 NUniq=   13 SFac= 7.50D-01 NAtFMM=   80 NAOKFM=F Big=F
 One-electron integrals computed using PRISM.
   1 Symmetry operations used in ECPInt.
 ECPInt:  NShTT=    1378 NPrTT=    3107 LenC2=    1379 LenP2D=    2979.
 LDataN:  DoStor=F MaxTD1= 3 Len=   28
 LDataN:  DoStor=T MaxTD1= 3 Len=   28
 NBasis=   104 RedAO= T  NBF=   104
 NBsUse=   104 1.00D-06 NBFU=   104
 Harris functional with IExCor=  402 diagonalized for initial guess.
 ExpMin= 8.85D-02 ExpMax= 2.58D+00 ExpMxC= 2.58D+00 IAcc=2 IRadAn=         4 AccDes= 0.00D+00
 HarFok:  IExCor= 402 AccDes= 0.00D+00 IRadAn=         4 IDoV=1
 ScaDFX=  1.000000  1.000000  1.000000  1.000000
 Initial guess orbital symmetries:
 Alpha Orbitals:
       Occupied  (A) (A) (A) (A) (A) (A) (A) (A) (A) (A) (A) (A)
                 (A) (A) (A) (A) (A) (A) (A) (A) (A) (A) (A) (A)
                 (A) (A)
       Virtual   (A) (A) (A) (A) (A) (A) (A) (A) (A) (A) (A) (A)
                 (A) (A) (A) (A) (A) (A) (A) (A) (A) (A) (A) (A)
                 (A) (A) (A) (A) (A) (A) (A) (A) (A) (A) (A) (A)
                 (A) (A) (A) (A) (A) (A) (A) (A) (A) (A) (A) (A)
                 (A) (A) (A) (A) (A) (A) (A) (A) (A) (A) (A) (A)
                 (A) (A) (A) (A) (A) (A) (A) (A) (A) (A) (A) (A)
                 (A) (A) (A) (A) (A) (A)
 Beta  Orbitals:
       Occupied  (A) (A) (A) (A) (A) (A) (A) (A) (A) (A) (A) (A)
                 (A) (A) (A) (A) (A) (A) (A) (A) (A) (A) (A) (A)
                 (A)
       Virtual   (A) (A) (A) (A) (A) (A) (A) (A) (A) (A) (A) (A)
                 (A) (A) (A) (A) (A) (A) (A) (A) (A) (A) (A) (A)
                 (A) (A) (A) (A) (A) (A) (A) (A) (A) (A) (A) (A)
                 (A) (A) (A) (A) (A) (A) (A) (A) (A) (A) (A) (A)
                 (A) (A) (A) (A) (A) (A) (A) (A) (A) (A) (A) (A)
                 (A) (A) (A) (A) (A) (A) (A) (A) (A) (A) (A) (A)
                 (A) (A) (A) (A) (A) (A) (A)
 The electronic state of the initial guess is 2-A.
 <S**2> of initial guess= 0.7500
 Requested convergence on RMS density matrix=1.00D-08 within 128 cycles.
 Requested convergence on MAX density matrix=1.00D-06.
 Requested convergence on             energy=1.00D-06.
 No special actions if energy rises.
 Keep R1 and R2 integrals in memory in canonical form, NReq=    31703956.
 Integral accuracy reduced to 1.0D-05 until final iterations.
 Initial convergence to 1.0D-05 achieved.  Increase integral accuracy.
 SCF Done:  E(UB+HF-LYP) =  -49.9104553806     A.U. after   21 cycles
             Convg  =    0.7992D-08             -V/T =  3.5420
             S**2   =   0.7627
 Annihilation of the first spin contaminant:
 S**2 before annihilation     0.7627,   after     0.7501
 QCSCF skips out because SCF is already converged.
 Range of M.O.s used for correlation:     1   104
 NBasis=   104 NAE=    26 NBE=    25 NFC=     0 NFV=     0
 NROrb=    104 NOA=    26 NOB=    25 NVA=    78 NVB=    79

 **** Warning!!: The smallest alpha delta epsilon is  0.69416792D-01


 **** Warning!!: The smallest beta delta epsilon is  0.77261430D-01

   1 Symmetry operations used in ECPInt.
 ECPInt:  NShTT=    1378 NPrTT=    3107 LenC2=    1379 LenP2D=    2979.
 LDataN:  DoStor=F MaxTD1= 4 Len=   56
 LDataN:  DoStor=T MaxTD1= 4 Len=   56
 Symmetrizing basis deriv contribution to polar:
 IMax=3 JMax=2 DiffMx= 0.00D+00
 G2DrvN: will do   14 centers at a time, making    1 passes doing MaxLOS=1.
 FoFDir/FoFCou used for L=0 through L=1.
 DoAtom=TTTTTTTTTTTTT
          Differentiating once with respect to electric field.
                with respect to dipole field.
          Differentiating once with respect to nuclear coordinates.
          Store integrals in memory, NReq=    30620714.
          There are  42 degrees of freedom in the 1st order CPHF.
    39 vectors were produced by pass  0.
 AX will form  39 AO Fock derivatives at one time.
    39 vectors were produced by pass  1.
    39 vectors were produced by pass  2.
    39 vectors were produced by pass  3.
    39 vectors were produced by pass  4.
    39 vectors were produced by pass  5.
    39 vectors were produced by pass  6.
    38 vectors were produced by pass  7.
     9 vectors were produced by pass  8.
     3 vectors were produced by pass  9.
     1 vectors were produced by pass 10.
 Inv2:  IOpt= 1 Iter= 1 AM= 2.68D-15 Conv= 1.00D-12.
 Inverted reduced A of dimension  324 with in-core refinement.
 Isotropic polarizability for W=    0.000000      370.24 Bohr**3.
 End of Minotr Frequency-dependent properties file   721 does not exist.

 **********************************************************************

            Population analysis using the SCF density.

 **********************************************************************

 Orbital symmetries:
 Alpha Orbitals:
       Occupied  (A) (A) (A) (A) (A) (A) (A) (A) (A) (A) (A) (A)
                 (A) (A) (A) (A) (A) (A) (A) (A) (A) (A) (A) (A)
                 (A) (A)
       Virtual   (A) (A) (A) (A) (A) (A) (A) (A) (A) (A) (A) (A)
                 (A) (A) (A) (A) (A) (A) (A) (A) (A) (A) (A) (A)
                 (A) (A) (A) (A) (A) (A) (A) (A) (A) (A) (A) (A)
                 (A) (A) (A) (A) (A) (A) (A) (A) (A) (A) (A) (A)
                 (A) (A) (A) (A) (A) (A) (A) (A) (A) (A) (A) (A)
                 (A) (A) (A) (A) (A) (A) (A) (A) (A) (A) (A) (A)
                 (A) (A) (A) (A) (A) (A)
 Beta  Orbitals:
       Occupied  (A) (A) (A) (A) (A) (A) (A) (A) (A) (A) (A) (A)
                 (A) (A) (A) (A) (A) (A) (A) (A) (A) (A) (A) (A)
                 (A)
       Virtual   (A) (A) (A) (A) (A) (A) (A) (A) (A) (A) (A) (A)
                 (A) (A) (A) (A) (A) (A) (A) (A) (A) (A) (A) (A)
                 (A) (A) (A) (A) (A) (A) (A) (A) (A) (A) (A) (A)
                 (A) (A) (A) (A) (A) (A) (A) (A) (A) (A) (A) (A)
                 (A) (A) (A) (A) (A) (A) (A) (A) (A) (A) (A) (A)
                 (A) (A) (A) (A) (A) (A) (A) (A) (A) (A) (A) (A)
                 (A) (A) (A) (A) (A) (A) (A)
 The electronic state is 2-A.
 Alpha  occ. eigenvalues --   -0.88276  -0.80813  -0.79124  -0.75078  -0.72228
 Alpha  occ. eigenvalues --   -0.65533  -0.62465  -0.61654  -0.60601  -0.57982
 Alpha  occ. eigenvalues --   -0.55301  -0.53423  -0.49547  -0.47308  -0.46386
 Alpha  occ. eigenvalues --   -0.46201  -0.44500  -0.43357  -0.42870  -0.41156
 Alpha  occ. eigenvalues --   -0.39333  -0.39050  -0.38977  -0.38925  -0.37597
 Alpha  occ. eigenvalues --   -0.34878
 Alpha virt. eigenvalues --   -0.27936  -0.26419  -0.25950  -0.21749  -0.21607
 Alpha virt. eigenvalues --   -0.21477  -0.20405  -0.19945  -0.19163  -0.18935
 Alpha virt. eigenvalues --   -0.17442  -0.16845  -0.16704  -0.15758  -0.12833
 Alpha virt. eigenvalues --   -0.12160  -0.11168  -0.11149  -0.08887  -0.08768
 Alpha virt. eigenvalues --   -0.08333  -0.08057  -0.07498  -0.06077  -0.05672
 Alpha virt. eigenvalues --   -0.00070   0.12269   0.14189   0.14663   0.15128
 Alpha virt. eigenvalues --    0.16853   0.17230   0.17231   0.17521   0.17616
 Alpha virt. eigenvalues --    0.17871   0.18224   0.18555   0.18750   0.19134
 Alpha virt. eigenvalues --    0.19663   0.19681   0.21147   0.21208   0.21631
 Alpha virt. eigenvalues --    0.22710   0.23886   0.24265   0.26163   0.26508
 Alpha virt. eigenvalues --    0.27362   0.27384   0.27769   0.27879   0.29322
 Alpha virt. eigenvalues --    0.29474   0.30098   0.30210   0.30213   0.30333
 Alpha virt. eigenvalues --    0.33474   0.37301   0.37849   0.39367   0.42729
 Alpha virt. eigenvalues --    7.50756  10.40811  11.16179  11.43235  11.45977
 Alpha virt. eigenvalues --   11.77318  12.31258  12.49810  12.71385  12.83016
 Alpha virt. eigenvalues --   13.84231  14.16217  14.33443
  Beta  occ. eigenvalues --   -0.88039  -0.80479  -0.79034  -0.74949  -0.72026
  Beta  occ. eigenvalues --   -0.65340  -0.62112  -0.61350  -0.60571  -0.57133
  Beta  occ. eigenvalues --   -0.55189  -0.52958  -0.49313  -0.47001  -0.46126
  Beta  occ. eigenvalues --   -0.45797  -0.44273  -0.42014  -0.41636  -0.41156
  Beta  occ. eigenvalues --   -0.39038  -0.38792  -0.38668  -0.38020  -0.37555
  Beta virt. eigenvalues --   -0.29829  -0.27897  -0.26224  -0.25567  -0.21416
  Beta virt. eigenvalues --   -0.21299  -0.20887  -0.19971  -0.19538  -0.18932
  Beta virt. eigenvalues --   -0.18830  -0.17080  -0.16643  -0.16549  -0.15385
  Beta virt. eigenvalues --   -0.12587  -0.11620  -0.11121  -0.10338  -0.08663
  Beta virt. eigenvalues --   -0.08455  -0.08116  -0.07969  -0.07068  -0.05926
  Beta virt. eigenvalues --   -0.05551   0.00132   0.12426   0.14325   0.15023
  Beta virt. eigenvalues --    0.15170   0.17207   0.17276   0.17305   0.17959
  Beta virt. eigenvalues --    0.18040   0.18253   0.18590   0.18887   0.18961
  Beta virt. eigenvalues --    0.19216   0.19685   0.20369   0.21200   0.21218
  Beta virt. eigenvalues --    0.21938   0.22822   0.24258   0.24385   0.26301
  Beta virt. eigenvalues --    0.26570   0.27396   0.27477   0.27900   0.28058
  Beta virt. eigenvalues --    0.29525   0.29636   0.30218   0.30292   0.30347
  Beta virt. eigenvalues --    0.30521   0.33563   0.37503   0.38014   0.39514
  Beta virt. eigenvalues --    0.42934   7.50801  10.40942  11.16202  11.43257
  Beta virt. eigenvalues --   11.46120  11.77340  12.31283  12.49865  12.71426
  Beta virt. eigenvalues --   12.83039  13.84309  14.16226  14.33473
          Condensed to atoms (all electrons):
              1          2          3          4          5          6
     1  Si   4.060384   0.076323  -0.106223   0.116561  -0.015062   0.004122
     2  Si   0.076323   3.581608   0.004848  -0.023878   0.004759  -0.000366
     3  Si  -0.106223   0.004848   4.772753  -0.097071  -0.138951   0.004759
     4  Si   0.116561  -0.023878  -0.097071   3.992845  -0.097072  -0.023878
     5  Si  -0.015062   0.004759  -0.138951  -0.097072   4.772784   0.004845
     6  Si   0.004122  -0.000366   0.004759  -0.023878   0.004845   3.581608
     7  Si  -0.015061   0.004759  -0.084075  -0.011153  -0.111040   0.004848
     8  Si  -0.006729  -0.033921   0.007463  -0.004101   0.007462  -0.033921
     9  Si  -0.106225   0.004845  -0.111039  -0.011153  -0.084078   0.004759
    10  Si   0.116563  -0.023878  -0.011153  -0.079158  -0.011153  -0.023878
    11  Si  -0.086505   0.004122  -0.015061   0.116563  -0.106225   0.076323
    12  Si  -0.017182   0.000416  -0.012134   0.082019  -0.012136   0.000415
    13  Si  -0.017182   0.000415   0.009953   0.003942   0.009953   0.000415
              7          8          9         10         11         12
     1  Si  -0.015061  -0.006729  -0.106225   0.116563  -0.086505  -0.017182
     2  Si   0.004759  -0.033921   0.004845  -0.023878   0.004122   0.000416
     3  Si  -0.084075   0.007463  -0.111039  -0.011153  -0.015061  -0.012134
     4  Si  -0.011153  -0.004101  -0.011153  -0.079158   0.116563   0.082019
     5  Si  -0.111040   0.007462  -0.084078  -0.011153  -0.106225  -0.012136
     6  Si   0.004848  -0.033921   0.004759  -0.023878   0.076323   0.000415
     7  Si   4.772752   0.007463  -0.138951  -0.097070  -0.106223   0.009953
     8  Si   0.007463   3.826739   0.007462  -0.004101  -0.006728  -0.019181
     9  Si  -0.138951   0.007462   4.772785  -0.097073  -0.015062   0.009953
    10  Si  -0.097070  -0.004101  -0.097073   3.992845   0.116561   0.003942
    11  Si  -0.106223  -0.006728  -0.015062   0.116561   4.060385  -0.017183
    12  Si   0.009953  -0.019181   0.009953   0.003942  -0.017183   3.590800
    13  Si  -0.012132  -0.019181  -0.012138   0.082019  -0.017182  -0.000498
             13
     1  Si  -0.017182
     2  Si   0.000415
     3  Si   0.009953
     4  Si   0.003942
     5  Si   0.009953
     6  Si   0.000415
     7  Si  -0.012132
     8  Si  -0.019181
     9  Si  -0.012138
    10  Si   0.082019
    11  Si  -0.017182
    12  Si  -0.000498
    13  Si   3.590800
 Mulliken atomic charges:
              1
     1  Si  -0.003783
     2  Si   0.399950
     3  Si  -0.224069
     4  Si   0.035534
     5  Si  -0.224084
     6  Si   0.399949
     7  Si  -0.224069
     8  Si   0.271274
     9  Si  -0.224085
    10  Si   0.035534
    11  Si  -0.003784
    12  Si   0.380816
    13  Si   0.380817
 Sum of Mulliken charges=   1.00000
 Atomic charges with hydrogens summed into heavy atoms:
              1
     1  Si  -0.003783
     2  Si   0.399950
     3  Si  -0.224069
     4  Si   0.035534
     5  Si  -0.224084
     6  Si   0.399949
     7  Si  -0.224069
     8  Si   0.271274
     9  Si  -0.224085
    10  Si   0.035534
    11  Si  -0.003784
    12  Si   0.380816
    13  Si   0.380817
 Sum of Mulliken charges=   1.00000
          Atomic-Atomic Spin Densities.
              1          2          3          4          5          6
     1  Si  -0.049803   0.000996   0.006881   0.007738   0.001291   0.000063
     2  Si   0.000996  -0.013679  -0.003373  -0.000039  -0.000198  -0.000004
     3  Si   0.006881  -0.003373   0.096044   0.002105   0.018362  -0.000198
     4  Si   0.007738  -0.000039   0.002105   0.095082   0.002105  -0.000039
     5  Si   0.001291  -0.000198   0.018362   0.002105   0.096044  -0.003373
     6  Si   0.000063  -0.000004  -0.000198  -0.000039  -0.003373  -0.013680
     7  Si   0.001291  -0.000198  -0.015733  -0.005927  -0.037264  -0.003373
     8  Si  -0.000587   0.001049  -0.001026   0.002085  -0.001027   0.001049
     9  Si   0.006881  -0.003373  -0.037263  -0.005927  -0.015733  -0.000198
    10  Si   0.007738  -0.000039  -0.005927  -0.006990  -0.005927  -0.000039
    11  Si  -0.006279   0.000063   0.001291   0.007738   0.006881   0.000996
    12  Si  -0.003884   0.000389   0.021102  -0.011808   0.021104   0.000389
    13  Si  -0.003884   0.000389   0.003926   0.001189   0.003926   0.000389
              7          8          9         10         11         12
     1  Si   0.001291  -0.000587   0.006881   0.007738  -0.006279  -0.003884
     2  Si  -0.000198   0.001049  -0.003373  -0.000039   0.000063   0.000389
     3  Si  -0.015733  -0.001026  -0.037263  -0.005927   0.001291   0.021102
     4  Si  -0.005927   0.002085  -0.005927  -0.006990   0.007738  -0.011808
     5  Si  -0.037264  -0.001027  -0.015733  -0.005927   0.006881   0.021104
     6  Si  -0.003373   0.001049  -0.000198  -0.000039   0.000996   0.000389
     7  Si   0.096044  -0.001026   0.018362   0.002105   0.006881   0.003926
     8  Si  -0.001026   0.000934  -0.001026   0.002085  -0.000587  -0.005555
     9  Si   0.018362  -0.001026   0.096045   0.002105   0.001291   0.003926
    10  Si   0.002105   0.002085   0.002105   0.095082   0.007738   0.001189
    11  Si   0.006881  -0.000587   0.001291   0.007738  -0.049802  -0.003884
    12  Si   0.003926  -0.005555   0.003926   0.001189  -0.003884   0.267893
    13  Si   0.021102  -0.005555   0.021103  -0.011808  -0.003884  -0.000307
             13
     1  Si  -0.003884
     2  Si   0.000389
     3  Si   0.003926
     4  Si   0.001189
     5  Si   0.003926
     6  Si   0.000389
     7  Si   0.021102
     8  Si  -0.005555
     9  Si   0.021103
    10  Si  -0.011808
    11  Si  -0.003884
    12  Si  -0.000307
    13  Si   0.267893
 Mulliken atomic spin densities:
              1
     1  Si  -0.031557
     2  Si  -0.018019
     3  Si   0.086190
     4  Si   0.087312
     5  Si   0.086191
     6  Si  -0.018019
     7  Si   0.086190
     8  Si  -0.009189
     9  Si   0.086191
    10  Si   0.087312
    11  Si  -0.031557
    12  Si   0.294478
    13  Si   0.294478
 Sum of Mulliken spin densities=   1.00000
 APT atomic charges:
              1
     1  Si  -0.023030
     2  Si   0.275884
     3  Si   0.013521
     4  Si  -0.004141
     5  Si   0.013510
     6  Si   0.275884
     7  Si   0.013519
     8  Si   0.121329
     9  Si   0.013512
    10  Si  -0.004141
    11  Si  -0.023028
    12  Si   0.163590
    13  Si   0.163590
 Sum of APT charges=   1.00000
 APT Atomic charges with hydrogens summed into heavy atoms:
              1
     1  Si  -0.023030
     2  Si   0.275884
     3  Si   0.013521
     4  Si  -0.004141
     5  Si   0.013510
     6  Si   0.275884
     7  Si   0.013519
     8  Si   0.121329
     9  Si   0.013512
    10  Si  -0.004141
    11  Si  -0.023028
    12  Si   0.163590
    13  Si   0.163590
 Sum of APT charges=   1.00000
 Electronic spatial extent (au):  <R**2>=  1561.8594
 Charge=     1.0000 electrons
 Dipole moment (field-independent basis, Debye):
    X=     0.0000    Y=    -0.0003    Z=    -1.0554  Tot=     1.0554
 Quadrupole moment (field-independent basis, Debye-Ang):
   XX=  -132.4019   YY=  -131.8927   ZZ=  -149.6893
   XY=    -0.0001   XZ=     0.0002   YZ=    -0.0045
 Traceless Quadrupole moment (field-independent basis, Debye-Ang):
   XX=     5.5927   YY=     6.1019   ZZ=   -11.6947
   XY=    -0.0001   XZ=     0.0002   YZ=    -0.0045
 Octapole moment (field-independent basis, Debye-Ang**2):
  XXX=     0.0001  YYY=    -0.0050  ZZZ=    -7.3265  XYY=     0.0001
  XXY=    -0.0010  XXZ=    -4.2509  XZZ=     0.0000  YZZ=     0.0016
  YYZ=    -6.6963  XYZ=    -0.0001
 Hexadecapole moment (field-independent basis, Debye-Ang**3):
 XXXX= -2683.3318 YYYY= -2274.1545 ZZZZ= -1542.6580 XXXY=     0.0000
 XXXZ=    -0.0051 YYYX=    -0.0012 YYYZ=     0.0593 ZZZX=    -0.0072
 ZZZY=     0.1248 XXYY=  -863.9950 XXZZ=  -737.0947 YYZZ=  -679.4145
 XXYZ=     0.0320 YYXZ=    -0.0020 ZZXY=    -0.0003
 N-N= 1.963440094862D+02 E-N=-4.760483551380D+02  KE= 1.963455773320D+01
  Exact polarizability: 430.511   0.000 387.327   0.001  -0.024 292.885
 Approx polarizability:1534.625   0.0011491.823   0.005  -0.1041082.531
                          Isotropic Fermi Contact Couplings
        Atom                 a.u.       MegaHertz       Gauss      10(-4) cm-1
     1  Si(29)             0.00000       0.00006       0.00002       0.00002
     2  Si(29)             0.00000       0.00005       0.00002       0.00002
     3  Si(29)             0.00000      -0.00034      -0.00012      -0.00011
     4  Si(29)             0.00000      -0.00040      -0.00014      -0.00013
     5  Si(29)             0.00000      -0.00034      -0.00012      -0.00011
     6  Si(29)             0.00000       0.00005       0.00002       0.00002
     7  Si(29)             0.00000      -0.00034      -0.00012      -0.00011
     8  Si(29)             0.00000       0.00000       0.00000       0.00000
     9  Si(29)             0.00000      -0.00034      -0.00012      -0.00011
    10  Si(29)             0.00000      -0.00040      -0.00014      -0.00013
    11  Si(29)             0.00000       0.00006       0.00002       0.00002
    12  Si(29)             0.00000      -0.00073      -0.00026      -0.00025
    13  Si(29)             0.00000      -0.00073      -0.00026      -0.00025
 --------------------------------------------------------
       Center         ----  Spin Dipole Couplings  ----
                      3XX-RR        3YY-RR        3ZZ-RR
 --------------------------------------------------------
     1   Atom        0.003327     -0.001368     -0.001959
     2   Atom       -0.000510      0.001877     -0.001367
     3   Atom        0.013283     -0.005140     -0.008143
     4   Atom        0.001493     -0.007415      0.005922
     5   Atom        0.013283     -0.005138     -0.008145
     6   Atom       -0.000510      0.001878     -0.001368
     7   Atom        0.013283     -0.005138     -0.008145
     8   Atom        0.005501     -0.003059     -0.002441
     9   Atom        0.013283     -0.005140     -0.008143
    10   Atom        0.001493     -0.007415      0.005923
    11   Atom        0.003327     -0.001368     -0.001959
    12   Atom        0.030983     -0.016231     -0.014752
    13   Atom        0.030982     -0.016231     -0.014752
 --------------------------------------------------------
                        XY            XZ            YZ
 --------------------------------------------------------
     1   Atom        0.000000      0.000000      0.000282
     2   Atom        0.000000      0.000000     -0.000543
     3   Atom       -0.005055      0.004574     -0.002103
     4   Atom       -0.000001     -0.005964      0.000003
     5   Atom        0.005057      0.004572      0.002101
     6   Atom        0.000000      0.000000      0.000541
     7   Atom       -0.005057     -0.004571      0.002101
     8   Atom        0.000000      0.000000      0.000000
     9   Atom        0.005055     -0.004574     -0.002103
    10   Atom        0.000002      0.005964      0.000003
    11   Atom        0.000000      0.000000     -0.000282
    12   Atom       -0.000004     -0.014243      0.000000
    13   Atom        0.000004      0.014244      0.000000
 --------------------------------------------------------


 ---------------------------------------------------------------------------------
              Anisotropic Spin Dipole Couplings in Principal Axis System
 ---------------------------------------------------------------------------------

       Atom             a.u.   MegaHertz   Gauss  10(-4) cm-1        Axes

              Baa    -0.0021     0.220     0.078     0.073  0.0000 -0.3717  0.9284
     1 Si(29) Bbb    -0.0013     0.133     0.048     0.044  0.0000  0.9284  0.3717
              Bcc     0.0033    -0.353    -0.126    -0.118  1.0000  0.0000  0.0000
 
              Baa    -0.0015     0.154     0.055     0.052  0.0000  0.1607  0.9870
     2 Si(29) Bbb    -0.0005     0.054     0.019     0.018  1.0000  0.0000  0.0000
              Bcc     0.0020    -0.208    -0.074    -0.070  0.0000  0.9870 -0.1607
 
              Baa    -0.0094     1.001     0.357     0.334 -0.1176  0.3216  0.9395
     3 Si(29) Bbb    -0.0062     0.655     0.234     0.219  0.3017  0.9130 -0.2747
              Bcc     0.0156    -1.656    -0.591    -0.552  0.9461 -0.2511  0.2044
 
              Baa    -0.0074     0.787     0.281     0.262  0.0000  1.0000 -0.0003
     4 Si(29) Bbb    -0.0027     0.282     0.100     0.094  0.8210  0.0002  0.5709
              Bcc     0.0101    -1.068    -0.381    -0.356 -0.5709  0.0002  0.8210
 
              Baa    -0.0094     1.001     0.357     0.334 -0.1176 -0.3211  0.9397
     5 Si(29) Bbb    -0.0062     0.655     0.234     0.219 -0.3017  0.9131  0.2742
              Bcc     0.0156    -1.656    -0.591    -0.552  0.9461  0.2513  0.2043
 
              Baa    -0.0015     0.154     0.055     0.052  0.0000 -0.1602  0.9871
     6 Si(29) Bbb    -0.0005     0.054     0.019     0.018  1.0000  0.0000  0.0000
              Bcc     0.0020    -0.208    -0.074    -0.070  0.0000  0.9871  0.1602
 
              Baa    -0.0094     1.001     0.357     0.334  0.1176 -0.3211  0.9397
     7 Si(29) Bbb    -0.0062     0.655     0.234     0.219  0.3017  0.9131  0.2742
              Bcc     0.0156    -1.656    -0.591    -0.552  0.9461 -0.2512 -0.2043
 
              Baa    -0.0031     0.325     0.116     0.108  0.0000  1.0000 -0.0003
     8 Si(29) Bbb    -0.0024     0.259     0.092     0.086  0.0000  0.0003  1.0000
              Bcc     0.0055    -0.584    -0.208    -0.195  1.0000  0.0000  0.0000
 
              Baa    -0.0094     1.001     0.357     0.334  0.1176  0.3216  0.9396
     9 Si(29) Bbb    -0.0062     0.655     0.234     0.219 -0.3017  0.9130 -0.2747
              Bcc     0.0156    -1.656    -0.591    -0.552  0.9461  0.2512 -0.2044
 
              Baa    -0.0074     0.787     0.281     0.262  0.0000  1.0000 -0.0002
    10 Si(29) Bbb    -0.0027     0.282     0.100     0.094  0.8210 -0.0001 -0.5709
              Bcc     0.0101    -1.068    -0.381    -0.356  0.5709  0.0002  0.8210
 
              Baa    -0.0021     0.220     0.078     0.073  0.0000  0.3721  0.9282
    11 Si(29) Bbb    -0.0013     0.133     0.048     0.044  0.0000  0.9282 -0.3721
              Bcc     0.0033    -0.353    -0.126    -0.118  1.0000  0.0000  0.0000
 
              Baa    -0.0188     1.997     0.713     0.666  0.2749  0.0002  0.9615
    12 Si(29) Bbb    -0.0162     1.722     0.614     0.574  0.0000  1.0000 -0.0002
              Bcc     0.0351    -3.719    -1.327    -1.240  0.9615 -0.0001 -0.2749
 
              Baa    -0.0188     1.997     0.713     0.666 -0.2750  0.0002  0.9615
    13 Si(29) Bbb    -0.0162     1.722     0.614     0.574  0.0000  1.0000 -0.0003
              Bcc     0.0351    -3.719    -1.327    -1.240  0.9615  0.0001  0.2750
 

 ---------------------------------------------------------------------------------

   1 Symmetry operations used in ECPInt.
 ECPInt:  NShTT=    1378 NPrTT=    3107 LenC2=    1379 LenP2D=    3107.
 LDataN:  DoStor=F MaxTD1= 5 Len=  102
 LDataN:  DoStor=T MaxTD1= 5 Len=  102
 ***** Axes restored to original set *****
 -------------------------------------------------------------------
 Center     Atomic                   Forces (Hartrees/Bohr)
 Number     Number              X              Y              Z
 -------------------------------------------------------------------
    1         14           0.000001390   -0.005152634   -0.021808406
    2         14           0.000002880   -0.013140106    0.003144702
    3         14           0.018868020   -0.014858480    0.013445163
    4         14           0.000609705   -0.000005059   -0.021557844
    5         14           0.018861840    0.014874219    0.013437520
    6         14          -0.000002946    0.013141623    0.003138193
    7         14          -0.018868730    0.014865492    0.013437116
    8         14          -0.000000214    0.000004963    0.019383879
    9         14          -0.018861716   -0.014867258    0.013444806
   10         14          -0.000609228   -0.000005306   -0.021557862
   11         14          -0.000000920    0.005140698   -0.021810876
   12         14           0.013753428    0.000004105    0.003651957
   13         14          -0.013753508   -0.000002258    0.003651652
 -------------------------------------------------------------------
 Cartesian Forces:  Max     0.021810876 RMS     0.012517274

 GradGradGradGradGradGradGradGradGradGradGradGradGradGradGradGradGradGrad
 Berny optimization.
 Internal  Forces:  Max     0.009689336 RMS     0.002952861
 Search for a local minimum.
 Step number   1 out of a maximum of 100
 All quantities printed in internal units (Hartrees-Bohrs-Radians)
 Second derivative matrix not updated -- analytic derivatives used.
     Eigenvalues ---    0.00298   0.00469   0.00516   0.00632   0.00941
     Eigenvalues ---    0.00976   0.00981   0.00986   0.01105   0.01439
     Eigenvalues ---    0.01480   0.01665   0.01830   0.02064   0.02448
     Eigenvalues ---    0.02539   0.02885   0.03097   0.03677   0.04020
     Eigenvalues ---    0.04025   0.04086   0.04411   0.04734   0.05030
     Eigenvalues ---    0.05168   0.05620   0.05639   0.05997   0.06400
     Eigenvalues ---    0.06480   0.06900   0.074711000.000001000.00000
     Eigenvalues --- 1000.000001000.000001000.000001000.000001000.00000
     Eigenvalues --- 1000.000001000.000001000.000001000.000001000.00000
     Eigenvalues --- 1000.000001000.000001000.000001000.000001000.00000
     Eigenvalues --- 1000.000001000.000001000.000001000.000001000.00000
     Eigenvalues --- 1000.000001000.000001000.000001000.000001000.00000
     Eigenvalues --- 1000.000001000.000001000.000001000.000001000.00000
     Eigenvalues --- 1000.000001000.000001000.000001000.000001000.00000
     Eigenvalues --- 1000.000001000.000001000.000001000.000001000.00000
     Eigenvalues --- 1000.000001000.000001000.000001000.000001000.00000
     Eigenvalues --- 1000.000001000.000001000.000001000.000001000.00000
     Eigenvalues --- 1000.000001000.000001000.000001000.000001000.00000
     Eigenvalues --- 1000.000001000.000001000.000001000.000001000.00000
     Eigenvalues --- 1000.000001000.000001000.000001000.000001000.00000
     Eigenvalues --- 1000.000001000.000001000.000001000.000001000.00000
     Eigenvalues --- 1000.000001000.000001000.000001000.000001000.00000
     Eigenvalues --- 1000.000001000.000001000.000001000.000001000.00000
     Eigenvalues --- 1000.000001000.000001000.000001000.000001000.00000
     Eigenvalues --- 1000.000001000.000001000.000001000.000001000.00000
     Eigenvalues --- 1000.000001000.000001000.000001000.000001000.00000
     Eigenvalues --- 1000.000001000.000001000.000001000.000001000.00000
     Eigenvalues --- 1000.000001000.000001000.000001000.000001000.00000
     Eigenvalues --- 1000.000001000.000001000.000001000.000001000.00000
     Eigenvalues --- 1000.000001000.000001000.000001000.000001000.00000
     Eigenvalues --- 1000.000001000.000001000.000001000.000001000.00000
     Eigenvalues --- 1000.000001000.000001000.000001000.000001000.00000
     Eigenvalues --- 1000.000001000.000001000.000001000.000001000.00000
     Eigenvalues --- 1000.000001000.000001000.000001000.000001000.00000
     Eigenvalues --- 1000.000001000.000001000.000001000.000001000.00000
     Eigenvalues --- 1000.000001000.000001000.000001000.000001000.00000
     Eigenvalues --- 1000.000001000.000001000.000001000.000001000.00000
     Eigenvalues --- 1000.000001000.000001000.000001000.000001000.00000
     Eigenvalues --- 1000.000001000.000001000.000001000.000001000.00000
     Eigenvalues --- 1000.000001000.000001000.000001000.000001000.00000
     Eigenvalues --- 1000.000001000.000001000.000001000.000001000.00000
     Eigenvalues --- 1000.000001000.000001000.000001000.000001000.00000
     Eigenvalues --- 1000.000001000.000001000.000001000.00000
 RFO step:  Lambda=-2.89071944D-02.
 Linear search not attempted -- first point.
 Maximum step size (   0.300) exceeded in Quadratic search.
    -- Step size scaled by   0.434
 Iteration  1 RMS(Cart)=  0.01126183 RMS(Int)=  0.00007238
 Iteration  2 RMS(Cart)=  0.00003108 RMS(Int)=  0.00005650
 Iteration  3 RMS(Cart)=  0.00000000 RMS(Int)=  0.00005650
 Variable       Old X    -DE/DX   Delta X   Delta X   Delta X     New X
                                 (Linear)    (Quad)   (Total)
    R1        4.43154   0.00724   0.00000   0.03353   0.03342   4.46497
    R2        5.11844   0.00940   0.00000   0.07598   0.07603   5.19447
    R3        4.52891   0.00466   0.00000   0.02189   0.02177   4.55068
    R4        5.11842   0.00940   0.00000   0.07598   0.07603   5.19446
    R5        4.52891   0.00466   0.00000   0.02189   0.02177   4.55068
    R6        4.62190   0.00594   0.00000   0.02982   0.02983   4.65173
    R7        4.62190   0.00594   0.00000   0.02982   0.02982   4.65172
    R8        5.04271   0.00877   0.00000   0.06862   0.06869   5.11140
    R9        4.81982   0.00900   0.00000   0.05979   0.05984   4.87966
   R10        4.77981   0.00795   0.00000   0.04910   0.04907   4.82888
   R11        5.47387   0.00969   0.00000   0.07833   0.07842   5.55229
   R12        4.59435   0.00518   0.00000   0.02499   0.02499   4.61935
   R13        5.04270   0.00877   0.00000   0.06862   0.06869   5.11139
   R14        4.52890   0.00466   0.00000   0.02189   0.02177   4.55068
   R15        4.55582   0.00832   0.00000   0.04375   0.04368   4.59950
   R16        4.62190   0.00594   0.00000   0.02982   0.02982   4.65172
   R17        5.47386   0.00969   0.00000   0.07833   0.07842   5.55228
   R18        4.77979   0.00795   0.00000   0.04910   0.04907   4.82886
   R19        5.11842   0.00940   0.00000   0.07598   0.07603   5.19446
   R20        4.59435   0.00518   0.00000   0.02499   0.02499   4.61934
   R21        4.62190   0.00594   0.00000   0.02982   0.02982   4.65172
   R22        4.43154   0.00724   0.00000   0.03353   0.03342   4.46497
   R23        4.77981   0.00795   0.00000   0.04910   0.04907   4.82888
   R24        4.81982   0.00900   0.00000   0.05979   0.05984   4.87966
   R25        5.04272   0.00877   0.00000   0.06862   0.06869   5.11141
   R26        5.11844   0.00940   0.00000   0.07598   0.07603   5.19447
   R27        4.59436   0.00518   0.00000   0.02499   0.02499   4.61935
   R28        4.77979   0.00795   0.00000   0.04910   0.04907   4.82887
   R29        5.04269   0.00877   0.00000   0.06862   0.06869   5.11138
   R30        4.59435   0.00518   0.00000   0.02499   0.02499   4.61934
   R31        4.52890   0.00466   0.00000   0.02189   0.02177   4.55068
   R32        4.55582   0.00832   0.00000   0.04375   0.04368   4.59950
    A1        2.06290  -0.00011   0.00000  -0.00179  -0.00180   2.06110
    A2        2.06290  -0.00011   0.00000  -0.00179  -0.00180   2.06109
    A3        1.89179   0.00002   0.00000   0.00184   0.00181   1.89361
    A4        1.89179   0.00002   0.00000   0.00184   0.00181   1.89360
    A5        1.61983  -0.00046   0.00000  -0.00203  -0.00203   1.61780
    A6        1.71002  -0.00036   0.00000  -0.00432  -0.00427   1.70575
    A7        1.87827  -0.00025   0.00000  -0.00515  -0.00514   1.87313
    A8        1.87489  -0.00034   0.00000  -0.00945  -0.00941   1.86548
    A9        1.83836  -0.00061   0.00000  -0.01218  -0.01213   1.82623
   A10        2.46721  -0.00043   0.00000  -0.00807  -0.00807   2.45914
   A11        1.75461  -0.00016   0.00000  -0.00250  -0.00255   1.75205
   A12        2.57192   0.00037   0.00000  -0.00186  -0.00206   2.56985
   A13        1.96524  -0.00056   0.00000  -0.00606  -0.00606   1.95917
   A14        1.67869  -0.00062   0.00000  -0.00676  -0.00669   1.67199
   A15        1.57079   0.00000   0.00000   0.00000   0.00000   1.57079
   A16        1.94254  -0.00040   0.00000   0.00003  -0.00003   1.94251
   A17        2.52146  -0.00044   0.00000  -0.00700  -0.00700   2.51445
   A18        1.79908   0.00071   0.00000   0.00559   0.00555   1.80463
   A19        1.52012   0.00047   0.00000   0.00211   0.00210   1.52222
   A20        2.08018  -0.00015   0.00000  -0.00052  -0.00051   2.07967
   A21        1.79908   0.00071   0.00000   0.00559   0.00555   1.80463
   A22        2.08017  -0.00015   0.00000  -0.00052  -0.00051   2.07967
   A23        2.46723  -0.00043   0.00000  -0.00807  -0.00807   2.45916
   A24        1.57081   0.00000   0.00000   0.00000   0.00000   1.57081
   A25        1.71003  -0.00036   0.00000  -0.00432  -0.00428   1.70576
   A26        1.83837  -0.00061   0.00000  -0.01218  -0.01213   1.82624
   A27        1.67870  -0.00062   0.00000  -0.00676  -0.00669   1.67201
   A28        1.96524  -0.00056   0.00000  -0.00606  -0.00606   1.95918
   A29        1.75462  -0.00016   0.00000  -0.00250  -0.00256   1.75206
   A30        2.57191   0.00037   0.00000  -0.00186  -0.00206   2.56984
   A31        2.52148  -0.00044   0.00000  -0.00700  -0.00700   2.51447
   A32        1.87828  -0.00025   0.00000  -0.00515  -0.00514   1.87314
   A33        1.94255  -0.00040   0.00000   0.00003  -0.00003   1.94252
   A34        1.87489  -0.00034   0.00000  -0.00945  -0.00941   1.86548
   A35        1.57079   0.00000   0.00000   0.00000   0.00000   1.57079
   A36        1.67869  -0.00062   0.00000  -0.00676  -0.00669   1.67199
   A37        2.52146  -0.00044   0.00000  -0.00700  -0.00700   2.51446
   A38        1.75461  -0.00016   0.00000  -0.00250  -0.00255   1.75206
   A39        2.46721  -0.00043   0.00000  -0.00807  -0.00807   2.45914
   A40        1.83836  -0.00061   0.00000  -0.01218  -0.01213   1.82623
   A41        2.57191   0.00037   0.00000  -0.00186  -0.00206   2.56985
   A42        1.96523  -0.00056   0.00000  -0.00606  -0.00606   1.95917
   A43        1.87827  -0.00025   0.00000  -0.00515  -0.00514   1.87313
   A44        1.94254  -0.00040   0.00000   0.00003  -0.00003   1.94251
   A45        1.71002  -0.00036   0.00000  -0.00432  -0.00428   1.70574
   A46        1.87489  -0.00034   0.00000  -0.00945  -0.00941   1.86547
   A47        1.73571   0.00035   0.00000   0.00757   0.00755   1.74326
   A48        1.73570   0.00035   0.00000   0.00757   0.00755   1.74325
   A49        1.71003  -0.00036   0.00000  -0.00432  -0.00428   1.70576
   A50        1.87828  -0.00025   0.00000  -0.00515  -0.00514   1.87314
   A51        1.87489  -0.00034   0.00000  -0.00945  -0.00941   1.86548
   A52        2.46722  -0.00043   0.00000  -0.00807  -0.00807   2.45915
   A53        1.75461  -0.00016   0.00000  -0.00250  -0.00255   1.75206
   A54        1.83837  -0.00061   0.00000  -0.01218  -0.01213   1.82624
   A55        2.57191   0.00037   0.00000  -0.00186  -0.00206   2.56985
   A56        1.57080   0.00000   0.00000   0.00000   0.00000   1.57080
   A57        1.67870  -0.00062   0.00000  -0.00676  -0.00669   1.67200
   A58        2.52147  -0.00044   0.00000  -0.00700  -0.00700   2.51447
   A59        1.96524  -0.00056   0.00000  -0.00606  -0.00606   1.95918
   A60        1.94255  -0.00040   0.00000   0.00003  -0.00003   1.94252
   A61        1.79908   0.00071   0.00000   0.00559   0.00555   1.80463
   A62        1.52012   0.00047   0.00000   0.00211   0.00210   1.52222
   A63        2.08018  -0.00015   0.00000  -0.00052  -0.00051   2.07967
   A64        1.79908   0.00071   0.00000   0.00559   0.00555   1.80463
   A65        2.08018  -0.00015   0.00000  -0.00052  -0.00051   2.07967
   A66        2.06290  -0.00011   0.00000  -0.00179  -0.00180   2.06109
   A67        1.89179   0.00002   0.00000   0.00184   0.00181   1.89361
   A68        1.61983  -0.00046   0.00000  -0.00203  -0.00203   1.61780
   A69        1.89179   0.00002   0.00000   0.00184   0.00181   1.89360
   A70        2.06290  -0.00011   0.00000  -0.00179  -0.00180   2.06110
    D1       -0.67654   0.00005   0.00000  -0.00058  -0.00057  -0.67711
    D2        0.38254  -0.00017   0.00000  -0.00303  -0.00298   0.37956
    D3       -1.71081   0.00062   0.00000   0.00491   0.00487  -1.70594
    D4       -1.01432   0.00079   0.00000   0.00899   0.00894  -1.00539
    D5       -2.11154   0.00026   0.00000   0.00301   0.00300  -2.10854
    D6        0.01896   0.00035   0.00000   0.00357   0.00357   0.02253
    D7        0.07075   0.00017   0.00000   0.00214   0.00213   0.07288
    D8       -1.02647  -0.00035   0.00000  -0.00385  -0.00381  -1.03028
    D9        1.10403  -0.00027   0.00000  -0.00329  -0.00323   1.10079
   D10        1.15454   0.00029   0.00000   0.00467   0.00462   1.15916
   D11        0.05732  -0.00023   0.00000  -0.00131  -0.00132   0.05600
   D12        2.18782  -0.00015   0.00000  -0.00075  -0.00074   2.18707
   D13        0.67655  -0.00005   0.00000   0.00058   0.00057   0.67711
   D14       -0.38255   0.00017   0.00000   0.00303   0.00298  -0.37957
   D15        1.71082  -0.00062   0.00000  -0.00492  -0.00487   1.70594
   D16        1.01432  -0.00079   0.00000  -0.00899  -0.00894   1.00539
   D17        2.11154  -0.00026   0.00000  -0.00301  -0.00300   2.10854
   D18       -0.01896  -0.00035   0.00000  -0.00357  -0.00357  -0.02253
   D19       -0.07075  -0.00017   0.00000  -0.00214  -0.00213  -0.07288
   D20        1.02647   0.00035   0.00000   0.00385   0.00381   1.03028
   D21       -1.10403   0.00027   0.00000   0.00329   0.00323  -1.10079
   D22       -1.15454  -0.00029   0.00000  -0.00467  -0.00462  -1.15916
   D23       -0.05732   0.00023   0.00000   0.00131   0.00132  -0.05600
   D24       -2.18782   0.00015   0.00000   0.00075   0.00074  -2.18707
   D25        1.62950  -0.00025   0.00000  -0.00499  -0.00492   1.62459
   D26       -0.26638   0.00051   0.00000   0.00700   0.00693  -0.25946
   D27        0.68719   0.00025   0.00000   0.00197   0.00197   0.68915
   D28        0.67765  -0.00007   0.00000  -0.00594  -0.00585   0.67179
   D29        1.00042   0.00007   0.00000   0.00073   0.00071   1.00113
   D30       -0.00001   0.00000   0.00000   0.00000   0.00000   0.00000
   D31       -0.00001   0.00000   0.00000   0.00000   0.00000  -0.00001
   D32        0.32277   0.00014   0.00000   0.00667   0.00656   0.32933
   D33       -0.67766   0.00007   0.00000   0.00594   0.00585  -0.67181
   D34       -0.32277  -0.00014   0.00000  -0.00667  -0.00656  -0.32934
   D35        0.00000   0.00000   0.00000   0.00000   0.00000   0.00000
   D36       -1.00042  -0.00007   0.00000  -0.00073  -0.00071  -1.00114
   D37       -0.50070   0.00037   0.00000   0.00531   0.00524  -0.49546
   D38       -1.46407   0.00041   0.00000   0.01042   0.01038  -1.45369
   D39        0.48430  -0.00058   0.00000  -0.00702  -0.00692   0.47738
   D40        1.54921  -0.00041   0.00000  -0.00923  -0.00921   1.54000
   D41       -1.06935   0.00003   0.00000  -0.00106  -0.00104  -1.07039
   D42        0.00000   0.00000   0.00000   0.00000   0.00000   0.00000
   D43       -0.62433  -0.00024   0.00000   0.00490   0.00483  -0.61950
   D44        0.00000   0.00000   0.00000   0.00000   0.00000   0.00000
   D45        1.06935  -0.00003   0.00000   0.00106   0.00104   1.07039
   D46        0.44502  -0.00027   0.00000   0.00596   0.00587   0.45089
   D47       -0.44502   0.00027   0.00000  -0.00596  -0.00587  -0.45089
   D48        0.62433   0.00024   0.00000  -0.00490  -0.00483   0.61950
   D49        0.00000   0.00000   0.00000   0.00000   0.00000   0.00000
   D50       -1.62951   0.00025   0.00000   0.00499   0.00492  -1.62460
   D51       -0.68719  -0.00025   0.00000  -0.00197  -0.00197  -0.68916
   D52        0.26639  -0.00051   0.00000  -0.00700  -0.00693   0.25946
   D53        2.11154  -0.00026   0.00000  -0.00301  -0.00300   2.10854
   D54        1.02647   0.00035   0.00000   0.00385   0.00381   1.03028
   D55       -0.05732   0.00023   0.00000   0.00131   0.00132  -0.05600
   D56        1.01432  -0.00079   0.00000  -0.00899  -0.00894   1.00539
   D57       -0.07075  -0.00017   0.00000  -0.00213  -0.00213  -0.07288
   D58       -1.15454  -0.00029   0.00000  -0.00467  -0.00462  -1.15916
   D59       -0.01896  -0.00035   0.00000  -0.00357  -0.00357  -0.02253
   D60       -1.10403   0.00027   0.00000   0.00329   0.00323  -1.10079
   D61       -2.18782   0.00015   0.00000   0.00075   0.00074  -2.18708
   D62        0.00000   0.00000   0.00000   0.00000   0.00000   0.00000
   D63       -1.06935   0.00003   0.00000  -0.00106  -0.00104  -1.07038
   D64       -0.44502   0.00027   0.00000  -0.00596  -0.00587  -0.45089
   D65        1.06935  -0.00003   0.00000   0.00106   0.00104   1.07038
   D66        0.00000   0.00000   0.00000   0.00000   0.00000   0.00000
   D67        0.62433   0.00024   0.00000  -0.00490  -0.00483   0.61950
   D68        0.44502  -0.00027   0.00000   0.00596   0.00587   0.45089
   D69       -0.62433  -0.00024   0.00000   0.00490   0.00483  -0.61949
   D70        0.00000   0.00000   0.00000   0.00000   0.00000   0.00000
   D71       -0.48431   0.00058   0.00000   0.00702   0.00692  -0.47739
   D72        1.46408  -0.00041   0.00000  -0.01042  -0.01038   1.45370
   D73        0.50070  -0.00037   0.00000  -0.00531  -0.00524   0.49546
   D74       -1.54922   0.00041   0.00000   0.00923   0.00921  -1.54001
   D75        0.67655  -0.00005   0.00000   0.00058   0.00057   0.67712
   D76       -0.38254   0.00017   0.00000   0.00303   0.00298  -0.37956
   D77        1.71082  -0.00062   0.00000  -0.00492  -0.00487   1.70595
   D78       -1.46407   0.00041   0.00000   0.01042   0.01038  -1.45369
   D79        0.48430  -0.00058   0.00000  -0.00702  -0.00692   0.47738
   D80       -0.50070   0.00037   0.00000   0.00531   0.00524  -0.49545
   D81        1.54921  -0.00041   0.00000  -0.00923  -0.00921   1.54000
   D82       -1.00042  -0.00007   0.00000  -0.00073  -0.00071  -1.00113
   D83       -0.32276  -0.00014   0.00000  -0.00667  -0.00656  -0.32933
   D84        0.00000   0.00000   0.00000   0.00000   0.00000   0.00000
   D85       -0.67765   0.00007   0.00000   0.00594   0.00585  -0.67180
   D86        0.00001   0.00000   0.00000   0.00000   0.00000   0.00001
   D87        0.32278   0.00014   0.00000   0.00667   0.00656   0.32934
   D88        0.00000   0.00000   0.00000   0.00000   0.00000   0.00000
   D89        0.67766  -0.00007   0.00000  -0.00594  -0.00585   0.67180
   D90        1.00043   0.00007   0.00000   0.00073   0.00071   1.00114
   D91        0.68719   0.00025   0.00000   0.00197   0.00197   0.68915
   D92        1.62951  -0.00025   0.00000  -0.00499  -0.00492   1.62459
   D93       -0.26639   0.00051   0.00000   0.00700   0.00693  -0.25946
   D94        0.38254  -0.00017   0.00000  -0.00303  -0.00298   0.37956
   D95       -0.67655   0.00005   0.00000  -0.00058  -0.00057  -0.67711
   D96       -1.71081   0.00062   0.00000   0.00491   0.00487  -1.70594
   D97        0.50071  -0.00037   0.00000  -0.00531  -0.00524   0.49546
   D98        1.46408  -0.00041   0.00000  -0.01042  -0.01038   1.45370
   D99       -0.48430   0.00058   0.00000   0.00702   0.00692  -0.47738
   D100      -1.54922   0.00041   0.00000   0.00923   0.00921  -1.54001
   D101      -1.62951   0.00025   0.00000   0.00499   0.00492  -1.62460
   D102      -0.68719  -0.00025   0.00000  -0.00197  -0.00197  -0.68916
   D103       0.26639  -0.00051   0.00000  -0.00700  -0.00693   0.25946
   D104       0.05732  -0.00023   0.00000  -0.00131  -0.00132   0.05600
   D105      -1.02647  -0.00035   0.00000  -0.00385  -0.00381  -1.03028
   D106      -2.11154   0.00026   0.00000   0.00301   0.00300  -2.10854
   D107       1.15454   0.00029   0.00000   0.00467   0.00462   1.15916
   D108       0.07075   0.00017   0.00000   0.00213   0.00213   0.07288
   D109      -1.01432   0.00079   0.00000   0.00899   0.00894  -1.00539
   D110       2.18782  -0.00015   0.00000  -0.00075  -0.00074   2.18707
   D111       1.10403  -0.00027   0.00000  -0.00329  -0.00323   1.10079
   D112       0.01896   0.00035   0.00000   0.00357   0.00357   0.02253
         Item               Value     Threshold  Converged?
 Maximum Force            0.009689     0.000450     NO 
 RMS     Force            0.002953     0.000300     NO 
 Maximum Displacement     0.047004     0.001800     NO 
 RMS     Displacement     0.011254     0.001200     NO 
 Predicted change in Energy=-1.112274D-02
 GradGradGradGradGradGradGradGradGradGradGradGradGradGradGradGradGradGrad

                          Input orientation:                          
 ---------------------------------------------------------------------
 Center     Atomic     Atomic              Coordinates (Angstroms)
 Number     Number      Type              X           Y           Z
 ---------------------------------------------------------------------
    1         14             0        0.000394   -1.661328   -1.530232
    2         14             0        0.000723   -3.201304    0.261723
    3         14             0        1.469363   -1.290580    0.763360
    4         14             0        1.742360   -0.000007   -1.598004
    5         14             0        1.468762    1.291623    0.762707
    6         14             0       -0.000728    3.201437    0.260106
    7         14             0       -1.469377    1.290966    0.762680
    8         14             0       -0.000026    0.000605    2.407583
    9         14             0       -1.468782   -1.291238    0.763323
   10         14             0       -1.742325   -0.000800   -1.598041
   11         14             0       -0.000361    1.660553   -1.531068
   12         14             0        3.448380    0.000825    0.137969
   13         14             0       -3.448383   -0.000751    0.137895
 ---------------------------------------------------------------------
                    Distance matrix (angstroms):
                    1          2          3          4          5
     1  Si   0.000000
     2  Si   2.362758   0.000000
     3  Si   2.748797   2.461587   0.000000
     4  Si   2.408116   4.091477   2.704837   0.000000
     5  Si   4.016664   4.753159   2.582204   2.704832   0.000000
     6  Si   5.181872   6.402741   4.753172   4.091476   2.461584
     7  Si   4.016679   4.753171   3.911594   4.189831   2.938139
     8  Si   4.274155   3.854469   2.555334   4.368138   2.555325
     9  Si   2.748788   2.461585   2.938145   4.189817   3.911565
    10  Si   2.408116   4.091475   4.189831   3.484684   4.189817
    11  Si   3.321882   5.181868   4.016675   2.408115   2.748788
    12  Si   4.175435   4.706941   2.444453   2.433949   2.444452
    13  Si   4.175432   4.706932   5.122411   5.473313   5.122396
                    6          7          8          9         10
     6  Si   0.000000
     7  Si   2.461587   0.000000
     8  Si   3.854476   2.555333   0.000000
     9  Si   4.753160   2.582204   2.555326   0.000000
    10  Si   4.091478   2.704840   4.368138   2.704828   0.000000
    11  Si   2.362759   2.748796   4.274155   4.016660   2.408115
    12  Si   4.706929   5.122408   4.128275   5.122400   5.473313
    13  Si   4.706938   2.444454   4.128275   2.444451   2.433949
                   11         12         13
    11  Si   0.000000
    12  Si   4.175428   0.000000
    13  Si   4.175431   6.896764   0.000000
 Stoichiometry    Si13(1+,2)
 Framework group  C1[X(Si13)]
 Deg. of freedom    33
 Full point group                 C1
 Largest Abelian subgroup         C1      NOp   1
 Largest concise Abelian subgroup C1      NOp   1
                         Standard orientation:                         
 ---------------------------------------------------------------------
 Center     Atomic     Atomic              Coordinates (Angstroms)
 Number     Number      Type              X           Y           Z
 ---------------------------------------------------------------------
    1         14             0        0.000004   -1.660943   -1.530650
    2         14             0        0.000005   -3.201370    0.260917
    3         14             0        1.469081   -1.291103    0.763019
    4         14             0        1.742342    0.000003   -1.598022
    5         14             0        1.469061    1.291101    0.763016
    6         14             0       -0.000005    3.201371    0.260912
    7         14             0       -1.469078    1.291104    0.763021
    8         14             0        0.000000   -0.000002    2.407583
    9         14             0       -1.469064   -1.291099    0.763014
   10         14             0       -1.742342   -0.000005   -1.598022
   11         14             0       -0.000004    1.660939   -1.530650
   12         14             0        3.448382    0.000014    0.137932
   13         14             0       -3.448382   -0.000010    0.137932
 ---------------------------------------------------------------------
 Rotational constants (GHZ):      0.3557659      0.3192703      0.2538180
 Standard basis: LANL2DZ (5D, 7F)
 There are   104 symmetry adapted basis functions of A   symmetry.
 Integral buffers will be    131072 words long.
 Raffenetti 2 integral format.
 Two-electron integral symmetry is turned on.
   104 basis functions,   156 primitive gaussians,   104 cartesian basis functions
    26 alpha electrons       25 beta electrons
       nuclear repulsion energy       194.6064790358 Hartrees.
 NAtoms=   13 NActive=   13 NUniq=   13 SFac= 7.50D-01 NAtFMM=   80 NAOKFM=F Big=F
 One-electron integrals computed using PRISM.
   1 Symmetry operations used in ECPInt.
 ECPInt:  NShTT=    1378 NPrTT=    3107 LenC2=    1379 LenP2D=    2979.
 LDataN:  DoStor=F MaxTD1= 3 Len=   28
 LDataN:  DoStor=T MaxTD1= 3 Len=   28
 NBasis=   104 RedAO= T  NBF=   104
 NBsUse=   104 1.00D-06 NBFU=   104
 Initial guess read from the read-write file:
 Initial guess orbital symmetries:
 Alpha Orbitals:
       Occupied  (A) (A) (A) (A) (A) (A) (A) (A) (A) (A) (A) (A)
                 (A) (A) (A) (A) (A) (A) (A) (A) (A) (A) (A) (A)
                 (A) (A)
       Virtual   (A) (A) (A) (A) (A) (A) (A) (A) (A) (A) (A) (A)
                 (A) (A) (A) (A) (A) (A) (A) (A) (A) (A) (A) (A)
                 (A) (A) (A) (A) (A) (A) (A) (A) (A) (A) (A) (A)
                 (A) (A) (A) (A) (A) (A) (A) (A) (A) (A) (A) (A)
[...]
 ! D23   D(4,1,10,11)           -3.3655         -DE/DX =    0.0                 !
 ! D24   D(4,1,10,13)         -125.8534         -DE/DX =    0.0                 !
 ! D25   D(2,3,4,11)            93.1265         -DE/DX =    0.0                 !
 ! D26   D(8,3,4,11)           -14.5301         -DE/DX =    0.0                 !
 ! D27   D(9,3,4,11)            39.552          -DE/DX =    0.0                 !
 ! D28   D(1,3,5,6)             38.0921         -DE/DX =    0.0                 !
 ! D29   D(1,3,5,7)             57.1066         -DE/DX =    0.0                 !
 ! D30   D(1,3,5,11)             0.0            -DE/DX =    0.0                 !
 ! D31   D(2,3,5,6)              0.0            -DE/DX =    0.0                 !
 ! D32   D(2,3,5,7)             19.0145         -DE/DX =    0.0                 !
 ! D33   D(2,3,5,11)           -38.0921         -DE/DX =    0.0                 !
 ! D34   D(9,3,5,6)            -19.0145         -DE/DX =    0.0                 !
 ! D35   D(9,3,5,7)              0.0            -DE/DX =    0.0                 !
 ! D36   D(9,3,5,11)           -57.1066         -DE/DX =    0.0                 !
 ! D37   D(1,3,8,7)            -28.4782         -DE/DX =    0.0                 !
 ! D38   D(2,3,8,7)            -83.0465         -DE/DX =    0.0                 !
 ! D39   D(4,3,8,7)             27.2764         -DE/DX =    0.0                 !
 ! D40   D(12,3,8,7)            88.0626         -DE/DX =    0.0                 !
 ! D41   D(4,3,9,7)            -61.3257         -DE/DX =    0.0                 !
 ! D42   D(4,3,9,10)             0.0            -DE/DX =    0.0                 !
 ! D43   D(4,3,9,13)           -34.8376         -DE/DX =    0.0                 !
 ! D44   D(5,3,9,7)              0.0            -DE/DX =    0.0                 !
 ! D45   D(5,3,9,10)            61.3257         -DE/DX =    0.0                 !
 ! D46   D(5,3,9,13)            26.4881         -DE/DX =    0.0                 !
 ! D47   D(12,3,9,7)           -26.4881         -DE/DX =    0.0                 !
 ! D48   D(12,3,9,10)           34.8376         -DE/DX =    0.0                 !
 ! D49   D(12,3,9,13)            0.0            -DE/DX =    0.0                 !
 ! D50   D(1,4,5,6)            -93.1265         -DE/DX =    0.0                 !
 ! D51   D(1,4,5,7)            -39.552          -DE/DX =    0.0                 !
 ! D52   D(1,4,5,8)             14.5301         -DE/DX =    0.0                 !
 ! D53   D(1,4,11,6)           121.1108         -DE/DX =    0.0                 !
 ! D54   D(1,4,11,7)            58.6785         -DE/DX =    0.0                 !
 ! D55   D(1,4,11,10)           -3.3655         -DE/DX =    0.0                 !
 ! D56   D(3,4,11,6)            57.8645         -DE/DX =    0.0                 !
 ! D57   D(3,4,11,7)            -4.5677         -DE/DX =    0.0                 !
 ! D58   D(3,4,11,10)          -66.6118         -DE/DX =    0.0                 !
 ! D59   D(12,4,11,6)           -1.3771         -DE/DX =    0.0                 !
 ! D60   D(12,4,11,7)          -63.8093         -DE/DX =    0.0                 !
 ! D61   D(12,4,11,10)        -125.8534         -DE/DX =    0.0                 !
 ! D62   D(3,5,7,9)              0.0            -DE/DX =    0.0                 !
 ! D63   D(3,5,7,10)           -61.3257         -DE/DX =    0.0                 !
 ! D64   D(3,5,7,13)           -26.4881         -DE/DX =    0.0                 !
 ! D65   D(4,5,7,9)             61.3257         -DE/DX =    0.0                 !
 ! D66   D(4,5,7,10)             0.0            -DE/DX =    0.0                 !
 ! D67   D(4,5,7,13)            34.8376         -DE/DX =    0.0                 !
 ! D68   D(12,5,7,9)            26.4881         -DE/DX =    0.0                 !
 ! D69   D(12,5,7,10)          -34.8376         -DE/DX =    0.0                 !
 ! D70   D(12,5,7,13)            0.0            -DE/DX =    0.0                 !
 ! D71   D(4,5,8,9)            -27.2764         -DE/DX =    0.0                 !
 ! D72   D(6,5,8,9)             83.0465         -DE/DX =    0.0                 !
 ! D73   D(11,5,8,9)            28.4782         -DE/DX =    0.0                 !
 ! D74   D(12,5,8,9)           -88.0626         -DE/DX =    0.0                 !
 ! D75   D(3,5,11,10)           38.6293         -DE/DX =    0.0                 !
 ! D76   D(8,5,11,10)          -22.0555         -DE/DX =    0.0                 !
 ! D77   D(12,5,11,10)          97.7413         -DE/DX =    0.0                 !
 ! D78   D(6,7,8,3)            -83.0465         -DE/DX =    0.0                 !
 ! D79   D(10,7,8,3)            27.2764         -DE/DX =    0.0                 !
 ! D80   D(11,7,8,3)           -28.4782         -DE/DX =    0.0                 !
 ! D81   D(13,7,8,3)            88.0626         -DE/DX =    0.0                 !
 ! D82   D(5,7,9,1)            -57.1066         -DE/DX =    0.0                 !
 ! D83   D(5,7,9,2)            -19.0145         -DE/DX =    0.0                 !
 ! D84   D(5,7,9,3)              0.0            -DE/DX =    0.0                 !
 ! D85   D(6,7,9,1)            -38.0921         -DE/DX =    0.0                 !
 ! D86   D(6,7,9,2)              0.0            -DE/DX =    0.0                 !
 ! D87   D(6,7,9,3)             19.0145         -DE/DX =    0.0                 !
 ! D88   D(11,7,9,1)             0.0            -DE/DX =    0.0                 !
 ! D89   D(11,7,9,2)            38.0921         -DE/DX =    0.0                 !
 ! D90   D(11,7,9,3)            57.1066         -DE/DX =    0.0                 !
 ! D91   D(5,7,10,1)            39.552          -DE/DX =    0.0                 !
 ! D92   D(6,7,10,1)            93.1265         -DE/DX =    0.0                 !
 ! D93   D(8,7,10,1)           -14.5301         -DE/DX =    0.0                 !
 ! D94   D(8,7,11,4)            22.0555         -DE/DX =    0.0                 !
 ! D95   D(9,7,11,4)           -38.6293         -DE/DX =    0.0                 !
 ! D96   D(13,7,11,4)          -97.7413         -DE/DX =    0.0                 !
 ! D97   D(5,8,9,1)             28.4782         -DE/DX =    0.0                 !
 ! D98   D(5,8,9,2)             83.0465         -DE/DX =    0.0                 !
 ! D99   D(5,8,9,10)           -27.2764         -DE/DX =    0.0                 !
 ! D100  D(5,8,9,13)           -88.0626         -DE/DX =    0.0                 !
 ! D101  D(2,9,10,11)          -93.1265         -DE/DX =    0.0                 !
 ! D102  D(3,9,10,11)          -39.552          -DE/DX =    0.0                 !
 ! D103  D(8,9,10,11)           14.5301         -DE/DX =    0.0                 !
 ! D104  D(1,10,11,4)            3.3655         -DE/DX =    0.0                 !
 ! D105  D(1,10,11,5)          -58.6785         -DE/DX =    0.0                 !
 ! D106  D(1,10,11,6)         -121.1108         -DE/DX =    0.0                 !
 ! D107  D(9,10,11,4)           66.6118         -DE/DX =    0.0                 !
 ! D108  D(9,10,11,5)            4.5677         -DE/DX =    0.0                 !
 ! D109  D(9,10,11,6)          -57.8645         -DE/DX =    0.0                 !
 ! D110  D(13,10,11,4)         125.8534         -DE/DX =    0.0                 !
 ! D111  D(13,10,11,5)          63.8093         -DE/DX =    0.0                 !
 ! D112  D(13,10,11,6)           1.3771         -DE/DX =    0.0                 !
 --------------------------------------------------------------------------------
 GradGradGradGradGradGradGradGradGradGradGradGradGradGradGradGradGradGrad

 1\1\GINC-NODE44\Freq\UB3LYP\6-311+G(d)\Si13(1+,2)\TAM\08-Jan-2012\0\\#
 N Geom=AllCheck Guess=Read SCRF=Check GenChk UB3LYP/6-311+G(d) Freq\\s
 i13-c\\1,2\Si,0.000390167,-1.6439581055,-1.5032272965\Si,0.00071923,-3
 .1740666917,0.2533896317\Si,1.4619250521,-1.2736746932,0.7566251289\Si
 ,1.7236334872,-0.0000047698,-1.5735428868\Si,1.4613454083,1.2747210388
 ,0.7559824712\Si,-0.0007247152,3.1741940909,0.2517887251\Si,-1.4619414
 665,1.2740561191,0.7559508792\Si,-0.0000258457,0.0006005414,2.38142278
 89\Si,-1.4613618421,-1.274339606,0.7565935351\Si,-1.7235993099,-0.0007
 888703,-1.5735801068\Si,-0.0003575143,1.6431997328,-1.5040562449\Si,3.
 4204903075,0.0008086122,0.1213636229\Si,-3.4204929589,-0.000747424,0.1
 212897519\\Version=AM64L-G03RevE.01\State=2-A\HF=-3763.3879484\S2=0.76
 1863\S2-1=0.\S2A=0.750101\RMSD=3.458e-09\RMSF=7.808e-06\ZeroPoint=0.02
 05747\Thermal=0.0389459\Dipole=0.0000045,-0.0001024,-0.4049671\DipoleD
 eriv=-0.01939,-0.0000168,-0.000052,-0.0000194,0.0549606,0.2307782,0.00
 00028,-0.009923,-0.0660299,0.0718235,-0.0000745,0.0000178,-0.000074,0.
 4016349,-0.0878158,0.0000084,-0.0466187,0.2728723,0.1167379,-0.1391608
 ,0.084869,-0.2143532,-0.0028594,-0.0502617,-0.0069561,-0.025702,-0.049
 336,0.0509041,-0.000031,-0.2189304,0.0000256,-0.055196,-0.0000467,0.00
 58197,0.0000044,-0.0429084,0.116577,0.1392579,0.0847759,0.2144039,-0.0
 026603,0.0502768,-0.0070759,0.0256754,-0.0493743,0.0718234,-0.0000755,
 -0.0000221,-0.000076,0.4017025,0.0877509,-0.0000127,0.0465538,0.272804
 5,0.1167396,-0.1392041,-0.0847952,-0.2143507,-0.0028212,0.0502336,0.00
 70677,0.0256755,-0.049376,-0.1570515,-0.0000375,-0.0000061,-0.0000374,
 0.0077353,0.0000991,-0.000006,0.0000992,0.4010568,0.1165788,0.1392157,
 -0.0848425,0.2144086,-0.0026986,-0.0502957,0.0069712,-0.0256958,-0.049
 3376,0.0508995,0.0000793,0.2189324,0.0000227,-0.0551959,0.0000529,-0.0
 058177,0.0000018,-0.0429038,-0.01939,-0.000017,0.000053,-0.0000144,0.0
 548491,-0.2308391,-0.0000017,0.009862,-0.0659185,0.2418733,0.0000359,0
 .014408,0.0000398,0.1002745,0.0000371,0.0301709,0.0000406,0.234226,0.2
 418742,0.0000286,-0.0144078,0.0000246,0.1002745,0.0000305,-0.0301707,0
 .0000269,0.234225\Polar=430.685987,0.0088886,391.6105861,0.001392,-0.0
 225337,302.2586725\PG=C01 [X(Si13)]\NImag=0\\0.08884018,-0.00000771,0.
 12441626,0.00000816,-0.03539488,0.07936071,-0.01039286,0.00000659,-0.0
 0000843,0.05274463,0.00000672,-0.04176183,0.03851899,-0.00001160,0.104
 98142,-0.00001109,0.05022374,-0.04102262,0.00000598,-0.02654450,0.0582
 7936,-0.00334995,-0.00163236,-0.00403583,-0.02104234,-0.01837560,-0.00
 556195,0.08534427,0.00269539,-0.00154619,-0.00450019,-0.02551854,-0.02
 681172,-0.01189667,0.02966700,0.09289072,-0.00318668,-0.00229687,-0.01
 244450,-0.00245758,-0.00920971,-0.00034654,-0.00859326,0.00551630,0.03
 879410,-0.02997797,-0.02624513,-0.00273575,0.00089785,0.00086575,0.002
 98013,-0.00188898,0.00138010,0.00250064,0.12049393,-0.03270826,-0.0275
 9615,0.00404423,-0.00249404,-0.00284221,0.00276544,0.00555575,-0.00356
 918,0.00456779,0.00001355,0.08622285,-0.00150366,0.00350717,-0.0021769
 5,-0.00074646,0.00135039,-0.00305371,0.00469753,0.00580007,-0.01130859
 ,0.02281462,-0.00000035,0.06427157,0.00053093,-0.00006152,0.00001233,-
 0.00274527,0.00488962,-0.00218201,0.00049733,-0.00796069,-0.00409782,-
 0.00188582,-0.00555262,0.00470297,0.08537126,-0.00385601,-0.00263532,-
 0.00114652,-0.00394460,-0.00249652,0.00144562,0.00797114,-0.02702254,-
 0.00390041,-0.00137807,-0.00357756,-0.00580183,-0.02967475,0.09285814,
 -0.00240499,-0.00399420,0.00033289,0.00054884,-0.00115067,-0.00204325,
 -0.00410362,0.00391504,0.00567545,0.00250341,-0.00457056,-0.01130336,-
 0.00857578,-0.00554748,0.03879967,-0.00282886,-0.00000102,0.00000050,0
 .00033221,0.00000130,0.00000026,-0.00274484,0.00394476,0.00054632,0.00
 089711,0.00249536,-0.00074711,-0.02106231,0.02551990,-0.00247464,0.052
 74462,-0.00000097,0.00155937,-0.00224847,0.00000133,-0.00544349,-0.001
 20547,-0.00489083,-0.00249710,0.00115115,-0.00086255,-0.00284355,-0.00
 135083,0.01837541,-0.02678110,0.00922193,-0.00001217,0.10500817,-0.000
 00041,0.00171365,-0.00127680,-0.00000029,0.00120911,0.00177281,-0.0021
 7889,-0.00144638,-0.00204310,0.00298182,-0.00276419,-0.00305164,-0.005
 57663,0.01190747,-0.00035719,-0.00000609,0.02652094,0.05825258,0.00052
 910,0.00006304,-0.00001181,-0.00274488,-0.00488972,0.00218134,-0.00330
 064,0.00353152,0.00236276,-0.00213609,0.00436394,0.00155867,-0.0063689
 6,-0.00648276,0.00051487,-0.02104251,-0.01837300,0.00557077,0.08534389
 ,0.00385747,-0.00263354,-0.00114643,0.00394446,-0.00249695,0.00144670,
 0.00353038,-0.00724953,-0.00248833,-0.00015981,-0.00108811,0.00114508,
 0.00647766,0.00497197,-0.00281606,-0.02551755,-0.02680107,0.01190945,0
 .02967145,0.09288515,0.00240681,-0.00399310,0.00033295,-0.00054833,-0.
 00115103,-0.00204322,-0.00236467,0.00249341,0.00267952,0.00361784,-0.0
 0211061,-0.00002068,-0.00051381,-0.00281643,0.00377888,0.00247000,0.00
 922266,-0.00035702,0.00857931,-0.00554294,0.03880004,0.00342603,0.0000
 0223,0.00000071,-0.00146995,-0.00000019,0.00000133,-0.00814807,0.00762
 487,0.00489454,-0.00594020,-0.00000092,0.00364999,-0.00814134,-0.00762
 374,0.00489556,-0.00146996,-0.00000014,-0.00000132,-0.00814779,0.00762
 226,-0.00489822,0.03891910,0.00000228,-0.00644056,-0.00271140,-0.00000
 010,-0.00074627,-0.00581998,0.00716711,-0.00521903,-0.00620064,-0.0000
 0204,0.00215738,-0.00000129,-0.00716444,-0.00521934,0.00619749,-0.0000
 0023,-0.00074440,0.00581926,0.00716297,-0.00521261,0.00619542,0.000001
 09,0.03413710,-0.00000011,0.00091868,-0.00538449,-0.00000048,0.0021340
 4,-0.00214453,0.00793321,-0.00653689,-0.01588771,-0.00076613,-0.000002
 29,-0.00623482,0.00793385,0.00653512,-0.01589413,0.00000049,-0.0021347
 5,-0.00214639,-0.00793665,0.00653167,-0.01589440,-0.00000056,0.0000142
 2,0.09054648,-0.00334962,0.00163159,0.00403808,-0.02106248,0.01837841,
 0.00556692,-0.00636896,0.00647786,0.00051032,-0.00213418,-0.00436362,0
 .00156139,-0.00329743,-0.00352853,0.00236341,-0.00274531,0.00489070,0.
 00217953,0.00049715,-0.00795853,0.00410173,-0.00814106,-0.00716830,-0.
 00793006,0.08537089,-0.00269611,-0.00154667,-0.00449841,0.02552141,-0.
 02679175,-0.01189358,-0.00648308,0.00497481,0.00281569,0.00016116,-0.0
 0108954,-0.00114384,-0.00352977,-0.00725274,0.00249441,-0.00394485,-0.
 00249667,-0.00144548,0.00797312,-0.02702254,0.00391707,-0.00762606,-0.
 00522576,-0.00654066,-0.02967054,0.09286372,0.00318791,-0.00229538,-0.
 01244435,0.00246132,-0.00920819,-0.00034637,-0.00051182,0.00281560,0.0
 0377604,0.00361680,0.00211278,-0.00002117,-0.00236176,-0.00248948,0.00
 267952,-0.00054686,0.00115100,-0.00204306,0.00409949,-0.00389872,0.005
 67562,-0.00489155,-0.00620302,-0.01588798,0.00859175,0.00551956,0.0387
 9446,-0.03000488,0.02624396,0.00273331,0.00089716,-0.00086408,-0.00298
 130,-0.00213598,-0.00016161,-0.00361781,-0.01535550,-0.00000357,-0.005
 50223,-0.00213407,0.00015931,-0.00361693,0.00089790,0.00086428,-0.0029
 8047,-0.00188882,0.00137897,-0.00250113,-0.00594014,-0.00000165,0.0007
 6613,-0.00188567,-0.00137946,-0.00250251,0.12049492,0.03270708,-0.0275
 6933,0.00404617,0.00249568,-0.00284147,0.00276414,0.00436310,-0.001087
 63,0.00211123,-0.00000079,-0.00577617,0.00000066,-0.00436437,-0.001090
 02,-0.00211234,-0.00249360,-0.00284429,-0.00276560,0.00555348,-0.00357
 441,-0.00457158,-0.00000276,0.00215737,-0.00000194,-0.00555509,-0.0035
 7233,0.00456654,0.00000204,0.08622284,0.00150146,0.00350842,-0.0021768
 6,0.00074594,0.00135071,-0.00305376,-0.00156091,-0.00114455,-0.0000212
 8,0.00550186,0.00000316,0.00180130,-0.00155923,0.00114438,-0.00002079,
 0.00074781,-0.00135047,-0.00305169,-0.00470013,-0.00580394,-0.01130351
 ,-0.00364998,-0.00000295,-0.00623489,-0.00469996,0.00579790,-0.0113087
 4,-0.02281340,-0.00001073,0.06427058,-0.00658415,0.00000217,-0.0000014
 0,-0.00282886,-0.00000102,0.00000037,0.00052915,0.00385623,-0.00240875
 ,-0.03000479,0.03270640,-0.00151856,-0.00334946,-0.00269782,-0.0031863
 6,-0.01039285,0.00000756,0.00001175,-0.00335010,0.00269690,0.00318551,
 0.00342603,0.00000222,0.00000030,0.00053088,-0.00385482,0.00240694,-0.
 02997806,-0.03270741,0.00151955,0.08884017,0.00000204,-0.01584085,0.00
 591262,-0.00000098,0.00155964,-0.00171508,0.00006296,-0.00263094,0.003
 99460,0.02624265,-0.02757314,-0.00349504,0.00162950,-0.00154325,0.0022
 8992,0.00000769,-0.04180658,-0.05022334,-0.00163037,-0.00154277,0.0022
 9134,0.00000226,-0.00643965,-0.00091815,-0.00006161,-0.00263273,0.0039
 9570,-0.02624367,-0.02759996,-0.00349491,-0.00000848,0.12445196,0.0000
 0129,-0.00590548,-0.00167328,-0.00000053,0.00224703,-0.00127707,0.0000
 1178,0.00114801,0.00033030,-0.00274715,-0.00403265,-0.00217315,-0.0040
 3870,0.00449286,-0.01244793,0.00000909,-0.03851860,-0.04097786,0.00403
 685,0.00449476,-0.01244777,-0.00000052,0.00271193,-0.00538539,-0.00001
 230,0.00114792,0.00033035,0.00274839,-0.00403210,-0.00217306,-0.000007
 94,0.03537213,0.07932502,-0.00341900,0.00116582,0.00045645,0.00370772,
 0.00043803,-0.00030725,-0.03496680,-0.01962257,0.01357210,-0.03544109,
 -0.00001350,-0.03117824,-0.03498850,0.01962162,0.01356395,0.00370708,-
 0.00043780,-0.00030693,-0.00242416,-0.00591428,0.00002775,0.00081365,-
 0.00000017,-0.00286847,-0.00242632,0.00591429,0.00002474,0.00247574,0.
 00000041,-0.00221102,-0.00341895,-0.00116751,0.00045684,0.11329418,-0.
 00105778,0.00079743,-0.00043776,-0.00184836,0.00284526,0.00021473,-0.0
 2809287,-0.01783101,0.00386534,-0.00001536,-0.01063161,-0.00001084,0.0
 2809226,-0.01781246,-0.00385399,0.00184875,0.00284568,-0.00021750,0.00
 115630,-0.00240142,-0.00007344,0.00000183,-0.00160212,-0.00000018,-0.0
 0115732,-0.00239850,0.00007383,0.00000141,-0.00179300,-0.00000036,0.00
 105526,0.00079912,0.00043721,0.00001773,0.04553655,-0.00119296,-0.0029
 9613,-0.00071336,-0.00000750,0.00022692,-0.00236055,0.01426587,0.00240
 478,-0.00755636,-0.03853192,-0.00001251,-0.02549608,0.01425279,-0.0023
 9311,-0.00755320,-0.00000833,-0.00022955,-0.00236032,-0.00200317,-0.00
 143123,-0.00164660,0.00509299,0.00000163,0.00027416,-0.00200323,0.0014
 3070,-0.00164737,0.00173625,0.00000054,-0.00123271,-0.00119486,0.00299
 482,-0.00071509,0.00918219,0.00000266,0.04780220,-0.00341897,-0.001167
 67,-0.00045631,0.00370708,-0.00043764,0.00030728,-0.00242420,-0.005914
 33,-0.00002479,0.00247573,0.00000152,0.00221110,-0.00242637,0.00591431
 ,-0.00002773,0.00370771,0.00043819,0.00030716,-0.03496619,-0.01962937,
 -0.01356279,0.00081369,0.00000127,0.00286848,-0.03498790,0.01961472,-0
 .01357445,-0.03544259,0.00000222,0.03117802,-0.00341902,0.00116553,-0.
 00045710,-0.00691355,-0.00000184,0.00041190,0.11329457,0.00105587,0.00
 079738,-0.00043795,0.00184875,0.00284590,0.00021491,0.00115730,-0.0024
 0066,0.00007385,0.00000053,-0.00179300,0.00000064,-0.00115631,-0.00239
 926,-0.00007348,-0.00184835,0.00284504,-0.00021740,-0.02809998,-0.0178
 3416,-0.00386077,-0.00000074,-0.00160212,0.00000113,0.02808499,-0.0178
 0930,0.00385977,0.00000407,-0.01063160,0.00000334,-0.00105719,0.000799
 17,0.00043698,-0.00000205,0.00164607,0.00000049,0.00001309,0.04553655,
 0.00119427,-0.00299562,-0.00071334,0.00000753,0.00022692,-0.00236054,0
 .00200257,0.00143148,-0.00164732,-0.00173617,-0.00000025,-0.00123270,0
 .00200380,-0.00143019,-0.00164656,0.00000857,-0.00022954,-0.00236032,-
 0.01425229,-0.00240002,-0.00755380,-0.00509298,-0.00000068,0.00027411,
 -0.01426755,0.00239871,-0.00755696,0.03853170,0.00000502,-0.02549457,0
 .00119344,0.00299539,-0.00071507,-0.00041211,0.00000030,0.00320527,-0.
 00918077,-0.00000152,0.04780180\\0.,-0.00000572,-0.00000287,0.,-0.0000
 0247,0.00000020,0.00001107,-0.00000972,-0.00000364,-0.00000783,0.,0.00
 002030,0.00001107,0.00000971,-0.00000364,0.,0.00000247,0.00000020,-0.0
 0001107,0.00000971,-0.00000364,0.,0.,-0.00001705,-0.00001107,-0.000009
 72,-0.00000364,0.00000783,0.,0.00002030,0.,0.00000571,-0.00000287,-0.0
 0000769,0.,-0.00000182,0.00000769,0.,-0.00000182\\\@


 IT IS WELL TO REMEMBER THAT MAN IS A PART OF NATURE AND THAT HIS WORKS,
 WHATEVER THEY MAY BE, ARE NO MORE "UNNATURAL" THAN 
 THE FLIGHT OF AN EAGLE OR THE PASSAGE OF A TORNADO.

                                    -- CHARLES MCCARRY IN "THE GREAT SOUTHWEST"
 Job cpu time:  0 days  6 hours 27 minutes 20.2 seconds.
 File lengths (MBytes):  RWF=    684 Int=      0 D2E=      0 Chk=     17 Scr=      1
 Normal termination of Gaussian 03 at Sun Jan  8 14:22:53 2012.
