 Entering Gaussian System, Link 0=g03
 Initial command:
 /usr/local/chem/g03E01/l1.exe /temp0/tam/Gau-16776.inp -scrdir=/temp0/tam/
 Entering Link 1 = /usr/local/chem/g03E01/l1.exe PID=     16777.
  
 Copyright (c) 1988,1990,1992,1993,1995,1998,2003,2004,2007, Gaussian, Inc.
                  All Rights Reserved.
  
 This is the Gaussian(R) 03 program.  It is based on the
 the Gaussian(R) 98 system (copyright 1998, Gaussian, Inc.),
 the Gaussian(R) 94 system (copyright 1995, Gaussian, Inc.),
 the Gaussian 92(TM) system (copyright 1992, Gaussian, Inc.),
 the Gaussian 90(TM) system (copyright 1990, Gaussian, Inc.),
 the Gaussian 88(TM) system (copyright 1988, Gaussian, Inc.),
 the Gaussian 86(TM) system (copyright 1986, Carnegie Mellon
 University), and the Gaussian 82(TM) system (copyright 1983,
 Carnegie Mellon University). Gaussian is a federally registered
 trademark of Gaussian, Inc.
  
 This software contains proprietary and confidential information,
 including trade secrets, belonging to Gaussian, Inc.
  
 This software is provided under written license and may be
 used, copied, transmitted, or stored only in accord with that
 written license.
  
 The following legend is applicable only to US Government
 contracts under FAR:
  
                    RESTRICTED RIGHTS LEGEND
  
 Use, reproduction and disclosure by the US Government is
 subject to restrictions as set forth in subparagraphs (a)
 and (c) of the Commercial Computer Software - Restricted
 Rights clause in FAR 52.227-19.
  
 Gaussian, Inc.
 340 Quinnipiac St., Bldg. 40, Wallingford CT 06492
  
  
 ---------------------------------------------------------------
 Warning -- This program may not be used in any manner that
 competes with the business of Gaussian, Inc. or will provide
 assistance to any competitor of Gaussian, Inc.  The licensee
 of this program is prohibited from giving any competitor of
 Gaussian, Inc. access to this program.  By using this program,
 the user acknowledges that Gaussian, Inc. is engaged in the
 business of creating and licensing software in the field of
 computational chemistry and represents and warrants to the
 licensee that it is not a competitor of Gaussian, Inc. and that
 it will not use this program in any manner prohibited above.
 ---------------------------------------------------------------
  

 Cite this work as:
 Gaussian 03, Revision E.01,
 M. J. Frisch, G. W. Trucks, H. B. Schlegel, G. E. Scuseria, 
 M. A. Robb, J. R. Cheeseman, J. A. Montgomery, Jr., T. Vreven, 
 K. N. Kudin, J. C. Burant, J. M. Millam, S. S. Iyengar, J. Tomasi, 
 V. Barone, B. Mennucci, M. Cossi, G. Scalmani, N. Rega, 
 G. A. Petersson, H. Nakatsuji, M. Hada, M. Ehara, K. Toyota, 
 R. Fukuda, J. Hasegawa, M. Ishida, T. Nakajima, Y. Honda, O. Kitao, 
 H. Nakai, M. Klene, X. Li, J. E. Knox, H. P. Hratchian, J. B. Cross, 
 V. Bakken, C. Adamo, J. Jaramillo, R. Gomperts, R. E. Stratmann, 
 O. Yazyev, A. J. Austin, R. Cammi, C. Pomelli, J. W. Ochterski, 
 P. Y. Ayala, K. Morokuma, G. A. Voth, P. Salvador, J. J. Dannenberg, 
 V. G. Zakrzewski, S. Dapprich, A. D. Daniels, M. C. Strain, 
 O. Farkas, D. K. Malick, A. D. Rabuck, K. Raghavachari, 
 J. B. Foresman, J. V. Ortiz, Q. Cui, A. G. Baboul, S. Clifford, 
 J. Cioslowski, B. B. Stefanov, G. Liu, A. Liashenko, P. Piskorz, 
 I. Komaromi, R. L. Martin, D. J. Fox, T. Keith, M. A. Al-Laham, 
 C. Y. Peng, A. Nanayakkara, M. Challacombe, P. M. W. Gill, 
 B. Johnson, W. Chen, M. W. Wong, C. Gonzalez, and J. A. Pople, 
 Gaussian, Inc., Wallingford CT, 2004.
 
 ******************************************
 Gaussian 03:  AM64L-G03RevE.01 11-Sep-2007
                27-Nov-2011 
 ******************************************
 %NprocShared=6
 Will use up to    6 processors via shared memory.
 %mem=13750MB
 %chk=S9L-ne-d-01
 ----------------------------------------------------------------------
 # b3lyp/LANL2DZ opt=(calcall,noeigentest,maxcycle=500) scfcyc=500 scf=
 xqc
 ----------------------------------------------------------------------
 1/6=500,10=4,11=1,14=-1,18=20,26=3,38=1/1,3;
 2/9=110,17=6,18=5,40=1/2;
 3/5=6,6=3,11=2,16=1,25=1,30=1,74=-5/1,2,3;
 4//1;
 5/5=2,7=500,8=3,13=1,38=5/2,8;
 8/6=4,10=90,11=11/1;
 11/6=1,8=1,9=11,15=111,16=1/1,2,10;
 10/6=1/2;
 6/7=2,8=2,9=2,10=2,18=1,28=1/1;
 7/10=1,25=1/1,2,3,16;
 1/6=500,10=4,11=1,14=-1,18=20/3(3);
 2/9=110/2;
 7/8=1,9=1,25=1,44=-1/16;
 99//99;
 2/9=110/2;
 3/5=6,6=3,11=2,16=1,25=1,30=1,74=-5/1,2,3;
 4/5=5,16=3/1;
 5/5=2,7=500,8=3,13=1,38=5/2,8;
 8/6=4,10=90,11=11/1;
 11/6=1,8=1,9=11,15=111,16=1/1,2,10;
 10/6=1/2;
 7/10=1,25=1/1,2,3,16;
 1/6=500,10=4,11=1,14=-1,18=20/3(-8);
 2/9=110/2;
 6/7=2,8=2,9=2,10=2,18=1,19=2,28=1/1;
 7/8=1,9=1,25=1,44=-1/16;
 99//99;
 ------
 si13-n
 ------
 Symbolic Z-matrix:
 Charge =  0 Multiplicity = 1
 Si                    1.99061   0.        2.69446 
 Si                   -1.35501   0.        0.32876 
 Si                    0.        1.3469    2.24373 
 Si                    0.       -1.3469    2.24373 
 Si                    1.35501   0.        0.32876 
 Si                    0.        2.00126  -0.1191 
 Si                   -1.99061   0.        2.69446 
 Si                    1.275    -1.275    -1.73126 
 Si                    1.275     1.275    -1.73126 
 Si                    0.        0.       -3.37065 
 Si                    0.       -2.00126  -0.1191 
 Si                   -1.275    -1.275    -1.73126 
 Si                   -1.275     1.275    -1.73126 
 

 GradGradGradGradGradGradGradGradGradGradGradGradGradGradGradGradGradGrad
 Berny optimization.
 Initialization pass.
                           ----------------------------
                           !    Initial Parameters    !
                           ! (Angstroms and Degrees)  !
 --------------------------                            --------------------------
 ! Name  Definition              Value          Derivative Info.                !
 --------------------------------------------------------------------------------
 ! R1    R(1,3)                  2.4454         calculate D2E/DX2 analytically  !
 ! R2    R(1,4)                  2.4454         calculate D2E/DX2 analytically  !
 ! R3    R(1,5)                  2.4496         calculate D2E/DX2 analytically  !
 ! R4    R(2,3)                  2.7051         calculate D2E/DX2 analytically  !
 ! R5    R(2,4)                  2.7051         calculate D2E/DX2 analytically  !
 ! R6    R(2,5)                  2.71           calculate D2E/DX2 analytically  !
 ! R7    R(2,6)                  2.458          calculate D2E/DX2 analytically  !
 ! R8    R(2,7)                  2.4496         calculate D2E/DX2 analytically  !
 ! R9    R(2,11)                 2.458          calculate D2E/DX2 analytically  !
 ! R10   R(2,12)                 2.424          calculate D2E/DX2 analytically  !
 ! R11   R(2,13)                 2.424          calculate D2E/DX2 analytically  !
 ! R12   R(3,4)                  2.6938         calculate D2E/DX2 analytically  !
 ! R13   R(3,5)                  2.7051         calculate D2E/DX2 analytically  !
 ! R14   R(3,6)                  2.4518         calculate D2E/DX2 analytically  !
 ! R15   R(3,7)                  2.4454         calculate D2E/DX2 analytically  !
 ! R16   R(4,5)                  2.7051         calculate D2E/DX2 analytically  !
 ! R17   R(4,7)                  2.4454         calculate D2E/DX2 analytically  !
 ! R18   R(4,11)                 2.4518         calculate D2E/DX2 analytically  !
 ! R19   R(5,6)                  2.458          calculate D2E/DX2 analytically  !
 ! R20   R(5,8)                  2.424          calculate D2E/DX2 analytically  !
 ! R21   R(5,9)                  2.424          calculate D2E/DX2 analytically  !
 ! R22   R(5,11)                 2.458          calculate D2E/DX2 analytically  !
 ! R23   R(6,9)                  2.1799         calculate D2E/DX2 analytically  !
 ! R24   R(6,13)                 2.1799         calculate D2E/DX2 analytically  !
 ! R25   R(8,9)                  2.55           calculate D2E/DX2 analytically  !
 ! R26   R(8,10)                 2.437          calculate D2E/DX2 analytically  !
 ! R27   R(8,11)                 2.1799         calculate D2E/DX2 analytically  !
 ! R28   R(8,12)                 2.55           calculate D2E/DX2 analytically  !
 ! R29   R(9,10)                 2.437          calculate D2E/DX2 analytically  !
 ! R30   R(9,13)                 2.55           calculate D2E/DX2 analytically  !
 ! R31   R(10,12)                2.437          calculate D2E/DX2 analytically  !
 ! R32   R(10,13)                2.437          calculate D2E/DX2 analytically  !
 ! R33   R(11,12)                2.1799         calculate D2E/DX2 analytically  !
 ! R34   R(12,13)                2.55           calculate D2E/DX2 analytically  !
 ! A1    A(3,2,11)             104.966          calculate D2E/DX2 analytically  !
 ! A2    A(3,2,12)             147.8865         calculate D2E/DX2 analytically  !
 ! A3    A(3,2,13)             108.8561         calculate D2E/DX2 analytically  !
 ! A4    A(4,2,6)              104.966          calculate D2E/DX2 analytically  !
 ! A5    A(4,2,12)             108.8561         calculate D2E/DX2 analytically  !
 ! A6    A(4,2,13)             147.8865         calculate D2E/DX2 analytically  !
 ! A7    A(5,2,7)              105.0387         calculate D2E/DX2 analytically  !
 ! A8    A(5,2,12)              88.1085         calculate D2E/DX2 analytically  !
 ! A9    A(5,2,13)              88.1085         calculate D2E/DX2 analytically  !
 ! A10   A(6,2,7)              108.6026         calculate D2E/DX2 analytically  !
 ! A11   A(6,2,11)             109.0146         calculate D2E/DX2 analytically  !
 ! A12   A(6,2,12)             104.7864         calculate D2E/DX2 analytically  !
 ! A13   A(7,2,11)             108.6026         calculate D2E/DX2 analytically  !
 ! A14   A(7,2,12)             146.0275         calculate D2E/DX2 analytically  !
 ! A15   A(7,2,13)             146.0275         calculate D2E/DX2 analytically  !
 ! A16   A(11,2,13)            104.7864         calculate D2E/DX2 analytically  !
 ! A17   A(1,3,2)              105.3075         calculate D2E/DX2 analytically  !
 ! A18   A(1,3,6)              108.9437         calculate D2E/DX2 analytically  !
 ! A19   A(1,3,7)              108.9839         calculate D2E/DX2 analytically  !
 ! A20   A(4,3,6)              105.4797         calculate D2E/DX2 analytically  !
 ! A21   A(5,3,7)              105.3075         calculate D2E/DX2 analytically  !
 ! A22   A(6,3,7)              108.9437         calculate D2E/DX2 analytically  !
 ! A23   A(1,4,2)              105.3075         calculate D2E/DX2 analytically  !
 ! A24   A(1,4,7)              108.9839         calculate D2E/DX2 analytically  !
 ! A25   A(1,4,11)             108.9437         calculate D2E/DX2 analytically  !
 ! A26   A(3,4,11)             105.4797         calculate D2E/DX2 analytically  !
 ! A27   A(5,4,7)              105.3075         calculate D2E/DX2 analytically  !
 ! A28   A(7,4,11)             108.9437         calculate D2E/DX2 analytically  !
 ! A29   A(1,5,2)              105.0387         calculate D2E/DX2 analytically  !
 ! A30   A(1,5,6)              108.6026         calculate D2E/DX2 analytically  !
 ! A31   A(1,5,8)              146.0275         calculate D2E/DX2 analytically  !
 ! A32   A(1,5,9)              146.0275         calculate D2E/DX2 analytically  !
 ! A33   A(1,5,11)             108.6026         calculate D2E/DX2 analytically  !
 ! A34   A(2,5,8)               88.1085         calculate D2E/DX2 analytically  !
 ! A35   A(2,5,9)               88.1085         calculate D2E/DX2 analytically  !
 ! A36   A(3,5,8)              147.8865         calculate D2E/DX2 analytically  !
 ! A37   A(3,5,9)              108.8561         calculate D2E/DX2 analytically  !
 ! A38   A(3,5,11)             104.966          calculate D2E/DX2 analytically  !
 ! A39   A(4,5,6)              104.966          calculate D2E/DX2 analytically  !
 ! A40   A(4,5,8)              108.8561         calculate D2E/DX2 analytically  !
 ! A41   A(4,5,9)              147.8865         calculate D2E/DX2 analytically  !
 ! A42   A(6,5,8)              104.7864         calculate D2E/DX2 analytically  !
 ! A43   A(6,5,11)             109.0146         calculate D2E/DX2 analytically  !
 ! A44   A(9,5,11)             104.7864         calculate D2E/DX2 analytically  !
 ! A45   A(2,6,9)              100.7147         calculate D2E/DX2 analytically  !
 ! A46   A(3,6,9)              128.594          calculate D2E/DX2 analytically  !
 ! A47   A(3,6,13)             128.594          calculate D2E/DX2 analytically  !
 ! A48   A(5,6,13)             100.7147         calculate D2E/DX2 analytically  !
 ! A49   A(5,8,10)             108.2871         calculate D2E/DX2 analytically  !
 ! A50   A(5,8,12)              91.8915         calculate D2E/DX2 analytically  !
 ! A51   A(9,8,11)             109.4605         calculate D2E/DX2 analytically  !
 ! A52   A(9,8,12)              90.0            calculate D2E/DX2 analytically  !
 ! A53   A(10,8,11)            111.457          calculate D2E/DX2 analytically  !
 ! A54   A(5,9,10)             108.2871         calculate D2E/DX2 analytically  !
 ! A55   A(5,9,13)              91.8915         calculate D2E/DX2 analytically  !
 ! A56   A(6,9,8)              109.4605         calculate D2E/DX2 analytically  !
 ! A57   A(6,9,10)             111.457          calculate D2E/DX2 analytically  !
 ! A58   A(8,9,13)              90.0            calculate D2E/DX2 analytically  !
 ! A59   A(8,10,13)             95.4462         calculate D2E/DX2 analytically  !
 ! A60   A(9,10,12)             95.4462         calculate D2E/DX2 analytically  !
 ! A61   A(2,11,8)             100.7147         calculate D2E/DX2 analytically  !
 ! A62   A(4,11,8)             128.594          calculate D2E/DX2 analytically  !
 ! A63   A(4,11,12)            128.594          calculate D2E/DX2 analytically  !
 ! A64   A(5,11,12)            100.7147         calculate D2E/DX2 analytically  !
 ! A65   A(2,12,8)              91.8915         calculate D2E/DX2 analytically  !
 ! A66   A(2,12,10)            108.2871         calculate D2E/DX2 analytically  !
 ! A67   A(8,12,13)             90.0            calculate D2E/DX2 analytically  !
 ! A68   A(10,12,11)           111.457          calculate D2E/DX2 analytically  !
 ! A69   A(11,12,13)           109.4605         calculate D2E/DX2 analytically  !
 ! A70   A(2,13,9)              91.8915         calculate D2E/DX2 analytically  !
 ! A71   A(2,13,10)            108.2871         calculate D2E/DX2 analytically  !
 ! A72   A(6,13,10)            111.457          calculate D2E/DX2 analytically  !
 ! A73   A(6,13,12)            109.4605         calculate D2E/DX2 analytically  !
 ! A74   A(9,13,12)             90.0            calculate D2E/DX2 analytically  !
 ! D1    D(11,2,3,1)             0.2679         calculate D2E/DX2 analytically  !
 ! D2    D(12,2,3,1)           -41.5798         calculate D2E/DX2 analytically  !
 ! D3    D(13,2,3,1)          -111.4757         calculate D2E/DX2 analytically  !
 ! D4    D(6,2,4,1)             -0.2679         calculate D2E/DX2 analytically  !
 ! D5    D(12,2,4,1)           111.4757         calculate D2E/DX2 analytically  !
 ! D6    D(13,2,4,1)            41.5798         calculate D2E/DX2 analytically  !
 ! D7    D(7,2,5,1)              0.0            calculate D2E/DX2 analytically  !
 ! D8    D(7,2,5,8)            148.2455         calculate D2E/DX2 analytically  !
 ! D9    D(7,2,5,9)           -148.2455         calculate D2E/DX2 analytically  !
 ! D10   D(12,2,5,1)          -148.2455         calculate D2E/DX2 analytically  !
 ! D11   D(12,2,5,8)             0.0            calculate D2E/DX2 analytically  !
 ! D12   D(12,2,5,9)            63.509          calculate D2E/DX2 analytically  !
 ! D13   D(13,2,5,1)           148.2455         calculate D2E/DX2 analytically  !
 ! D14   D(13,2,5,8)           -63.509          calculate D2E/DX2 analytically  !
 ! D15   D(13,2,5,9)             0.0            calculate D2E/DX2 analytically  !
 ! D16   D(4,2,6,9)             91.006          calculate D2E/DX2 analytically  !
 ! D17   D(7,2,6,9)            150.0241         calculate D2E/DX2 analytically  !
 ! D18   D(11,2,6,9)            31.8596         calculate D2E/DX2 analytically  !
 ! D19   D(12,2,6,9)           -23.6114         calculate D2E/DX2 analytically  !
 ! D20   D(3,2,11,8)           -91.006          calculate D2E/DX2 analytically  !
 ! D21   D(6,2,11,8)           -31.8596         calculate D2E/DX2 analytically  !
 ! D22   D(7,2,11,8)          -150.0241         calculate D2E/DX2 analytically  !
 ! D23   D(13,2,11,8)           23.6114         calculate D2E/DX2 analytically  !
 ! D24   D(3,2,12,8)             5.4856         calculate D2E/DX2 analytically  !
 ! D25   D(3,2,12,10)          -51.8031         calculate D2E/DX2 analytically  !
 ! D26   D(4,2,12,8)           -57.2555         calculate D2E/DX2 analytically  !
 ! D27   D(4,2,12,10)         -114.5443         calculate D2E/DX2 analytically  !
 ! D28   D(5,2,12,8)             0.0            calculate D2E/DX2 analytically  !
 ! D29   D(5,2,12,10)          -57.2887         calculate D2E/DX2 analytically  !
 ! D30   D(6,2,12,8)            54.6072         calculate D2E/DX2 analytically  !
 ! D31   D(6,2,12,10)           -2.6815         calculate D2E/DX2 analytically  !
 ! D32   D(7,2,12,8)          -114.5559         calculate D2E/DX2 analytically  !
 ! D33   D(7,2,12,10)         -171.8447         calculate D2E/DX2 analytically  !
 ! D34   D(3,2,13,9)            57.2555         calculate D2E/DX2 analytically  !
 ! D35   D(3,2,13,10)          114.5443         calculate D2E/DX2 analytically  !
 ! D36   D(4,2,13,9)            -5.4856         calculate D2E/DX2 analytically  !
 ! D37   D(4,2,13,10)           51.8031         calculate D2E/DX2 analytically  !
 ! D38   D(5,2,13,9)             0.0            calculate D2E/DX2 analytically  !
 ! D39   D(5,2,13,10)           57.2887         calculate D2E/DX2 analytically  !
 ! D40   D(7,2,13,9)           114.5559         calculate D2E/DX2 analytically  !
 ! D41   D(7,2,13,10)          171.8447         calculate D2E/DX2 analytically  !
 ! D42   D(11,2,13,9)          -54.6072         calculate D2E/DX2 analytically  !
 ! D43   D(11,2,13,10)           2.6815         calculate D2E/DX2 analytically  !
 ! D44   D(6,3,4,11)             0.0            calculate D2E/DX2 analytically  !
 ! D45   D(7,3,5,8)             41.5798         calculate D2E/DX2 analytically  !
 ! D46   D(7,3,5,9)            111.4757         calculate D2E/DX2 analytically  !
 ! D47   D(7,3,5,11)            -0.2679         calculate D2E/DX2 analytically  !
 ! D48   D(1,3,6,9)             10.9442         calculate D2E/DX2 analytically  !
 ! D49   D(1,3,6,13)           107.8347         calculate D2E/DX2 analytically  !
 ! D50   D(4,3,6,9)            -48.4452         calculate D2E/DX2 analytically  !
 ! D51   D(4,3,6,13)            48.4452         calculate D2E/DX2 analytically  !
 ! D52   D(7,3,6,9)           -107.8347         calculate D2E/DX2 analytically  !
 ! D53   D(7,3,6,13)           -10.9442         calculate D2E/DX2 analytically  !
 ! D54   D(7,4,5,6)              0.2679         calculate D2E/DX2 analytically  !
 ! D55   D(7,4,5,8)           -111.4757         calculate D2E/DX2 analytically  !
 ! D56   D(7,4,5,9)            -41.5798         calculate D2E/DX2 analytically  !
 ! D57   D(1,4,11,8)           -10.9442         calculate D2E/DX2 analytically  !
 ! D58   D(1,4,11,12)         -107.8347         calculate D2E/DX2 analytically  !
 ! D59   D(3,4,11,8)            48.4452         calculate D2E/DX2 analytically  !
 ! D60   D(3,4,11,12)          -48.4452         calculate D2E/DX2 analytically  !
 ! D61   D(7,4,11,8)           107.8347         calculate D2E/DX2 analytically  !
 ! D62   D(7,4,11,12)           10.9442         calculate D2E/DX2 analytically  !
 ! D63   D(1,5,6,13)          -150.0241         calculate D2E/DX2 analytically  !
 ! D64   D(4,5,6,13)           -91.006          calculate D2E/DX2 analytically  !
 ! D65   D(8,5,6,13)            23.6114         calculate D2E/DX2 analytically  !
 ! D66   D(11,5,6,13)          -31.8596         calculate D2E/DX2 analytically  !
 ! D67   D(1,5,8,10)           171.8447         calculate D2E/DX2 analytically  !
 ! D68   D(1,5,8,12)           114.5559         calculate D2E/DX2 analytically  !
 ! D69   D(2,5,8,10)            57.2887         calculate D2E/DX2 analytically  !
 ! D70   D(2,5,8,12)             0.0            calculate D2E/DX2 analytically  !
 ! D71   D(3,5,8,10)            51.8031         calculate D2E/DX2 analytically  !
 ! D72   D(3,5,8,12)            -5.4856         calculate D2E/DX2 analytically  !
 ! D73   D(4,5,8,10)           114.5443         calculate D2E/DX2 analytically  !
 ! D74   D(4,5,8,12)            57.2555         calculate D2E/DX2 analytically  !
 ! D75   D(6,5,8,10)             2.6815         calculate D2E/DX2 analytically  !
 ! D76   D(6,5,8,12)           -54.6072         calculate D2E/DX2 analytically  !
 ! D77   D(1,5,9,10)          -171.8447         calculate D2E/DX2 analytically  !
 ! D78   D(1,5,9,13)          -114.5559         calculate D2E/DX2 analytically  !
 ! D79   D(2,5,9,10)           -57.2887         calculate D2E/DX2 analytically  !
 ! D80   D(2,5,9,13)             0.0            calculate D2E/DX2 analytically  !
 ! D81   D(3,5,9,10)          -114.5443         calculate D2E/DX2 analytically  !
 ! D82   D(3,5,9,13)           -57.2555         calculate D2E/DX2 analytically  !
 ! D83   D(4,5,9,10)           -51.8031         calculate D2E/DX2 analytically  !
 ! D84   D(4,5,9,13)             5.4856         calculate D2E/DX2 analytically  !
 ! D85   D(11,5,9,10)           -2.6815         calculate D2E/DX2 analytically  !
 ! D86   D(11,5,9,13)           54.6072         calculate D2E/DX2 analytically  !
 ! D87   D(1,5,11,12)          150.0241         calculate D2E/DX2 analytically  !
 ! D88   D(3,5,11,12)           91.006          calculate D2E/DX2 analytically  !
 ! D89   D(6,5,11,12)           31.8596         calculate D2E/DX2 analytically  !
 ! D90   D(9,5,11,12)          -23.6114         calculate D2E/DX2 analytically  !
 ! D91   D(2,6,9,8)            -18.9675         calculate D2E/DX2 analytically  !
 ! D92   D(2,6,9,10)            43.8174         calculate D2E/DX2 analytically  !
 ! D93   D(3,6,9,8)             49.8957         calculate D2E/DX2 analytically  !
 ! D94   D(3,6,9,10)           112.6806         calculate D2E/DX2 analytically  !
 ! D95   D(3,6,13,10)         -112.6806         calculate D2E/DX2 analytically  !
 ! D96   D(3,6,13,12)          -49.8957         calculate D2E/DX2 analytically  !
 ! D97   D(5,6,13,10)          -43.8174         calculate D2E/DX2 analytically  !
 ! D98   D(5,6,13,12)           18.9675         calculate D2E/DX2 analytically  !
 ! D99   D(11,8,9,6)             0.0            calculate D2E/DX2 analytically  !
 ! D100  D(11,8,9,13)          -51.6608         calculate D2E/DX2 analytically  !
 ! D101  D(12,8,9,6)            51.6608         calculate D2E/DX2 analytically  !
 ! D102  D(12,8,9,13)            0.0            calculate D2E/DX2 analytically  !
 ! D103  D(5,8,10,13)          -24.6011         calculate D2E/DX2 analytically  !
 ! D104  D(11,8,10,13)          44.226          calculate D2E/DX2 analytically  !
 ! D105  D(9,8,11,2)            18.9675         calculate D2E/DX2 analytically  !
 ! D106  D(9,8,11,4)           -49.8957         calculate D2E/DX2 analytically  !
 ! D107  D(10,8,11,2)          -43.8174         calculate D2E/DX2 analytically  !
 ! D108  D(10,8,11,4)         -112.6806         calculate D2E/DX2 analytically  !
 ! D109  D(5,8,12,2)             0.0            calculate D2E/DX2 analytically  !
 ! D110  D(5,8,12,13)           58.2455         calculate D2E/DX2 analytically  !
 ! D111  D(9,8,12,2)           -58.2455         calculate D2E/DX2 analytically  !
 ! D112  D(9,8,12,13)            0.0            calculate D2E/DX2 analytically  !
 ! D113  D(5,9,10,12)           24.6011         calculate D2E/DX2 analytically  !
 ! D114  D(6,9,10,12)          -44.226          calculate D2E/DX2 analytically  !
 ! D115  D(5,9,13,2)             0.0            calculate D2E/DX2 analytically  !
 ! D116  D(5,9,13,12)          -58.2455         calculate D2E/DX2 analytically  !
 ! D117  D(8,9,13,2)            58.2455         calculate D2E/DX2 analytically  !
 ! D118  D(8,9,13,12)            0.0            calculate D2E/DX2 analytically  !
 ! D119  D(9,10,12,2)           24.6011         calculate D2E/DX2 analytically  !
 ! D120  D(9,10,12,11)         -44.226          calculate D2E/DX2 analytically  !
 ! D121  D(8,10,13,2)          -24.6011         calculate D2E/DX2 analytically  !
 ! D122  D(8,10,13,6)           44.226          calculate D2E/DX2 analytically  !
 ! D123  D(4,11,12,10)         112.6806         calculate D2E/DX2 analytically  !
 ! D124  D(4,11,12,13)          49.8957         calculate D2E/DX2 analytically  !
 ! D125  D(5,11,12,10)          43.8174         calculate D2E/DX2 analytically  !
 ! D126  D(5,11,12,13)         -18.9675         calculate D2E/DX2 analytically  !
 ! D127  D(8,12,13,6)          -51.6608         calculate D2E/DX2 analytically  !
 ! D128  D(8,12,13,9)            0.0            calculate D2E/DX2 analytically  !
 ! D129  D(11,12,13,6)           0.0            calculate D2E/DX2 analytically  !
 ! D130  D(11,12,13,9)          51.6608         calculate D2E/DX2 analytically  !
 --------------------------------------------------------------------------------
 Trust Radius=3.00D-01 FncErr=1.00D-07 GrdErr=1.00D-06
 Number of steps in this run= 100 maximum allowed number of steps= 100.
 GradGradGradGradGradGradGradGradGradGradGradGradGradGradGradGradGradGrad

                          Input orientation:                          
 ---------------------------------------------------------------------
 Center     Atomic     Atomic              Coordinates (Angstroms)
 Number     Number      Type              X           Y           Z
 ---------------------------------------------------------------------
    1         14             0        1.990613    0.000000    2.694461
    2         14             0       -1.355011    0.000000    0.328755
    3         14             0        0.000000    1.346896    2.243730
    4         14             0        0.000000   -1.346896    2.243730
    5         14             0        1.355011    0.000000    0.328755
    6         14             0        0.000000    2.001265   -0.119099
    7         14             0       -1.990613    0.000000    2.694461
    8         14             0        1.275002   -1.275000   -1.731261
    9         14             0        1.275002    1.275000   -1.731261
   10         14             0        0.000000    0.000000   -3.370649
   11         14             0        0.000000   -2.001265   -0.119099
   12         14             0       -1.275002   -1.275000   -1.731261
   13         14             0       -1.275002    1.275000   -1.731261
 ---------------------------------------------------------------------
                    Distance matrix (angstroms):
                    1          2          3          4          5
     1  Si   0.000000
     2  Si   4.097532   0.000000
     3  Si   2.445369   2.705053   0.000000
     4  Si   2.445369   2.705053   2.693792   0.000000
     5  Si   2.449603   2.710022   2.705053   2.705053   0.000000
     6  Si   3.985439   2.457984   2.451767   4.097944   2.457984
     7  Si   3.981227   2.449603   2.445369   2.445369   4.097532
     8  Si   4.660981   3.575788   4.929556   4.175087   2.423983
     9  Si   4.660981   3.575788   4.175087   4.929556   2.423983
    10  Si   6.383424   3.939752   5.773680   5.773680   3.939752
    11  Si   3.985439   2.457984   4.097944   2.451767   2.457984
    12  Si   5.645962   2.423983   4.929556   4.175087   3.575788
    13  Si   5.645962   2.423983   4.175087   4.929556   3.575788
                    6          7          8          9         10
     6  Si   0.000000
     7  Si   3.985439   0.000000
     8  Si   3.867635   5.645962   0.000000
     9  Si   2.179944   5.645962   2.549999   0.000000
    10  Si   3.818067   6.383424   2.436975   2.436975   0.000000
    11  Si   4.002529   3.985439   2.179944   3.867635   3.818067
    12  Si   3.867635   4.660981   2.550003   3.606246   2.436975
    13  Si   2.179944   4.660981   3.606246   2.550003   2.436975
                   11         12         13
    11  Si   0.000000
    12  Si   2.179944   0.000000
    13  Si   3.867635   2.549999   0.000000
 Stoichiometry    Si13
 Framework group  C2V[C2(Si),SGV(Si4),SGV'(Si4),X(Si4)]
 Deg. of freedom    11
 Full point group                 C2V
 Largest Abelian subgroup         C2V     NOp   4
 Largest concise Abelian subgroup C2V     NOp   4
                         Standard orientation:                         
 ---------------------------------------------------------------------
 Center     Atomic     Atomic              Coordinates (Angstroms)
 Number     Number      Type              X           Y           Z
 ---------------------------------------------------------------------
    1         14             0        0.000000    1.990613   -2.694461
    2         14             0        0.000000   -1.355011   -0.328755
    3         14             0        1.346896    0.000000   -2.243730
    4         14             0       -1.346896    0.000000   -2.243730
    5         14             0        0.000000    1.355011   -0.328755
    6         14             0        2.001265    0.000000    0.119099
    7         14             0        0.000000   -1.990613   -2.694461
    8         14             0       -1.275000    1.275002    1.731261
    9         14             0        1.275000    1.275002    1.731261
   10         14             0        0.000000    0.000000    3.370649
   11         14             0       -2.001265    0.000000    0.119099
   12         14             0       -1.275000   -1.275002    1.731261
   13         14             0        1.275000   -1.275002    1.731261
 ---------------------------------------------------------------------
 Rotational constants (GHZ):      0.4984504      0.2725285      0.2723594
 Standard basis: LANL2DZ (5D, 7F)
 There are    36 symmetry adapted basis functions of A1  symmetry.
 There are    16 symmetry adapted basis functions of A2  symmetry.
 There are    26 symmetry adapted basis functions of B1  symmetry.
 There are    26 symmetry adapted basis functions of B2  symmetry.
 Integral buffers will be    131072 words long.
 Raffenetti 2 integral format.
 Two-electron integral symmetry is turned on.
   104 basis functions,   156 primitive gaussians,   104 cartesian basis functions
    26 alpha electrons       26 beta electrons
       nuclear repulsion energy       203.4151633115 Hartrees.
 NAtoms=   13 NActive=   13 NUniq=    6 SFac= 3.00D+00 NAtFMM=   80 NAOKFM=F Big=F
 One-electron integrals computed using PRISM.
   4 Symmetry operations used in ECPInt.
 ECPInt:  NShTT=    1378 NPrTT=    3107 LenC2=    1379 LenP2D=    3003.
 LDataN:  DoStor=F MaxTD1= 3 Len=   28
 LDataN:  DoStor=T MaxTD1= 3 Len=   28
 NBasis=   104 RedAO= T  NBF=    36    16    26    26
 NBsUse=   104 1.00D-06 NBFU=    36    16    26    26
 Harris functional with IExCor=  402 diagonalized for initial guess.
 ExpMin= 8.85D-02 ExpMax= 2.58D+00 ExpMxC= 2.58D+00 IAcc=2 IRadAn=         4 AccDes= 0.00D+00
 HarFok:  IExCor= 402 AccDes= 0.00D+00 IRadAn=         4 IDoV=1
 ScaDFX=  1.000000  1.000000  1.000000  1.000000
 Initial guess orbital symmetries:
       Occupied  (A1) (B1) (A1) (B2) (A1) (B2) (B1) (A1) (A2) (A1)
                 (B2) (B1) (A1) (A1) (A1) (B2) (A2) (B1) (B1) (A1)
                 (B2) (B1) (A2) (A1) (B2) (A1)
       Virtual   (B2) (A1) (B1) (B2) (B1) (A2) (A1) (B2) (A1) (B1)
                 (A2) (B2) (A2) (A1) (B1) (B1) (A1) (A1) (B2) (B2)
                 (A2) (B1) (A1) (A2) (B2) (B1) (B2) (A1) (B2) (A2)
                 (A1) (B1) (B1) (A1) (A2) (A1) (B1) (A1) (B2) (B2)
                 (B1) (B1) (A1) (A2) (B2) (A2) (A1) (B2) (A1) (B1)
                 (A1) (B2) (A2) (B1) (B2) (A1) (A2) (B1) (B1) (A1)
                 (B2) (B1) (A2) (A1) (B2) (A1) (A1) (B2) (B1) (A1)
                 (A1) (A1) (B2) (B1) (A2) (A1) (B2) (B1)
 The electronic state of the initial guess is 1-A1.
 Requested convergence on RMS density matrix=1.00D-08 within 128 cycles.
 Requested convergence on MAX density matrix=1.00D-06.
 Requested convergence on             energy=1.00D-06.
 No special actions if energy rises.
 Keep R1 integrals in memory in canonical form, NReq=    16795783.
 Integral accuracy reduced to 1.0D-05 until final iterations.
 Initial convergence to 1.0D-05 achieved.  Increase integral accuracy.
 SCF Done:  E(RB+HF-LYP) =  -49.9754428820     A.U. after   19 cycles
             Convg  =    0.7678D-08             -V/T =  3.4300
             S**2   =   0.0000
 QCSCF skips out because SCF is already converged.
 Range of M.O.s used for correlation:     1   104
 NBasis=   104 NAE=    26 NBE=    26 NFC=     0 NFV=     0
 NROrb=    104 NOA=    26 NOB=    26 NVA=    78 NVB=    78

 **** Warning!!: The smallest alpha delta epsilon is  0.32957561D-01

   4 Symmetry operations used in ECPInt.
 ECPInt:  NShTT=    1378 NPrTT=    3107 LenC2=    1379 LenP2D=    3003.
 LDataN:  DoStor=F MaxTD1= 4 Len=   56
 LDataN:  DoStor=T MaxTD1= 4 Len=   56
 Symmetrizing basis deriv contribution to polar:
 IMax=3 JMax=2 DiffMx= 0.00D+00
 G2DrvN: will do   14 centers at a time, making    1 passes doing MaxLOS=1.
 FoFDir/FoFCou used for L=0 through L=1.
 DoAtom=TTTTTTTTTTTTT
          Differentiating once with respect to electric field.
                with respect to dipole field.
          Differentiating once with respect to nuclear coordinates.
          Store integrals in memory, NReq=    15712663.
          There are  21 degrees of freedom in the 1st order CPHF.
    21 vectors were produced by pass  0.
 AX will form  21 AO Fock derivatives at one time.
    21 vectors were produced by pass  1.
    21 vectors were produced by pass  2.
    21 vectors were produced by pass  3.
    21 vectors were produced by pass  4.
    21 vectors were produced by pass  5.
    21 vectors were produced by pass  6.
    19 vectors were produced by pass  7.
     3 vectors were produced by pass  8.
     3 vectors were produced by pass  9.
 Inv2:  IOpt= 1 Iter= 1 AM= 1.76D-15 Conv= 1.00D-12.
 Inverted reduced A of dimension  172 with in-core refinement.
 Isotropic polarizability for W=    0.000000      356.23 Bohr**3.
 End of Minotr Frequency-dependent properties file   721 does not exist.

 **********************************************************************

            Population analysis using the SCF density.

 **********************************************************************

 Orbital symmetries:
       Occupied  (A1) (A1) (B1) (B2) (A1) (B2) (B1) (A1) (A2) (A1)
                 (B2) (B1) (A1) (A1) (A1) (A2) (B2) (B1) (A1) (B1)
                 (B2) (B2) (A2) (B1) (A1) (A1)
       Virtual   (B2) (A1) (B1) (B1) (B2) (A2) (A1) (B2) (A1) (B1)
                 (B2) (A2) (A2) (A1) (B1) (A1) (B1) (A1) (B2) (B2)
                 (A2) (B1) (A1) (A2) (B2) (B1) (B2) (A1) (B2) (A2)
                 (A1) (B1) (B1) (A1) (B1) (A1) (A1) (B2) (A2) (B1)
                 (B2) (B1) (A2) (A1) (B2) (A2) (B2) (A1) (A1) (B1)
                 (B2) (A1) (A2) (B1) (B2) (A1) (B1) (A2) (B1) (A1)
                 (B2) (A2) (B1) (A1) (B2) (A1) (A1) (B2) (B1) (A1)
                 (A1) (A1) (B2) (B1) (A2) (A1) (B2) (B1)
 The electronic state is 1-A1.
 Alpha  occ. eigenvalues --   -0.81400  -0.71465  -0.69474  -0.64045  -0.61309
 Alpha  occ. eigenvalues --   -0.56148  -0.54075  -0.49092  -0.47814  -0.46343
 Alpha  occ. eigenvalues --   -0.42581  -0.41405  -0.39179  -0.36256  -0.32492
 Alpha  occ. eigenvalues --   -0.32168  -0.31679  -0.30674  -0.30259  -0.29037
 Alpha  occ. eigenvalues --   -0.28711  -0.25178  -0.24774  -0.24488  -0.24272
 Alpha  occ. eigenvalues --   -0.19999
 Alpha virt. eigenvalues --   -0.16703  -0.12663  -0.12402  -0.10122  -0.09684
 Alpha virt. eigenvalues --   -0.07876  -0.06883  -0.05855  -0.05002  -0.04850
 Alpha virt. eigenvalues --   -0.03982  -0.03634  -0.02041  -0.01848  -0.01317
 Alpha virt. eigenvalues --   -0.00100   0.00011   0.01802   0.02249   0.02864
 Alpha virt. eigenvalues --    0.03588   0.04782   0.08236   0.09885   0.11915
 Alpha virt. eigenvalues --    0.13575   0.25148   0.25986   0.26402   0.26418
 Alpha virt. eigenvalues --    0.27120   0.27442   0.27785   0.28627   0.29287
 Alpha virt. eigenvalues --    0.29361   0.29447   0.29686   0.30211   0.30554
 Alpha virt. eigenvalues --    0.30997   0.31286   0.32841   0.33656   0.33963
 Alpha virt. eigenvalues --    0.34047   0.34618   0.35277   0.35752   0.36879
 Alpha virt. eigenvalues --    0.38867   0.38958   0.39327   0.39771   0.41030
 Alpha virt. eigenvalues --    0.41054   0.41123   0.41856   0.44826   0.46763
 Alpha virt. eigenvalues --    0.46958   0.48614   0.49574   0.60882   0.65041
 Alpha virt. eigenvalues --    9.65902  10.82141  11.39973  12.13423  12.20089
 Alpha virt. eigenvalues --   13.01385  13.83170  13.90248  13.98537  14.07963
 Alpha virt. eigenvalues --   14.32673  14.62044  14.78687
          Condensed to atoms (all electrons):
              1          2          3          4          5          6
     1  Si   3.744156  -0.023250   0.089797   0.089797  -0.167218  -0.018352
     2  Si  -0.023250   6.049180  -0.121118  -0.121118  -0.092228  -0.203179
     3  Si   0.089797  -0.121118   4.180122  -0.065296  -0.121118  -0.041665
     4  Si   0.089797  -0.121118  -0.065296   4.180122  -0.121118  -0.012715
     5  Si  -0.167218  -0.092228  -0.121118  -0.121118   6.049180  -0.203179
     6  Si  -0.018352  -0.203179  -0.041665  -0.012715  -0.203179   4.582482
     7  Si  -0.033019  -0.167218   0.089797   0.089797  -0.023250  -0.018352
     8  Si   0.000535  -0.086312   0.012532  -0.002254  -0.167620  -0.042419
     9  Si   0.000535  -0.086312  -0.002254   0.012532  -0.167620   0.004764
    10  Si  -0.000069  -0.074945   0.000617   0.000617  -0.074945  -0.047841
    11  Si  -0.018352  -0.203179  -0.012715  -0.041665  -0.203179  -0.036272
    12  Si   0.002522  -0.167620   0.012532  -0.002254  -0.086312  -0.042419
    13  Si   0.002522  -0.167620  -0.002254   0.012532  -0.086312   0.004764
              7          8          9         10         11         12
     1  Si  -0.033019   0.000535   0.000535  -0.000069  -0.018352   0.002522
     2  Si  -0.167218  -0.086312  -0.086312  -0.074945  -0.203179  -0.167620
     3  Si   0.089797   0.012532  -0.002254   0.000617  -0.012715   0.012532
     4  Si   0.089797  -0.002254   0.012532   0.000617  -0.041665  -0.002254
     5  Si  -0.023250  -0.167620  -0.167620  -0.074945  -0.203179  -0.086312
     6  Si  -0.018352  -0.042419   0.004764  -0.047841  -0.036272  -0.042419
     7  Si   3.744156   0.002522   0.002522  -0.000069  -0.018352   0.000535
     8  Si   0.002522   4.317125  -0.056572   0.015641   0.004764  -0.011615
     9  Si   0.002522  -0.056572   4.317125   0.015641  -0.042419  -0.008989
    10  Si  -0.000069   0.015641   0.015641   3.974012  -0.047841   0.015641
    11  Si  -0.018352   0.004764  -0.042419  -0.047841   4.582482   0.004764
    12  Si   0.000535  -0.011615  -0.008989   0.015641   0.004764   4.317125
    13  Si   0.000535  -0.008989  -0.011615   0.015641  -0.042419  -0.056572
             13
     1  Si   0.002522
     2  Si  -0.167620
     3  Si  -0.002254
     4  Si   0.012532
     5  Si  -0.086312
     6  Si   0.004764
     7  Si   0.000535
     8  Si  -0.008989
     9  Si  -0.011615
    10  Si   0.015641
    11  Si  -0.042419
    12  Si  -0.056572
    13  Si   4.317125
 Mulliken atomic charges:
              1
     1  Si   0.330397
     2  Si  -0.535080
     3  Si  -0.018978
     4  Si  -0.018978
     5  Si  -0.535080
     6  Si   0.074386
     7  Si   0.330397
     8  Si   0.022663
     9  Si   0.022663
    10  Si   0.207899
    11  Si   0.074386
    12  Si   0.022663
    13  Si   0.022663
 Sum of Mulliken charges=   0.00000
 Atomic charges with hydrogens summed into heavy atoms:
              1
     1  Si   0.330397
     2  Si  -0.535080
     3  Si  -0.018978
     4  Si  -0.018978
     5  Si  -0.535080
     6  Si   0.074386
     7  Si   0.330397
     8  Si   0.022663
     9  Si   0.022663
    10  Si   0.207899
    11  Si   0.074386
    12  Si   0.022663
    13  Si   0.022663
 Sum of Mulliken charges=   0.00000
 APT atomic charges:
              1
     1  Si   0.221575
     2  Si  -0.219762
     3  Si  -0.064373
     4  Si  -0.064373
     5  Si  -0.219762
     6  Si  -0.059513
     7  Si   0.221575
     8  Si  -0.039823
     9  Si  -0.039823
    10  Si   0.403436
    11  Si  -0.059513
    12  Si  -0.039823
    13  Si  -0.039823
 Sum of APT charges=   0.00000
 APT Atomic charges with hydrogens summed into heavy atoms:
              1
     1  Si   0.221575
     2  Si  -0.219762
     3  Si  -0.064373
     4  Si  -0.064373
     5  Si  -0.219762
     6  Si  -0.059513
     7  Si   0.221575
     8  Si  -0.039823
     9  Si  -0.039823
    10  Si   0.403436
    11  Si  -0.059513
    12  Si  -0.039823
    13  Si  -0.039823
 Sum of APT charges=   0.00000
 Electronic spatial extent (au):  <R**2>=  1571.8923
 Charge=     0.0000 electrons
 Dipole moment (field-independent basis, Debye):
    X=     0.0000    Y=     0.0000    Z=    -1.5577  Tot=     1.5577
 Quadrupole moment (field-independent basis, Debye-Ang):
   XX=  -169.3239   YY=  -167.1155   ZZ=  -155.7800
   XY=     0.0000   XZ=     0.0000   YZ=     0.0000
 Traceless Quadrupole moment (field-independent basis, Debye-Ang):
   XX=    -5.2508   YY=    -3.0424   ZZ=     8.2932
   XY=     0.0000   XZ=     0.0000   YZ=     0.0000
 Octapole moment (field-independent basis, Debye-Ang**2):
  XXX=     0.0000  YYY=     0.0000  ZZZ=   -20.3328  XYY=     0.0000
  XXY=     0.0000  XXZ=    -6.8181  XZZ=     0.0000  YZZ=     0.0000
  YYZ=   -14.9763  XYZ=     0.0000
 Hexadecapole moment (field-independent basis, Debye-Ang**3):
 XXXX= -1709.2583 YYYY= -1705.0292 ZZZZ= -3671.7375 XXXY=     0.0000
 XXXZ=     0.0000 YYYX=     0.0000 YYYZ=     0.0000 ZZZX=     0.0000
 ZZZY=     0.0000 XXYY=  -577.9801 XXZZ=  -958.3531 YYZZ=  -943.5526
 XXYZ=     0.0000 YYXZ=     0.0000 ZZXY=     0.0000
 N-N= 2.034151633115D+02 E-N=-4.966875817304D+02  KE= 2.056577482598D+01
 Symmetry A1   KE= 8.084471664756D+00
 Symmetry A2   KE= 2.682640560698D+00
 Symmetry B1   KE= 4.903346531821D+00
 Symmetry B2   KE= 4.895316068701D+00
  Exact polarizability: 302.940   0.000 314.903   0.000   0.000 450.839
 Approx polarizability:1192.363   0.0001094.187   0.000   0.0001594.008
   4 Symmetry operations used in ECPInt.
 ECPInt:  NShTT=    1378 NPrTT=    3107 LenC2=    1379 LenP2D=    3107.
 LDataN:  DoStor=F MaxTD1= 5 Len=  102
 LDataN:  DoStor=T MaxTD1= 5 Len=  102
 ***** Axes restored to original set *****
 -------------------------------------------------------------------
 Center     Atomic                   Forces (Hartrees/Bohr)
 Number     Number              X              Y              Z
 -------------------------------------------------------------------
    1         14           0.007984823    0.000000000   -0.010771586
    2         14          -0.041960227    0.000000000    0.015015062
    3         14           0.000000000    0.032610705    0.042866442
    4         14           0.000000000   -0.032610705    0.042866442
    5         14           0.041960227    0.000000000    0.015015062
    6         14           0.000000000    0.074783613    0.058369819
    7         14          -0.007984823    0.000000000   -0.010771586
    8         14           0.064463155   -0.033666216   -0.047092208
    9         14           0.064463155    0.033666216   -0.047092208
   10         14           0.000000000    0.000000000   -0.022590645
   11         14           0.000000000   -0.074783613    0.058369819
   12         14          -0.064463155   -0.033666216   -0.047092208
   13         14          -0.064463155    0.033666216   -0.047092208
 -------------------------------------------------------------------
 Cartesian Forces:  Max     0.074783613 RMS     0.038785972

 GradGradGradGradGradGradGradGradGradGradGradGradGradGradGradGradGradGrad
 Berny optimization.
 Internal  Forces:  Max     0.037143296 RMS     0.008704126
 Search for a local minimum.
 Step number   1 out of a maximum of 100
 All quantities printed in internal units (Hartrees-Bohrs-Radians)
 Second derivative matrix not updated -- analytic derivatives used.
     Eigenvalues ---   -0.00141  -0.00067   0.00009   0.00415   0.00549
     Eigenvalues ---    0.00591   0.00718   0.00875   0.00989   0.01011
     Eigenvalues ---    0.01061   0.01217   0.01514   0.02047   0.02205
     Eigenvalues ---    0.02929   0.03310   0.03321   0.03373   0.03540
     Eigenvalues ---    0.03546   0.04221   0.04534   0.04768   0.04874
     Eigenvalues ---    0.04989   0.05407   0.05637   0.05945   0.06908
     Eigenvalues ---    0.09400   0.09441   0.094561000.000001000.00000
     Eigenvalues --- 1000.000001000.000001000.000001000.000001000.00000
     Eigenvalues --- 1000.000001000.000001000.000001000.000001000.00000
     Eigenvalues --- 1000.000001000.000001000.000001000.000001000.00000
     Eigenvalues --- 1000.000001000.000001000.000001000.000001000.00000
     Eigenvalues --- 1000.000001000.000001000.000001000.000001000.00000
     Eigenvalues --- 1000.000001000.000001000.000001000.000001000.00000
     Eigenvalues --- 1000.000001000.000001000.000001000.000001000.00000
     Eigenvalues --- 1000.000001000.000001000.000001000.000001000.00000
     Eigenvalues --- 1000.000001000.000001000.000001000.000001000.00000
     Eigenvalues --- 1000.000001000.000001000.000001000.000001000.00000
     Eigenvalues --- 1000.000001000.000001000.000001000.000001000.00000
     Eigenvalues --- 1000.000001000.000001000.000001000.000001000.00000
     Eigenvalues --- 1000.000001000.000001000.000001000.000001000.00000
     Eigenvalues --- 1000.000001000.000001000.000001000.000001000.00000
     Eigenvalues --- 1000.000001000.000001000.000001000.000001000.00000
     Eigenvalues --- 1000.000001000.000001000.000001000.000001000.00000
     Eigenvalues --- 1000.000001000.000001000.000001000.000001000.00000
     Eigenvalues --- 1000.000001000.000001000.000001000.000001000.00000
     Eigenvalues --- 1000.000001000.000001000.000001000.000001000.00000
     Eigenvalues --- 1000.000001000.000001000.000001000.000001000.00000
     Eigenvalues --- 1000.000001000.000001000.000001000.000001000.00000
     Eigenvalues --- 1000.000001000.000001000.000001000.000001000.00000
     Eigenvalues --- 1000.000001000.000001000.000001000.000001000.00000
     Eigenvalues --- 1000.000001000.000001000.000001000.000001000.00000
     Eigenvalues --- 1000.000001000.000001000.000001000.000001000.00000
     Eigenvalues --- 1000.000001000.000001000.000001000.000001000.00000
     Eigenvalues --- 1000.000001000.000001000.000001000.000001000.00000
     Eigenvalues --- 1000.000001000.000001000.000001000.000001000.00000
     Eigenvalues --- 1000.000001000.000001000.000001000.000001000.00000
     Eigenvalues --- 1000.000001000.000001000.000001000.000001000.00000
     Eigenvalues --- 1000.000001000.000001000.000001000.000001000.00000
     Eigenvalues --- 1000.000001000.000001000.000001000.000001000.00000
     Eigenvalues --- 1000.000001000.000001000.000001000.000001000.00000
     Eigenvalues --- 1000.000001000.000001000.000001000.000001000.00000
     Eigenvalues --- 1000.000001000.000001000.000001000.000001000.00000
     Eigenvalues --- 1000.000001000.000001000.000001000.000001000.00000
     Eigenvalues --- 1000.000001000.000001000.000001000.000001000.00000
     Eigenvalues --- 1000.000001000.000001000.000001000.000001000.00000
     Eigenvalues --- 1000.000001000.000001000.000001000.000001000.00000
     Eigenvalues --- 1000.000001000.000001000.000001000.000001000.00000
     Eigenvalues --- 1000.000001000.000001000.00000
 RFO step:  Lambda=-1.03974699D-01.
 Linear search not attempted -- first point.
 Maximum step size (   0.300) exceeded in Quadratic search.
    -- Step size scaled by   0.383
 Iteration  1 RMS(Cart)=  0.01113680 RMS(Int)=  0.00008558
 Iteration  2 RMS(Cart)=  0.00003950 RMS(Int)=  0.00005244
 Iteration  3 RMS(Cart)=  0.00000000 RMS(Int)=  0.00005244
 Variable       Old X    -DE/DX   Delta X   Delta X   Delta X     New X
                                 (Linear)    (Quad)   (Total)
    R1        4.62108   0.00397   0.00000   0.01190   0.01202   4.63310
    R2        4.62108   0.00397   0.00000   0.01190   0.01202   4.63310
    R3        4.62908  -0.00588   0.00000  -0.01246  -0.01256   4.61652
    R4        5.11181   0.01924   0.00000   0.05009   0.05007   5.16188
    R5        5.11181   0.01924   0.00000   0.05009   0.05007   5.16188
    R6        5.12120   0.01410   0.00000   0.03245   0.03218   5.15338
    R7        4.64492   0.02121   0.00000   0.04933   0.04932   4.69424
    R8        4.62908  -0.00588   0.00000  -0.01246  -0.01256   4.61652
    R9        4.64492   0.02121   0.00000   0.04933   0.04932   4.69424
   R10        4.58066   0.02505   0.00000   0.05257   0.05257   4.63323
   R11        4.58066   0.02505   0.00000   0.05257   0.05257   4.63323
   R12        5.09053   0.01758   0.00000   0.04565   0.04546   5.13599
   R13        5.11181   0.01924   0.00000   0.05009   0.05007   5.16188
   R14        4.63317   0.00990   0.00000   0.03375   0.03376   4.66693
   R15        4.62108   0.00397   0.00000   0.01190   0.01202   4.63310
   R16        5.11181   0.01924   0.00000   0.05009   0.05007   5.16188
   R17        4.62108   0.00397   0.00000   0.01190   0.01202   4.63310
   R18        4.63317   0.00990   0.00000   0.03375   0.03376   4.66693
   R19        4.64492   0.02121   0.00000   0.04933   0.04932   4.69424
   R20        4.58066   0.02505   0.00000   0.05257   0.05257   4.63323
   R21        4.58066   0.02505   0.00000   0.05257   0.05257   4.63323
   R22        4.64492   0.02121   0.00000   0.04933   0.04932   4.69424
   R23        4.11950   0.03714   0.00000   0.07198   0.07209   4.19159
   R24        4.11950   0.03714   0.00000   0.07198   0.07209   4.19159
   R25        4.81880   0.02501   0.00000   0.06751   0.06750   4.88630
   R26        4.60521   0.01416   0.00000   0.02953   0.02949   4.63470
   R27        4.11950   0.03714   0.00000   0.07198   0.07209   4.19159
   R28        4.81881   0.03382   0.00000   0.07602   0.07605   4.89486
   R29        4.60521   0.01416   0.00000   0.02953   0.02949   4.63470
   R30        4.81881   0.03382   0.00000   0.07602   0.07605   4.89486
   R31        4.60521   0.01416   0.00000   0.02953   0.02949   4.63470
   R32        4.60521   0.01416   0.00000   0.02953   0.02949   4.63470
   R33        4.11950   0.03714   0.00000   0.07198   0.07209   4.19159
   R34        4.81880   0.02501   0.00000   0.06751   0.06750   4.88630
    A1        1.83200  -0.00070   0.00000  -0.00043  -0.00045   1.83155
    A2        2.58111   0.00293   0.00000   0.00738   0.00736   2.58846
    A3        1.89990   0.00197   0.00000   0.00320   0.00320   1.90310
    A4        1.83200  -0.00070   0.00000  -0.00043  -0.00045   1.83155
    A5        1.89990   0.00197   0.00000   0.00320   0.00320   1.90310
    A6        2.58111   0.00293   0.00000   0.00738   0.00736   2.58846
    A7        1.83327  -0.00040   0.00000  -0.00031  -0.00032   1.83295
    A8        1.53778   0.00233   0.00000   0.00514   0.00511   1.54289
    A9        1.53778   0.00233   0.00000   0.00514   0.00511   1.54289
   A10        1.89547  -0.00348   0.00000  -0.00643  -0.00641   1.88906
   A11        1.90266   0.00460   0.00000   0.00976   0.00970   1.91236
   A12        1.82887   0.00452   0.00000   0.01064   0.01059   1.83945
   A13        1.89547  -0.00348   0.00000  -0.00643  -0.00641   1.88906
   A14        2.54866  -0.00064   0.00000  -0.00336  -0.00335   2.54531
   A15        2.54866  -0.00064   0.00000  -0.00336  -0.00335   2.54531
   A16        1.82887   0.00452   0.00000   0.01064   0.01059   1.83945
   A17        1.83796  -0.00442   0.00000  -0.01160  -0.01163   1.82634
   A18        1.90143  -0.00306   0.00000  -0.00914  -0.00913   1.89230
   A19        1.90213   0.00037   0.00000   0.00142   0.00119   1.90332
   A20        1.84097   0.00270   0.00000   0.00482   0.00480   1.84577
   A21        1.83796  -0.00442   0.00000  -0.01160  -0.01163   1.82634
   A22        1.90143  -0.00306   0.00000  -0.00914  -0.00913   1.89230
   A23        1.83796  -0.00442   0.00000  -0.01160  -0.01163   1.82634
   A24        1.90213   0.00037   0.00000   0.00142   0.00119   1.90332
   A25        1.90143  -0.00306   0.00000  -0.00914  -0.00913   1.89230
   A26        1.84097   0.00270   0.00000   0.00482   0.00480   1.84577
   A27        1.83796  -0.00442   0.00000  -0.01160  -0.01163   1.82634
   A28        1.90143  -0.00306   0.00000  -0.00914  -0.00913   1.89230
   A29        1.83327  -0.00040   0.00000  -0.00031  -0.00032   1.83295
   A30        1.89547  -0.00348   0.00000  -0.00643  -0.00641   1.88906
   A31        2.54866  -0.00064   0.00000  -0.00336  -0.00335   2.54531
   A32        2.54866  -0.00064   0.00000  -0.00336  -0.00335   2.54531
   A33        1.89547  -0.00348   0.00000  -0.00643  -0.00641   1.88906
   A34        1.53778   0.00233   0.00000   0.00514   0.00511   1.54289
   A35        1.53778   0.00233   0.00000   0.00514   0.00511   1.54289
   A36        2.58111   0.00293   0.00000   0.00738   0.00736   2.58846
   A37        1.89990   0.00197   0.00000   0.00320   0.00320   1.90310
   A38        1.83200  -0.00070   0.00000  -0.00043  -0.00045   1.83155
   A39        1.83200  -0.00070   0.00000  -0.00043  -0.00045   1.83155
   A40        1.89990   0.00197   0.00000   0.00320   0.00320   1.90310
   A41        2.58111   0.00293   0.00000   0.00738   0.00736   2.58846
   A42        1.82887   0.00452   0.00000   0.01064   0.01059   1.83945
   A43        1.90266   0.00460   0.00000   0.00976   0.00970   1.91236
   A44        1.82887   0.00452   0.00000   0.01064   0.01059   1.83945
   A45        1.75780  -0.00343   0.00000  -0.00596  -0.00594   1.75186
   A46        2.24439  -0.00034   0.00000  -0.00127  -0.00128   2.24311
   A47        2.24439  -0.00034   0.00000  -0.00127  -0.00128   2.24311
   A48        1.75780  -0.00343   0.00000  -0.00596  -0.00594   1.75186
   A49        1.88997  -0.00383   0.00000  -0.01222  -0.01222   1.87775
   A50        1.60381  -0.00233   0.00000  -0.00514  -0.00511   1.59870
   A51        1.91045  -0.00036   0.00000  -0.00113  -0.00112   1.90932
   A52        1.57080   0.00000   0.00000   0.00000   0.00000   1.57080
   A53        1.94529  -0.00161   0.00000  -0.00627  -0.00629   1.93900
   A54        1.88997  -0.00383   0.00000  -0.01222  -0.01222   1.87775
   A55        1.60381  -0.00233   0.00000  -0.00514  -0.00511   1.59870
   A56        1.91045  -0.00036   0.00000  -0.00113  -0.00112   1.90932
   A57        1.94529  -0.00161   0.00000  -0.00627  -0.00629   1.93900
   A58        1.57080   0.00000   0.00000   0.00000   0.00000   1.57080
   A59        1.66585   0.00666   0.00000   0.01865   0.01866   1.68451
   A60        1.66585   0.00666   0.00000   0.01865   0.01866   1.68451
   A61        1.75780  -0.00343   0.00000  -0.00596  -0.00594   1.75186
   A62        2.24439  -0.00034   0.00000  -0.00127  -0.00128   2.24311
   A63        2.24439  -0.00034   0.00000  -0.00127  -0.00128   2.24311
   A64        1.75780  -0.00343   0.00000  -0.00596  -0.00594   1.75186
   A65        1.60381  -0.00233   0.00000  -0.00514  -0.00511   1.59870
   A66        1.88997  -0.00383   0.00000  -0.01222  -0.01222   1.87775
   A67        1.57080   0.00000   0.00000   0.00000   0.00000   1.57080
   A68        1.94529  -0.00161   0.00000  -0.00627  -0.00629   1.93900
   A69        1.91045  -0.00036   0.00000  -0.00113  -0.00112   1.90932
   A70        1.60381  -0.00233   0.00000  -0.00514  -0.00511   1.59870
   A71        1.88997  -0.00383   0.00000  -0.01222  -0.01222   1.87775
   A72        1.94529  -0.00161   0.00000  -0.00627  -0.00629   1.93900
   A73        1.91045  -0.00036   0.00000  -0.00113  -0.00112   1.90932
   A74        1.57080   0.00000   0.00000   0.00000   0.00000   1.57080
    D1        0.00468   0.00651   0.00000   0.01531   0.01525   0.01992
    D2       -0.72570   0.00266   0.00000   0.01139   0.01141  -0.71429
    D3       -1.94562   0.00086   0.00000   0.00204   0.00202  -1.94360
    D4       -0.00468  -0.00651   0.00000  -0.01531  -0.01525  -0.01992
    D5        1.94562  -0.00086   0.00000  -0.00204  -0.00202   1.94360
    D6        0.72570  -0.00266   0.00000  -0.01139  -0.01141   0.71429
    D7        0.00000   0.00000   0.00000   0.00000   0.00000   0.00000
    D8        2.58737   0.00022   0.00000  -0.00146  -0.00145   2.58592
    D9       -2.58737  -0.00022   0.00000   0.00146   0.00145  -2.58592
   D10       -2.58737  -0.00022   0.00000   0.00146   0.00145  -2.58592
   D11        0.00000   0.00000   0.00000   0.00000   0.00000   0.00000
   D12        1.10844  -0.00044   0.00000   0.00293   0.00291   1.11135
   D13        2.58737   0.00022   0.00000  -0.00146  -0.00145   2.58592
   D14       -1.10844   0.00044   0.00000  -0.00293  -0.00291  -1.11135
   D15        0.00000   0.00000   0.00000   0.00000   0.00000   0.00000
   D16        1.58835   0.00337   0.00000   0.00608   0.00607   1.59443
   D17        2.61841   0.00174   0.00000   0.00257   0.00253   2.62094
   D18        0.55605   0.00529   0.00000   0.00842   0.00843   0.56449
   D19       -0.41210  -0.00041   0.00000  -0.00173  -0.00175  -0.41385
   D20       -1.58835  -0.00337   0.00000  -0.00608  -0.00607  -1.59443
   D21       -0.55605  -0.00529   0.00000  -0.00842  -0.00843  -0.56449
   D22       -2.61841  -0.00174   0.00000  -0.00257  -0.00253  -2.62094
   D23        0.41210   0.00041   0.00000   0.00173   0.00175   0.41385
   D24        0.09574   0.00009   0.00000  -0.00343  -0.00349   0.09225
   D25       -0.90414   0.00288   0.00000   0.00250   0.00237  -0.90177
   D26       -0.99930  -0.00112   0.00000  -0.00355  -0.00355  -1.00285
   D27       -1.99918   0.00167   0.00000   0.00238   0.00231  -1.99686
   D28        0.00000   0.00000   0.00000   0.00000   0.00000   0.00000
   D29       -0.99988   0.00279   0.00000   0.00593   0.00586  -0.99401
   D30        0.95308   0.00105   0.00000   0.00236   0.00238   0.95546
   D31       -0.04680   0.00384   0.00000   0.00829   0.00825  -0.03855
   D32       -1.99938  -0.00260   0.00000  -0.00555  -0.00547  -2.00485
   D33       -2.99926   0.00019   0.00000   0.00038   0.00039  -2.99886
   D34        0.99930   0.00112   0.00000   0.00355   0.00355   1.00285
   D35        1.99918  -0.00167   0.00000  -0.00238  -0.00231   1.99686
   D36       -0.09574  -0.00009   0.00000   0.00343   0.00349  -0.09225
   D37        0.90414  -0.00288   0.00000  -0.00250  -0.00237   0.90177
   D38        0.00000   0.00000   0.00000   0.00000   0.00000   0.00000
   D39        0.99988  -0.00279   0.00000  -0.00593  -0.00586   0.99401
   D40        1.99938   0.00260   0.00000   0.00555   0.00547   2.00485
   D41        2.99926  -0.00019   0.00000  -0.00038  -0.00039   2.99886
   D42       -0.95308  -0.00105   0.00000  -0.00236  -0.00238  -0.95546
   D43        0.04680  -0.00384   0.00000  -0.00829  -0.00825   0.03855
   D44        0.00000   0.00000   0.00000   0.00000   0.00000   0.00000
   D45        0.72570  -0.00266   0.00000  -0.01139  -0.01141   0.71429
   D46        1.94562  -0.00086   0.00000  -0.00204  -0.00202   1.94360
   D47       -0.00468  -0.00651   0.00000  -0.01531  -0.01525  -0.01992
   D48        0.19101   0.00101   0.00000  -0.00139  -0.00143   0.18958
   D49        1.88207  -0.00411   0.00000  -0.00750  -0.00752   1.87455
   D50       -0.84553   0.00256   0.00000   0.00306   0.00305  -0.84248
   D51        0.84553  -0.00256   0.00000  -0.00306  -0.00305   0.84248
   D52       -1.88207   0.00411   0.00000   0.00750   0.00752  -1.87455
   D53       -0.19101  -0.00101   0.00000   0.00139   0.00143  -0.18958
   D54        0.00468   0.00651   0.00000   0.01531   0.01525   0.01992
   D55       -1.94562   0.00086   0.00000   0.00204   0.00202  -1.94360
   D56       -0.72570   0.00266   0.00000   0.01139   0.01141  -0.71429
   D57       -0.19101  -0.00101   0.00000   0.00139   0.00143  -0.18958
   D58       -1.88207   0.00411   0.00000   0.00750   0.00752  -1.87455
   D59        0.84553  -0.00256   0.00000  -0.00306  -0.00305   0.84248
   D60       -0.84553   0.00256   0.00000   0.00306   0.00305  -0.84248
   D61        1.88207  -0.00411   0.00000  -0.00750  -0.00752   1.87455
   D62        0.19101   0.00101   0.00000  -0.00139  -0.00143   0.18958
   D63       -2.61841  -0.00174   0.00000  -0.00257  -0.00253  -2.62094
   D64       -1.58835  -0.00337   0.00000  -0.00608  -0.00607  -1.59443
   D65        0.41210   0.00041   0.00000   0.00173   0.00175   0.41385
   D66       -0.55605  -0.00529   0.00000  -0.00842  -0.00843  -0.56449
   D67        2.99926  -0.00019   0.00000  -0.00038  -0.00039   2.99886
   D68        1.99938   0.00260   0.00000   0.00555   0.00547   2.00485
   D69        0.99988  -0.00279   0.00000  -0.00593  -0.00586   0.99401
   D70        0.00000   0.00000   0.00000   0.00000   0.00000   0.00000
   D71        0.90414  -0.00288   0.00000  -0.00250  -0.00237   0.90177
   D72       -0.09574  -0.00009   0.00000   0.00343   0.00349  -0.09225
   D73        1.99918  -0.00167   0.00000  -0.00238  -0.00231   1.99686
   D74        0.99930   0.00112   0.00000   0.00355   0.00355   1.00285
   D75        0.04680  -0.00384   0.00000  -0.00829  -0.00825   0.03855
   D76       -0.95308  -0.00105   0.00000  -0.00236  -0.00238  -0.95546
   D77       -2.99926   0.00019   0.00000   0.00038   0.00039  -2.99886
   D78       -1.99938  -0.00260   0.00000  -0.00555  -0.00547  -2.00485
   D79       -0.99988   0.00279   0.00000   0.00593   0.00586  -0.99401
   D80        0.00000   0.00000   0.00000   0.00000   0.00000   0.00000
   D81       -1.99918   0.00167   0.00000   0.00238   0.00231  -1.99686
   D82       -0.99930  -0.00112   0.00000  -0.00355  -0.00355  -1.00285
   D83       -0.90414   0.00288   0.00000   0.00250   0.00237  -0.90177
   D84        0.09574   0.00009   0.00000  -0.00343  -0.00349   0.09225
   D85       -0.04680   0.00384   0.00000   0.00829   0.00825  -0.03855
   D86        0.95308   0.00105   0.00000   0.00236   0.00238   0.95546
   D87        2.61841   0.00174   0.00000   0.00257   0.00253   2.62094
   D88        1.58835   0.00337   0.00000   0.00608   0.00607   1.59443
   D89        0.55605   0.00529   0.00000   0.00842   0.00843   0.56449
   D90       -0.41210  -0.00041   0.00000  -0.00173  -0.00175  -0.41385
   D91       -0.33105  -0.00178   0.00000  -0.00217  -0.00214  -0.33319
   D92        0.76476  -0.00360   0.00000  -0.00878  -0.00873   0.75603
   D93        0.87084  -0.00374   0.00000  -0.00528  -0.00525   0.86559
   D94        1.96665  -0.00556   0.00000  -0.01189  -0.01184   1.95481
   D95       -1.96665   0.00556   0.00000   0.01189   0.01184  -1.95481
   D96       -0.87084   0.00374   0.00000   0.00528   0.00525  -0.86559
   D97       -0.76476   0.00360   0.00000   0.00878   0.00873  -0.75603
   D98        0.33105   0.00178   0.00000   0.00217   0.00214   0.33319
   D99        0.00000   0.00000   0.00000   0.00000   0.00000   0.00000
   D100      -0.90165  -0.00168   0.00000  -0.00166  -0.00165  -0.90330
   D101       0.90165   0.00168   0.00000   0.00166   0.00165   0.90330
   D102       0.00000   0.00000   0.00000   0.00000   0.00000   0.00000
   D103      -0.42937   0.00224   0.00000   0.00461   0.00454  -0.42483
   D104       0.77189  -0.00246   0.00000  -0.00482  -0.00477   0.76712
   D105       0.33105   0.00178   0.00000   0.00217   0.00214   0.33319
   D106      -0.87084   0.00374   0.00000   0.00528   0.00525  -0.86559
   D107      -0.76476   0.00360   0.00000   0.00878   0.00873  -0.75603
   D108      -1.96665   0.00556   0.00000   0.01189   0.01184  -1.95481
   D109       0.00000   0.00000   0.00000   0.00000   0.00000   0.00000
   D110       1.01658   0.00022   0.00000  -0.00146  -0.00145   1.01512
   D111      -1.01658  -0.00022   0.00000   0.00146   0.00145  -1.01512
   D112       0.00000   0.00000   0.00000   0.00000   0.00000   0.00000
   D113       0.42937  -0.00224   0.00000  -0.00461  -0.00454   0.42483
   D114      -0.77189   0.00246   0.00000   0.00482   0.00477  -0.76712
   D115       0.00000   0.00000   0.00000   0.00000   0.00000   0.00000
   D116      -1.01658  -0.00022   0.00000   0.00146   0.00145  -1.01512
   D117       1.01658   0.00022   0.00000  -0.00146  -0.00145   1.01512
   D118       0.00000   0.00000   0.00000   0.00000   0.00000   0.00000
   D119       0.42937  -0.00224   0.00000  -0.00461  -0.00454   0.42483
   D120      -0.77189   0.00246   0.00000   0.00482   0.00477  -0.76712
   D121      -0.42937   0.00224   0.00000   0.00461   0.00454  -0.42483
   D122       0.77189  -0.00246   0.00000  -0.00482  -0.00477   0.76712
   D123       1.96665  -0.00556   0.00000  -0.01189  -0.01184   1.95481
   D124       0.87084  -0.00374   0.00000  -0.00528  -0.00525   0.86559
   D125       0.76476  -0.00360   0.00000  -0.00878  -0.00873   0.75603
   D126      -0.33105  -0.00178   0.00000  -0.00217  -0.00214  -0.33319
   D127      -0.90165  -0.00168   0.00000  -0.00166  -0.00165  -0.90330
   D128       0.00000   0.00000   0.00000   0.00000   0.00000   0.00000
   D129       0.00000   0.00000   0.00000   0.00000   0.00000   0.00000
   D130       0.90165   0.00168   0.00000   0.00166   0.00165   0.90330
         Item               Value     Threshold  Converged?
 Maximum Force            0.037143     0.000450     NO 
 RMS     Force            0.008704     0.000300     NO 
 Maximum Displacement     0.053327     0.001800     NO 
 RMS     Displacement     0.011136     0.001200     NO 
 Predicted change in Energy=-3.686623D-02
 GradGradGradGradGradGradGradGradGradGradGradGradGradGradGradGradGradGrad

                          Input orientation:                          
 ---------------------------------------------------------------------
 Center     Atomic     Atomic              Coordinates (Angstroms)
 Number     Number      Type              X           Y           Z
 ---------------------------------------------------------------------
    1         14             0        1.996643    0.000000    2.692299
    2         14             0       -1.363526    0.000000    0.332808
    3         14             0        0.000000    1.358924    2.270718
    4         14             0        0.000000   -1.358924    2.270718
    5         14             0        1.363526    0.000000    0.332808
    6         14             0        0.000000    2.029484   -0.106137
    7         14             0       -1.996643    0.000000    2.692299
    8         14             0        1.295125   -1.292860   -1.749299
    9         14             0        1.295125    1.292860   -1.749299
   10         14             0        0.000000    0.000000   -3.382180
   11         14             0        0.000000   -2.029484   -0.106137
   12         14             0       -1.295125   -1.292860   -1.749299
   13         14             0       -1.295125    1.292860   -1.749299
 ---------------------------------------------------------------------
                    Distance matrix (angstroms):
                    1          2          3          4          5
     1  Si   0.000000
     2  Si   4.105841   0.000000
     3  Si   2.451731   2.731551   0.000000
     4  Si   2.451731   2.731551   2.717847   0.000000
     5  Si   2.442956   2.727052   2.731551   2.731551   0.000000
     6  Si   3.992071   2.484086   2.469634   4.138931   2.484086
     7  Si   3.993285   2.442956   2.451731   2.451731   4.105841
     8  Si   4.678825   3.615948   4.986967   4.224008   2.451802
     9  Si   4.678825   3.615948   4.224008   4.986967   2.451802
    10  Si   6.394207   3.957315   5.813943   5.813943   3.957315
    11  Si   3.992071   2.484086   4.138931   2.469634   2.484086
    12  Si   5.677588   2.451802   4.986967   4.224008   3.615948
    13  Si   5.677588   2.451802   4.224008   4.986967   3.615948
                    6          7          8          9         10
     6  Si   0.000000
     7  Si   3.992071   0.000000
     8  Si   3.926232   5.677588   0.000000
     9  Si   2.218094   5.677588   2.585720   0.000000
    10  Si   3.853734   6.394207   2.452578   2.452578   0.000000
    11  Si   4.058968   3.992071   2.218094   3.926232   3.853734
    12  Si   3.926232   4.678825   2.590249   3.659965   2.452578
    13  Si   2.218094   4.678825   3.659965   2.590249   2.452578
                   11         12         13
    11  Si   0.000000
    12  Si   2.218094   0.000000
    13  Si   3.926232   2.585720   0.000000
 Stoichiometry    Si13
 Framework group  C2V[C2(Si),SGV(Si4),SGV'(Si4),X(Si4)]
 Deg. of freedom    11
 Full point group                 C2V
 Largest Abelian subgroup         C2V     NOp   4
 Largest concise Abelian subgroup C2V     NOp   4
                         Standard orientation:                         
 ---------------------------------------------------------------------
 Center     Atomic     Atomic              Coordinates (Angstroms)
 Number     Number      Type              X           Y           Z
 ---------------------------------------------------------------------
    1         14             0        0.000000    1.996643   -2.692299
    2         14             0        0.000000   -1.363526   -0.332808
    3         14             0        1.358924    0.000000   -2.270718
    4         14             0       -1.358924    0.000000   -2.270718
    5         14             0        0.000000    1.363526   -0.332808
    6         14             0        2.029484    0.000000    0.106137
    7         14             0        0.000000   -1.996643   -2.692299
    8         14             0       -1.292860    1.295125    1.749299
    9         14             0        1.292860    1.295125    1.749299
   10         14             0        0.000000    0.000000    3.382180
   11         14             0       -2.029484    0.000000    0.106137
   12         14             0       -1.292860   -1.295125    1.749299
   13         14             0        1.292860   -1.295125    1.749299
 ---------------------------------------------------------------------
 Rotational constants (GHZ):      0.4879842      0.2690774      0.2682146
 Standard basis: LANL2DZ (5D, 7F)
 There are    36 symmetry adapted basis functions of A1  symmetry.
 There are    16 symmetry adapted basis functions of A2  symmetry.
 There are    26 symmetry adapted basis functions of B1  symmetry.
 There are    26 symmetry adapted basis functions of B2  symmetry.
 Integral buffers will be    131072 words long.
 Raffenetti 2 integral format.
 Two-electron integral symmetry is turned on.
   104 basis functions,   156 primitive gaussians,   104 cartesian basis functions
    26 alpha electrons       26 beta electrons
       nuclear repulsion energy       201.6023269800 Hartrees.
 NAtoms=   13 NActive=   13 NUniq=    6 SFac= 3.00D+00 NAtFMM=   80 NAOKFM=F Big=F
 One-electron integrals computed using PRISM.
   4 Symmetry operations used in ECPInt.
 ECPInt:  NShTT=    1378 NPrTT=    3107 LenC2=    1379 LenP2D=    3003.
 LDataN:  DoStor=F MaxTD1= 3 Len=   28
 LDataN:  DoStor=T MaxTD1= 3 Len=   28
 NBasis=   104 RedAO= T  NBF=    36    16    26    26
 NBsUse=   104 1.00D-06 NBFU=    36    16    26    26
 Initial guess read from the read-write file:
 Initial guess orbital symmetries:
       Occupied  (A1) (A1) (B1) (B2) (A1) (B2) (B1) (A1) (A2) (A1)
                 (B2) (B1) (A1) (A1) (A1) (A2) (B2) (B1) (A1) (B1)
                 (B2) (B2) (A2) (B1) (A1) (A1)
       Virtual   (B2) (A1) (B1) (B1) (B2) (A2) (A1) (B2) (A1) (B1)
                 (B2) (A2) (A2) (A1) (B1) (A1) (B1) (A1) (B2) (B2)
                 (A2) (B1) (A1) (A2) (B2) (B1) (B2) (A1) (B2) (A2)
                 (A1) (B1) (B1) (A1) (B1) (A1) (A1) (B2) (A2) (B1)
                 (B2) (B1) (A2) (A1) (B2) (A2) (B2) (A1) (A1) (B1)
                 (B2) (A1) (A2) (B1) (B2) (A1) (B1) (A2) (B1) (A1)
                 (B2) (A2) (B1) (A1) (B2) (A1) (A1) (B2) (B1) (A1)
                 (A1) (A1) (B2) (B1) (A2) (A1) (B2) (B1)
 Harris functional with IExCor=  402 diagonalized for initial guess.
 ExpMin= 8.85D-02 ExpMax= 2.58D+00 ExpMxC= 2.58D+00 IAcc=2 IRadAn=         4 AccDes= 0.00D+00
 HarFok:  IExCor= 402 AccDes= 0.00D+00 IRadAn=         4 IDoV=1
 ScaDFX=  1.000000  1.000000  1.000000  1.000000
 Requested convergence on RMS density matrix=1.00D-08 within 128 cycles.
 Requested convergence on MAX density matrix=1.00D-06.
 Requested convergence on             energy=1.00D-06.
 No special actions if energy rises.
 Keep R1 integrals in memory in canonical form, NReq=    16795783.
 Integral accuracy reduced to 1.0D-05 until final iterations.
 Rare condition: small coef for last iteration:  0.000D+00
 Initial convergence to 1.0D-05 achieved.  Increase integral accuracy.
 SCF Done:  E(RB+HF-LYP) =  -50.0124108177     A.U. after   15 cycles
             Convg  =    0.9173D-08             -V/T =  3.4549
             S**2   =   0.0000
 QCSCF skips out because SCF is already converged.
 Range of M.O.s used for correlation:     1   104
 NBasis=   104 NAE=    26 NBE=    26 NFC=     0 NFV=     0
 NROrb=    104 NOA=    26 NOB=    26 NVA=    78 NVB=    78

 **** Warning!!: The smallest alpha delta epsilon is  0.36361635D-01

   4 Symmetry operations used in ECPInt.
 ECPInt:  NShTT=    1378 NPrTT=    3107 LenC2=    1379 LenP2D=    3003.
 LDataN:  DoStor=F MaxTD1= 4 Len=   56
 LDataN:  DoStor=T MaxTD1= 4 Len=   56
 Symmetrizing basis deriv contribution to polar:
 IMax=3 JMax=2 DiffMx= 0.00D+00
 G2DrvN: will do   14 centers at a time, making    1 passes doing MaxLOS=1.
 FoFDir/FoFCou used for L=0 through L=1.
 DoAtom=TTTTTTTTTTTTT
          Differentiating once with respect to electric field.
                with respect to dipole field.
          Differentiating once with respect to nuclear coordinates.
          Store integrals in memory, NReq=    15712663.
          There are  21 degrees of freedom in the 1st order CPHF.
    21 vectors were produced by pass  0.
 AX will form  21 AO Fock derivatives at one time.
    21 vectors were produced by pass  1.
    21 vectors were produced by pass  2.
    21 vectors were produced by pass  3.
    21 vectors were produced by pass  4.
    21 vectors were produced by pass  5.
    21 vectors were produced by pass  6.
    19 vectors were produced by pass  7.
     3 vectors were produced by pass  8.
     3 vectors were produced by pass  9.
 Inv2:  IOpt= 1 Iter= 1 AM= 1.88D-15 Conv= 1.00D-12.
 Inverted reduced A of dimension  172 with in-core refinement.
 Isotropic polarizability for W=    0.000000      361.12 Bohr**3.
 End of Minotr Frequency-dependent properties file   721 does not exist.
   4 Symmetry operations used in ECPInt.
 ECPInt:  NShTT=    1378 NPrTT=    3107 LenC2=    1379 LenP2D=    3107.
 LDataN:  DoStor=F MaxTD1= 5 Len=  102
 LDataN:  DoStor=T MaxTD1= 5 Len=  102
 ***** Axes restored to original set *****
 -------------------------------------------------------------------
 Center     Atomic                   Forces (Hartrees/Bohr)
 Number     Number              X              Y              Z
 -------------------------------------------------------------------
    1         14           0.007386452    0.000000000   -0.009386599
    2         14          -0.036443471    0.000000000    0.010096913
    3         14           0.000000000    0.028983173    0.039625705
    4         14           0.000000000   -0.028983173    0.039625705
    5         14           0.036443471    0.000000000    0.010096913
    6         14           0.000000000    0.063010663    0.046632650
    7         14          -0.007386452    0.000000000   -0.009386599
    8         14           0.055171576   -0.031075817   -0.038959212
    9         14           0.055171576    0.031075817   -0.038959212
   10         14           0.000000000    0.000000000   -0.018100490
   11         14           0.000000000   -0.063010663    0.046632650
   12         14          -0.055171576   -0.031075817   -0.038959212
   13         14          -0.055171576    0.031075817   -0.038959212
 -------------------------------------------------------------------
 Cartesian Forces:  Max     0.063010663 RMS     0.033086199

 GradGradGradGradGradGradGradGradGradGradGradGradGradGradGradGradGradGrad
 Berny optimization.
 Internal  Forces:  Max     0.030942673 RMS     0.007445911
 Search for a local minimum.
 Step number   2 out of a maximum of 100
 All quantities printed in internal units (Hartrees-Bohrs-Radians)
 Second derivative matrix not updated -- analytic derivatives used.
 Trust test= 1.00D+00 RLast= 3.00D-01 DXMaxT set to 4.24D-01
 Maximum step size (   0.424) exceeded in linear search.
    -- Step size scaled by   0.707
 Quartic linear search produced a step of  1.41423.
 Iteration  1 RMS(Cart)=  0.01574003 RMS(Int)=  0.00022207
 Iteration  2 RMS(Cart)=  0.00007828 RMS(Int)=  0.00017807
 Iteration  3 RMS(Cart)=  0.00000001 RMS(Int)=  0.00017807
 Variable       Old X    -DE/DX   Delta X   Delta X   Delta X     New X
                                 (Linear)    (Quad)   (Total)
    R1        4.63310   0.00377   0.01700   0.00000   0.01744   4.65054
    R2        4.63310   0.00377   0.01700   0.00000   0.01744   4.65054
    R3        4.61652  -0.00495  -0.01776   0.00000  -0.01811   4.59841
    R4        5.16188   0.01717   0.07082   0.00000   0.07077   5.23266
    R5        5.16188   0.01717   0.07082   0.00000   0.07077   5.23266
    R6        5.15338   0.01197   0.04551   0.00000   0.04461   5.19799
    R7        4.69424   0.01833   0.06976   0.00000   0.06972   4.76397
    R8        4.61652  -0.00495  -0.01776   0.00000  -0.01811   4.59841
    R9        4.69424   0.01833   0.06976   0.00000   0.06972   4.76397
   R10        4.63323   0.02114   0.07435   0.00000   0.07435   4.70759
   R11        4.63323   0.02114   0.07435   0.00000   0.07435   4.70759
   R12        5.13599   0.01551   0.06429   0.00000   0.06364   5.19962
   R13        5.16188   0.01717   0.07082   0.00000   0.07077   5.23266
   R14        4.66693   0.00956   0.04775   0.00000   0.04779   4.71472
   R15        4.63310   0.00377   0.01700   0.00000   0.01744   4.65054
   R16        5.16188   0.01717   0.07082   0.00000   0.07077   5.23266
   R17        4.63310   0.00377   0.01700   0.00000   0.01744   4.65054
   R18        4.66693   0.00956   0.04775   0.00000   0.04779   4.71472
   R19        4.69424   0.01833   0.06976   0.00000   0.06972   4.76397
   R20        4.63323   0.02114   0.07435   0.00000   0.07435   4.70759
   R21        4.63323   0.02114   0.07435   0.00000   0.07435   4.70759
   R22        4.69424   0.01833   0.06976   0.00000   0.06972   4.76397
   R23        4.19159   0.03094   0.10196   0.00000   0.10233   4.29392
   R24        4.19159   0.03094   0.10196   0.00000   0.10233   4.29392
   R25        4.88630   0.02250   0.09547   0.00000   0.09542   4.98173
   R26        4.63470   0.01188   0.04170   0.00000   0.04154   4.67624
   R27        4.19159   0.03094   0.10196   0.00000   0.10233   4.29392
   R28        4.89486   0.02907   0.10756   0.00000   0.10767   5.00253
   R29        4.63470   0.01188   0.04170   0.00000   0.04154   4.67624
   R30        4.89486   0.02907   0.10756   0.00000   0.10767   5.00253
   R31        4.63470   0.01188   0.04170   0.00000   0.04154   4.67624
   R32        4.63470   0.01188   0.04170   0.00000   0.04154   4.67624
   R33        4.19159   0.03094   0.10196   0.00000   0.10233   4.29392
   R34        4.88630   0.02250   0.09547   0.00000   0.09542   4.98173
[...]
 ! D37   D(4,2,13,10)           64.1033         -DE/DX =    0.0                 !
 ! D38   D(5,2,13,9)             0.0            -DE/DX =    0.0                 !
 ! D39   D(5,2,13,10)           55.4444         -DE/DX =    0.0                 !
 ! D40   D(7,2,13,9)           121.0803         -DE/DX =    0.0                 !
 ! D41   D(7,2,13,10)          176.5247         -DE/DX =    0.0                 !
 ! D42   D(11,2,13,9)          -56.1322         -DE/DX =    0.0                 !
 ! D43   D(11,2,13,10)          -0.6878         -DE/DX =    0.0                 !
 ! D44   D(6,3,4,11)             0.0            -DE/DX =    0.0                 !
 ! D45   D(7,3,5,8)             18.8613         -DE/DX =    0.0                 !
 ! D46   D(7,3,5,9)            107.7469         -DE/DX =    0.0                 !
 ! D47   D(7,3,5,11)           -16.4479         -DE/DX =    0.0                 !
 ! D48   D(1,3,6,9)             11.2001         -DE/DX =    0.0                 !
 ! D49   D(1,3,6,13)           106.0416         -DE/DX =    0.0                 !
 ! D50   D(4,3,6,9)            -47.4207         -DE/DX =    0.0                 !
 ! D51   D(4,3,6,13)            47.4207         -DE/DX =    0.0                 !
 ! D52   D(7,3,6,9)           -106.0416         -DE/DX =    0.0                 !
 ! D53   D(7,3,6,13)           -11.2001         -DE/DX =    0.0                 !
 ! D54   D(7,4,5,6)             16.4479         -DE/DX =    0.0                 !
 ! D55   D(7,4,5,8)           -107.7469         -DE/DX =    0.0                 !
 ! D56   D(7,4,5,9)            -18.8613         -DE/DX =    0.0                 !
 ! D57   D(1,4,11,8)           -11.2001         -DE/DX =    0.0                 !
 ! D58   D(1,4,11,12)         -106.0416         -DE/DX =    0.0                 !
 ! D59   D(3,4,11,8)            47.4207         -DE/DX =    0.0                 !
 ! D60   D(3,4,11,12)          -47.4207         -DE/DX =    0.0                 !
 ! D61   D(7,4,11,8)           106.0416         -DE/DX =    0.0                 !
 ! D62   D(7,4,11,12)           11.2001         -DE/DX =    0.0                 !
 ! D63   D(1,5,6,13)          -156.0752         -DE/DX =    0.0                 !
 ! D64   D(4,5,6,13)          -101.6242         -DE/DX =    0.0                 !
 ! D65   D(8,5,6,13)            22.1292         -DE/DX =    0.0                 !
 ! D66   D(11,5,6,13)          -41.8688         -DE/DX =    0.0                 !
 ! D67   D(1,5,8,10)           176.5247         -DE/DX =    0.0                 !
 ! D68   D(1,5,8,12)           121.0803         -DE/DX =    0.0                 !
 ! D69   D(2,5,8,10)            55.4444         -DE/DX =    0.0                 !
 ! D70   D(2,5,8,12)             0.0            -DE/DX =    0.0                 !
 ! D71   D(3,5,8,10)            64.1033         -DE/DX =    0.0                 !
 ! D72   D(3,5,8,12)             8.6589         -DE/DX =    0.0                 !
 ! D73   D(4,5,8,10)           117.0362         -DE/DX =    0.0                 !
 ! D74   D(4,5,8,12)            61.5918         -DE/DX =    0.0                 !
 ! D75   D(6,5,8,10)            -0.6878         -DE/DX =    0.0                 !
 ! D76   D(6,5,8,12)           -56.1322         -DE/DX =    0.0                 !
 ! D77   D(1,5,9,10)          -176.5247         -DE/DX =    0.0                 !
 ! D78   D(1,5,9,13)          -121.0803         -DE/DX =    0.0                 !
 ! D79   D(2,5,9,10)           -55.4444         -DE/DX =    0.0                 !
 ! D80   D(2,5,9,13)             0.0            -DE/DX =    0.0                 !
 ! D81   D(3,5,9,10)          -117.0362         -DE/DX =    0.0                 !
 ! D82   D(3,5,9,13)           -61.5918         -DE/DX =    0.0                 !
 ! D83   D(4,5,9,10)           -64.1033         -DE/DX =    0.0                 !
 ! D84   D(4,5,9,13)            -8.6589         -DE/DX =    0.0                 !
 ! D85   D(11,5,9,10)            0.6878         -DE/DX =    0.0                 !
 ! D86   D(11,5,9,13)           56.1322         -DE/DX =    0.0                 !
 ! D87   D(1,5,11,12)          156.0752         -DE/DX =    0.0                 !
 ! D88   D(3,5,11,12)          101.6242         -DE/DX =    0.0                 !
 ! D89   D(6,5,11,12)           41.8688         -DE/DX =    0.0                 !
 ! D90   D(9,5,11,12)          -22.1292         -DE/DX =    0.0                 !
 ! D91   D(2,6,9,8)            -21.523          -DE/DX =    0.0                 !
 ! D92   D(2,6,9,10)            35.3975         -DE/DX =    0.0                 !
 ! D93   D(3,6,9,8)             46.8571         -DE/DX =    0.0                 !
 ! D94   D(3,6,9,10)           103.7777         -DE/DX =    0.0                 !
 ! D95   D(3,6,13,10)         -103.7777         -DE/DX =    0.0                 !
 ! D96   D(3,6,13,12)          -46.8571         -DE/DX =    0.0                 !
 ! D97   D(5,6,13,10)          -35.3975         -DE/DX =    0.0                 !
 ! D98   D(5,6,13,12)           21.523          -DE/DX =    0.0                 !
 ! D99   D(11,8,9,6)             0.0            -DE/DX =    0.0                 !
 ! D100  D(11,8,9,13)          -54.0447         -DE/DX =    0.0                 !
 ! D101  D(12,8,9,6)            54.0447         -DE/DX =    0.0                 !
 ! D102  D(12,8,9,13)            0.0            -DE/DX =    0.0                 !
 ! D103  D(5,8,10,13)          -21.8289         -DE/DX =    0.0                 !
 ! D104  D(11,8,10,13)          39.5706         -DE/DX =    0.0                 !
 ! D105  D(9,8,11,2)            21.523          -DE/DX =    0.0                 !
 ! D106  D(9,8,11,4)           -46.8571         -DE/DX =    0.0                 !
 ! D107  D(10,8,11,2)          -35.3975         -DE/DX =    0.0                 !
 ! D108  D(10,8,11,4)         -103.7777         -DE/DX =    0.0                 !
 ! D109  D(5,8,12,2)             0.0            -DE/DX =    0.0                 !
 ! D110  D(5,8,12,13)           55.8694         -DE/DX =    0.0                 !
 ! D111  D(9,8,12,2)           -55.8694         -DE/DX =    0.0                 !
 ! D112  D(9,8,12,13)            0.0            -DE/DX =    0.0                 !
 ! D113  D(5,9,10,12)           21.8289         -DE/DX =    0.0                 !
 ! D114  D(6,9,10,12)          -39.5706         -DE/DX =    0.0                 !
 ! D115  D(5,9,13,2)             0.0            -DE/DX =    0.0                 !
 ! D116  D(5,9,13,12)          -55.8694         -DE/DX =    0.0                 !
 ! D117  D(8,9,13,2)            55.8694         -DE/DX =    0.0                 !
 ! D118  D(8,9,13,12)            0.0            -DE/DX =    0.0                 !
 ! D119  D(9,10,12,2)           21.8289         -DE/DX =    0.0                 !
 ! D120  D(9,10,12,11)         -39.5706         -DE/DX =    0.0                 !
 ! D121  D(8,10,13,2)          -21.8289         -DE/DX =    0.0                 !
 ! D122  D(8,10,13,6)           39.5706         -DE/DX =    0.0                 !
 ! D123  D(4,11,12,10)         103.7777         -DE/DX =    0.0                 !
 ! D124  D(4,11,12,13)          46.8571         -DE/DX =    0.0                 !
 ! D125  D(5,11,12,10)          35.3975         -DE/DX =    0.0                 !
 ! D126  D(5,11,12,13)         -21.523          -DE/DX =    0.0                 !
 ! D127  D(8,12,13,6)          -54.0447         -DE/DX =    0.0                 !
 ! D128  D(8,12,13,9)            0.0            -DE/DX =    0.0                 !
 ! D129  D(11,12,13,6)           0.0            -DE/DX =    0.0                 !
 ! D130  D(11,12,13,9)          54.0447         -DE/DX =    0.0                 !
 --------------------------------------------------------------------------------
 GradGradGradGradGradGradGradGradGradGradGradGradGradGradGradGradGradGrad

 1\1\GINC-NODE46\Freq\RB3LYP\6-311+G(d)\Si13\TAM\27-Nov-2011\0\\#N Geom
 =AllCheck Guess=Read SCRF=Check GenChk RB3LYP/6-311+G(d) Freq\\si13-n\
 \0,1\Si,2.0387469348,0.,2.5620397104\Si,-1.310528597,0.,0.2656559491\S
 i,0.,1.3159215935,2.5443766015\Si,0.,-1.3159215935,2.5443766015\Si,1.3
 10528597,0.,0.2656559491\Si,0.,2.1506008906,0.0280962373\Si,-2.0387469
 348,0.,2.5620397104\Si,1.3765941853,-1.4474336418,-1.869737255\Si,1.37
 65941853,1.4474336418,-1.869737255\Si,0.,0.,-3.3213879616\Si,0.,-2.150
 6008906,0.0280962373\Si,-1.3765941853,-1.4474336418,-1.869737255\Si,-1
 .3765941853,1.4474336418,-1.869737255\\Version=AM64L-G03RevE.01\State=
 1-A1\HF=-3763.606199\RMSD=2.947e-09\RMSF=2.646e-06\ZeroPoint=0.0186782
 \Thermal=0.0381622\Dipole=0.,0.,0.1368735\DipoleDeriv=0.2798547,0.,0.2
 092579,0.,0.0771848,0.,0.1748774,0.,0.057163,-0.100228,0.,-0.0277063,0
 .,-0.2392179,0.,-0.1155036,0.,0.0616052,-0.1465587,0.,0.,0.,-0.0119737
 ,0.1501506,0.,0.0122781,-0.0294609,-0.1465587,0.,0.,0.,-0.0119737,-0.1
 501506,0.,-0.0122781,-0.0294609,-0.100228,0.,0.0277063,0.,-0.2392179,0
 .,0.1155036,0.,0.0616052,-0.0920496,0.,0.,0.,0.0392518,0.0228429,0.,0.
 056006,-0.0084112,0.2798547,0.,-0.2092579,0.,0.0771848,0.,-0.1748774,0
 .,0.057163,0.039749,-0.1786044,-0.1463625,-0.1920361,0.0155151,0.13918
 01,-0.1124465,0.1626299,-0.0710333,0.039749,0.1786044,-0.1463625,0.192
 036,0.0155151,-0.1391801,-0.1124465,-0.1626299,-0.0710333,-0.041033,0.
 ,0.,0.,0.2074494,0.,0.,0.,0.1223413,-0.0920496,0.,0.,0.,0.0392518,-0.0
 228429,0.,-0.056006,-0.0084112,0.039749,0.1786044,0.1463625,0.192036,0
 .0155151,0.1391801,0.1124465,0.1626299,-0.0710333,0.039749,-0.1786044,
 0.1463625,-0.1920361,0.0155151,-0.1391801,0.1124465,-0.1626299,-0.0710
 333\Polar=357.5975354,0.,356.0747127,0.0000002,-0.0000001,504.9307334\
 PG=C02V [C2(Si1),SGV(Si4),SGV'(Si4),X(Si4)]\NImag=0\\0.10549116,0.,0.0
 3895000,0.02629742,0.,0.06824130,-0.00577615,0.,-0.00588345,0.06201137
 ,0.,-0.00248059,0.,0.,0.06994840,-0.00629034,0.,-0.00073642,-0.0224387
 7,0.,0.11666470,-0.03988438,0.02426796,0.00327653,-0.00093975,-0.00079
 698,0.00059255,0.08173119,0.01626453,-0.01277026,0.00324018,0.00313473
 ,0.00124609,-0.00252651,0.,0.06184178,-0.00478068,0.00654893,-0.004664
 92,-0.00957261,-0.00575418,-0.00209245,0.,-0.00325957,0.03837457,-0.03
 988438,-0.02426796,0.00327653,-0.00093975,0.00079698,0.00059255,0.0019
 1143,0.,0.,0.08173119,-0.01626453,-0.01277026,-0.00324018,-0.00313473,
 0.00124608,0.00252651,0.,-0.03783447,-0.00379690,0.,0.06184178,-0.0047
 8068,-0.00654893,-0.00466492,-0.00957261,0.00575418,-0.00209245,0.,0.0
 0379690,-0.00291928,0.,0.00325957,0.03837457,-0.01088223,0.,-0.0258060
 2,-0.02331926,0.,-0.00318967,-0.00093975,-0.00313473,0.00957261,-0.000
 93975,0.00313473,0.00957261,0.06201137,0.,-0.00615905,0.,0.,0.00371395
 ,0.,0.00079698,0.00124608,-0.00575418,-0.00079698,0.00124609,0.0057541
 8,0.,0.06994840,-0.01454128,0.,-0.05745243,0.00318967,0.,-0.00269805,-
 0.00059255,-0.00252651,-0.00209245,-0.00059255,0.00252651,-0.00209245,
 0.02243877,0.,0.11666470,-0.00184696,0.00369195,-0.00187563,-0.0053268
 4,-0.01571085,0.00415502,0.00063566,0.,0.,-0.00129682,0.,0.,-0.0053268
 4,0.01571085,-0.00415502,0.05114151,-0.00215298,0.00129837,-0.00142820
 ,-0.01042874,-0.02399572,-0.00072931,0.,0.00581793,0.00611565,0.,-0.00
 726422,0.00150686,0.01042874,-0.02399572,-0.00072931,0.,0.06642761,0.0
 0029567,0.00331244,-0.00140874,0.00487542,-0.00043064,-0.00081559,0.,0
 .00233394,-0.01818497,0.,0.00231598,0.00153876,-0.00487542,-0.00043064
 ,-0.00081559,0.,0.02043569,0.08363098,-0.00808000,0.,-0.00098238,-0.01
 088223,0.,0.01454128,-0.03988438,-0.01626453,0.00478068,-0.03988438,0.
 01626453,0.00478068,-0.00577615,0.,0.00629034,-0.00184696,0.00215298,-
 0.00029567,0.10549116,0.,-0.00338436,0.,0.,-0.00615905,0.,-0.02426796,
 -0.01277026,0.00654893,0.02426796,-0.01277026,-0.00654893,0.,-0.002480
 59,0.,-0.00369195,0.00129837,0.00331244,0.,0.03895000,0.00098238,0.,-0
 .00053633,0.02580602,0.,-0.05745243,-0.00327653,0.00324018,-0.00466492
 ,-0.00327653,-0.00324018,-0.00466492,0.00588345,0.,-0.00073642,0.00187
 563,-0.00142820,-0.00140874,-0.02629742,0.,0.06824130,0.00459417,-0.00
 115765,0.00167956,-0.00456161,0.00155267,-0.00075593,0.00088851,-0.001
 91328,-0.00042794,-0.00034417,0.00401463,0.00009644,0.00051311,0.00796
 862,0.00112521,-0.00456767,-0.00102372,-0.00251383,-0.00192739,0.00084
 666,-0.00178609,0.05235635,-0.00129242,0.00052194,-0.00063958,-0.00146
 922,-0.00280498,-0.00117173,0.00163643,0.00089155,0.00219696,-0.000036
 89,0.00099003,0.00075808,0.00414149,-0.01346346,-0.01061908,0.00730996
 ,-0.00461886,-0.00322151,-0.00232829,-0.00093066,0.00043853,-0.0160642
 3,0.04817283,-0.00004968,0.00101698,0.00175544,0.00382471,-0.00033930,
 -0.00526458,0.00167793,-0.00117546,-0.00103138,-0.00087132,0.00138973,
 -0.00025268,0.00088162,-0.01237357,-0.01516940,0.00307194,-0.00241513,
 -0.00023948,0.00014279,-0.00259946,-0.00019044,-0.01686362,-0.00517087
 ,0.06155692,0.00459417,0.00115765,0.00167956,-0.00456161,-0.00155267,-
 0.00075593,-0.00034417,-0.00401463,0.00009644,0.00088851,0.00191328,-0
 .00042794,0.00051311,-0.00796862,0.00112521,-0.01286444,0.00712553,0.0
 1324967,-0.00192738,-0.00084666,-0.00178609,0.00208880,0.00011473,0.00
 582328,0.05235635,0.00129242,0.00052194,0.00063958,0.00146922,-0.00280
 498,0.00117173,0.00003689,0.00099003,-0.00075808,-0.00163643,0.0008915
 5,-0.00219696,-0.00414149,-0.01346346,0.01061908,0.00532663,-0.0004608
 5,-0.01165789,0.00232829,-0.00093066,-0.00043853,-0.00011473,-0.006829
 05,0.00202787,0.01606423,0.04817283,-0.00004968,-0.00101698,0.00175544
 ,0.00382471,0.00033930,-0.00526458,-0.00087132,-0.00138973,-0.00025268
 ,0.00167793,0.00117546,-0.00103138,0.00088162,0.01237357,-0.01516940,0
 .02262233,-0.00894190,-0.02396625,0.00014279,0.00259946,-0.00019044,0.
 00582328,-0.00202787,-0.00200533,-0.01686362,0.00517087,0.06155692,-0.
 00262369,0.,-0.00335867,-0.00140354,0.,0.01164466,-0.00242187,0.,0.,-0
 .00242187,0.,0.,-0.00140354,0.,-0.01164466,0.00004859,0.,0.,-0.0026236
 9,0.,0.00335867,-0.00630063,0.01357211,-0.01113154,-0.00630063,-0.0135
 7211,-0.01113154,0.03800356,0.,-0.00316479,0.,0.,0.01301346,0.,0.,-0.0
 0327585,-0.00201959,0.,-0.00327585,0.00201959,0.,0.01301346,0.,0.,-0.0
 0793696,-0.00403086,0.,-0.00316479,0.,0.00714612,-0.01051241,0.0127244
 7,-0.00714612,-0.01051241,-0.01272447,0.,0.04477791,0.00290678,0.,-0.0
 0049878,0.00283475,0.,-0.00909376,0.,0.00314775,-0.00272623,0.,-0.0031
 4775,-0.00272623,-0.00283475,0.,-0.00909376,0.,0.00191132,-0.00804078,
 -0.00290678,0.,-0.00049878,-0.00875518,0.01145121,-0.01141192,-0.00875
 518,-0.01145121,-0.01141192,0.,0.,0.08636680,-0.00184696,-0.00369195,-
 0.00187563,-0.00532684,0.01571085,0.00415502,-0.00129682,0.,0.,0.00063
 566,0.,0.,-0.00532684,-0.01571085,-0.00415502,-0.00131711,0.,0.,-0.001
 84696,0.00369195,0.00187563,-0.01286444,-0.00532663,0.02262233,-0.0045
 6767,-0.00730995,0.00307194,0.00004859,0.,0.,0.05114151,0.00215298,0.0
 0129837,0.00142820,0.01042874,-0.02399572,0.00072931,0.,-0.00726422,-0
 .00150686,0.,0.00581793,-0.00611565,-0.01042874,-0.02399572,0.00072931
 ,0.,-0.00149024,0.00294044,-0.00215298,0.00129837,0.00142820,-0.007125
 53,-0.00046085,0.00894190,0.00102372,-0.00461886,0.00241513,0.,-0.0079
 3696,-0.00191132,0.,0.06642761,0.00029567,-0.00331244,-0.00140874,0.00
 487542,0.00043064,-0.00081559,0.,-0.00231598,0.00153876,0.,-0.00233394
 ,-0.01818497,-0.00487542,0.00043064,-0.00081559,0.,-0.00294044,-0.0060
 8386,-0.00029567,-0.00331244,-0.00140874,0.01324967,0.01165789,-0.0239
 6625,-0.00251383,0.00322151,-0.00023948,0.,0.00403086,-0.00804078,0.,-
 0.02043569,0.08363098,-0.00192738,-0.00084666,0.00178609,0.00051311,-0
 .00796862,-0.00112521,0.00088851,0.00191328,0.00042794,-0.00034417,-0.
 00401463,-0.00009644,-0.00456161,-0.00155267,0.00075593,-0.00456767,0.
 00102372,0.00251383,0.00459417,0.00115765,-0.00167956,-0.02452820,-0.0
 0306374,-0.00315155,-0.00534684,-0.00280672,-0.00597688,-0.00630063,-0
 .00714612,0.00875518,-0.01286444,0.00712553,-0.01324967,0.05235635,0.0
 0232829,-0.00093066,0.00043853,-0.00414149,-0.01346346,-0.01061908,-0.
 00163643,0.00089155,0.00219696,0.00003689,0.00099003,0.00075808,0.0014
 6922,-0.00280498,-0.00117173,-0.00730995,-0.00461886,-0.00322151,0.001
 29242,0.00052194,-0.00063958,0.00306374,-0.00283042,-0.00283959,-0.002
 80672,-0.00812565,-0.00081243,-0.01357211,-0.01051241,0.01145121,0.005
 32663,-0.00046085,0.01165789,0.01606423,0.04817283,-0.00014279,-0.0025
 9946,-0.00019044,-0.00088162,-0.01237357,-0.01516940,-0.00167793,-0.00
 117546,-0.00103138,0.00087132,0.00138973,-0.00025268,-0.00382471,-0.00
 033930,-0.00526458,-0.00307194,-0.00241513,-0.00023948,0.00004968,0.00
 101698,0.00175544,0.00315155,-0.00283959,-0.00309998,0.00597688,0.0008
 1243,-0.00068092,0.01113154,0.01272447,-0.01141192,-0.02262233,0.00894
 190,-0.02396625,0.01686362,-0.00517087,0.06155692,-0.00192739,0.000846
 66,0.00178609,0.00051311,0.00796862,-0.00112521,-0.00034417,0.00401463
 ,-0.00009644,0.00088851,-0.00191328,0.00042794,-0.00456161,0.00155267,
 0.00075593,-0.01286444,-0.00712553,-0.01324967,0.00459417,-0.00115765,
 -0.00167956,-0.00534684,0.00280672,-0.00597688,-0.02452820,0.00306374,
 -0.00315155,-0.00630063,0.00714612,0.00875518,-0.00456767,-0.00102372,
 0.00251383,0.00208880,-0.00011473,-0.00582328,0.05235635,-0.00232829,-
 0.00093066,-0.00043853,0.00414149,-0.01346346,0.01061908,-0.00003689,0
 .00099003,-0.00075808,0.00163643,0.00089155,-0.00219696,-0.00146922,-0
 .00280498,0.00117173,-0.00532663,-0.00046085,-0.01165789,-0.00129242,0
 .00052194,0.00063958,0.00280672,-0.00812565,0.00081243,-0.00306374,-0.
 00283042,0.00283959,0.01357211,-0.01051241,-0.01145121,0.00730996,-0.0
 0461886,0.00322151,0.00011473,-0.00682905,0.00202787,-0.01606423,0.048
 17283,-0.00014279,0.00259946,-0.00019044,-0.00088162,0.01237357,-0.015
 16940,0.00087132,-0.00138973,-0.00025268,-0.00167793,0.00117546,-0.001
 03138,-0.00382471,0.00033930,-0.00526458,-0.02262233,-0.00894190,-0.02
 396625,0.00004968,-0.00101698,0.00175544,0.00597688,-0.00081243,-0.000
 68092,0.00315155,0.00283959,-0.00309998,0.01113154,-0.01272447,-0.0114
 1192,-0.00307194,0.00241513,-0.00023948,-0.00582328,-0.00202787,-0.002
 00533,0.01686362,0.00517087,0.06155692\\0.00000080,0.,-0.00000380,-0.0
 0000094,0.,0.00000058,0.,-0.00000676,0.00000122,0.,0.00000676,0.000001
 22,0.00000094,0.,0.00000058,0.,0.00000195,-0.00000026,-0.00000080,0.,-
 0.00000380,-0.00000544,-0.00000199,0.00000082,-0.00000544,0.00000199,0
 .00000082,0.,0.,0.00000125,0.,-0.00000195,-0.00000026,0.00000544,-0.00
 000199,0.00000082,0.00000544,0.00000199,0.00000082\\\@


 NOBODY LOSES ALL THE TIME
 I HAD AN UNCLE NAMED
 SOL WHO WAS A BORN FAILURE AND
 NEARLY EVERYBODY SAID HE SHOULD HAVE GONE
 INTO VAUDEVILLE PERHAPS BECAUSE MY UNCLE SOL COULD
 SING MCCANN HE WAS A DIVER ON XMAS EVE LIKE HELL ITSELF WHICH
 MAY OR MAY NOT ACCOUNT FOR THE FACT THAT MY UNCLE
 SOL INDULGED IN THAT POSSIBLY MOST INEXCUSABLE
 OF ALL TO USE A HIGHFALOOTIN PHRASE
 LUXURIES THAT IS OR TO
 WIT FARMING AND BE
 IT NEEDLESSLY
 ADDED
 MY UNCLE SOL'S FARM
 FAILED BECAUSE THE CHICKENS
 ATE THE VEGETABLES SO
 MY UNCLE SOL HAD A
 CHICKEN FARM TILL THE
 SKUNKS ATE THE CHICKENS WHEN 
 MY UNCLE SOL
 HAD A SKUNK FARM BUT
 THE SKUNKS CAUGHT COLD AND
 DIED AND SO
 MY UNCLE SOL IMITATED THE
 SKUNKS IN A SUBTLE MANNER
 OR BY DROWNING HIMSELF IN THE WATERTANK
 BUT SOMEBODY WHO'D GIVEN MY UNCLE SOL A VICTOR
 VICTROLA AND RECORDS WHILE HE LIVED PRESENTED TO
 HIM UPON THE AUSPICIOUS OCCASION OF HIS DECEASE A
 SCRUMPTIOUS NOT TO MENTION SPLENDIFEROUS FUNERAL WITH
 TALL BOYS IN BLACK GLOVES AND FLOWERS AND EVERYTHING AND
 I REMEMBER WE ALL CRIED LIKE THE MISSOURI
 WHEN MY UNCLE SOL'S COFFIN LURCHED BECAUSE
 SOMEBODY PRESSED A BUTTON
 (AND DOWN WENT
 MY UNCLE
 SOL
 AND STARTED A WORM FARM)
           E. E. CUMMINGS
 Job cpu time:  0 days  2 hours 10 minutes 54.8 seconds.
 File lengths (MBytes):  RWF=    281 Int=      0 D2E=      0 Chk=     17 Scr=      1
 Normal termination of Gaussian 03 at Sun Nov 27 18:31:42 2011.
