 Entering Gaussian System, Link 0=g09
 Initial command:
 /usr/local/chem/g09A2/l1.exe /temp0/minh/Gau-12166.inp -scrdir=/temp0/minh/
 Entering Link 1 = /usr/local/chem/g09A2/l1.exe PID=     12167.
  
 Copyright (c) 1988,1990,1992,1993,1995,1998,2003,2009, Gaussian, Inc.
                  All Rights Reserved.
  
 This is part of the Gaussian(R) 09 program.  It is based on
 the Gaussian(R) 03 system (copyright 2003, Gaussian, Inc.),
 the Gaussian(R) 98 system (copyright 1998, Gaussian, Inc.),
 the Gaussian(R) 94 system (copyright 1995, Gaussian, Inc.),
 the Gaussian 92(TM) system (copyright 1992, Gaussian, Inc.),
 the Gaussian 90(TM) system (copyright 1990, Gaussian, Inc.),
 the Gaussian 88(TM) system (copyright 1988, Gaussian, Inc.),
 the Gaussian 86(TM) system (copyright 1986, Carnegie Mellon
 University), and the Gaussian 82(TM) system (copyright 1983,
 Carnegie Mellon University). Gaussian is a federally registered
 trademark of Gaussian, Inc.
  
 This software contains proprietary and confidential information,
 including trade secrets, belonging to Gaussian, Inc.
  
 This software is provided under written license and may be
 used, copied, transmitted, or stored only in accord with that
 written license.
  
 The following legend is applicable only to US Government
 contracts under FAR:
  
                    RESTRICTED RIGHTS LEGEND
  
 Use, reproduction and disclosure by the US Government is
 subject to restrictions as set forth in subparagraphs (a)
 and (c) of the Commercial Computer Software - Restricted
 Rights clause in FAR 52.227-19.
  
 Gaussian, Inc.
 340 Quinnipiac St., Bldg. 40, Wallingford CT 06492
  
  
 ---------------------------------------------------------------
 Warning -- This program may not be used in any manner that
 competes with the business of Gaussian, Inc. or will provide
 assistance to any competitor of Gaussian, Inc.  The licensee
 of this program is prohibited from giving any competitor of
 Gaussian, Inc. access to this program.  By using this program,
 the user acknowledges that Gaussian, Inc. is engaged in the
 business of creating and licensing software in the field of
 computational chemistry and represents and warrants to the
 licensee that it is not a competitor of Gaussian, Inc. and that
 it will not use this program in any manner prohibited above.
 ---------------------------------------------------------------
  

 Cite this work as:
 Gaussian 09, Revision A.02,
 M. J. Frisch, G. W. Trucks, H. B. Schlegel, G. E. Scuseria, 
 M. A. Robb, J. R. Cheeseman, G. Scalmani, V. Barone, B. Mennucci, 
 G. A. Petersson, H. Nakatsuji, M. Caricato, X. Li, H. P. Hratchian, 
 A. F. Izmaylov, J. Bloino, G. Zheng, J. L. Sonnenberg, M. Hada, 
 M. Ehara, K. Toyota, R. Fukuda, J. Hasegawa, M. Ishida, T. Nakajima, 
 Y. Honda, O. Kitao, H. Nakai, T. Vreven, J. A. Montgomery, Jr., 
 J. E. Peralta, F. Ogliaro, M. Bearpark, J. J. Heyd, E. Brothers, 
 K. N. Kudin, V. N. Staroverov, R. Kobayashi, J. Normand, 
 K. Raghavachari, A. Rendell, J. C. Burant, S. S. Iyengar, J. Tomasi, 
 M. Cossi, N. Rega, J. M. Millam, M. Klene, J. E. Knox, J. B. Cross, 
 V. Bakken, C. Adamo, J. Jaramillo, R. Gomperts, R. E. Stratmann, 
 O. Yazyev, A. J. Austin, R. Cammi, C. Pomelli, J. W. Ochterski, 
 R. L. Martin, K. Morokuma, V. G. Zakrzewski, G. A. Voth, 
 P. Salvador, J. J. Dannenberg, S. Dapprich, A. D. Daniels, 
 O. Farkas, J. B. Foresman, J. V. Ortiz, J. Cioslowski, 
 and D. J. Fox, Gaussian, Inc., Wallingford CT, 2009.
 
 ******************************************
 Gaussian 09:  AM64L-G09RevA.02 11-Jun-2009
                22-Feb-2012 
 ******************************************
 %NprocShared=4
 Will use up to    4 processors via shared memory.
 %mem=4000MB
 %chk=si13-anion
 ---------------------------------------------------------
 #n b3lyp/6-31g(d) test opt=(calcall,noeigentest) pop=none
 ---------------------------------------------------------
 1/10=4,11=1,14=-1,18=20,19=15,26=3,38=1/1,3;
 2/9=110,12=2,17=6,18=5,40=1/2;
 3/5=1,6=6,7=1,11=2,16=1,25=1,30=1,71=2,74=-5/1,2,3;
 4//1;
 5/5=2,38=5/2;
 8/6=4,10=90,11=11/1;
 11/6=1,8=1,9=11,15=111,16=1/1,2,10;
 10/6=1/2;
 7/10=1,25=1/1,2,3,16;
 1/10=4,11=1,14=-1,18=20,19=15/3(3);
 2/9=110/2;
 7/8=1,9=1,25=1,44=-1/16;
 99//99;
 2/9=110/2;
 3/5=1,6=6,7=1,11=2,16=1,25=1,30=1,71=2,74=-5/1,2,3;
 4/5=5,16=3/1;
 5/5=2,38=5/2;
 8/6=4,10=90,11=11/1;
 11/6=1,8=1,9=11,15=111,16=1/1,2,10;
 10/6=1/2;
 7/10=1,25=1/1,2,3,16;
 1/10=4,11=1,14=-1,18=20,19=15/3(-8);
 2/9=110/2;
 7/8=1,9=1,25=1,44=-1/16;
 99//99;
 -----------------------
 Si-13 (-) anion doublet
 -----------------------
 Symbolic Z-matrix:
 Charge = -1 Multiplicity = 2
 Si                   0     0.        2.03683  -2.5604 
 Si                   0     0.       -1.31385  -0.26566 
 Si                   0     1.30291   0.       -2.52587 
 Si                   0    -1.30291   0.       -2.52587 
 Si                   0     0.        1.31385  -0.26566 
 Si                   0     2.15062   0.       -0.03355 
 Si                   0     0.       -2.03683  -2.5604 
 Si                   0    -1.43665   1.35944   1.86297 
 Si                   0     1.43665   1.35944   1.86297 
 Si                   0     0.        0.        3.31908 
 Si                   0    -2.15062   0.       -0.03355 
 Si                   0    -1.43665  -1.35944   1.86297 
 Si                   0     1.43665  -1.35944   1.86297 
 

 GradGradGradGradGradGradGradGradGradGradGradGradGradGradGradGradGradGrad
 Berny optimization.
 Initialization pass.
                           ----------------------------
                           !    Initial Parameters    !
                           ! (Angstroms and Degrees)  !
 --------------------------                            --------------------------
 ! Name  Definition              Value          Derivative Info.                !
 --------------------------------------------------------------------------------
 ! R1    R(1,3)                  2.4182         calculate D2E/DX2 analytically  !
 ! R2    R(1,4)                  2.4182         calculate D2E/DX2 analytically  !
 ! R3    R(1,5)                  2.4059         calculate D2E/DX2 analytically  !
 ! R4    R(2,3)                  2.921          calculate D2E/DX2 analytically  !
 ! R5    R(2,4)                  2.921          calculate D2E/DX2 analytically  !
 ! R6    R(2,5)                  2.6277         calculate D2E/DX2 analytically  !
 ! R7    R(2,6)                  2.5309         calculate D2E/DX2 analytically  !
 ! R8    R(2,7)                  2.4059         calculate D2E/DX2 analytically  !
 ! R9    R(2,11)                 2.5309         calculate D2E/DX2 analytically  !
 ! R10   R(2,12)                 2.5685         calculate D2E/DX2 analytically  !
 ! R11   R(2,13)                 2.5685         calculate D2E/DX2 analytically  !
 ! R12   R(3,4)                  2.6058         calculate D2E/DX2 analytically  !
 ! R13   R(3,5)                  2.921          calculate D2E/DX2 analytically  !
 ! R14   R(3,6)                  2.6325         calculate D2E/DX2 analytically  !
 ! R15   R(3,7)                  2.4182         calculate D2E/DX2 analytically  !
 ! R16   R(4,5)                  2.921          calculate D2E/DX2 analytically  !
 ! R17   R(4,7)                  2.4182         calculate D2E/DX2 analytically  !
 ! R18   R(4,11)                 2.6325         calculate D2E/DX2 analytically  !
 ! R19   R(5,6)                  2.5309         calculate D2E/DX2 analytically  !
 ! R20   R(5,8)                  2.5685         calculate D2E/DX2 analytically  !
 ! R21   R(5,9)                  2.5685         calculate D2E/DX2 analytically  !
 ! R22   R(5,11)                 2.5309         calculate D2E/DX2 analytically  !
 ! R23   R(6,9)                  2.4402         calculate D2E/DX2 analytically  !
 ! R24   R(6,13)                 2.4402         calculate D2E/DX2 analytically  !
 ! R25   R(8,9)                  2.8733         calculate D2E/DX2 analytically  !
 ! R26   R(8,10)                 2.4561         calculate D2E/DX2 analytically  !
 ! R27   R(8,11)                 2.4402         calculate D2E/DX2 analytically  !
 ! R28   R(8,12)                 2.7189         calculate D2E/DX2 analytically  !
 ! R29   R(9,10)                 2.4561         calculate D2E/DX2 analytically  !
 ! R30   R(9,13)                 2.7189         calculate D2E/DX2 analytically  !
 ! R31   R(10,12)                2.4561         calculate D2E/DX2 analytically  !
 ! R32   R(10,13)                2.4561         calculate D2E/DX2 analytically  !
 ! R33   R(11,12)                2.4402         calculate D2E/DX2 analytically  !
 ! R34   R(12,13)                2.8733         calculate D2E/DX2 analytically  !
 ! A1    A(3,2,11)             102.5034         calculate D2E/DX2 analytically  !
 ! A2    A(3,2,12)             153.9931         calculate D2E/DX2 analytically  !
 ! A3    A(3,2,13)             113.563          calculate D2E/DX2 analytically  !
 ! A4    A(4,2,6)              102.5034         calculate D2E/DX2 analytically  !
 ! A5    A(4,2,12)             113.563          calculate D2E/DX2 analytically  !
 ! A6    A(4,2,13)             153.9931         calculate D2E/DX2 analytically  !
 ! A7    A(5,2,7)              107.4876         calculate D2E/DX2 analytically  !
 ! A8    A(5,2,12)              91.017          calculate D2E/DX2 analytically  !
 ! A9    A(5,2,13)              91.017          calculate D2E/DX2 analytically  !
 ! A10   A(6,2,7)              104.0916         calculate D2E/DX2 analytically  !
 ! A11   A(6,2,11)             116.3711         calculate D2E/DX2 analytically  !
 ! A12   A(6,2,12)             114.1113         calculate D2E/DX2 analytically  !
 ! A13   A(7,2,11)             104.0916         calculate D2E/DX2 analytically  !
 ! A14   A(7,2,12)             141.7311         calculate D2E/DX2 analytically  !
 ! A15   A(7,2,13)             141.7311         calculate D2E/DX2 analytically  !
 ! A16   A(11,2,13)            114.1113         calculate D2E/DX2 analytically  !
 ! A17   A(1,3,2)               98.6025         calculate D2E/DX2 analytically  !
 ! A18   A(1,3,6)              100.7789         calculate D2E/DX2 analytically  !
 ! A19   A(1,3,7)              114.7695         calculate D2E/DX2 analytically  !
 ! A20   A(4,3,6)              108.7846         calculate D2E/DX2 analytically  !
 ! A21   A(5,3,7)               98.6025         calculate D2E/DX2 analytically  !
 ! A22   A(6,3,7)              100.7789         calculate D2E/DX2 analytically  !
 ! A23   A(1,4,2)               98.6025         calculate D2E/DX2 analytically  !
 ! A24   A(1,4,7)              114.7695         calculate D2E/DX2 analytically  !
 ! A25   A(1,4,11)             100.7789         calculate D2E/DX2 analytically  !
 ! A26   A(3,4,11)             108.7846         calculate D2E/DX2 analytically  !
 ! A27   A(5,4,7)               98.6025         calculate D2E/DX2 analytically  !
 ! A28   A(7,4,11)             100.7789         calculate D2E/DX2 analytically  !
 ! A29   A(1,5,2)              107.4876         calculate D2E/DX2 analytically  !
 ! A30   A(1,5,6)              104.0916         calculate D2E/DX2 analytically  !
 ! A31   A(1,5,8)              141.7311         calculate D2E/DX2 analytically  !
 ! A32   A(1,5,9)              141.7311         calculate D2E/DX2 analytically  !
 ! A33   A(1,5,11)             104.0916         calculate D2E/DX2 analytically  !
 ! A34   A(2,5,8)               91.017          calculate D2E/DX2 analytically  !
 ! A35   A(2,5,9)               91.017          calculate D2E/DX2 analytically  !
 ! A36   A(3,5,8)              153.9931         calculate D2E/DX2 analytically  !
 ! A37   A(3,5,9)              113.563          calculate D2E/DX2 analytically  !
 ! A38   A(3,5,11)             102.5034         calculate D2E/DX2 analytically  !
 ! A39   A(4,5,6)              102.5034         calculate D2E/DX2 analytically  !
 ! A40   A(4,5,8)              113.563          calculate D2E/DX2 analytically  !
 ! A41   A(4,5,9)              153.9931         calculate D2E/DX2 analytically  !
 ! A42   A(6,5,8)              114.1113         calculate D2E/DX2 analytically  !
 ! A43   A(6,5,11)             116.3711         calculate D2E/DX2 analytically  !
 ! A44   A(9,5,11)             114.1113         calculate D2E/DX2 analytically  !
 ! A45   A(2,6,9)               96.4224         calculate D2E/DX2 analytically  !
 ! A46   A(3,6,9)              129.9099         calculate D2E/DX2 analytically  !
 ! A47   A(3,6,13)             129.9099         calculate D2E/DX2 analytically  !
 ! A48   A(5,6,13)              96.4224         calculate D2E/DX2 analytically  !
 ! A49   A(5,8,10)              98.8781         calculate D2E/DX2 analytically  !
 ! A50   A(5,8,12)              88.983          calculate D2E/DX2 analytically  !
 ! A51   A(9,8,11)             107.0129         calculate D2E/DX2 analytically  !
 ! A52   A(9,8,12)              90.0            calculate D2E/DX2 analytically  !
 ! A53   A(10,8,11)            108.8784         calculate D2E/DX2 analytically  !
 ! A54   A(5,9,10)              98.8781         calculate D2E/DX2 analytically  !
 ! A55   A(5,9,13)              88.983          calculate D2E/DX2 analytically  !
 ! A56   A(6,9,8)              107.0129         calculate D2E/DX2 analytically  !
 ! A57   A(6,9,10)             108.8784         calculate D2E/DX2 analytically  !
 ! A58   A(8,9,13)              90.0            calculate D2E/DX2 analytically  !
 ! A59   A(8,10,13)            107.2792         calculate D2E/DX2 analytically  !
 ! A60   A(9,10,12)            107.2792         calculate D2E/DX2 analytically  !
 ! A61   A(2,11,8)              96.4224         calculate D2E/DX2 analytically  !
 ! A62   A(4,11,8)             129.9099         calculate D2E/DX2 analytically  !
 ! A63   A(4,11,12)            129.9099         calculate D2E/DX2 analytically  !
 ! A64   A(5,11,12)             96.4224         calculate D2E/DX2 analytically  !
 ! A65   A(2,12,8)              88.983          calculate D2E/DX2 analytically  !
 ! A66   A(2,12,10)             98.8781         calculate D2E/DX2 analytically  !
 ! A67   A(8,12,13)             90.0            calculate D2E/DX2 analytically  !
 ! A68   A(10,12,11)           108.8784         calculate D2E/DX2 analytically  !
 ! A69   A(11,12,13)           107.0129         calculate D2E/DX2 analytically  !
 ! A70   A(2,13,9)              88.983          calculate D2E/DX2 analytically  !
 ! A71   A(2,13,10)             98.8781         calculate D2E/DX2 analytically  !
 ! A72   A(6,13,10)            108.8784         calculate D2E/DX2 analytically  !
 ! A73   A(6,13,12)            107.0129         calculate D2E/DX2 analytically  !
 ! A74   A(9,13,12)             90.0            calculate D2E/DX2 analytically  !
 ! D1    D(11,2,3,1)            16.3636         calculate D2E/DX2 analytically  !
 ! D2    D(12,2,3,1)           -19.3631         calculate D2E/DX2 analytically  !
 ! D3    D(13,2,3,1)          -107.2239         calculate D2E/DX2 analytically  !
 ! D4    D(6,2,4,1)            -16.3636         calculate D2E/DX2 analytically  !
 ! D5    D(12,2,4,1)           107.2239         calculate D2E/DX2 analytically  !
 ! D6    D(13,2,4,1)            19.3631         calculate D2E/DX2 analytically  !
 ! D7    D(7,2,5,1)              0.0            calculate D2E/DX2 analytically  !
 ! D8    D(7,2,5,8)            145.9838         calculate D2E/DX2 analytically  !
 ! D9    D(7,2,5,9)           -145.9838         calculate D2E/DX2 analytically  !
 ! D10   D(12,2,5,1)          -145.9838         calculate D2E/DX2 analytically  !
 ! D11   D(12,2,5,8)             0.0            calculate D2E/DX2 analytically  !
 ! D12   D(12,2,5,9)            68.0323         calculate D2E/DX2 analytically  !
 ! D13   D(13,2,5,1)           145.9838         calculate D2E/DX2 analytically  !
 ! D14   D(13,2,5,8)           -68.0323         calculate D2E/DX2 analytically  !
 ! D15   D(13,2,5,9)             0.0            calculate D2E/DX2 analytically  !
 ! D16   D(4,2,6,9)            101.6599         calculate D2E/DX2 analytically  !
 ! D17   D(7,2,6,9)            156.1399         calculate D2E/DX2 analytically  !
 ! D18   D(11,2,6,9)            42.2716         calculate D2E/DX2 analytically  !
 ! D19   D(12,2,6,9)           -21.5602         calculate D2E/DX2 analytically  !
 ! D20   D(3,2,11,8)          -101.6599         calculate D2E/DX2 analytically  !
 ! D21   D(6,2,11,8)           -42.2716         calculate D2E/DX2 analytically  !
 ! D22   D(7,2,11,8)          -156.1399         calculate D2E/DX2 analytically  !
 ! D23   D(13,2,11,8)           21.5602         calculate D2E/DX2 analytically  !
 ! D24   D(3,2,12,8)            -8.2806         calculate D2E/DX2 analytically  !
 ! D25   D(3,2,12,10)          -64.012          calculate D2E/DX2 analytically  !
 ! D26   D(4,2,12,8)           -61.1158         calculate D2E/DX2 analytically  !
 ! D27   D(4,2,12,10)         -116.8472         calculate D2E/DX2 analytically  !
 ! D28   D(5,2,12,8)             0.0            calculate D2E/DX2 analytically  !
 ! D29   D(5,2,12,10)          -55.7314         calculate D2E/DX2 analytically  !
 ! D30   D(6,2,12,8)            55.8821         calculate D2E/DX2 analytically  !
 ! D31   D(6,2,12,10)            0.1507         calculate D2E/DX2 analytically  !
 ! D32   D(7,2,12,8)          -120.5148         calculate D2E/DX2 analytically  !
 ! D33   D(7,2,12,10)         -176.2462         calculate D2E/DX2 analytically  !
 ! D34   D(3,2,13,9)            61.1158         calculate D2E/DX2 analytically  !
 ! D35   D(3,2,13,10)          116.8472         calculate D2E/DX2 analytically  !
 ! D36   D(4,2,13,9)             8.2806         calculate D2E/DX2 analytically  !
 ! D37   D(4,2,13,10)           64.012          calculate D2E/DX2 analytically  !
 ! D38   D(5,2,13,9)             0.0            calculate D2E/DX2 analytically  !
 ! D39   D(5,2,13,10)           55.7314         calculate D2E/DX2 analytically  !
 ! D40   D(7,2,13,9)           120.5148         calculate D2E/DX2 analytically  !
 ! D41   D(7,2,13,10)          176.2462         calculate D2E/DX2 analytically  !
 ! D42   D(11,2,13,9)          -55.8821         calculate D2E/DX2 analytically  !
 ! D43   D(11,2,13,10)          -0.1507         calculate D2E/DX2 analytically  !
 ! D44   D(6,3,4,11)             0.0            calculate D2E/DX2 analytically  !
 ! D45   D(7,3,5,8)             19.3631         calculate D2E/DX2 analytically  !
 ! D46   D(7,3,5,9)            107.2239         calculate D2E/DX2 analytically  !
 ! D47   D(7,3,5,11)           -16.3636         calculate D2E/DX2 analytically  !
 ! D48   D(1,3,6,9)             12.4543         calculate D2E/DX2 analytically  !
 ! D49   D(1,3,6,13)           105.6059         calculate D2E/DX2 analytically  !
 ! D50   D(4,3,6,9)            -46.5758         calculate D2E/DX2 analytically  !
 ! D51   D(4,3,6,13)            46.5758         calculate D2E/DX2 analytically  !
 ! D52   D(7,3,6,9)           -105.6059         calculate D2E/DX2 analytically  !
 ! D53   D(7,3,6,13)           -12.4543         calculate D2E/DX2 analytically  !
 ! D54   D(7,4,5,6)             16.3636         calculate D2E/DX2 analytically  !
 ! D55   D(7,4,5,8)           -107.2239         calculate D2E/DX2 analytically  !
 ! D56   D(7,4,5,9)            -19.3631         calculate D2E/DX2 analytically  !
 ! D57   D(1,4,11,8)           -12.4543         calculate D2E/DX2 analytically  !
 ! D58   D(1,4,11,12)         -105.6059         calculate D2E/DX2 analytically  !
 ! D59   D(3,4,11,8)            46.5758         calculate D2E/DX2 analytically  !
 ! D60   D(3,4,11,12)          -46.5758         calculate D2E/DX2 analytically  !
 ! D61   D(7,4,11,8)           105.6059         calculate D2E/DX2 analytically  !
 ! D62   D(7,4,11,12)           12.4543         calculate D2E/DX2 analytically  !
 ! D63   D(1,5,6,13)          -156.1399         calculate D2E/DX2 analytically  !
 ! D64   D(4,5,6,13)          -101.6599         calculate D2E/DX2 analytically  !
 ! D65   D(8,5,6,13)            21.5602         calculate D2E/DX2 analytically  !
 ! D66   D(11,5,6,13)          -42.2716         calculate D2E/DX2 analytically  !
 ! D67   D(1,5,8,10)           176.2462         calculate D2E/DX2 analytically  !
 ! D68   D(1,5,8,12)           120.5148         calculate D2E/DX2 analytically  !
 ! D69   D(2,5,8,10)            55.7314         calculate D2E/DX2 analytically  !
 ! D70   D(2,5,8,12)             0.0            calculate D2E/DX2 analytically  !
 ! D71   D(3,5,8,10)            64.012          calculate D2E/DX2 analytically  !
 ! D72   D(3,5,8,12)             8.2806         calculate D2E/DX2 analytically  !
 ! D73   D(4,5,8,10)           116.8472         calculate D2E/DX2 analytically  !
 ! D74   D(4,5,8,12)            61.1158         calculate D2E/DX2 analytically  !
 ! D75   D(6,5,8,10)            -0.1507         calculate D2E/DX2 analytically  !
 ! D76   D(6,5,8,12)           -55.8821         calculate D2E/DX2 analytically  !
 ! D77   D(1,5,9,10)          -176.2462         calculate D2E/DX2 analytically  !
 ! D78   D(1,5,9,13)          -120.5148         calculate D2E/DX2 analytically  !
 ! D79   D(2,5,9,10)           -55.7314         calculate D2E/DX2 analytically  !
 ! D80   D(2,5,9,13)             0.0            calculate D2E/DX2 analytically  !
 ! D81   D(3,5,9,10)          -116.8472         calculate D2E/DX2 analytically  !
 ! D82   D(3,5,9,13)           -61.1158         calculate D2E/DX2 analytically  !
 ! D83   D(4,5,9,10)           -64.012          calculate D2E/DX2 analytically  !
 ! D84   D(4,5,9,13)            -8.2806         calculate D2E/DX2 analytically  !
 ! D85   D(11,5,9,10)            0.1507         calculate D2E/DX2 analytically  !
 ! D86   D(11,5,9,13)           55.8821         calculate D2E/DX2 analytically  !
 ! D87   D(1,5,11,12)          156.1399         calculate D2E/DX2 analytically  !
 ! D88   D(3,5,11,12)          101.6599         calculate D2E/DX2 analytically  !
 ! D89   D(6,5,11,12)           42.2716         calculate D2E/DX2 analytically  !
 ! D90   D(9,5,11,12)          -21.5602         calculate D2E/DX2 analytically  !
 ! D91   D(2,6,9,8)            -21.7666         calculate D2E/DX2 analytically  !
 ! D92   D(2,6,9,10)            35.4236         calculate D2E/DX2 analytically  !
 ! D93   D(3,6,9,8)             45.9775         calculate D2E/DX2 analytically  !
 ! D94   D(3,6,9,10)           103.1677         calculate D2E/DX2 analytically  !
 ! D95   D(3,6,13,10)         -103.1677         calculate D2E/DX2 analytically  !
 ! D96   D(3,6,13,12)          -45.9775         calculate D2E/DX2 analytically  !
 ! D97   D(5,6,13,10)          -35.4236         calculate D2E/DX2 analytically  !
 ! D98   D(5,6,13,12)           21.7666         calculate D2E/DX2 analytically  !
 ! D99   D(11,8,9,6)             0.0            calculate D2E/DX2 analytically  !
 ! D100  D(11,8,9,13)          -54.3667         calculate D2E/DX2 analytically  !
 ! D101  D(12,8,9,6)            54.3667         calculate D2E/DX2 analytically  !
 ! D102  D(12,8,9,13)            0.0            calculate D2E/DX2 analytically  !
 ! D103  D(5,8,10,13)          -22.0897         calculate D2E/DX2 analytically  !
 ! D104  D(11,8,10,13)          39.8061         calculate D2E/DX2 analytically  !
 ! D105  D(9,8,11,2)            21.7666         calculate D2E/DX2 analytically  !
 ! D106  D(9,8,11,4)           -45.9775         calculate D2E/DX2 analytically  !
 ! D107  D(10,8,11,2)          -35.4236         calculate D2E/DX2 analytically  !
 ! D108  D(10,8,11,4)         -103.1677         calculate D2E/DX2 analytically  !
 ! D109  D(5,8,12,2)             0.0            calculate D2E/DX2 analytically  !
 ! D110  D(5,8,12,13)           55.9838         calculate D2E/DX2 analytically  !
 ! D111  D(9,8,12,2)           -55.9838         calculate D2E/DX2 analytically  !
 ! D112  D(9,8,12,13)            0.0            calculate D2E/DX2 analytically  !
 ! D113  D(5,9,10,12)           22.0897         calculate D2E/DX2 analytically  !
 ! D114  D(6,9,10,12)          -39.8061         calculate D2E/DX2 analytically  !
 ! D115  D(5,9,13,2)             0.0            calculate D2E/DX2 analytically  !
 ! D116  D(5,9,13,12)          -55.9838         calculate D2E/DX2 analytically  !
 ! D117  D(8,9,13,2)            55.9838         calculate D2E/DX2 analytically  !
 ! D118  D(8,9,13,12)            0.0            calculate D2E/DX2 analytically  !
 ! D119  D(9,10,12,2)           22.0897         calculate D2E/DX2 analytically  !
 ! D120  D(9,10,12,11)         -39.8061         calculate D2E/DX2 analytically  !
 ! D121  D(8,10,13,2)          -22.0897         calculate D2E/DX2 analytically  !
 ! D122  D(8,10,13,6)           39.8061         calculate D2E/DX2 analytically  !
 ! D123  D(4,11,12,10)         103.1677         calculate D2E/DX2 analytically  !
 ! D124  D(4,11,12,13)          45.9775         calculate D2E/DX2 analytically  !
 ! D125  D(5,11,12,10)          35.4236         calculate D2E/DX2 analytically  !
 ! D126  D(5,11,12,13)         -21.7666         calculate D2E/DX2 analytically  !
 ! D127  D(8,12,13,6)          -54.3667         calculate D2E/DX2 analytically  !
 ! D128  D(8,12,13,9)            0.0            calculate D2E/DX2 analytically  !
 ! D129  D(11,12,13,6)           0.0            calculate D2E/DX2 analytically  !
 ! D130  D(11,12,13,9)          54.3667         calculate D2E/DX2 analytically  !
 --------------------------------------------------------------------------------
 Trust Radius=3.00D-01 FncErr=1.00D-07 GrdErr=1.00D-06
 Number of steps in this run= 100 maximum allowed number of steps= 100.
 GradGradGradGradGradGradGradGradGradGradGradGradGradGradGradGradGradGrad

                          Input orientation:                          
 ---------------------------------------------------------------------
 Center     Atomic      Atomic             Coordinates (Angstroms)
 Number     Number       Type             X           Y           Z
 ---------------------------------------------------------------------
      1         14           0        0.000000    2.036829   -2.560398
      2         14           0        0.000000   -1.313848   -0.265659
      3         14           0        1.302914    0.000000   -2.525868
      4         14           0       -1.302914    0.000000   -2.525868
      5         14           0        0.000000    1.313848   -0.265659
      6         14           0        2.150622    0.000000   -0.033547
      7         14           0        0.000000   -2.036829   -2.560398
      8         14           0       -1.436649    1.359435    1.862966
      9         14           0        1.436649    1.359435    1.862966
     10         14           0        0.000000    0.000000    3.319080
     11         14           0       -2.150622    0.000000   -0.033547
     12         14           0       -1.436649   -1.359435    1.862966
     13         14           0        1.436649   -1.359435    1.862966
 ---------------------------------------------------------------------
                    Distance matrix (angstroms):
                    1          2          3          4          5
     1  Si   0.000000
     2  Si   4.061141   0.000000
     3  Si   2.418150   2.921015   0.000000
     4  Si   2.418150   2.921015   2.605828   0.000000
     5  Si   2.405936   2.627696   2.921015   2.921015   0.000000
     6  Si   3.893433   2.530859   2.632541   4.258940   2.530859
     7  Si   4.073658   2.405936   2.418150   2.418150   4.061141
     8  Si   4.699890   3.706946   5.349312   4.596500   2.568478
     9  Si   4.699890   3.706946   4.596500   5.349312   2.568478
    10  Si   6.222293   3.817924   5.988406   5.988406   3.817924
    11  Si   3.893433   2.530859   4.258940   2.632541   2.530859
    12  Si   5.758882   2.568478   5.349312   4.596500   3.706946
    13  Si   5.758882   2.568478   4.596500   5.349312   3.706946
                    6          7          8          9         10
     6  Si   0.000000
     7  Si   3.893433   0.000000
     8  Si   4.279409   5.758882   0.000000
     9  Si   2.440202   5.758882   2.873298   0.000000
    10  Si   3.983125   6.222293   2.456073   2.456073   0.000000
    11  Si   4.301244   3.893433   2.440202   4.279409   3.983125
    12  Si   4.279409   4.699890   2.718871   3.955768   2.456073
    13  Si   2.440202   4.699890   3.955768   2.718871   2.456073
                   11         12         13
    11  Si   0.000000
    12  Si   2.440202   0.000000
    13  Si   4.279409   2.873298   0.000000
 Stoichiometry    Si13(1-,2)
 Framework group  C2V[C2(Si),SGV(Si4),SGV'(Si4),X(Si4)]
 Deg. of freedom    11
 Full point group                 C2V     NOp   4
 Largest Abelian subgroup         C2V     NOp   4
 Largest concise Abelian subgroup C2V     NOp   4
                         Standard orientation:                         
 ---------------------------------------------------------------------
 Center     Atomic      Atomic             Coordinates (Angstroms)
 Number     Number       Type             X           Y           Z
 ---------------------------------------------------------------------
      1         14           0        0.000000    2.036829   -2.560398
      2         14           0        0.000000   -1.313848   -0.265659
      3         14           0        1.302914    0.000000   -2.525868
      4         14           0       -1.302914    0.000000   -2.525868
      5         14           0        0.000000    1.313848   -0.265659
      6         14           0        2.150622    0.000000   -0.033547
      7         14           0        0.000000   -2.036829   -2.560398
      8         14           0       -1.436649    1.359435    1.862966
      9         14           0        1.436649    1.359435    1.862966
     10         14           0        0.000000    0.000000    3.319080
     11         14           0       -2.150622    0.000000   -0.033547
     12         14           0       -1.436649   -1.359435    1.862966
     13         14           0        1.436649   -1.359435    1.862966
 ---------------------------------------------------------------------
 Rotational constants (GHZ):      0.4511143      0.2578544      0.2515374
 Standard basis: 6-31G(d) (6D, 7F)
 There are    85 symmetry adapted basis functions of A1  symmetry.
 There are    40 symmetry adapted basis functions of A2  symmetry.
 There are    61 symmetry adapted basis functions of B1  symmetry.
 There are    61 symmetry adapted basis functions of B2  symmetry.
 Integral buffers will be    131072 words long.
 Raffenetti 2 integral format.
 Two-electron integral symmetry is turned on.
   247 basis functions,   676 primitive gaussians,   247 cartesian basis functions
    92 alpha electrons       91 beta electrons
       nuclear repulsion energy      2390.5060291192 Hartrees.
 NAtoms=   13 NActive=   13 NUniq=    6 SFac= 3.00D+00 NAtFMM=   80 NAOKFM=F Big=F
 One-electron integrals computed using PRISM.
 NBasis=   247 RedAO= T  NBF=    85    40    61    61
 NBsUse=   247 1.00D-06 NBFU=    85    40    61    61
 Harris functional with IExCor=  402 diagonalized for initial guess.
 ExpMin= 7.78D-02 ExpMax= 1.61D+04 ExpMxC= 2.43D+03 IAcc=2 IRadAn=         0 AccDes= 0.00D+00
 HarFok:  IExCor=  402 AccDes= 0.00D+00 IRadAn=         0 IDoV= 1
 ScaDFX=  1.000000  1.000000  1.000000  1.000000
 FoFCou: FMM=F IPFlag=           0 FMFlag=      100000 FMFlg1=           0
         NFxFlg=           0 DoJE=T BraDBF=F KetDBF=T FulRan=T
         Omega=  0.000000  0.000000  1.000000  0.000000  0.000000 ICntrl=     500 IOpCl=  0
         NMat0=    1 NMatS0=    1 NMatT0=    0 NMatD0=    1 NMtDS0=    0 NMtDT0=    0
         I1Cent=           4 NGrid=           0.
 Petite list used in FoFCou.
 Initial guess orbital symmetries:
 Alpha Orbitals:
       Occupied  (B2) (A1) (B1) (A1) (B1) (A1) (A1) (A2) (B2) (B1)
                 (A1) (B2) (A1) (A1) (B2) (B1) (A1) (A1) (B1) (A1)
                 (A2) (B2) (B1) (A1) (B2) (A1) (A1) (B2) (B1) (A2)
                 (A1) (B2) (B1) (A1) (A1) (B1) (B2) (A2) (B2) (A2)
                 (A1) (B1) (A1) (B1) (B2) (A1) (B1) (A1) (B2) (B1)
                 (A2) (A2) (A1) (B2) (B1) (B2) (A2) (B1) (A1) (A1)
                 (B2) (A1) (B2) (B1) (A2) (A1) (A1) (B1) (B2) (A1)
                 (B2) (B1) (A1) (A2) (A1) (B1) (B2) (A1) (A1) (A2)
                 (A1) (B2) (B1) (B1) (A1) (B2) (A2) (B2) (B1) (A1)
                 (A1) (B2)
       Virtual   (B1) (A1) (B1) (A2) (B2) (A1) (B1) (A1) (B2) (A2)
                 (A2) (A1) (B2) (B1) (A1) (B1) (A1) (B2) (A2) (B1)
                 (B2) (A1) (A2) (B1) (B2) (A1) (B1) (B2) (A1) (A2)
                 (B2) (B1) (A1) (A2) (A1) (B2) (B1) (A1) (B1) (B2)
                 (A1) (A2) (B1) (A1) (A1) (B2) (A1) (A2) (A1) (B2)
                 (B1) (A1) (B1) (A2) (B2) (A1) (B1) (B2) (A1) (A2)
                 (B2) (B1) (A1) (A2) (B1) (A1) (B2) (B1) (A2) (B2)
                 (B1) (B2) (A1) (A1) (A2) (B1) (B1) (B2) (A2) (A1)
                 (B2) (A1) (B1) (B2) (A2) (A1) (B2) (A2) (A1) (B1)
                 (A1) (B1) (B2) (A1) (A1) (A2) (B1) (B2) (A2) (B1)
                 (B2) (A1) (A1) (B1) (A2) (B1) (A1) (B2) (A1) (A1)
                 (A2) (B1) (B2) (A1) (A1) (B2) (A2) (B2) (B1) (A2)
                 (B1) (B2) (A1) (A2) (A1) (B1) (A2) (B1) (A1) (B2)
                 (A2) (B2) (A2) (B1) (B1) (B2) (A1) (B1) (B2) (A1)
                 (B2) (A1) (A1) (A1) (B1) (A2) (B2) (A1) (B1) (A1)
                 (B2) (B2) (B1) (A1) (A1)
 Beta  Orbitals:
       Occupied  (B2) (A1) (B1) (A1) (B1) (A1) (A1) (A2) (B2) (B1)
                 (A1) (B2) (A1) (A1) (B2) (B1) (A1) (A1) (B1) (A1)
                 (A2) (B2) (B1) (A1) (B2) (A1) (A1) (B2) (B1) (A2)
                 (A1) (B2) (B1) (A1) (A1) (B1) (B2) (A2) (B2) (A2)
                 (A1) (B1) (A1) (B1) (B2) (A1) (B1) (A1) (B2) (B1)
                 (A2) (A2) (A1) (B2) (B1) (B2) (A2) (B1) (A1) (A1)
                 (B2) (A1) (B2) (B1) (A2) (A1) (A1) (B1) (B2) (A1)
                 (B2) (B1) (A1) (A2) (A1) (B1) (B2) (A1) (A1) (A2)
                 (A1) (B2) (B1) (B1) (A1) (B2) (A2) (B2) (B1) (A1)
                 (A1)
       Virtual   (B2) (B1) (A1) (B1) (A2) (B2) (A1) (B1) (A1) (B2)
                 (A2) (A2) (A1) (B2) (B1) (A1) (B1) (A1) (B2) (A2)
                 (B1) (B2) (A1) (A2) (B1) (B2) (A1) (B1) (B2) (A1)
                 (A2) (B2) (B1) (A1) (A2) (A1) (B2) (B1) (A1) (B1)
                 (B2) (A1) (A2) (B1) (A1) (A1) (B2) (A1) (A2) (A1)
                 (B2) (B1) (A1) (B1) (A2) (B2) (A1) (B1) (B2) (A1)
                 (A2) (B2) (B1) (A1) (A2) (B1) (A1) (B2) (B1) (A2)
                 (B2) (B1) (B2) (A1) (A1) (A2) (B1) (B1) (B2) (A2)
                 (A1) (B2) (A1) (B1) (B2) (A2) (A1) (B2) (A2) (A1)
                 (B1) (A1) (B1) (B2) (A1) (A1) (A2) (B1) (B2) (A2)
                 (B1) (B2) (A1) (A1) (B1) (A2) (B1) (A1) (B2) (A1)
                 (A1) (A2) (B1) (B2) (A1) (A1) (B2) (A2) (B2) (B1)
                 (A2) (B1) (B2) (A1) (A2) (A1) (B1) (A2) (B1) (A1)
                 (B2) (A2) (B2) (A2) (B1) (B1) (B2) (A1) (B1) (B2)
                 (A1) (B2) (A1) (A1) (A1) (B1) (A2) (B2) (A1) (B1)
                 (A1) (B2) (B2) (B1) (A1) (A1)
 The electronic state of the initial guess is 2-B2.
 Initial guess <Sx>= 0.0000 <Sy>= 0.0000 <Sz>= 0.5000 <S**2>= 0.7500 S= 0.5000
 Requested convergence on RMS density matrix=1.00D-08 within 128 cycles.
 Requested convergence on MAX density matrix=1.00D-06.
 Requested convergence on             energy=1.00D-06.
 No special actions if energy rises.
 Integral accuracy reduced to 1.0D-05 until final iterations.
 EnCoef did     6 forward-backward iterations
 Initial convergence to 1.0D-05 achieved.  Increase integral accuracy.
 SCF Done:  E(UB3LYP) =  -3763.41954923     A.U. after   20 cycles
             Convg  =    0.8974D-08             -V/T =  2.0035
 <Sx>= 0.0000 <Sy>= 0.0000 <Sz>= 0.5000 <S**2>= 0.7553 S= 0.5026
 <L.S>= 0.000000000000E+00
 Annihilation of the first spin contaminant:
 S**2 before annihilation     0.7553,   after     0.7500
 Range of M.O.s used for correlation:     1   247
 NBasis=   247 NAE=    92 NBE=    91 NFC=     0 NFV=     0
 NROrb=    247 NOA=    92 NOB=    91 NVA=   155 NVB=   156

 **** Warning!!: The smallest alpha delta epsilon is  0.58015441D-01


 **** Warning!!: The smallest beta delta epsilon is  0.75775105D-01

 Symmetrizing basis deriv contribution to polar:
 IMax=3 JMax=2 DiffMx= 0.00D+00
 G2DrvN: will do    14 centers at a time, making    1 passes doing MaxLOS=2.
 Calling FoFCou, ICntrl=  3107 FMM=F I1Cent=   0 AccDes= 0.00D+00.
 FoFDir/FoFCou used for L=0 through L=2.
 End of G2Drv Frequency-dependent properties file   721 does not exist.
 End of G2Drv Frequency-dependent properties file   722 does not exist.
          IDoAtm=1111111111111
          Differentiating once with respect to electric field.
                with respect to dipole field.
          Differentiating once with respect to nuclear coordinates.
          There are    21 degrees of freedom in the 1st order CPHF.  IDoFFX=4.
     21 vectors produced by pass  0 Test12= 1.36D-13 4.76D-09 XBig12= 5.16D+03 2.18D+01.
 AX will form    21 AO Fock derivatives at one time.
     21 vectors produced by pass  1 Test12= 1.36D-13 4.76D-09 XBig12= 3.64D+03 1.05D+01.
     21 vectors produced by pass  2 Test12= 1.36D-13 4.76D-09 XBig12= 1.67D+02 2.01D+00.
     21 vectors produced by pass  3 Test12= 1.36D-13 4.76D-09 XBig12= 2.16D+01 9.90D-01.
     21 vectors produced by pass  4 Test12= 1.36D-13 4.76D-09 XBig12= 7.74D-01 1.91D-01.
     21 vectors produced by pass  5 Test12= 1.36D-13 4.76D-09 XBig12= 3.26D-02 3.82D-02.
     21 vectors produced by pass  6 Test12= 1.36D-13 4.76D-09 XBig12= 1.26D-03 4.82D-03.
     21 vectors produced by pass  7 Test12= 1.36D-13 4.76D-09 XBig12= 3.08D-05 7.43D-04.
     21 vectors produced by pass  8 Test12= 1.36D-13 4.76D-09 XBig12= 5.72D-07 1.18D-04.
     21 vectors produced by pass  9 Test12= 1.36D-13 4.76D-09 XBig12= 1.02D-08 1.73D-05.
      8 vectors produced by pass 10 Test12= 1.36D-13 4.76D-09 XBig12= 1.61D-10 1.37D-06.
      3 vectors produced by pass 11 Test12= 1.36D-13 4.76D-09 XBig12= 2.48D-12 1.93D-07.
      3 vectors produced by pass 12 Test12= 1.36D-13 4.76D-09 XBig12= 3.22D-14 2.40D-08.
 Inverted reduced A of dimension   224 with in-core refinement.
 Isotropic polarizability for W=    0.000000      407.43 Bohr**3.
 End of Minotr Frequency-dependent properties file   721 does not exist.
 End of Minotr Frequency-dependent properties file   722 does not exist.
 Calling FoFJK, ICntrl=    100127 FMM=F ISym2X=1 I1Cent= 0 IOpClX= 1 NMat=1 NMatS=1 NMatT=0.
 ***** Axes restored to original set *****
 -------------------------------------------------------------------
 Center     Atomic                   Forces (Hartrees/Bohr)
 Number     Number              X              Y              Z
 -------------------------------------------------------------------
      1       14           0.000000000    0.001907450   -0.002008020
      2       14           0.000000000   -0.008954779    0.007419917
      3       14          -0.000224812    0.000000000   -0.000791896
      4       14           0.000224812    0.000000000   -0.000791896
      5       14           0.000000000    0.008954779    0.007419917
      6       14          -0.005096914    0.000000000   -0.000817598
      7       14           0.000000000   -0.001907450   -0.002008020
      8       14           0.004394561    0.014351016   -0.000751781
      9       14          -0.004394561    0.014351016   -0.000751781
     10       14           0.000000000    0.000000000   -0.004597684
     11       14           0.005096914    0.000000000   -0.000817598
     12       14           0.004394561   -0.014351016   -0.000751781
     13       14          -0.004394561   -0.014351016   -0.000751781
 -------------------------------------------------------------------
 Cartesian Forces:  Max     0.014351016 RMS     0.005695098

 GradGradGradGradGradGradGradGradGradGradGradGradGradGradGradGradGradGrad
 Berny optimization.
 Internal  Forces:  Max     0.009542095 RMS     0.001332342
 Search for a local minimum.
 Step number   1 out of a maximum of  100
 All quantities printed in internal units (Hartrees-Bohrs-Radians)
 Mixed Optimization -- RFO/linear search
 Second derivative matrix not updated -- analytic derivatives used.
     Eigenvalues ---   -0.00141   0.00030   0.00221   0.00357   0.00394
     Eigenvalues ---    0.00445   0.00599   0.00672   0.00762   0.00855
     Eigenvalues ---    0.00980   0.01345   0.01410   0.01611   0.01670
     Eigenvalues ---    0.02215   0.02269   0.02471   0.02506   0.02609
     Eigenvalues ---    0.02905   0.02972   0.03268   0.03295   0.03374
     Eigenvalues ---    0.04242   0.04381   0.04529   0.04634   0.04788
     Eigenvalues ---    0.05201   0.06868   0.070901000.000001000.00000
     Eigenvalues --- 1000.000001000.000001000.000001000.000001000.00000
     Eigenvalues --- 1000.000001000.000001000.000001000.000001000.00000
     Eigenvalues --- 1000.000001000.000001000.000001000.000001000.00000
     Eigenvalues --- 1000.000001000.000001000.000001000.000001000.00000
     Eigenvalues --- 1000.000001000.000001000.000001000.000001000.00000
     Eigenvalues --- 1000.000001000.000001000.000001000.000001000.00000
     Eigenvalues --- 1000.000001000.000001000.000001000.000001000.00000
     Eigenvalues --- 1000.000001000.000001000.000001000.000001000.00000
     Eigenvalues --- 1000.000001000.000001000.000001000.000001000.00000
     Eigenvalues --- 1000.000001000.000001000.000001000.000001000.00000
     Eigenvalues --- 1000.000001000.000001000.000001000.000001000.00000
     Eigenvalues --- 1000.000001000.000001000.000001000.000001000.00000
     Eigenvalues --- 1000.000001000.000001000.000001000.000001000.00000
     Eigenvalues --- 1000.000001000.000001000.000001000.000001000.00000
     Eigenvalues --- 1000.000001000.000001000.000001000.000001000.00000
     Eigenvalues --- 1000.000001000.000001000.000001000.000001000.00000
     Eigenvalues --- 1000.000001000.000001000.000001000.000001000.00000
     Eigenvalues --- 1000.000001000.000001000.000001000.000001000.00000
     Eigenvalues --- 1000.000001000.000001000.000001000.000001000.00000
     Eigenvalues --- 1000.000001000.000001000.000001000.000001000.00000
     Eigenvalues --- 1000.000001000.000001000.000001000.000001000.00000
     Eigenvalues --- 1000.000001000.000001000.000001000.000001000.00000
     Eigenvalues --- 1000.000001000.000001000.000001000.000001000.00000
     Eigenvalues --- 1000.000001000.000001000.000001000.000001000.00000
     Eigenvalues --- 1000.000001000.000001000.000001000.000001000.00000
     Eigenvalues --- 1000.000001000.000001000.000001000.000001000.00000
     Eigenvalues --- 1000.000001000.000001000.000001000.000001000.00000
     Eigenvalues --- 1000.000001000.000001000.000001000.000001000.00000
     Eigenvalues --- 1000.000001000.000001000.000001000.000001000.00000
     Eigenvalues --- 1000.000001000.000001000.000001000.000001000.00000
     Eigenvalues --- 1000.000001000.000001000.000001000.000001000.00000
     Eigenvalues --- 1000.000001000.000001000.000001000.000001000.00000
     Eigenvalues --- 1000.000001000.000001000.000001000.000001000.00000
     Eigenvalues --- 1000.000001000.000001000.000001000.000001000.00000
     Eigenvalues --- 1000.000001000.000001000.000001000.000001000.00000
     Eigenvalues --- 1000.000001000.000001000.000001000.000001000.00000
     Eigenvalues --- 1000.000001000.000001000.000001000.000001000.00000
     Eigenvalues --- 1000.000001000.000001000.000001000.000001000.00000
     Eigenvalues --- 1000.000001000.000001000.000001000.000001000.00000
     Eigenvalues --- 1000.000001000.000001000.000001000.000001000.00000
     Eigenvalues --- 1000.000001000.000001000.00000
 RFO step:  Lambda=-1.22813412D-02 EMin=-1.40641412D-03
 Linear search not attempted -- first point.
 Maximum step size (   0.300) exceeded in Quadratic search.
    -- Step size scaled by   0.308
 Iteration  1 RMS(Cart)=  0.01086453 RMS(Int)=  0.00022890
 Iteration  2 RMS(Cart)=  0.00010869 RMS(Int)=  0.00013302
 Iteration  3 RMS(Cart)=  0.00000001 RMS(Int)=  0.00013302
 ClnCor:  largest displacement from symmetrization is 9.29D-02 for atom     9.
 Variable       Old X    -DE/DX   Delta X   Delta X   Delta X     New X
                                 (Linear)    (Quad)   (Total)
    R1        4.56964   0.00116   0.00000   0.00603   0.01539   4.58503
    R2        4.56964   0.00116   0.00000  -0.00606   0.01539   4.58503
    R3        4.54656   0.00135   0.00000   0.00738   0.00723   4.55379
    R4        5.51992   0.00114   0.00000   0.03835   0.02758   5.54750
    R5        5.51992   0.00114   0.00000  -0.00555   0.02758   5.54750
    R6        4.96563   0.00552   0.00000   0.04718   0.04711   5.01274
    R7        4.78263  -0.00061   0.00000   0.00091  -0.01948   4.76315
    R8        4.54656   0.00135   0.00000   0.00738   0.00723   4.55379
    R9        4.78263  -0.00061   0.00000  -0.01625  -0.01948   4.76315
   R10        4.85372  -0.00251   0.00000  -0.00456   0.00864   4.86236
   R11        4.85372  -0.00251   0.00000  -0.04765   0.00864   4.86236
   R12        4.92430  -0.00238   0.00000  -0.00161   0.05550   4.97980
   R13        5.51992   0.00114   0.00000   0.03835   0.02758   5.54750
   R14        4.97478  -0.00088   0.00000  -0.01758  -0.01737   4.95741
   R15        4.56964   0.00116   0.00000   0.00603   0.01539   4.58503
   R16        5.51992   0.00114   0.00000  -0.00555   0.02758   5.54750
   R17        4.56964   0.00116   0.00000  -0.00606   0.01539   4.58503
   R18        4.97478  -0.00088   0.00000   0.01038  -0.01737   4.95741
   R19        4.78263  -0.00061   0.00000   0.00091  -0.01948   4.76315
   R20        4.85372  -0.00251   0.00000  -0.00456   0.00864   4.86236
   R21        4.85372  -0.00251   0.00000  -0.04765   0.00864   4.86236
   R22        4.78263  -0.00061   0.00000  -0.01625  -0.01948   4.76315
   R23        4.61131   0.00172   0.00000   0.00419   0.00731   4.61863
   R24        4.61131   0.00172   0.00000   0.00419   0.00731   4.61863
   R25        5.42975  -0.00305   0.00000  -0.03746  -0.00162   5.42813
   R26        4.64131  -0.00027   0.00000   0.00834  -0.02544   4.61587
   R27        4.61131   0.00172   0.00000   0.01763   0.00731   4.61863
   R28        5.13792   0.00954   0.00000   0.02554   0.02559   5.16351
   R29        4.64131  -0.00027   0.00000  -0.01009  -0.02544   4.61587
   R30        5.13792   0.00954   0.00000   0.14578   0.02559   5.16351
   R31        4.64131  -0.00027   0.00000   0.00834  -0.02544   4.61587
   R32        4.64131  -0.00027   0.00000  -0.01009  -0.02544   4.61587
   R33        4.61131   0.00172   0.00000   0.01763   0.00731   4.61863
   R34        5.42975  -0.00305   0.00000  -0.03746  -0.00162   5.42813
    A1        1.78902  -0.00113   0.00000  -0.00119  -0.00430   1.78473
    A2        2.68769  -0.00006   0.00000  -0.00146  -0.00367   2.68402
    A3        1.98205   0.00037   0.00000  -0.00569  -0.00402   1.97803
    A4        1.78902  -0.00113   0.00000  -0.01428  -0.00430   1.78473
    A5        1.98205   0.00037   0.00000   0.01167  -0.00402   1.97803
    A6        2.68769  -0.00006   0.00000   0.00302  -0.00367   2.68402
    A7        1.87601  -0.00024   0.00000  -0.00586  -0.00585   1.87016
    A8        1.58855   0.00042   0.00000  -0.00221  -0.00224   1.58630
    A9        1.58855   0.00042   0.00000   0.01033  -0.00224   1.58630
   A10        1.81674  -0.00014   0.00000  -0.00984  -0.00083   1.81591
   A11        2.03106  -0.00140   0.00000  -0.01306  -0.01636   2.01470
   A12        1.99162   0.00021   0.00000  -0.00687  -0.00483   1.98679
   A13        1.81674  -0.00014   0.00000   0.00632  -0.00083   1.81591
   A14        2.47367  -0.00009   0.00000   0.01649   0.00485   2.47852
   A15        2.47367  -0.00009   0.00000  -0.01390   0.00485   2.47852
   A16        1.99162   0.00021   0.00000   0.00714  -0.00483   1.98679
   A17        1.72094   0.00099   0.00000  -0.00214  -0.00155   1.71939
   A18        1.75892   0.00000   0.00000  -0.00407  -0.00333   1.75559
   A19        2.00311   0.00093   0.00000  -0.00382  -0.01022   1.99289
   A20        1.89865  -0.00017   0.00000  -0.01177  -0.01263   1.88602
   A21        1.72094   0.00099   0.00000  -0.00214  -0.00155   1.71939
   A22        1.75892   0.00000   0.00000  -0.00407  -0.00333   1.75559
   A23        1.72094   0.00099   0.00000   0.01139  -0.00155   1.71939
   A24        2.00311   0.00093   0.00000   0.00445  -0.01022   1.99289
   A25        1.75892   0.00000   0.00000   0.00235  -0.00333   1.75559
   A26        1.89865  -0.00017   0.00000   0.00285  -0.01263   1.88602
   A27        1.72094   0.00099   0.00000   0.01139  -0.00155   1.71939
   A28        1.75892   0.00000   0.00000   0.00235  -0.00333   1.75559
   A29        1.87601  -0.00024   0.00000  -0.00586  -0.00585   1.87016
   A30        1.81674  -0.00014   0.00000  -0.00984  -0.00083   1.81591
   A31        2.47367  -0.00009   0.00000   0.01649   0.00485   2.47852
   A32        2.47367  -0.00009   0.00000  -0.01390   0.00485   2.47852
   A33        1.81674  -0.00014   0.00000   0.00632  -0.00083   1.81591
   A34        1.58855   0.00042   0.00000  -0.00221  -0.00224   1.58630
   A35        1.58855   0.00042   0.00000   0.01033  -0.00224   1.58630
   A36        2.68769  -0.00006   0.00000  -0.00146  -0.00367   2.68402
   A37        1.98205   0.00037   0.00000  -0.00569  -0.00402   1.97803
   A38        1.78902  -0.00113   0.00000  -0.00119  -0.00430   1.78473
   A39        1.78902  -0.00113   0.00000  -0.01428  -0.00430   1.78473
   A40        1.98205   0.00037   0.00000   0.01167  -0.00402   1.97803
   A41        2.68769  -0.00006   0.00000   0.00302  -0.00367   2.68402
   A42        1.99162   0.00021   0.00000  -0.00687  -0.00483   1.98679
   A43        2.03106  -0.00140   0.00000  -0.01306  -0.01636   2.01470
   A44        1.99162   0.00021   0.00000   0.00714  -0.00483   1.98679
   A45        1.68289   0.00092   0.00000   0.01029   0.01339   1.69628
   A46        2.26736  -0.00037   0.00000  -0.00473   0.01423   2.28159
   A47        2.26736  -0.00037   0.00000  -0.00473   0.01423   2.28159
   A48        1.68289   0.00092   0.00000   0.01029   0.01339   1.69628
   A49        1.72575  -0.00066   0.00000  -0.01111  -0.00654   1.71921
   A50        1.55305  -0.00042   0.00000   0.00221   0.00224   1.55529
   A51        1.86773  -0.00029   0.00000  -0.00578  -0.00872   1.85901
   A52        1.57080   0.00000   0.00000   0.01107   0.00000   1.57080
   A53        1.90029  -0.00225   0.00000  -0.00974  -0.01469   1.88559
   A54        1.72575  -0.00066   0.00000   0.00414  -0.00654   1.71921
   A55        1.55305  -0.00042   0.00000  -0.01033   0.00224   1.55529
   A56        1.86773  -0.00029   0.00000   0.00240  -0.00872   1.85901
   A57        1.90029  -0.00225   0.00000  -0.02935  -0.01469   1.88559
   A58        1.57080   0.00000   0.00000  -0.01107   0.00000   1.57080
   A59        1.87237   0.00174   0.00000   0.01202   0.02113   1.89350
   A60        1.87237   0.00174   0.00000   0.01202   0.02113   1.89350
   A61        1.68289   0.00092   0.00000   0.00720   0.01339   1.69628
   A62        2.26736  -0.00037   0.00000  -0.00038   0.01423   2.28159
   A63        2.26736  -0.00037   0.00000  -0.00038   0.01423   2.28159
   A64        1.68289   0.00092   0.00000   0.00720   0.01339   1.69628
   A65        1.55305  -0.00042   0.00000   0.00221   0.00224   1.55529
   A66        1.72575  -0.00066   0.00000  -0.01111  -0.00654   1.71921
   A67        1.57080   0.00000   0.00000   0.01107   0.00000   1.57080
   A68        1.90029  -0.00225   0.00000  -0.00974  -0.01469   1.88559
   A69        1.86773  -0.00029   0.00000  -0.00578  -0.00872   1.85901
   A70        1.55305  -0.00042   0.00000  -0.01033   0.00224   1.55529
   A71        1.72575  -0.00066   0.00000   0.00414  -0.00654   1.71921
   A72        1.90029  -0.00225   0.00000  -0.02935  -0.01469   1.88559
   A73        1.86773  -0.00029   0.00000   0.00240  -0.00872   1.85901
   A74        1.57080   0.00000   0.00000  -0.01107   0.00000   1.57080
    D1        0.28560  -0.00025   0.00000  -0.01080  -0.01327   0.27233
    D2       -0.33795   0.00064   0.00000  -0.03242  -0.01815  -0.35610
    D3       -1.87141   0.00005   0.00000  -0.01559  -0.00234  -1.87375
    D4       -0.28560   0.00025   0.00000   0.00160   0.01327  -0.27233
    D5        1.87141  -0.00005   0.00000  -0.00990   0.00234   1.87375
    D6        0.33795  -0.00064   0.00000  -0.03001   0.01815   0.35610
    D7        0.00000   0.00000   0.00000   0.00000   0.00000   0.00000
    D8        2.54790   0.00002   0.00000   0.01492   0.00142   2.54932
    D9       -2.54790  -0.00002   0.00000   0.01296  -0.00142  -2.54932
   D10       -2.54790  -0.00002   0.00000  -0.01492  -0.00142  -2.54932
   D11        0.00000   0.00000   0.00000   0.00000   0.00000   0.00000
   D12        1.18739  -0.00005   0.00000  -0.00196  -0.00285   1.18454
   D13        2.54790   0.00002   0.00000  -0.01296   0.00142   2.54932
   D14       -1.18739   0.00005   0.00000   0.00196   0.00285  -1.18454
   D15        0.00000   0.00000   0.00000   0.00000   0.00000   0.00000
   D16        1.77430  -0.00096   0.00000  -0.01496  -0.00220   1.77210
   D17        2.72515  -0.00112   0.00000  -0.01912  -0.00371   2.72145
   D18        0.73778  -0.00017   0.00000  -0.01395   0.00578   0.74356
   D19       -0.37630  -0.00076   0.00000  -0.01576   0.00826  -0.36804
   D20       -1.77430   0.00096   0.00000   0.00582   0.00220  -1.77210
   D21       -0.73778   0.00017   0.00000  -0.00438  -0.00578  -0.74356
   D22       -2.72515   0.00112   0.00000   0.00996   0.00371  -2.72145
   D23        0.37630   0.00076   0.00000   0.00201  -0.00826   0.36804
   D24       -0.14452  -0.00044   0.00000   0.02899   0.01282  -0.13170
   D25       -1.11722   0.00086   0.00000   0.02927   0.01870  -1.09852
   D26       -1.06667   0.00038   0.00000   0.00954   0.00271  -1.06396
   D27       -2.03937   0.00168   0.00000   0.00983   0.00859  -2.03078
   D28        0.00000   0.00000   0.00000   0.00000   0.00000   0.00000
   D29       -0.97270   0.00130   0.00000   0.00029   0.00588  -0.96681
   D30        0.97533  -0.00069   0.00000  -0.00563  -0.00919   0.96614
   D31        0.00263   0.00061   0.00000  -0.00535  -0.00330  -0.00068
   D32       -2.10338  -0.00013   0.00000   0.00110   0.01011  -2.09327
   D33       -3.07608   0.00117   0.00000   0.00139   0.01599  -3.06008
   D34        1.06667  -0.00038   0.00000   0.00487  -0.00271   1.06396
   D35        2.03937  -0.00168   0.00000  -0.01845  -0.00859   2.03078
   D36        0.14452   0.00044   0.00000   0.02884  -0.01282   0.13170
   D37        1.11722  -0.00086   0.00000   0.00552  -0.01870   1.09852
   D38        0.00000   0.00000   0.00000   0.00000   0.00000   0.00000
   D39        0.97270  -0.00130   0.00000  -0.02332  -0.00588   0.96681
   D40        2.10338   0.00013   0.00000  -0.00584  -0.01011   2.09327
   D41        3.07608  -0.00117   0.00000  -0.02916  -0.01599   3.06008
   D42       -0.97533   0.00069   0.00000   0.00541   0.00919  -0.96614
   D43       -0.00263  -0.00061   0.00000  -0.01790   0.00330   0.00068
   D44        0.00000   0.00000   0.00000   0.00000   0.00000   0.00000
   D45        0.33795  -0.00064   0.00000   0.03242   0.01815   0.35610
   D46        1.87141  -0.00005   0.00000   0.01559   0.00234   1.87375
   D47       -0.28560   0.00025   0.00000   0.01080   0.01327  -0.27233
   D48        0.21737  -0.00074   0.00000  -0.02816  -0.02308   0.19428
   D49        1.84317   0.00174   0.00000   0.02151   0.01013   1.85330
   D50       -0.81290  -0.00124   0.00000  -0.02484  -0.01661  -0.82951
   D51        0.81290   0.00124   0.00000   0.02484   0.01661   0.82951
   D52       -1.84317  -0.00174   0.00000  -0.02151  -0.01013  -1.85330
   D53       -0.21737   0.00074   0.00000   0.02816   0.02308  -0.19428
   D54        0.28560  -0.00025   0.00000  -0.00160  -0.01327   0.27233
   D55       -1.87141   0.00005   0.00000   0.00990  -0.00234  -1.87375
   D56       -0.33795   0.00064   0.00000   0.03001  -0.01815  -0.35610
   D57       -0.21737   0.00074   0.00000  -0.00224   0.02308  -0.19428
   D58       -1.84317  -0.00174   0.00000  -0.00399  -0.01013  -1.85330
   D59        0.81290   0.00124   0.00000   0.00088   0.01661   0.82951
   D60       -0.81290  -0.00124   0.00000  -0.00088  -0.01661  -0.82951
   D61        1.84317   0.00174   0.00000   0.00399   0.01013   1.85330
   D62        0.21737  -0.00074   0.00000   0.00224  -0.02308   0.19428
   D63       -2.72515   0.00112   0.00000   0.01912   0.00371  -2.72145
   D64       -1.77430   0.00096   0.00000   0.01496   0.00220  -1.77210
   D65        0.37630   0.00076   0.00000   0.01576  -0.00826   0.36804
   D66       -0.73778   0.00017   0.00000   0.01395  -0.00578  -0.74356
   D67        3.07608  -0.00117   0.00000  -0.00139  -0.01599   3.06008
   D68        2.10338   0.00013   0.00000  -0.00110  -0.01011   2.09327
   D69        0.97270  -0.00130   0.00000  -0.00029  -0.00588   0.96681
   D70        0.00000   0.00000   0.00000   0.00000   0.00000   0.00000
   D71        1.11722  -0.00086   0.00000  -0.02927  -0.01870   1.09852
   D72        0.14452   0.00044   0.00000  -0.02899  -0.01282   0.13170
   D73        2.03937  -0.00168   0.00000  -0.00983  -0.00859   2.03078
   D74        1.06667  -0.00038   0.00000  -0.00954  -0.00271   1.06396
   D75       -0.00263  -0.00061   0.00000   0.00535   0.00330   0.00068
   D76       -0.97533   0.00069   0.00000   0.00563   0.00919  -0.96614
   D77       -3.07608   0.00117   0.00000   0.02916   0.01599  -3.06008
   D78       -2.10338  -0.00013   0.00000   0.00584   0.01011  -2.09327
   D79       -0.97270   0.00130   0.00000   0.02332   0.00588  -0.96681
   D80        0.00000   0.00000   0.00000   0.00000   0.00000   0.00000
   D81       -2.03937   0.00168   0.00000   0.01845   0.00859  -2.03078
   D82       -1.06667   0.00038   0.00000  -0.00487   0.00271  -1.06396
   D83       -1.11722   0.00086   0.00000  -0.00552   0.01870  -1.09852
   D84       -0.14452  -0.00044   0.00000  -0.02884   0.01282  -0.13170
   D85        0.00263   0.00061   0.00000   0.01790  -0.00330  -0.00068
   D86        0.97533  -0.00069   0.00000  -0.00541  -0.00919   0.96614
   D87        2.72515  -0.00112   0.00000  -0.00996  -0.00371   2.72145
   D88        1.77430  -0.00096   0.00000  -0.00582  -0.00220   1.77210
   D89        0.73778  -0.00017   0.00000   0.00438   0.00578   0.74356
   D90       -0.37630  -0.00076   0.00000  -0.00201   0.00826  -0.36804
   D91       -0.37990  -0.00034   0.00000   0.01916  -0.00676  -0.38666
   D92        0.61826  -0.00033   0.00000   0.02354  -0.01462   0.60364
   D93        0.80246   0.00118   0.00000   0.04488   0.01795   0.82041
   D94        1.80062   0.00119   0.00000   0.04926   0.01009   1.81071
   D95       -1.80062  -0.00119   0.00000  -0.04926  -0.01009  -1.81071
   D96       -0.80246  -0.00118   0.00000  -0.04488  -0.01795  -0.82041
   D97       -0.61826   0.00033   0.00000  -0.02354   0.01462  -0.60364
   D98        0.37990   0.00034   0.00000  -0.01916   0.00676   0.38666
   D99        0.00000   0.00000   0.00000  -0.02899   0.00000   0.00000
   D100      -0.94888   0.00100   0.00000  -0.00461   0.00054  -0.94834
   D101       0.94888  -0.00100   0.00000  -0.02438  -0.00054   0.94834
   D102       0.00000   0.00000   0.00000   0.00000   0.00000   0.00000
   D103      -0.38554  -0.00016   0.00000  -0.02721  -0.00170  -0.38723
   D104       0.69475  -0.00036   0.00000  -0.03624  -0.01065   0.68410
   D105       0.37990   0.00034   0.00000   0.02295   0.00676   0.38666
   D106      -0.80246  -0.00118   0.00000   0.01762  -0.01795  -0.82041
   D107      -0.61826   0.00033   0.00000   0.02333   0.01462  -0.60364
   D108      -1.80062  -0.00119   0.00000   0.01801  -0.01009  -1.81071
   D109       0.00000   0.00000   0.00000   0.00000   0.00000   0.00000
   D110       0.97710   0.00002   0.00000  -0.00576   0.00142   0.97853
   D111      -0.97710  -0.00002   0.00000   0.00576  -0.00142  -0.97853
   D112       0.00000   0.00000   0.00000   0.00000   0.00000   0.00000
   D113       0.38554   0.00016   0.00000  -0.02461   0.00170   0.38723
   D114      -0.69475   0.00036   0.00000  -0.03246   0.01065  -0.68410
   D115       0.00000   0.00000   0.00000   0.00000   0.00000   0.00000
   D116      -0.97710  -0.00002   0.00000  -0.00772  -0.00142  -0.97853
   D117       0.97710   0.00002   0.00000   0.00772   0.00142   0.97853
   D118       0.00000   0.00000   0.00000   0.00000   0.00000   0.00000
   D119       0.38554   0.00016   0.00000   0.02721   0.00170   0.38723
   D120      -0.69475   0.00036   0.00000   0.03624   0.01065  -0.68410
   D121      -0.38554  -0.00016   0.00000   0.02461  -0.00170  -0.38723
   D122       0.69475  -0.00036   0.00000   0.03246  -0.01065   0.68410
   D123       1.80062   0.00119   0.00000  -0.01801   0.01009   1.81071
   D124       0.80246   0.00118   0.00000  -0.01762   0.01795   0.82041
   D125       0.61826  -0.00033   0.00000  -0.02333  -0.01462   0.60364
   D126      -0.37990  -0.00034   0.00000  -0.02295  -0.00676  -0.38666
   D127      -0.94888   0.00100   0.00000   0.02438   0.00054  -0.94834
   D128       0.00000   0.00000   0.00000   0.00000   0.00000   0.00000
   D129       0.00000   0.00000   0.00000   0.02899   0.00000   0.00000
   D130       0.94888  -0.00100   0.00000   0.00461  -0.00054   0.94834
         Item               Value     Threshold  Converged?
 Maximum Force            0.009542     0.000450     NO 
 RMS     Force            0.001332     0.000300     NO 
 Maximum Displacement     0.037230     0.001800     NO 
 RMS     Displacement     0.006513     0.001200     NO 
 Predicted change in Energy=-1.498629D-03
 GradGradGradGradGradGradGradGradGradGradGradGradGradGradGradGradGradGrad

                          Input orientation:                          
 ---------------------------------------------------------------------
 Center     Atomic      Atomic             Coordinates (Angstroms)
 Number     Number       Type             X           Y           Z
 ---------------------------------------------------------------------
      1         14           0        0.000000    2.036982   -2.561173
      2         14           0        0.000000   -1.326313   -0.258586
      3         14           0        1.317598    0.000000   -2.521908
      4         14           0       -1.317598    0.000000   -2.521908
      5         14           0        0.000000    1.326313   -0.258586
      6         14           0        2.130921    0.000000   -0.027821
      7         14           0        0.000000   -2.036982   -2.561173
      8         14           0       -1.436221    1.366206    1.875955
      9         14           0        1.436221    1.366206    1.875955
     10         14           0        0.000000    0.000000    3.303228
     11         14           0       -2.130921    0.000000   -0.027821
     12         14           0       -1.436221   -1.366206    1.875955
     13         14           0        1.436221   -1.366206    1.875955
 ---------------------------------------------------------------------
                    Distance matrix (angstroms):
                    1          2          3          4          5
     1  Si   0.000000
     2  Si   4.075986   0.000000
     3  Si   2.426294   2.935609   0.000000
     4  Si   2.426294   2.935609   2.635196   0.000000
     5  Si   2.409763   2.652625   2.935609   2.935609   0.000000
     6  Si   3.886900   2.520552   2.623351   4.255908   2.520552
     7  Si   4.073964   2.409763   2.426294   2.426294   4.075986
     8  Si   4.711770   3.724064   5.365747   4.606712   2.573051
     9  Si   4.711770   3.724064   4.606712   5.365747   2.573051
    10  Si   6.208100   3.800740   5.972293   5.972293   3.800740
    11  Si   3.886900   2.520552   4.255908   2.623351   2.520552
    12  Si   5.773433   2.573051   5.365747   4.606712   3.724064
    13  Si   5.773433   2.573051   4.606712   5.365747   3.724064
                    6          7          8          9         10
     6  Si   0.000000
     7  Si   3.886900   0.000000
     8  Si   4.267948   5.773433   0.000000
     9  Si   2.444072   5.773433   2.872443   0.000000
    10  Si   3.954328   6.208100   2.442613   2.442613   0.000000
    11  Si   4.261841   3.886900   2.444072   4.267948   3.954328
    12  Si   4.267948   4.711770   2.732411   3.964467   2.442613
    13  Si   2.444072   4.711770   3.964467   2.732411   2.442613
                   11         12         13
    11  Si   0.000000
    12  Si   2.444072   0.000000
    13  Si   4.267948   2.872443   0.000000
 Stoichiometry    Si13(1-,2)
 Framework group  C2V[C2(Si),SGV(Si4),SGV'(Si4),X(Si4)]
 Deg. of freedom    11
 Full point group                 C2V     NOp   4
 Largest Abelian subgroup         C2V     NOp   4
 Largest concise Abelian subgroup C2V     NOp   4
                         Standard orientation:                         
 ---------------------------------------------------------------------
 Center     Atomic      Atomic             Coordinates (Angstroms)
 Number     Number       Type             X           Y           Z
 ---------------------------------------------------------------------
      1         14           0        0.000000    2.036982   -2.566409
      2         14           0        0.000000   -1.326313   -0.263822
      3         14           0        1.317598    0.000000   -2.527145
      4         14           0       -1.317598    0.000000   -2.527145
      5         14           0        0.000000    1.326313   -0.263822
      6         14           0        2.130921    0.000000   -0.033057
      7         14           0        0.000000   -2.036982   -2.566409
      8         14           0       -1.436221    1.366206    1.870719
      9         14           0        1.436221    1.366206    1.870719
     10         14           0        0.000000    0.000000    3.297992
     11         14           0       -2.130921    0.000000   -0.033057
     12         14           0       -1.436221   -1.366206    1.870719
     13         14           0        1.436221   -1.366206    1.870719
 ---------------------------------------------------------------------
 Rotational constants (GHZ):      0.4506168      0.2571583      0.2517052
 Standard basis: 6-31G(d) (6D, 7F)
 There are    85 symmetry adapted basis functions of A1  symmetry.
 There are    40 symmetry adapted basis functions of A2  symmetry.
 There are    61 symmetry adapted basis functions of B1  symmetry.
 There are    61 symmetry adapted basis functions of B2  symmetry.
 Integral buffers will be    131072 words long.
 Raffenetti 2 integral format.
 Two-electron integral symmetry is turned on.
   247 basis functions,   676 primitive gaussians,   247 cartesian basis functions
    92 alpha electrons       91 beta electrons
       nuclear repulsion energy      2389.0694359186 Hartrees.
 NAtoms=   13 NActive=   13 NUniq=    6 SFac= 3.00D+00 NAtFMM=   80 NAOKFM=F Big=F
 One-electron integrals computed using PRISM.
 NBasis=   247 RedAO= T  NBF=    85    40    61    61
 NBsUse=   247 1.00D-06 NBFU=    85    40    61    61
 Initial guess read from the read-write file.
 B after Tr=     0.000000    0.000000    0.000000
         Rot=    1.000000    0.000000    0.000000    0.000000 Ang=   0.00 deg.
 Initial guess orbital symmetries:
 Alpha Orbitals:
       Occupied  (B2) (A1) (B1) (A1) (A2) (B2) (B1) (A1) (B1) (A1)
                 (B2) (A1) (A1) (A1) (B2) (A1) (B1) (B1) (A1) (B1)
                 (B2) (A2) (A1) (B2) (A1) (A1) (A1) (B2) (B1) (A2)
                 (A1) (B2) (A1) (B1) (A1) (B1) (B2) (A2) (B2) (A2)
                 (A1) (B1) (B2) (A2) (B1) (A1) (B1) (A1) (B2) (A2)
                 (A1) (B1) (A1) (A2) (B1) (B2) (B1) (A2) (B2) (B2)
                 (A1) (B1) (A1) (A1) (B2) (A1) (A1) (B1) (B2) (A1)
                 (B2) (B1) (A1) (A2) (A1) (B1) (B2) (A1) (A1) (A1)
                 (A2) (B2) (B1) (B1) (A1) (B2) (B2) (A2) (B1) (A1)
                 (A1) (B2)
       Virtual   (B1) (A1) (B1) (A2) (B2) (A1) (B1) (A1) (B2) (A2)
                 (A2) (A1) (B1) (B2) (A1) (A1) (B1) (B2) (A2) (B2)
                 (B1) (A1) (A2) (B2) (B1) (A1) (A1) (B2) (B1) (B2)
                 (A1) (A2) (B1) (A2) (B2) (B1) (A1) (A1) (A2) (B1)
                 (B2) (B1) (A1) (A1) (A1) (B1) (B2) (A1) (A2) (A1)
                 (B2) (B1) (A2) (B2) (A1) (B1) (A1) (A1) (B2) (A2)
                 (B2) (B1) (A2) (B1) (A1) (A2) (B2) (B2) (A1) (B1)
                 (B1) (B2) (A1) (A1) (A2) (B1) (B1) (B2) (A1) (B2)
                 (A2) (A1) (B1) (B2) (A2) (A1) (B2) (A2) (A1) (B1)
                 (A1) (B2) (B1) (A1) (A2) (B1) (A1) (B2) (A2) (B2)
                 (B1) (A1) (B1) (A1) (A2) (B1) (A1) (B2) (A1) (A1)
                 (A2) (B2) (B1) (A1) (A1) (B2) (A2) (B1) (B2) (A2)
                 (B1) (B2) (A1) (A2) (B1) (A1) (A2) (B1) (A1) (B2)
                 (A2) (B2) (B1) (A2) (B1) (B2) (A1) (B1) (B2) (B2)
                 (A1) (A1) (A1) (A1) (B1) (A2) (B2) (A1) (B1) (A1)
                 (B2) (B2) (B1) (A1) (A1)
 Beta  Orbitals:
       Occupied  (B2) (A1) (B1) (A1) (A2) (B2) (B1) (A1) (B1) (A1)
                 (B2) (A1) (A1) (A1) (B2) (A1) (B1) (B1) (A1) (B1)
                 (B2) (A2) (A1) (B2) (A1) (A1) (B1) (A2) (A1) (B2)
                 (A1) (B2) (A1) (B1) (A1) (B1) (B2) (A2) (A1) (B1)
                 (B2) (A2) (A1) (B1) (B1) (A1) (B2) (A2) (B1) (A1)
                 (B2) (A2) (A1) (B1) (A2) (B2) (B1) (A2) (B2) (A1)
                 (B1) (A1) (A1) (B2) (B2) (A1) (A1) (B1) (B2) (A1)
                 (B2) (B1) (A1) (A2) (A1) (B1) (B2) (A1) (A1) (A1)
                 (A2) (B1) (B2) (B1) (A1) (B2) (B2) (A2) (B1) (A1)
                 (A1)
       Virtual   (B2) (B1) (A1) (B1) (A2) (B2) (A1) (B1) (A1) (B2)
                 (A2) (A2) (A1) (B1) (B2) (A1) (A1) (B1) (B2) (A2)
                 (B2) (B1) (A1) (A2) (B1) (B2) (A1) (A1) (B2) (B1)
                 (B2) (A1) (A2) (B1) (A2) (B2) (B1) (A1) (A1) (B1)
                 (A2) (B1) (B2) (A1) (A1) (A1) (B1) (B2) (A1) (A2)
                 (A1) (B2) (B1) (A2) (B2) (A1) (B1) (A1) (A1) (B2)
                 (A2) (B2) (B1) (A2) (B1) (A1) (A2) (B2) (B2) (A1)
                 (B1) (B1) (B2) (A1) (A1) (A2) (B1) (B1) (B2) (A1)
                 (B2) (A2) (A1) (B1) (B2) (A2) (A1) (B2) (A2) (A1)
                 (A1) (B1) (B2) (B1) (A1) (A2) (B1) (B2) (A1) (A2)
                 (B1) (B2) (A1) (B1) (A2) (A1) (B1) (A1) (B2) (A1)
                 (A1) (A2) (B2) (B1) (A1) (A1) (B2) (A2) (B1) (B2)
                 (A2) (B1) (B2) (A1) (A2) (B1) (A1) (A2) (B1) (A1)
                 (B2) (A2) (B2) (B1) (A2) (B1) (B2) (A1) (B1) (B2)
                 (B2) (A1) (A1) (A1) (A1) (B1) (A2) (B2) (A1) (B1)
                 (A1) (B2) (B2) (B1) (A1) (A1)
 Initial guess <Sx>= 0.0000 <Sy>= 0.0000 <Sz>= 0.5000 <S**2>= 0.7553 S= 0.5026
 Harris functional with IExCor=  402 diagonalized for initial guess.
 ExpMin= 7.78D-02 ExpMax= 1.61D+04 ExpMxC= 2.43D+03 IAcc=2 IRadAn=         0 AccDes= 0.00D+00
 HarFok:  IExCor=  402 AccDes= 0.00D+00 IRadAn=         0 IDoV= 1
 ScaDFX=  1.000000  1.000000  1.000000  1.000000
 FoFCou: FMM=F IPFlag=           0 FMFlag=      100000 FMFlg1=           0
         NFxFlg=           0 DoJE=T BraDBF=F KetDBF=T FulRan=T
         Omega=  0.000000  0.000000  1.000000  0.000000  0.000000 ICntrl=     500 IOpCl=  0
         NMat0=    1 NMatS0=    1 NMatT0=    0 NMatD0=    1 NMtDS0=    0 NMtDT0=    0
         I1Cent=           4 NGrid=           0.
 Petite list used in FoFCou.
 Requested convergence on RMS density matrix=1.00D-08 within 128 cycles.
 Requested convergence on MAX density matrix=1.00D-06.
 Requested convergence on             energy=1.00D-06.
 No special actions if energy rises.
 Integral accuracy reduced to 1.0D-05 until final iterations.
 Initial convergence to 1.0D-05 achieved.  Increase integral accuracy.
 SCF Done:  E(UB3LYP) =  -3763.42105008     A.U. after   16 cycles
             Convg  =    0.7609D-08             -V/T =  2.0035
 <Sx>= 0.0000 <Sy>= 0.0000 <Sz>= 0.5000 <S**2>= 0.7552 S= 0.5026
 <L.S>= 0.000000000000E+00
 Annihilation of the first spin contaminant:
 S**2 before annihilation     0.7552,   after     0.7500
 Range of M.O.s used for correlation:     1   247
 NBasis=   247 NAE=    92 NBE=    91 NFC=     0 NFV=     0
 NROrb=    247 NOA=    92 NOB=    91 NVA=   155 NVB=   156

 **** Warning!!: The smallest alpha delta epsilon is  0.59020257D-01


 **** Warning!!: The smallest beta delta epsilon is  0.74006093D-01

 Symmetrizing basis deriv contribution to polar:
 IMax=3 JMax=2 DiffMx= 0.00D+00
 G2DrvN: will do    14 centers at a time, making    1 passes doing MaxLOS=2.
 Calling FoFCou, ICntrl=  3107 FMM=F I1Cent=   0 AccDes= 0.00D+00.
 FoFDir/FoFCou used for L=0 through L=2.
 End of G2Drv Frequency-dependent properties file   721 does not exist.
 End of G2Drv Frequency-dependent properties file   722 does not exist.
          IDoAtm=1111111111111
          Differentiating once with respect to electric field.
                with respect to dipole field.
          Differentiating once with respect to nuclear coordinates.
          There are    21 degrees of freedom in the 1st order CPHF.  IDoFFX=4.
     21 vectors produced by pass  0 Test12= 1.36D-13 4.76D-09 XBig12= 5.22D+03 2.21D+01.
 AX will form    21 AO Fock derivatives at one time.
     21 vectors produced by pass  1 Test12= 1.36D-13 4.76D-09 XBig12= 3.67D+03 1.04D+01.
     21 vectors produced by pass  2 Test12= 1.36D-13 4.76D-09 XBig12= 1.64D+02 1.92D+00.
     21 vectors produced by pass  3 Test12= 1.36D-13 4.76D-09 XBig12= 2.08D+01 9.73D-01.
     21 vectors produced by pass  4 Test12= 1.36D-13 4.76D-09 XBig12= 7.72D-01 1.94D-01.
     21 vectors produced by pass  5 Test12= 1.36D-13 4.76D-09 XBig12= 3.14D-02 3.95D-02.
     21 vectors produced by pass  6 Test12= 1.36D-13 4.76D-09 XBig12= 1.29D-03 5.29D-03.
     21 vectors produced by pass  7 Test12= 1.36D-13 4.76D-09 XBig12= 3.07D-05 7.10D-04.
     21 vectors produced by pass  8 Test12= 1.36D-13 4.76D-09 XBig12= 5.77D-07 1.27D-04.
     21 vectors produced by pass  9 Test12= 1.36D-13 4.76D-09 XBig12= 9.85D-09 1.51D-05.
      9 vectors produced by pass 10 Test12= 1.36D-13 4.76D-09 XBig12= 1.66D-10 1.73D-06.
      3 vectors produced by pass 11 Test12= 1.36D-13 4.76D-09 XBig12= 2.57D-12 2.04D-07.
      3 vectors produced by pass 12 Test12= 1.36D-13 4.76D-09 XBig12= 3.34D-14 2.25D-08.
 Inverted reduced A of dimension   225 with in-core refinement.
 Isotropic polarizability for W=    0.000000      408.01 Bohr**3.
 End of Minotr Frequency-dependent properties file   721 does not exist.
 End of Minotr Frequency-dependent properties file   722 does not exist.
 Calling FoFJK, ICntrl=    100127 FMM=F ISym2X=1 I1Cent= 0 IOpClX= 1 NMat=1 NMatS=1 NMatT=0.
 ***** Axes restored to original set *****
 -------------------------------------------------------------------
 Center     Atomic                   Forces (Hartrees/Bohr)
 Number     Number              X              Y              Z
 -------------------------------------------------------------------
      1       14           0.000000000    0.000452855   -0.001448295
      2       14           0.000000000   -0.008094251    0.007335258
      3       14          -0.002853381    0.000000000   -0.000825632
      4       14           0.002853381    0.000000000   -0.000825632
      5       14           0.000000000    0.008094251    0.007335258
      6       14          -0.003782948    0.000000000   -0.000660737
      7       14           0.000000000   -0.000452855   -0.001448295
      8       14           0.003799175    0.013866843   -0.002006362
      9       14          -0.003799175    0.013866843   -0.002006362
     10       14           0.000000000    0.000000000   -0.000775741
     11       14           0.003782948    0.000000000   -0.000660737
     12       14           0.003799175   -0.013866843   -0.002006362
     13       14          -0.003799175   -0.013866843   -0.002006362
 -------------------------------------------------------------------
 Cartesian Forces:  Max     0.013866843 RMS     0.005392275

 GradGradGradGradGradGradGradGradGradGradGradGradGradGradGradGradGradGrad
 Berny optimization.
 Using GEDIIS/GDIIS optimizer.
 Internal  Forces:  Max     0.009023643 RMS     0.001236790
 Search for a local minimum.
 Step number   2 out of a maximum of  100
 All quantities printed in internal units (Hartrees-Bohrs-Radians)
 Mixed Optimization -- RFO/linear search
 Second derivative matrix not updated -- analytic derivatives used.
 DE= -1.50D-03 DEPred=-1.50D-03 R= 1.00D+00
 SS=  1.41D+00  RLast= 1.87D-01 DXNew= 5.0454D-01 5.6150D-01
 Trust test= 1.00D+00 RLast= 1.87D-01 DXMaxT set to 5.05D-01
 Use linear search instead of GDIIS.
     Eigenvalues ---   -0.00153   0.00054   0.00245   0.00329   0.00380
     Eigenvalues ---    0.00414   0.00601   0.00704   0.00767   0.00863
     Eigenvalues ---    0.00954   0.01298   0.01481   0.01631   0.01635
     Eigenvalues ---    0.02256   0.02369   0.02467   0.02598   0.02639
     Eigenvalues ---    0.02910   0.02915   0.03263   0.03271   0.03405
     Eigenvalues ---    0.04254   0.04358   0.04481   0.04615   0.04755
     Eigenvalues ---    0.05287   0.06763   0.069751000.000001000.00000
     Eigenvalues --- 1000.000001000.000001000.000001000.000001000.00000
     Eigenvalues --- 1000.000001000.000001000.000001000.000001000.00000
     Eigenvalues --- 1000.000001000.000001000.000001000.000001000.00000
     Eigenvalues --- 1000.000001000.000001000.000001000.000001000.00000
     Eigenvalues --- 1000.000001000.000001000.000001000.000001000.00000
     Eigenvalues --- 1000.000001000.000001000.000001000.000001000.00000
     Eigenvalues --- 1000.000001000.000001000.000001000.000001000.00000
     Eigenvalues --- 1000.000001000.000001000.000001000.000001000.00000
     Eigenvalues --- 1000.000001000.000001000.000001000.000001000.00000
     Eigenvalues --- 1000.000001000.000001000.000001000.000001000.00000
     Eigenvalues --- 1000.000001000.000001000.000001000.000001000.00000
     Eigenvalues --- 1000.000001000.000001000.000001000.000001000.00000
     Eigenvalues --- 1000.000001000.000001000.000001000.000001000.00000
     Eigenvalues --- 1000.000001000.000001000.000001000.000001000.00000
     Eigenvalues --- 1000.000001000.000001000.000001000.000001000.00000
     Eigenvalues --- 1000.000001000.000001000.000001000.000001000.00000
     Eigenvalues --- 1000.000001000.000001000.000001000.000001000.00000
     Eigenvalues --- 1000.000001000.000001000.000001000.000001000.00000
     Eigenvalues --- 1000.000001000.000001000.000001000.000001000.00000
     Eigenvalues --- 1000.000001000.000001000.000001000.000001000.00000
     Eigenvalues --- 1000.000001000.000001000.000001000.000001000.00000
     Eigenvalues --- 1000.000001000.000001000.000001000.000001000.00000
     Eigenvalues --- 1000.000001000.000001000.000001000.000001000.00000
     Eigenvalues --- 1000.000001000.000001000.000001000.000001000.00000
     Eigenvalues --- 1000.000001000.000001000.000001000.000001000.00000
     Eigenvalues --- 1000.000001000.000001000.000001000.000001000.00000
     Eigenvalues --- 1000.000001000.000001000.000001000.000001000.00000
     Eigenvalues --- 1000.000001000.000001000.000001000.000001000.00000
     Eigenvalues --- 1000.000001000.000001000.000001000.000001000.00000
     Eigenvalues --- 1000.000001000.000001000.000001000.000001000.00000
     Eigenvalues --- 1000.000001000.000001000.000001000.000001000.00000
     Eigenvalues --- 1000.000001000.000001000.000001000.000001000.00000
     Eigenvalues --- 1000.000001000.000001000.000001000.000001000.00000
     Eigenvalues --- 1000.000001000.000001000.000001000.000001000.00000
     Eigenvalues --- 1000.000001000.000001000.000001000.000001000.00000
     Eigenvalues --- 1000.000001000.000001000.000001000.000001000.00000
[...]
 ! D41   D(7,2,13,10)          165.6797         -DE/DX =    0.0                 !
 ! D42   D(11,2,13,9)          -52.2303         -DE/DX =    0.0                 !
 ! D43   D(11,2,13,10)           2.9056         -DE/DX =    0.0                 !
 ! D44   D(6,3,4,11)             0.0            -DE/DX =    0.0                 !
 ! D45   D(7,3,5,8)             21.6017         -DE/DX =    0.0                 !
 ! D46   D(7,3,5,9)            104.2069         -DE/DX =    0.0                 !
 ! D47   D(7,3,5,11)            -1.3626         -DE/DX =    0.0                 !
 ! D48   D(1,3,6,9)              9.2964         -DE/DX =    0.0                 !
 ! D49   D(1,3,6,13)           108.5709         -DE/DX =    0.0                 !
 ! D50   D(4,3,6,9)            -49.6372         -DE/DX =    0.0                 !
 ! D51   D(4,3,6,13)            49.6373         -DE/DX =    0.0                 !
 ! D52   D(7,3,6,9)           -108.5708         -DE/DX =    0.0                 !
 ! D53   D(7,3,6,13)            -9.2963         -DE/DX =    0.0                 !
 ! D54   D(7,4,5,6)             -1.601          -DE/DX =    0.0                 !
 ! D55   D(7,4,5,8)           -123.4963         -DE/DX =    0.0                 !
 ! D56   D(7,4,5,9)            -48.0831         -DE/DX =    0.0                 !
 ! D57   D(1,4,11,8)             3.5304         -DE/DX =    0.0                 !
 ! D58   D(1,4,11,12)         -124.0953         -DE/DX =    0.0                 !
 ! D59   D(3,4,11,8)            63.8128         -DE/DX =    0.0                 !
 ! D60   D(3,4,11,12)          -63.8129         -DE/DX =    0.0                 !
 ! D61   D(7,4,11,8)           124.0953         -DE/DX =    0.0                 !
 ! D62   D(7,4,11,12)           -3.5304         -DE/DX =    0.0                 !
 ! D63   D(1,5,6,13)          -147.0304         -DE/DX =    0.0                 !
 ! D64   D(4,5,6,13)           -91.5203         -DE/DX =    0.0                 !
 ! D65   D(8,5,6,13)            27.0798         -DE/DX =    0.0                 !
 ! D66   D(11,5,6,13)          -35.4714         -DE/DX =    0.0                 !
 ! D67   D(1,5,8,10)           155.1964         -DE/DX =    0.0                 !
 ! D68   D(1,5,8,12)           118.7977         -DE/DX =    0.0                 !
 ! D69   D(2,5,8,10)            36.3987         -DE/DX =    0.0                 !
 ! D70   D(2,5,8,12)             0.0            -DE/DX =    0.0                 !
 ! D71   D(3,5,8,10)            46.856          -DE/DX =    0.0                 !
 ! D72   D(3,5,8,12)            10.4573         -DE/DX =    0.0                 !
 ! D73   D(4,5,8,10)            94.8602         -DE/DX =    0.0                 !
 ! D74   D(4,5,8,12)            58.4615         -DE/DX =    0.0                 !
 ! D75   D(6,5,8,10)           -16.5004         -DE/DX =    0.0                 !
 ! D76   D(6,5,8,12)           -52.8991         -DE/DX =    0.0                 !
 ! D77   D(1,5,9,10)          -165.6795         -DE/DX =    0.0                 !
 ! D78   D(1,5,9,13)          -110.5436         -DE/DX =    0.0                 !
 ! D79   D(2,5,9,10)           -55.1359         -DE/DX =    0.0                 !
 ! D80   D(2,5,9,13)             0.0            -DE/DX =    0.0                 !
 ! D81   D(3,5,9,10)          -108.2032         -DE/DX =    0.0                 !
 ! D82   D(3,5,9,13)           -53.0673         -DE/DX =    0.0                 !
 ! D83   D(4,5,9,10)           -44.2447         -DE/DX =    0.0                 !
 ! D84   D(4,5,9,13)            10.8912         -DE/DX =    0.0                 !
 ! D85   D(11,5,9,10)           -2.9056         -DE/DX =    0.0                 !
 ! D86   D(11,5,9,13)           52.2303         -DE/DX =    0.0                 !
 ! D87   D(1,5,11,12)          133.4054         -DE/DX =    0.0                 !
 ! D88   D(3,5,11,12)           78.9442         -DE/DX =    0.0                 !
 ! D89   D(6,5,11,12)           21.548          -DE/DX =    0.0                 !
 ! D90   D(9,5,11,12)          -38.3876         -DE/DX =    0.0                 !
 ! D91   D(2,6,9,8)            -38.3154         -DE/DX =    0.0                 !
 ! D92   D(2,6,9,10)            22.8943         -DE/DX =    0.0                 !
 ! D93   D(3,6,9,8)             36.0031         -DE/DX =    0.0                 !
 ! D94   D(3,6,9,10)            97.2128         -DE/DX =    0.0                 !
 ! D95   D(3,6,13,10)          -97.2128         -DE/DX =    0.0                 !
 ! D96   D(3,6,13,12)          -36.0031         -DE/DX =    0.0                 !
 ! D97   D(5,6,13,10)          -22.8943         -DE/DX =    0.0                 !
 ! D98   D(5,6,13,12)           38.3154         -DE/DX =    0.0                 !
 ! D99   D(11,8,9,6)            23.8694         -DE/DX =    0.0                 !
 ! D100  D(11,8,9,13)          -32.4309         -DE/DX =    0.0                 !
 ! D101  D(12,8,9,6)            56.3002         -DE/DX =    0.0                 !
 ! D102  D(12,8,9,13)            0.0            -DE/DX =    0.0                 !
 ! D103  D(5,8,10,13)           -0.007          -DE/DX =    0.0                 !
 ! D104  D(11,8,10,13)          60.8327         -DE/DX =    0.0                 !
 ! D105  D(9,8,11,2)            -0.9661         -DE/DX =    0.0                 !
 ! D106  D(9,8,11,4)           -76.9232         -DE/DX =    0.0                 !
 ! D107  D(10,8,11,2)          -54.9075         -DE/DX =    0.0                 !
 ! D108  D(10,8,11,4)         -130.8646         -DE/DX =    0.0                 !
 ! D109  D(5,8,12,2)             0.0            -DE/DX =    0.0                 !
 ! D110  D(5,8,12,13)           62.2444         -DE/DX =    0.0                 !
 ! D111  D(9,8,12,2)           -62.2444         -DE/DX =    0.0                 !
 ! D112  D(9,8,12,13)            0.0            -DE/DX =    0.0                 !
 ! D113  D(5,9,10,12)           44.2151         -DE/DX =    0.0                 !
 ! D114  D(6,9,10,12)          -15.2592         -DE/DX =    0.0                 !
 ! D115  D(5,9,13,2)             0.0            -DE/DX =    0.0                 !
 ! D116  D(5,9,13,12)          -54.145          -DE/DX =    0.0                 !
 ! D117  D(8,9,13,2)            54.1449         -DE/DX =    0.0                 !
 ! D118  D(8,9,13,12)            0.0            -DE/DX =    0.0                 !
 ! D119  D(9,10,12,2)            0.007          -DE/DX =    0.0                 !
 ! D120  D(9,10,12,11)         -60.8327         -DE/DX =    0.0                 !
 ! D121  D(8,10,13,2)          -44.2151         -DE/DX =    0.0                 !
 ! D122  D(8,10,13,6)           15.2592         -DE/DX =    0.0                 !
 ! D123  D(4,11,12,10)         130.8646         -DE/DX =    0.0                 !
 ! D124  D(4,11,12,13)          76.9231         -DE/DX =    0.0                 !
 ! D125  D(5,11,12,10)          54.9075         -DE/DX =    0.0                 !
 ! D126  D(5,11,12,13)           0.966          -DE/DX =    0.0                 !
 ! D127  D(8,12,13,6)          -56.3002         -DE/DX =    0.0                 !
 ! D128  D(8,12,13,9)            0.0            -DE/DX =    0.0                 !
 ! D129  D(11,12,13,6)         -23.8693         -DE/DX =    0.0                 !
 ! D130  D(11,12,13,9)          32.4309         -DE/DX =    0.0                 !
 --------------------------------------------------------------------------------
 GradGradGradGradGradGradGradGradGradGradGradGradGradGradGradGradGradGrad


 Test job not archived.
 1\1\GINC-NODE26\Freq\UB3LYP\6-311+G(d)\Si13(1-,2)\MINH\23-Feb-2012\0\\
 #N Geom=AllCheck Guess=TCheck SCRF=Check Test GenChk UB3LYP/6-311+G(d)
  Freq\\Si-13 (-) anion doublet\\-1,2\Si,-0.0748267837,1.9882382203,-2.
 6481363592\Si,0.0805657786,-1.5178289801,-0.2875663129\Si,1.2556831694
 ,0.000873458,-2.4097548762\Si,-1.3473934693,0.0015033216,-2.1462986192
 \Si,0.0814582803,1.518082791,-0.2860038161\Si,2.0232859956,-0.00060082
 93,0.0175063431\Si,-0.0759949813,-1.985462111,-2.6501811512\Si,-1.2108
 113473,1.9323494023,1.6571707192\Si,1.3545939428,1.4241963071,1.920898
 4731\Si,-0.3474957731,-0.0014647431,3.0493960287\Si,-1.8808726391,0.00
 04134931,0.2764296457\Si,-1.2119479574,-1.9333364108,1.6551810356\Si,1
 .3537557843,-1.4269639192,1.9194304467\\Version=AM64L-G09RevA.02\HF=-3
 763.7309968\S2=0.762661\S2-1=0.\S2A=0.750134\RMSD=9.102e-09\RMSF=1.267
 e-05\ZeroPoint=0.0197729\Thermal=0.038596\Dipole=0.103982,0.000316,-0.
 6732976\DipoleDeriv=0.0231296,-0.0040053,-0.0138954,-0.0129,0.0098631,
 -0.1934045,0.0208061,-0.0214759,-0.1034937,-0.148128,0.0434329,0.02409
 41,-0.0308863,-0.0156247,-0.1814371,-0.0118305,-0.058482,0.0972383,-0.
 0358316,-0.0001409,0.2239363,-0.0000291,-0.1230271,-0.0000946,0.006806
 2,-0.0000313,-0.0659929,-0.1416361,0.0000625,-0.1583454,0.0000022,-0.2
 059503,0.0000133,-0.0410255,-0.0000216,-0.1407185,-0.1481352,-0.04338,
 0.0241559,0.0309764,-0.0158633,0.1813072,-0.0117644,0.0583723,0.097485
 1,-0.2677731,0.0000685,-0.1039569,0.0000382,-0.2166181,0.0000439,-0.04
 51102,0.0000264,-0.2424328,0.0231397,0.0040118,-0.0137775,0.0128707,0.
 0096322,0.1935277,0.0208319,0.0215801,-0.1032731,-0.0166376,-0.0368574
 ,-0.0883688,-0.0590733,0.0357054,0.1176858,-0.0974875,0.0286004,-0.145
 5277,0.0654669,0.0359898,0.0073996,0.0614763,-0.0566562,0.0099013,0.11
 96527,0.0178235,-0.0803365,-0.1253773,-0.0000509,0.0491288,-0.0000092,
 -0.212513,-0.0000857,-0.0320132,-0.0000613,-0.0748261,-0.2770455,-0.00
 00408,0.1306724,0.000001,-0.1881774,-0.0001283,0.0489985,-0.0001051,-0
 .0120801,-0.0165811,0.0369792,-0.0884002,0.0592043,0.0357995,-0.117447
 9,-0.0974433,-0.0283563,-0.1456775,0.0654094,-0.0360693,0.007357,-0.06
 16713,-0.0565701,-0.0098813,0.119579,-0.0178693,-0.0803647\Polar=366.4
 454175,0.0170385,423.6822987,-0.4052003,-0.058561,537.7336453\PG=C01 [
 X(Si13)]\NImag=0\\0.04107771,-0.00434595,0.10325878,0.00031702,-0.0324
 1515,0.07484200,-0.00234486,0.00045633,0.00072378,0.08468233,-0.000026
 35,0.00158303,-0.00148286,0.01050741,0.04485925,0.00044934,0.00063876,
 0.00157662,-0.01077048,0.01308832,0.14062319,-0.01603124,0.01623984,-0
 .00571233,0.00200699,0.00353826,0.00853433,0.06876417,0.02689393,-0.04
 545945,0.00154853,-0.00186932,-0.00158871,0.00307300,0.00000384,0.0942
 8349,-0.00951205,0.00878179,-0.00597386,0.00784581,0.01055507,-0.00173
 773,0.00714291,0.00002260,0.04627201,-0.01332314,-0.01343966,0.0065723
 2,-0.00268816,-0.00032479,-0.01025577,-0.03660691,0.00000973,0.0063515
 8,0.07509362,-0.02355151,-0.04325790,0.00645184,0.00059356,-0.00239206
 ,0.00305318,0.00001352,0.00756188,0.00000247,0.00001205,0.09538992,0.0
 1080383,0.01041047,-0.00996911,-0.00746676,0.01215129,-0.00065954,-0.0
 0103595,0.00000463,-0.00085692,-0.01177971,0.00001979,0.06361386,-0.00
 684253,0.00017157,-0.00241492,0.00389413,-0.00059609,0.00163798,0.0020
 0601,0.00185914,0.00784151,-0.00268831,-0.00058569,-0.00747449,0.08466
 988,0.00122502,-0.00369460,0.01673827,0.00058915,-0.00501145,0.0088309
 2,-0.00354915,-0.00157376,-0.01055950,0.00033554,-0.00237631,-0.012148
 63,-0.01051971,0.04489855,-0.00385288,0.01065605,-0.05677730,0.0016334
 0,-0.00883431,-0.00265939,0.00852887,-0.00307781,-0.00175175,-0.010257
 23,-0.00304889,-0.00067518,-0.01078908,-0.01318049,0.14059606,-0.00006
 016,-0.00168867,0.00125361,-0.02857735,-0.01529338,0.00077124,0.003055
 39,0.00000214,-0.00760775,-0.00360559,0.00000185,-0.00321890,-0.028556
 17,0.01530238,0.00079102,0.07234492,0.00384993,-0.00085307,0.00289881,
 -0.02067873,-0.01186175,-0.00687623,0.00000362,-0.00301502,0.00001281,
 0.00000214,-0.00298272,-0.00000059,0.02068888,-0.01189304,0.00686793,0
 .00000184,0.06590468,-0.00314837,0.00129785,-0.00226107,-0.00036284,-0
 .00297624,-0.00425802,-0.01050370,0.00001366,-0.02356364,-0.00380634,-
 0.00000042,0.00001189,-0.00033980,0.00296860,-0.00424788,-0.00722263,-
 0.00001076,0.09096185,-0.00227986,0.00010134,0.00084312,-0.00684335,-0
 .00121918,-0.00386039,-0.01605661,-0.02690144,-0.00954491,-0.01330139,
 0.02352275,0.01082192,-0.00234511,0.00002820,0.00044900,-0.00006142,-0
 .00384716,-0.00315310,0.04108284,-0.00010519,-0.00737471,0.00048728,-0
 .00016723,-0.00366573,-0.01059917,-0.01625124,-0.04542346,-0.00881681,
 0.01341524,-0.04326223,-0.01045107,-0.00045476,0.00158247,-0.00063902,
 0.00168690,-0.00084749,-0.00129456,0.00438219,0.10318696,0.00084273,-0
 .00049721,0.00177822,-0.00242493,-0.01668225,-0.05680545,-0.00572997,-
 0.00158579,-0.00598453,0.00658231,-0.00648996,-0.00998649,0.00072418,0
 .00148248,0.00157749,0.00125363,-0.00289809,-0.00226540,0.00034059,0.0
 3244416,0.07490875,0.00064755,-0.00045354,-0.00145390,-0.00055313,-0.0
 0317993,0.00010214,-0.00289362,0.00187782,-0.00377351,0.00034089,0.000
 91028,-0.00078802,-0.01869607,0.01230077,0.02860703,-0.00205875,0.0025
 1137,0.00111466,0.00071658,-0.00048699,0.00125665,0.05531468,-0.001383
 43,0.00216238,0.00028265,0.00244488,-0.00596594,0.00231615,-0.00156021
 ,0.00216871,0.00289389,0.00062194,0.00012611,0.00037455,0.01072762,-0.
 00267929,-0.00676873,-0.00060235,-0.00356802,0.00092167,-0.00099106,-0
 .00312422,-0.00117184,-0.02374810,0.07046888,0.00098920,-0.00169242,0.
 00127390,0.00317280,-0.00031299,-0.00395440,-0.00054655,-0.00283333,-0
 .00045410,0.00154544,-0.00075966,0.00014072,0.02743395,-0.00630990,-0.
 04044397,-0.00209786,0.00031651,-0.00295354,0.00030648,-0.00237772,-0.
 00198978,-0.01857245,0.01914582,0.07117409,-0.00081538,0.00041394,0.00
 057330,0.00173271,0.00225251,-0.00063235,0.00141495,-0.00257820,0.0002
 4712,-0.00324373,-0.00025046,0.00182782,-0.00824405,-0.00426556,-0.014
 80276,-0.00016943,0.00583560,0.01015909,-0.00097375,0.00092109,-0.0005
 8862,-0.01822601,0.00234726,-0.00099241,0.05775267,0.00023295,0.000020
 92,-0.00082166,-0.00238633,-0.00608667,-0.00116377,-0.00288498,-0.0005
 4352,-0.00341182,0.00184718,0.00195002,0.00040258,-0.00268815,0.001222
 01,0.00203651,0.00501412,-0.01384163,-0.01504486,0.00100255,-0.0026264
 6,0.00010329,0.00635650,-0.00286794,-0.00347051,0.01687115,0.04737492,
 0.00123025,0.00034900,0.00170644,-0.00504217,-0.00484090,-0.00532107,0
 .00090422,0.00242314,-0.00080460,-0.00006193,-0.00234331,-0.00066411,-
 0.01862403,0.00147730,-0.01916357,0.00974660,-0.02391932,-0.02039045,-
 0.00058411,-0.00166073,-0.00021145,-0.00307299,-0.00292830,0.00203003,
 0.00403144,0.01808276,0.05266378,-0.00085435,0.00072377,0.00079631,-0.
 00179604,0.00055870,-0.00126144,0.00028999,-0.00000206,0.00213929,0.00
 031080,-0.00000054,-0.00023843,-0.00179780,-0.00055598,-0.00125731,0.0
 0101356,-0.00000357,0.00718712,-0.00085518,-0.00072413,0.00079532,-0.0
 0710318,0.00899441,-0.00479137,-0.01425570,-0.01649301,0.01021265,0.04
 616290,0.00067653,-0.00007059,0.00040007,0.00244000,0.00063272,-0.0079
 8618,0.00000122,-0.00297457,0.00000038,-0.00000258,-0.00194810,0.00000
 186,-0.00243903,0.00062448,0.00799527,0.00000123,0.00144776,0.00000088
 ,-0.00067716,-0.00007279,-0.00039869,0.00993007,-0.01723332,0.01434308
 ,-0.01508397,-0.01236078,0.00568448,0.00001359,0.06277369,0.00106708,-
 0.00335471,-0.00185097,0.00044079,-0.00178455,-0.00750434,-0.00422628,
 0.00000225,-0.00493926,0.00370254,0.00000069,-0.00541841,0.00043934,0.
 00179266,-0.00749428,-0.00216115,0.00000363,-0.00436947,0.00106835,0.0
 0335592,-0.00184792,-0.00108702,0.00764946,-0.01083894,0.00957806,0.00
 588784,-0.00681127,-0.01685445,0.00000113,0.07024210,0.00108368,0.0022
 5905,-0.00216652,-0.02256370,0.01181728,0.00148665,-0.00447348,-0.0000
 0143,0.00239538,0.00261660,-0.00000786,0.00751000,-0.02258007,-0.01181
 084,0.00147988,-0.01108932,0.00000356,-0.00119754,0.00108437,-0.002257
 73,-0.00217165,-0.00318097,-0.00234548,-0.00407136,-0.00360527,-0.0022
 4661,0.00131539,0.00023645,-0.00000018,-0.00045562,0.06924843,-0.00345
 150,-0.00055914,0.00484772,0.01610383,-0.00904490,-0.00915893,-0.00000
 135,-0.00505678,-0.00000385,-0.00000906,-0.01088416,0.00001021,-0.0160
 9939,-0.00904185,0.00914845,0.00000253,-0.00104870,0.00000155,0.003449
 41,-0.00055304,-0.00484481,-0.00627537,-0.02894171,-0.02107650,-0.0053
 3531,0.00014881,0.00186644,0.00000067,-0.00125154,0.00000024,0.0000082
 5,0.09507012,0.00108915,0.00179057,-0.00214888,0.00344613,-0.00376792,
 0.00029778,0.00228196,-0.00000382,0.00105211,0.00992396,0.00000949,-0.
 03501569,0.00343176,0.00375628,0.00031108,0.00083411,0.00000094,-0.003
 35914,0.00109165,-0.00178955,-0.00215570,-0.00409798,-0.01748406,-0.01
 275842,-0.00519687,0.00302654,-0.00325041,-0.00214491,0.00000076,-0.00
 148242,-0.00138459,0.00001100,0.07448388,0.00071746,0.00048342,0.00125
 786,-0.01870960,-0.01232081,0.02859833,-0.00289380,-0.00187094,-0.0037
 7714,0.00033998,-0.00090958,-0.00078917,-0.00055271,0.00317665,0.00010
 404,-0.00205988,-0.00251339,0.00111153,0.00064863,0.00045591,-0.001453
 61,0.00052250,0.00234288,-0.00166892,-0.00483386,-0.00260550,0.0034370
 8,-0.00711432,-0.00993490,-0.00110175,-0.00317590,0.00626444,-0.004081
 24,0.05534262,0.00098849,-0.00312874,0.00116993,-0.01074645,-0.0026792
 7,0.00679078,0.00156375,0.00216894,-0.00288897,-0.00062367,0.00012660,
 -0.00037411,-0.00245132,-0.00596427,-0.00231830,0.00060361,-0.00356563
 ,-0.00092296,0.00138330,0.00215988,-0.00028088,-0.00234347,-0.00338455
 ,0.00234398,-0.00315229,-0.00715790,0.00287666,-0.00899542,-0.01719956
 ,-0.00765537,0.00233454,-0.02898647,0.01746977,0.02377612,0.07048038,0
 .00030889,0.00237638,-0.00198613,0.02742660,0.00633266,-0.04043044,-0.
 00054328,0.00283634,-0.00045416,0.00154526,0.00075874,0.00014111,0.003
 17046,0.00030903,-0.00395645,-0.00209742,-0.00031591,-0.00295480,0.000
 99161,0.00169275,0.00127534,-0.00167271,-0.00234629,-0.00017794,-0.000
 71178,-0.00268951,-0.00104746,-0.00480907,-0.01434682,-0.01086160,-0.0
 0405658,0.02106219,-0.01271874,-0.01855921,-0.01913560,0.07113466,-0.0
 0097488,-0.00092145,-0.00058964,-0.00823998,0.00428638,-0.01479959,0.0
 0141816,0.00257678,0.00025177,-0.00324467,0.00025164,0.00182784,0.0017
 3279,-0.00225646,-0.00063398,-0.00017582,-0.00585410,0.01016192,-0.000
 81576,-0.00041404,0.00057336,-0.00483047,0.00315165,-0.00070695,-0.006
 53316,-0.00201987,-0.00349240,-0.01423712,0.01507519,0.00959011,-0.003
 60081,0.00534286,-0.00519315,-0.01823112,-0.00233720,-0.00099278,0.057
 73283,-0.00100292,-0.00262692,-0.00010543,0.00271290,0.00122148,-0.002
 00682,0.00288289,-0.00054775,0.00341194,-0.00184406,0.00194895,-0.0004
 0098,0.00238692,-0.00609294,0.00116334,-0.00503220,-0.01387537,0.01504
 558,-0.00023373,0.00002083,0.00081960,0.00260059,-0.00716107,0.0026836
 4,0.00202424,-0.00523178,0.00293278,0.01648357,-0.01236739,-0.00589919
 ,0.00224746,0.00014936,-0.00301998,-0.00634429,-0.00286940,0.00346605,
 -0.01688136,0.04743201,-0.00058418,0.00165862,-0.00020986,-0.01862213,
 -0.00144531,-0.01916721,0.00090576,-0.00242340,-0.00080357,-0.00006243
 ,0.00234604,-0.00066212,-0.00503687,0.00484299,-0.00531487,0.00975550,
 0.02392028,-0.02035032,0.00122979,-0.00035147,0.00170692,0.00343808,-0
 .00288496,-0.00104765,-0.00349203,-0.00293740,0.00126416,0.01022628,-0
 .00569619,-0.00682323,0.00131656,-0.00186372,-0.00325545,-0.00307779,0
 .00292506,0.00203660,0.00400346,-0.01809053,0.05262660\\0.00002541,0.0
 0000158,-0.00000017,0.00000197,0.00000040,-0.00000492,0.00002926,-0.00
 000004,0.00002241,0.00001646,0.,-0.00001033,0.00000196,-0.00000036,-0.
 00000494,-0.00000599,0.,0.00001259,0.00002542,-0.00000160,-0.00000018,
 -0.00001640,0.00000043,-0.00001162,-0.00001714,-0.00000015,0.00001308,
 -0.00003065,0.00000001,-0.00000043,0.00000323,0.,-0.00001696,-0.000016
 41,-0.00000041,-0.00001162,-0.00001714,0.00000014,0.00001307\\\@


    UPON JULIA'S CLOTHES

 WHENAS IN SILKS MY JULIA GOES,
 THEN, THEN, METHINKS, HOW SWEETLY FLOWS
 THAT LIQUEFACTION OF HER CLOTHES.

 NEXT, WHEN I CAST MINE EYES, AND SEE
 THAT BRAVE VIBRATION, EACH WAY FREE,
 O, HOW THAT GLITTERING TAKETH ME!
     -- ROBERT HERRICK, 1648
 Job cpu time:  0 days  6 hours 26 minutes 10.6 seconds.
Normal termination of Gaussian 09 at Tue Mar  6 15:20:21 2012.
