 Entering Gaussian System, Link 0=g09
 Initial command:
 /usr/local/chem/g09A2/l1.exe /temp0/tam/Gau-14211.inp -scrdir=/temp0/tam/
 Entering Link 1 = /usr/local/chem/g09A2/l1.exe PID=     14212.
  
 Copyright (c) 1988,1990,1992,1993,1995,1998,2003,2009, Gaussian, Inc.
                  All Rights Reserved.
  
 This is part of the Gaussian(R) 09 program.  It is based on
 the Gaussian(R) 03 system (copyright 2003, Gaussian, Inc.),
 the Gaussian(R) 98 system (copyright 1998, Gaussian, Inc.),
 the Gaussian(R) 94 system (copyright 1995, Gaussian, Inc.),
 the Gaussian 92(TM) system (copyright 1992, Gaussian, Inc.),
 the Gaussian 90(TM) system (copyright 1990, Gaussian, Inc.),
 the Gaussian 88(TM) system (copyright 1988, Gaussian, Inc.),
 the Gaussian 86(TM) system (copyright 1986, Carnegie Mellon
 University), and the Gaussian 82(TM) system (copyright 1983,
 Carnegie Mellon University). Gaussian is a federally registered
 trademark of Gaussian, Inc.
  
 This software contains proprietary and confidential information,
 including trade secrets, belonging to Gaussian, Inc.
  
 This software is provided under written license and may be
 used, copied, transmitted, or stored only in accord with that
 written license.
  
 The following legend is applicable only to US Government
 contracts under FAR:
  
                    RESTRICTED RIGHTS LEGEND
  
 Use, reproduction and disclosure by the US Government is
 subject to restrictions as set forth in subparagraphs (a)
 and (c) of the Commercial Computer Software - Restricted
 Rights clause in FAR 52.227-19.
  
 Gaussian, Inc.
 340 Quinnipiac St., Bldg. 40, Wallingford CT 06492
  
  
 ---------------------------------------------------------------
 Warning -- This program may not be used in any manner that
 competes with the business of Gaussian, Inc. or will provide
 assistance to any competitor of Gaussian, Inc.  The licensee
 of this program is prohibited from giving any competitor of
 Gaussian, Inc. access to this program.  By using this program,
 the user acknowledges that Gaussian, Inc. is engaged in the
 business of creating and licensing software in the field of
 computational chemistry and represents and warrants to the
 licensee that it is not a competitor of Gaussian, Inc. and that
 it will not use this program in any manner prohibited above.
 ---------------------------------------------------------------
  

 Cite this work as:
 Gaussian 09, Revision A.02,
 M. J. Frisch, G. W. Trucks, H. B. Schlegel, G. E. Scuseria, 
 M. A. Robb, J. R. Cheeseman, G. Scalmani, V. Barone, B. Mennucci, 
 G. A. Petersson, H. Nakatsuji, M. Caricato, X. Li, H. P. Hratchian, 
 A. F. Izmaylov, J. Bloino, G. Zheng, J. L. Sonnenberg, M. Hada, 
 M. Ehara, K. Toyota, R. Fukuda, J. Hasegawa, M. Ishida, T. Nakajima, 
 Y. Honda, O. Kitao, H. Nakai, T. Vreven, J. A. Montgomery, Jr., 
 J. E. Peralta, F. Ogliaro, M. Bearpark, J. J. Heyd, E. Brothers, 
 K. N. Kudin, V. N. Staroverov, R. Kobayashi, J. Normand, 
 K. Raghavachari, A. Rendell, J. C. Burant, S. S. Iyengar, J. Tomasi, 
 M. Cossi, N. Rega, J. M. Millam, M. Klene, J. E. Knox, J. B. Cross, 
 V. Bakken, C. Adamo, J. Jaramillo, R. Gomperts, R. E. Stratmann, 
 O. Yazyev, A. J. Austin, R. Cammi, C. Pomelli, J. W. Ochterski, 
 R. L. Martin, K. Morokuma, V. G. Zakrzewski, G. A. Voth, 
 P. Salvador, J. J. Dannenberg, S. Dapprich, A. D. Daniels, 
 O. Farkas, J. B. Foresman, J. V. Ortiz, J. Cioslowski, 
 and D. J. Fox, Gaussian, Inc., Wallingford CT, 2009.
 
 ******************************************
 Gaussian 09:  AM64L-G09RevA.02 11-Jun-2009
                18-Jan-2013 
 ******************************************
 %NprocShared=6
 Will use up to    6 processors via shared memory.
 %mem=13750MB
 %chk=S9L-ne-d-01
 -----------------------------------------
 # b3lyp/6-311G(d) freq scfcyc=500 scf=xqc
 -----------------------------------------
 1/10=4,30=1,38=1/1,3;
 2/12=2,17=6,18=5,40=1/2;
 3/5=4,6=6,7=1,11=2,16=1,25=1,30=1,71=2,74=-5/1,2,3;
 4//1;
 5/5=2,7=500,8=3,13=1,38=5,98=1/2,8;
 8/6=4,10=90,11=11/1;
 11/6=1,8=1,9=11,15=111,16=1/1,2,10;
 10/6=1/2;
 6/7=2,8=2,9=2,10=2,18=1,28=1/1;
 7/8=1,10=1,25=1/1,2,3,16;
 1/10=4,30=1/3;
 99//99;
 ------
 si13-n
 ------
 Symbolic Z-matrix:
 Charge =  0 Multiplicity = 1
 Si                    0.       -1.64358  -1.50364 
 Si                    0.       -3.17413   0.25259 
 Si                    1.36792  -1.36792   0.75629 
 Si                    1.64358   0.       -1.50364 
 Si                    1.36792   1.36792   0.75629 
 Si                    0.        3.17413   0.25259 
 Si                   -1.36792   1.36792   0.75629 
 Si                    0.        0.        2.38142 
 Si                   -1.36792  -1.36792   0.75629 
 Si                   -1.64358   0.       -1.50364 
 Si                    0.        1.64358  -1.50364 
 Si                    3.17413   0.        0.25259 
 Si                   -3.17413   0.        0.25259 
 

 GradGradGradGradGradGradGradGradGradGradGradGradGradGradGradGradGradGrad
 Berny optimization.
 Initialization pass.
 Trust Radius=3.00D-01 FncErr=1.00D-07 GrdErr=1.00D-07
 Number of steps in this run=   2 maximum allowed number of steps=   2.
 GradGradGradGradGradGradGradGradGradGradGradGradGradGradGradGradGradGrad

                          Input orientation:                          
 ---------------------------------------------------------------------
 Center     Atomic      Atomic             Coordinates (Angstroms)
 Number     Number       Type             X           Y           Z
 ---------------------------------------------------------------------
      1         14           0        0.000000   -1.643579   -1.503642
      2         14           0        0.000000   -3.174131    0.252589
      3         14           0        1.367921   -1.367921    0.756288
      4         14           0        1.643579    0.000000   -1.503642
      5         14           0        1.367921    1.367921    0.756288
      6         14           0        0.000000    3.174131    0.252589
      7         14           0       -1.367921    1.367921    0.756288
      8         14           0        0.000000    0.000000    2.381423
      9         14           0       -1.367921   -1.367921    0.756288
     10         14           0       -1.643579    0.000000   -1.503642
     11         14           0        0.000000    1.643579   -1.503642
     12         14           0        3.174131    0.000000    0.252589
     13         14           0       -3.174131    0.000000    0.252589
 ---------------------------------------------------------------------
                    Distance matrix (angstroms):
                    1          2          3          4          5
     1  Si   0.000000
     2  Si   2.329579   0.000000
     3  Si   2.656027   2.321059   0.000000
     4  Si   2.324372   3.982563   2.656027   0.000000
     5  Si   4.005948   4.770236   2.735841   2.656027   0.000000
     6  Si   5.127834   6.348262   4.770236   3.982563   2.321059
     7  Si   4.005948   4.770236   3.869063   4.005948   2.735841
     8  Si   4.218422   3.821916   2.526554   4.218422   2.526554
     9  Si   2.656027   2.321059   2.735841   4.005948   3.869063
    10  Si   2.324372   3.982563   4.005948   3.287158   4.005948
    11  Si   3.287158   5.127834   4.005948   2.324372   2.656027
    12  Si   3.982563   4.488899   2.321059   2.329579   2.321059
    13  Si   3.982563   4.488899   4.770236   5.127834   4.770236
                    6          7          8          9         10
     6  Si   0.000000
     7  Si   2.321059   0.000000
     8  Si   3.821916   2.526554   0.000000
     9  Si   4.770236   2.735841   2.526554   0.000000
    10  Si   3.982563   2.656027   4.218422   2.656027   0.000000
    11  Si   2.329579   2.656027   4.218422   4.005948   2.324372
    12  Si   4.488899   4.770236   3.821916   4.770236   5.127834
    13  Si   4.488899   2.321059   3.821916   2.321059   2.329579
                   11         12         13
    11  Si   0.000000
    12  Si   3.982563   0.000000
    13  Si   3.982563   6.348262   0.000000
 Stoichiometry    Si13
 Framework group  C4V[C4(Si),2SGV(Si4),2SGD(Si2)]
 Deg. of freedom     6
 Full point group                 C4V     NOp   8
 Largest Abelian subgroup         C2V     NOp   4
 Largest concise Abelian subgroup C2V     NOp   4
                         Standard orientation:                         
 ---------------------------------------------------------------------
 Center     Atomic      Atomic             Coordinates (Angstroms)
 Number     Number       Type             X           Y           Z
 ---------------------------------------------------------------------
      1         14           0        0.000000    1.643579   -1.534593
      2         14           0        0.000000    3.174131    0.221638
      3         14           0       -1.367921    1.367921    0.725337
      4         14           0       -1.643579    0.000000   -1.534593
      5         14           0       -1.367921   -1.367921    0.725337
      6         14           0        0.000000   -3.174131    0.221638
      7         14           0        1.367921   -1.367921    0.725337
      8         14           0        0.000000    0.000000    2.350472
      9         14           0        1.367921    1.367921    0.725337
     10         14           0        1.643579    0.000000   -1.534593
     11         14           0        0.000000   -1.643579   -1.534593
     12         14           0       -3.174131    0.000000    0.221638
     13         14           0        3.174131    0.000000    0.221638
 ---------------------------------------------------------------------
 Rotational constants (GHZ):      0.3592471      0.3592471      0.2733863
 Standard basis: 6-311G(d) (5D, 7F)
 There are   115 symmetry adapted basis functions of A1  symmetry.
 There are    55 symmetry adapted basis functions of A2  symmetry.
 There are    84 symmetry adapted basis functions of B1  symmetry.
 There are    84 symmetry adapted basis functions of B2  symmetry.
 Integral buffers will be    131072 words long.
 Raffenetti 2 integral format.
 Two-electron integral symmetry is turned on.
   338 basis functions,   598 primitive gaussians,   351 cartesian basis functions
    91 alpha electrons       91 beta electrons
       nuclear repulsion energy      2461.3628839251 Hartrees.
 NAtoms=   13 NActive=   13 NUniq=    4 SFac= 3.00D+00 NAtFMM=   80 NAOKFM=F Big=F
 One-electron integrals computed using PRISM.
 NBasis=   338 RedAO= T  NBF=   115    55    84    84
 NBsUse=   338 1.00D-06 NBFU=   115    55    84    84
 Harris functional with IExCor=  402 diagonalized for initial guess.
 ExpMin= 6.54D-02 ExpMax= 6.94D+04 ExpMxC= 2.33D+03 IAcc=2 IRadAn=         0 AccDes= 0.00D+00
 HarFok:  IExCor=  402 AccDes= 0.00D+00 IRadAn=         0 IDoV= 1
 ScaDFX=  1.000000  1.000000  1.000000  1.000000
 FoFCou: FMM=F IPFlag=           0 FMFlag=      100000 FMFlg1=           0
         NFxFlg=           0 DoJE=T BraDBF=F KetDBF=T FulRan=T
         Omega=  0.000000  0.000000  1.000000  0.000000  0.000000 ICntrl=     500 IOpCl=  0
         NMat0=    1 NMatS0=    1 NMatT0=    0 NMatD0=    1 NMtDS0=    0 NMtDT0=    0
         I1Cent=           4 NGrid=           0.
 Petite list used in FoFCou.
 Initial guess orbital symmetries:
       Occupied  (E) (E) (A1) (B1) (B2) (E) (E) (A1) (E) (E) (B2)
                 (A1) (A1) (E) (E) (A1) (B1) (A1) (E) (E) (B2)
                 (E) (E) (B2) (A1) (A1) (B2) (E) (E) (A2) (A1)
                 (E) (E) (B1) (A1) (E) (E) (B1) (A1) (E) (E) (B2)
                 (B1) (E) (E) (A2) (A1) (E) (E) (B2) (A1) (E) (E)
                 (B2) (B1) (E) (E) (A2) (A1) (E) (E) (B2) (A1)
                 (E) (E) (A1) (E) (E) (A1) (B2) (A1) (B1) (E) (E)
                 (E) (E) (A1) (B2) (A1) (E) (E) (B1) (E) (E) (B2)
                 (A2) (A1) (E) (E) (A1) (E)
       Virtual   (E) (B1) (B2) (A1) (B1) (E) (E) (A1) (E) (E) (A1)
                 (E) (E) (B2) (A1) (E) (E) (A2) (B2) (E) (E) (B1)
                 (E) (E) (A2) (B2) (A1) (B1) (A1) (E) (E) (E) (E)
                 (B1) (A1) (B2) (E) (E) (A1) (E) (E) (E) (E) (B1)
                 (A1) (B2) (A1) (B2) (E) (E) (E) (E) (B2) (A2)
                 (E) (E) (A1) (B1) (A1) (A2) (E) (E) (B2) (E) (E)
                 (B1) (A2) (A1) (B2) (E) (E) (E) (E) (B1) (A1)
                 (E) (E) (B2) (A1) (A1) (B1) (E) (E) (B1) (A2)
                 (E) (E) (A1) (E) (E) (A1) (E) (E) (B2) (E) (E)
                 (B2) (A1) (B1) (A2) (E) (E) (B2) (A1) (E) (E)
                 (A1) (E) (E) (E) (E) (B1) (B2) (A2) (B2) (B1)
                 (E) (E) (A1) (A2) (B2) (E) (E) (A1) (B2) (E) (E)
                 (B1) (E) (E) (A1) (B2) (E) (E) (A2) (E) (E) (B2)
                 (A2) (A1) (E) (E) (B1) (A1) (A1) (E) (E) (B1)
                 (E) (E) (A1) (B2) (B1) (A2) (E) (E) (E) (E) (B2)
                 (A1) (E) (E) (A1) (E) (E) (B1) (A1) (A2) (E) (E)
                 (E) (E) (A1) (B2) (B2) (E) (E) (B2) (E) (E) (B1)
                 (A2) (A1) (A1) (B1) (E) (E) (B2) (E) (E) (A1)
                 (A1) (B2) (E) (E) (A1) (E) (E) (A2) (E) (E) (B2)
                 (A1) (E) (E) (B1) (A1) (B2) (A1) (E) (E) (A2)
                 (A1) (B1) (E) (E) (B1) (E) (E) (E) (E) (B2) (E)
                 (E) (B2) (A1) (B1) (A1) (E) (E) (A2) (E) (E) (B2)
                 (A1) (A1) (B1) (E) (E) (B2) (E) (E) (A1) (A1)
                 (B2) (E) (E)
 Requested convergence on RMS density matrix=1.00D-08 within 128 cycles.
 Requested convergence on MAX density matrix=1.00D-06.
 Requested convergence on             energy=1.00D-06.
 No special actions if energy rises.
 Integral accuracy reduced to 1.0D-05 until final iterations.
 Density matrix breaks symmetry, PCut= 1.00D-04
 Density has only Abelian symmetry.
 Density matrix breaks symmetry, PCut= 1.00D-04
 Density has only Abelian symmetry.
 Density matrix breaks symmetry, PCut= 1.00D-04
 Density has only Abelian symmetry.
 Density matrix breaks symmetry, PCut= 1.00D-04
 Density has only Abelian symmetry.
 Density matrix breaks symmetry, PCut= 1.00D-04
 Density has only Abelian symmetry.
 EnCoef did     6 forward-backward iterations
 Density matrix breaks symmetry, PCut= 1.00D-04
 Density has only Abelian symmetry.
 Density matrix breaks symmetry, PCut= 1.00D-04
 Density has only Abelian symmetry.
 EnCoef did    19 forward-backward iterations
 Density matrix breaks symmetry, PCut= 1.00D-04
 Density has only Abelian symmetry.
 Density matrix breaks symmetry, PCut= 1.00D-04
 Density has only Abelian symmetry.
 Density matrix breaks symmetry, PCut= 1.00D-04
 Density has only Abelian symmetry.
 Density matrix breaks symmetry, PCut= 1.00D-04
 Density has only Abelian symmetry.
 Initial convergence to 1.0D-05 achieved.  Increase integral accuracy.
 Density matrix breaks symmetry, PCut= 1.00D-04
 Density has only Abelian symmetry.
 Density matrix breaks symmetry, PCut= 1.00D-04
 Density has only Abelian symmetry.
 Density matrix breaks symmetry, PCut= 1.00D-04
 Density has only Abelian symmetry.
 Density matrix breaks symmetry, PCut= 1.00D-04
 Density has only Abelian symmetry.
 Density matrix breaks symmetry, PCut= 1.00D-04
 Density has only Abelian symmetry.
 Density matrix breaks symmetry, PCut= 1.00D-04
 Density has only Abelian symmetry.
 Density matrix breaks symmetry, PCut= 1.00D-04
 Density has only Abelian symmetry.
 Density matrix breaks symmetry, PCut= 1.00D-04
 Density has only Abelian symmetry.
 Density matrix breaks symmetry, PCut= 1.00D-04
 Density has only Abelian symmetry.
 Density matrix breaks symmetry, PCut= 1.00D-04
 Density has only Abelian symmetry.
 SCF Done:  E(RB3LYP) =  -3763.55944277     A.U. after   20 cycles
             Convg  =    0.3267D-08             -V/T =  2.0014
 QCSCF skips out because SCF is already converged.
 Range of M.O.s used for correlation:     1   338
 NBasis=   338 NAE=    91 NBE=    91 NFC=     0 NFV=     0
 NROrb=    338 NOA=    91 NOB=    91 NVA=   247 NVB=   247

 **** Warning!!: The smallest alpha delta epsilon is  0.98053928D-02

 Symmetrizing basis deriv contribution to polar:
 IMax=3 JMax=2 DiffMx= 0.00D+00
 G2DrvN: will do    14 centers at a time, making    1 passes doing MaxLOS=2.
 Calling FoFCou, ICntrl=  3107 FMM=F I1Cent=   0 AccDes= 0.00D+00.
 FoFDir/FoFCou used for L=0 through L=2.
 End of G2Drv Frequency-dependent properties file   721 does not exist.
 End of G2Drv Frequency-dependent properties file   722 does not exist.
          IDoAtm=1111111111111
          Differentiating once with respect to electric field.
                with respect to dipole field.
          Differentiating once with respect to nuclear coordinates.
          There are    21 degrees of freedom in the 1st order CPHF.  IDoFFX=4.
     21 vectors produced by pass  0 Test12= 1.07D-13 4.76D-09 XBig12= 2.63D+03 2.75D+01.
 AX will form    21 AO Fock derivatives at one time.
     21 vectors produced by pass  1 Test12= 1.07D-13 4.76D-09 XBig12= 1.66D+03 9.58D+00.
     21 vectors produced by pass  2 Test12= 1.07D-13 4.76D-09 XBig12= 2.74D+02 2.62D+00.
     21 vectors produced by pass  3 Test12= 1.07D-13 4.76D-09 XBig12= 1.49D+01 6.01D-01.
     21 vectors produced by pass  4 Test12= 1.07D-13 4.76D-09 XBig12= 4.46D-01 1.26D-01.
     21 vectors produced by pass  5 Test12= 1.07D-13 4.76D-09 XBig12= 7.06D-03 1.47D-02.
     21 vectors produced by pass  6 Test12= 1.07D-13 4.76D-09 XBig12= 1.82D-04 1.94D-03.
     21 vectors produced by pass  7 Test12= 1.07D-13 4.76D-09 XBig12= 4.50D-06 3.19D-04.
     21 vectors produced by pass  8 Test12= 1.07D-13 4.76D-09 XBig12= 3.34D-08 2.72D-05.
      7 vectors produced by pass  9 Test12= 1.07D-13 4.76D-09 XBig12= 1.64D-10 1.97D-06.
      3 vectors produced by pass 10 Test12= 1.07D-13 4.76D-09 XBig12= 6.28D-13 1.40D-07.
      3 vectors produced by pass 11 Test12= 1.07D-13 4.76D-09 XBig12= 3.80D-15 1.02D-08.
 Inverted reduced A of dimension   202 with in-core refinement.
 Isotropic polarizability for W=    0.000000      378.49 Bohr**3.
 End of Minotr Frequency-dependent properties file   721 does not exist.
 End of Minotr Frequency-dependent properties file   722 does not exist.

 **********************************************************************

            Population analysis using the SCF density.

 **********************************************************************

 Orbital symmetries:
       Occupied  (E) (E) (A1) (B1) (E) (E) (E) (E) (E) (E) (A1)
                 (E) (E) (E) (E) (A1) (B1) (E) (E) (E) (E) (E)
                 (E) (A1) (E) (E) (B2) (?A) (?A) (?B) (B2) (?A)
                 (?A) (?B) (B2) (?A) (?A) (?B) (?A) (B2) (?A) (B2)
                 (?A) (?B) (B2) (?A) (?B) (?A) (B2) (?A) (?A) (B2)
                 (?A) (?B) (B2) (?A) (E) (A1) (E) (?A) (?B) (B2)
                 (?A) (?A) (B2) (?C) (?D) (?D) (?C) (?C) (?C) (?E)
                 (?D) (?D) (?D) (?D) (?C) (?C) (?D) (?C) (?D) (?E)
                 (?D) (?C) (?D) (?E) (?C) (?D) (?C) (?D) (?D)
       Virtual   (?D) (?C) (?E) (?C) (?E) (?D) (?D) (?C) (?D) (?D)
                 (?C) (?D) (?D) (?C) (?D) (?C) (?D) (?D) (?D) (?E)
                 (?C) (?E) (?D) (?D) (?E) (?C) (?C) (?E) (?C) (?D)
                 (?D) (?D) (?C) (?E) (?D) (?D) (?C) (?D) (?C) (?D)
                 (?D) (?E) (?D) (?C) (?C) (?D) (?D) (?C) (?D) (?C)
                 (?D) (?D) (?C) (?E) (?D) (?C) (?D) (?D) (?E) (?D)
                 (?E) (?D) (?D) (?C) (?E) (?C) (?E) (?C) (?C) (?D)
                 (?D) (?D) (?D) (?E) (?D) (?C) (?D) (?C) (?C) (?C)
                 (?E) (?D) (?E) (?D) (?E) (?D) (?D) (?C) (?D) (?D)
                 (?D) (?C) (?D) (?C) (?D) (?D) (?C) (?C) (?E) (?D)
                 (?C) (?E) (?D) (?C) (?D) (?D) (?C) (?D) (?D) (?D)
                 (?D) (?C) (?E) (?E) (?C) (?E) (?D) (?D) (?C) (?D)
                 (?C) (?D) (?E) (?C) (?E) (?D) (?C) (?D) (?D) (?D)
                 (?C) (?D) (?D) (?C) (?E) (?D) (?D) (?C) (?E) (?C)
                 (?D) (?D) (?E) (?C) (?C) (?D) (?D) (?E) (?D) (?D)
                 (?C) (?E) (?E) (?C) (?D) (?D) (?D) (?D) (?C) (?C)
                 (?D) (?D) (?C) (?D) (?D) (?E) (?C) (?E) (?D) (?D)
                 (?D) (?C) (?D) (?C) (?C) (?D) (?D) (?C) (?E) (?D)
                 (?D) (?E) (?F) (B1) (?F) (?G) (?F) (?G) (?G) (?G)
                 (?F) (?F) (?F) (?G) (?G) (?H) (?I) (?I) (?J) (?I)
                 (?H) (?I) (?H) (?I) (?I) (?J) (?H) (?H) (?H) (?I)
                 (?I) (?J) (?H) (?I) (?J) (?I) (?J) (?I) (?I) (?I)
                 (?I) (?H) (?I) (?I) (?H) (?J) (?H) (?H) (?I) (?I)
                 (?J) (?I) (?I) (?H) (?K) (?K) (B1) (?K) (?K) (?K)
                 (?K) (?K) (?K) (?K) (?K) (?K) (?K)
 Unable to determine electronic state:  an orbital has unidentified symmetry.
 Alpha  occ. eigenvalues --  -66.13617 -66.13617 -66.13617 -66.13617 -66.12872
 Alpha  occ. eigenvalues --  -66.12872 -66.12571 -66.12571 -66.11237 -66.11237
 Alpha  occ. eigenvalues --  -66.10589 -66.08636 -66.08636  -5.30783  -5.30782
 Alpha  occ. eigenvalues --   -5.30780  -5.30778  -5.29992  -5.29991  -5.29867
 Alpha  occ. eigenvalues --   -5.29866  -5.28597  -5.28596  -5.27665  -5.25881
 Alpha  occ. eigenvalues --   -5.25880  -3.66695  -3.66694  -3.66692  -3.66691
 Alpha  occ. eigenvalues --   -3.66586  -3.66585  -3.66581  -3.66579  -3.66373
 Alpha  occ. eigenvalues --   -3.66370  -3.66364  -3.66361  -3.65860  -3.65860
 Alpha  occ. eigenvalues --   -3.65841  -3.65841  -3.65685  -3.65685  -3.65662
 Alpha  occ. eigenvalues --   -3.65662  -3.65584  -3.65584  -3.65472  -3.65471
 Alpha  occ. eigenvalues --   -3.64467  -3.64466  -3.64405  -3.64405  -3.64191
 Alpha  occ. eigenvalues --   -3.64191  -3.63532  -3.63398  -3.63298  -3.61700
 Alpha  occ. eigenvalues --   -3.61700  -3.61622  -3.61622  -3.61479  -3.61479
 Alpha  occ. eigenvalues --   -0.70624  -0.64004  -0.62708  -0.58323  -0.56044
 Alpha  occ. eigenvalues --   -0.49318  -0.46756  -0.46620  -0.45697  -0.40878
 Alpha  occ. eigenvalues --   -0.39883  -0.37483  -0.34468  -0.31616  -0.31614
 Alpha  occ. eigenvalues --   -0.31404  -0.29822  -0.27940  -0.27304  -0.26786
 Alpha  occ. eigenvalues --   -0.25363  -0.24465  -0.23533  -0.23423  -0.22180
 Alpha  occ. eigenvalues --   -0.15989
 Alpha virt. eigenvalues --   -0.15008  -0.12086  -0.11650  -0.09210  -0.07013
 Alpha virt. eigenvalues --   -0.05922  -0.05759  -0.05687  -0.04762  -0.04642
 Alpha virt. eigenvalues --   -0.04339  -0.03190  -0.02208   0.00115   0.01000
 Alpha virt. eigenvalues --    0.01480   0.02513   0.03946   0.03956   0.04034
 Alpha virt. eigenvalues --    0.04592   0.05458   0.05692   0.05848   0.06747
 Alpha virt. eigenvalues --    0.08042   0.08421   0.09198   0.09777   0.10287
 Alpha virt. eigenvalues --    0.10830   0.11926   0.12372   0.12490   0.13039
 Alpha virt. eigenvalues --    0.13222   0.14503   0.14576   0.15435   0.16831
 Alpha virt. eigenvalues --    0.17348   0.19245   0.19604   0.19854   0.20178
 Alpha virt. eigenvalues --    0.20650   0.21771   0.21916   0.22251   0.22286
 Alpha virt. eigenvalues --    0.23025   0.23153   0.24299   0.24528   0.25101
 Alpha virt. eigenvalues --    0.25695   0.25754   0.26587   0.26808   0.27370
 Alpha virt. eigenvalues --    0.28433   0.28999   0.29066   0.30320   0.30529
 Alpha virt. eigenvalues --    0.31268   0.31627   0.38508   0.39893   0.41915
 Alpha virt. eigenvalues --    0.42282   0.44401   0.44643   0.46604   0.47463
 Alpha virt. eigenvalues --    0.47764   0.48278   0.48397   0.48877   0.49072
 Alpha virt. eigenvalues --    0.49956   0.50833   0.51396   0.51464   0.52334
 Alpha virt. eigenvalues --    0.53448   0.53632   0.53770   0.54183   0.55689
 Alpha virt. eigenvalues --    0.55898   0.56220   0.57363   0.57675   0.57897
 Alpha virt. eigenvalues --    0.59090   0.62379   0.63531   0.64066   0.66695
 Alpha virt. eigenvalues --    0.67058   0.67238   0.67648   0.67758   0.68134
 Alpha virt. eigenvalues --    0.68385   0.69027   0.70334   0.70857   0.71596
 Alpha virt. eigenvalues --    0.71664   0.73415   0.74002   0.74916   0.75247
 Alpha virt. eigenvalues --    0.76088   0.76669   0.77265   0.78559   0.80474
 Alpha virt. eigenvalues --    0.80515   0.80831   0.81049   0.81711   0.84157
 Alpha virt. eigenvalues --    0.84929   0.84994   0.85112   0.86265   0.86304
 Alpha virt. eigenvalues --    0.88361   0.89726   0.90010   0.90139   0.91286
 Alpha virt. eigenvalues --    0.93951   0.95133   0.99344   1.00407   1.01042
 Alpha virt. eigenvalues --    1.02383   1.02502   1.04411   1.20367   1.21106
 Alpha virt. eigenvalues --    1.22227   1.22257   1.22944   1.24256   1.24988
 Alpha virt. eigenvalues --    1.25880   1.26946   1.28109   1.28315   1.28787
 Alpha virt. eigenvalues --    1.29457   1.29854   1.30133   1.32276   1.33211
 Alpha virt. eigenvalues --    1.35146   1.35149   1.36701   1.38954   1.39550
 Alpha virt. eigenvalues --    1.40982   1.42387   1.42626   1.44912   1.45490
 Alpha virt. eigenvalues --    1.46813   1.48456   1.49195   1.49895   1.54541
 Alpha virt. eigenvalues --    1.54602   1.55392   1.56093   1.58688   1.58988
 Alpha virt. eigenvalues --    1.59377   1.60944   5.20324   5.38006   5.38236
 Alpha virt. eigenvalues --    5.39088   5.42217   5.42495   5.43266   5.44029
 Alpha virt. eigenvalues --    5.45303   5.50700   5.57736   5.57843   5.58800
 Alpha virt. eigenvalues --   11.20555  11.24054  11.24425  11.24650  11.24699
 Alpha virt. eigenvalues --   11.25781  11.26246  11.27534  11.27674  11.28625
 Alpha virt. eigenvalues --   11.28655  11.30295  11.30766  11.30953  11.32077
 Alpha virt. eigenvalues --   11.32691  11.32793  11.32985  11.33813  11.34310
 Alpha virt. eigenvalues --   11.35062  11.35635  11.37212  11.37982  11.40648
 Alpha virt. eigenvalues --   11.40671  11.43395  11.43435  11.44122  11.44415
 Alpha virt. eigenvalues --   11.45057  11.45614  11.46815  11.50255  11.51387
 Alpha virt. eigenvalues --   11.52694  11.54786  11.56104  11.56350 140.63552
 Alpha virt. eigenvalues --  140.82659 140.83259 140.83769 140.86596 140.87621
 Alpha virt. eigenvalues --  140.89600 140.90309 140.90416 140.95375 141.04603
 Alpha virt. eigenvalues --  141.05596 141.06468
          Condensed to atoms (all electrons):
              1          2          3          4          5          6
     1  Si  13.820696   0.195904  -0.005848   0.086341  -0.024404   0.007289
     2  Si   0.195904  13.649366   0.080051  -0.029023   0.025020  -0.008907
     3  Si  -0.005848   0.080051  13.956631  -0.036940  -0.096151   0.025020
     4  Si   0.086341  -0.029023  -0.036940  13.756301  -0.036940  -0.029023
     5  Si  -0.024404   0.025020  -0.096151  -0.036940  13.956631   0.080051
     6  Si   0.007289  -0.008907   0.025020  -0.029023   0.080051  13.649366
     7  Si  -0.024404   0.025020  -0.072997  -0.012432   0.046901   0.080051
     8  Si  -0.004493  -0.041995   0.083297  -0.018899   0.083297  -0.041995
     9  Si  -0.005848   0.080051   0.046901  -0.012432  -0.072997   0.025020
    10  Si   0.086341  -0.029023  -0.012432   0.003487  -0.012432  -0.029023
    11  Si  -0.039892   0.007289  -0.024404   0.086341  -0.005848   0.195904
    12  Si  -0.023187  -0.003584   0.128277   0.255969   0.128277  -0.003584
    13  Si  -0.023187  -0.003584  -0.004737   0.004769  -0.004737  -0.003584
              7          8          9         10         11         12
     1  Si  -0.024404  -0.004493  -0.005848   0.086341  -0.039892  -0.023187
     2  Si   0.025020  -0.041995   0.080051  -0.029023   0.007289  -0.003584
     3  Si  -0.072997   0.083297   0.046901  -0.012432  -0.024404   0.128277
     4  Si  -0.012432  -0.018899  -0.012432   0.003487   0.086341   0.255969
     5  Si   0.046901   0.083297  -0.072997  -0.012432  -0.005848   0.128277
     6  Si   0.080051  -0.041995   0.025020  -0.029023   0.195904  -0.003584
     7  Si  13.956631   0.083297  -0.096151  -0.036940  -0.005848  -0.004737
     8  Si   0.083297  13.783972   0.083297  -0.018899  -0.004493  -0.009330
     9  Si  -0.096151   0.083297  13.956631  -0.036940  -0.024404  -0.004737
    10  Si  -0.036940  -0.018899  -0.036940  13.756301   0.086341   0.004769
    11  Si  -0.005848  -0.004493  -0.024404   0.086341  13.820696  -0.023187
    12  Si  -0.004737  -0.009330  -0.004737   0.004769  -0.023187  13.428064
    13  Si   0.128277  -0.009330   0.128277   0.255969  -0.023187   0.000382
             13
     1  Si  -0.023187
     2  Si  -0.003584
     3  Si  -0.004737
     4  Si   0.004769
     5  Si  -0.004737
     6  Si  -0.003584
     7  Si   0.128277
     8  Si  -0.009330
     9  Si   0.128277
    10  Si   0.255969
    11  Si  -0.023187
    12  Si   0.000382
    13  Si  13.428064
 Mulliken atomic charges:
              1
     1  Si  -0.045307
     2  Si   0.053415
     3  Si  -0.066667
     4  Si  -0.017519
     5  Si  -0.066667
     6  Si   0.053415
     7  Si  -0.066667
     8  Si   0.032275
     9  Si  -0.066667
    10  Si  -0.017519
    11  Si  -0.045307
    12  Si   0.126608
    13  Si   0.126608
 Sum of Mulliken atomic charges =   0.00000
 Mulliken charges with hydrogens summed into heavy atoms:
              1
     1  Si  -0.045307
     2  Si   0.053415
     3  Si  -0.066667
     4  Si  -0.017519
     5  Si  -0.066667
     6  Si   0.053415
     7  Si  -0.066667
     8  Si   0.032275
     9  Si  -0.066667
    10  Si  -0.017519
    11  Si  -0.045307
    12  Si   0.126608
    13  Si   0.126608
 Sum of Mulliken charges with hydrogens summed into heavy atoms =   0.00000
 APT atomic charges:
              1
     1  Si  -0.149504
     2  Si   0.145105
     3  Si  -0.044238
     4  Si  -0.053375
     5  Si  -0.044238
     6  Si   0.145105
     7  Si  -0.044238
     8  Si   0.060229
     9  Si  -0.044238
    10  Si  -0.053375
    11  Si  -0.149504
    12  Si   0.116134
    13  Si   0.116134
 Sum of APT charges=   0.00000
 APT Atomic charges with hydrogens summed into heavy atoms:
              1
     1  Si  -0.149504
     2  Si   0.145105
     3  Si  -0.044238
     4  Si  -0.053375
     5  Si  -0.044238
     6  Si   0.145105
     7  Si  -0.044238
     8  Si   0.060229
     9  Si  -0.044238
    10  Si  -0.053375
    11  Si  -0.149504
    12  Si   0.116134
    13  Si   0.116134
 Sum of APT charges=   0.00000
 Electronic spatial extent (au):  <R**2>=           4551.3450
 Charge=              0.0000 electrons
 Dipole moment (field-independent basis, Debye):
    X=              0.0000    Y=              0.0000    Z=             -0.7982  Tot=              0.7982
 Quadrupole moment (field-independent basis, Debye-Ang):
   XX=           -158.5892   YY=           -190.2304   ZZ=           -169.9819
   XY=              0.0000   XZ=              0.0000   YZ=              0.0000
 Traceless Quadrupole moment (field-independent basis, Debye-Ang):
   XX=             14.3446   YY=            -17.2966   ZZ=              2.9519
   XY=              0.0000   XZ=              0.0000   YZ=              0.0000
 Octapole moment (field-independent basis, Debye-Ang**2):
  XXX=              0.0000  YYY=              0.0000  ZZZ=            -12.5075  XYY=              0.0000
  XXY=              0.0000  XXZ=             -3.3301  XZZ=              0.0000  YZZ=              0.0000
  YYZ=             -0.0165  XYZ=              0.0000
 Hexadecapole moment (field-independent basis, Debye-Ang**3):
 XXXX=          -2793.7907 YYYY=          -3461.4425 ZZZZ=          -1701.3021 XXXY=              0.0000
 XXXZ=              0.0000 YYYX=              0.0000 YYYZ=              0.0000 ZZZX=              0.0000
 ZZZY=              0.0000 XXYY=           -920.7706 XXZZ=           -742.1784 YYZZ=           -775.3490
 XXYZ=              0.0000 YYXZ=              0.0000 ZZXY=              0.0000
 N-N= 2.461362883925D+03 E-N=-1.389042310908D+04  KE= 3.758124898704D+03
 Symmetry A1   KE= 1.582182215211D+03
 Symmetry A2   KE= 3.896350865077D+02
 Symmetry B1   KE= 8.917983135624D+02
 Symmetry B2   KE= 8.945092834227D+02
  Exact polarizability: 416.283   0.000 406.529   0.000   0.000 312.657
 Approx polarizability:1590.828   0.0001190.194   0.000   0.0001074.784
 Density matrix has only Abelian symmetry.
 Density matrix has only Abelian symmetry.
 Calling FoFJK, ICntrl=    100127 FMM=F ISym2X=1 I1Cent= 0 IOpClX= 0 NMat=1 NMatS=1 NMatT=0.
 Full mass-weighted force constant matrix:
 Low frequencies --- -210.5862  -75.7788  -61.9786  -57.6517  -38.5667  -32.9397
 Low frequencies ---   -0.0011    0.0016    0.0024
 ******    3 imaginary frequencies (negative Signs) ****** 
 Diagonal vibrational polarizability:
        2.6534574     362.5555113       7.2398279
 Harmonic frequencies (cm**-1), IR intensities (KM/Mole), Raman scattering
 activities (A**4/AMU), depolarization ratios for plane and unpolarized
 incident light, reduced masses (AMU), force constants (mDyne/A),
 and normal coordinates:
                     1                      2                      3
                    B2                     B2                     B2
 Frequencies --  -210.5813               -67.1352               -38.6005
 Red. masses --    27.9769                27.9769                27.9769
 Frc consts  --     0.7310                 0.0743                 0.0246
 IR Inten    --     1.5912                 2.2221                19.0145
  Atom  AN      X      Y      Z        X      Y      Z        X      Y      Z
     1  14     0.01   0.00   0.00     0.00   0.21  -0.47     0.00   0.11  -0.36
     2  14    -0.14   0.00   0.00     0.00  -0.17  -0.02     0.00   0.03  -0.05
     3  14    -0.09  -0.15  -0.09    -0.22   0.08   0.15     0.35  -0.10   0.03
     4  14    -0.02   0.00  -0.10     0.00   0.05   0.00     0.00   0.03   0.00
     5  14    -0.09   0.15  -0.09     0.22   0.08  -0.15    -0.35  -0.10  -0.03
     6  14    -0.14   0.00   0.00     0.00  -0.17   0.02     0.00   0.03   0.05
     7  14    -0.09  -0.15   0.09    -0.22   0.08  -0.15     0.35  -0.10  -0.03
     8  14     0.85   0.00   0.00     0.00  -0.06   0.00     0.00  -0.30   0.00
     9  14    -0.09   0.15   0.09     0.22   0.08   0.15    -0.35  -0.10   0.03
    10  14    -0.02   0.00   0.10     0.00   0.05   0.00     0.00   0.03   0.00
    11  14     0.01   0.00   0.00     0.00   0.21   0.47     0.00   0.11   0.36
    12  14    -0.10   0.00  -0.13     0.00  -0.21   0.00     0.00   0.19   0.00
    13  14    -0.10   0.00   0.13     0.00  -0.21   0.00     0.00   0.19   0.00
                     4                      5                      6
                    ?A                     ?B                     B2
 Frequencies --    47.7222               114.5670               120.0329
 Red. masses --    27.9769                27.9769                27.9769
 Frc consts  --     0.0375                 0.2164                 0.2375
 IR Inten    --     0.2835                 0.0000                 0.0376
  Atom  AN      X      Y      Z        X      Y      Z        X      Y      Z
     1  14     0.00   0.24  -0.12     0.01   0.00   0.00     0.13   0.00   0.00
     2  14     0.00  -0.15   0.28     0.26   0.00   0.00    -0.33   0.00   0.00
     3  14    -0.12  -0.10   0.13    -0.34   0.27   0.01     0.00  -0.10   0.38
     4  14     0.27   0.00  -0.04     0.00   0.03   0.00     0.17   0.00   0.07
     5  14    -0.12   0.10   0.13     0.34   0.27  -0.01     0.00   0.10   0.38
     6  14     0.00   0.15   0.28    -0.26   0.00   0.00    -0.33   0.00   0.00
     7  14     0.12   0.10   0.13     0.34  -0.27   0.01     0.00  -0.10  -0.38
     8  14     0.00   0.00   0.07     0.00   0.00   0.00    -0.05   0.00   0.00
     9  14     0.12  -0.10   0.13    -0.34  -0.27  -0.01     0.00   0.10  -0.38
    10  14    -0.27   0.00  -0.04     0.00  -0.03   0.00     0.17   0.00  -0.07
    11  14     0.00  -0.24  -0.12    -0.01   0.00   0.00     0.13   0.00   0.00
    12  14    -0.02   0.00  -0.41     0.00  -0.23   0.00     0.06   0.00  -0.18
    13  14     0.02   0.00  -0.41     0.00   0.23   0.00     0.06   0.00   0.18
                     7                      8                      9
                    ?B                     ?A                     B2
 Frequencies --   143.8819               155.1748               161.9350
 Red. masses --    27.9769                27.9769                27.9769
 Frc consts  --     0.3412                 0.3969                 0.4322
 IR Inten    --     0.0000                 0.0720                 1.5211
  Atom  AN      X      Y      Z        X      Y      Z        X      Y      Z
     1  14     0.26   0.00   0.00     0.00   0.27   0.12     0.00  -0.23   0.12
     2  14    -0.23   0.00   0.00     0.00   0.28   0.28     0.00  -0.06  -0.25
     3  14    -0.07   0.00   0.39     0.21   0.05  -0.19    -0.02   0.09   0.37
     4  14     0.00   0.25   0.00     0.21   0.00   0.00     0.00  -0.05   0.00
     5  14     0.07   0.00  -0.39     0.21  -0.05  -0.19     0.02   0.09  -0.37
     6  14     0.23   0.00   0.00     0.00  -0.28   0.28     0.00  -0.06   0.25
     7  14     0.07   0.00   0.39    -0.21  -0.05  -0.19    -0.02   0.09  -0.37
     8  14     0.00   0.00   0.00     0.00   0.00  -0.15     0.00  -0.15   0.00
     9  14    -0.07   0.00  -0.39    -0.21   0.05  -0.19     0.02   0.09   0.37
    10  14     0.00  -0.25   0.00    -0.21   0.00   0.00     0.00  -0.05   0.00
    11  14    -0.26   0.00   0.00     0.00  -0.27   0.12     0.00  -0.23  -0.12
    12  14     0.00   0.03   0.00     0.17   0.00   0.06     0.00   0.24   0.00
    13  14     0.00  -0.03   0.00    -0.17   0.00   0.06     0.00   0.24   0.00
                    10                     11                     12
                    ?A                     ?B                     B2
 Frequencies --   167.5015               178.2599               196.3569
 Red. masses --    27.9769                27.9769                27.9769
 Frc consts  --     0.4625                 0.5238                 0.6355
 IR Inten    --     0.8260                 0.0000                 1.2428
  Atom  AN      X      Y      Z        X      Y      Z        X      Y      Z
     1  14     0.00  -0.17   0.44     0.39   0.00   0.00    -0.06   0.00   0.00
     2  14     0.00   0.03   0.24    -0.10   0.00   0.00     0.35   0.00   0.00
     3  14    -0.12  -0.03  -0.09    -0.03  -0.09  -0.27    -0.24   0.25   0.18
     4  14    -0.21   0.00  -0.28     0.00   0.37   0.00     0.05   0.00   0.05
     5  14    -0.12   0.03  -0.09     0.03  -0.09   0.27    -0.24  -0.25   0.18
     6  14     0.00  -0.03   0.24     0.10   0.00   0.00     0.35   0.00   0.00
     7  14     0.12   0.03  -0.09     0.03   0.09  -0.27    -0.24   0.25  -0.18
     8  14     0.00   0.00  -0.14     0.00   0.00   0.00     0.23   0.00   0.00
     9  14     0.12  -0.03  -0.09    -0.03   0.09   0.27    -0.24  -0.25  -0.18
    10  14     0.21   0.00  -0.28     0.00  -0.37   0.00     0.05   0.00  -0.05
    11  14     0.00   0.17   0.44    -0.39   0.00   0.00    -0.06   0.00   0.00
    12  14    -0.12   0.00  -0.15     0.00  -0.19   0.00     0.01   0.00  -0.19
    13  14     0.12   0.00  -0.15     0.00   0.19   0.00     0.01   0.00   0.19
                    13                     14                     15
                    ?A                     B2                     ?A
 Frequencies --   206.0410               226.8341               232.7981
 Red. masses --    27.9769                27.9769                27.9769
 Frc consts  --     0.6998                 0.8481                 0.8933
 IR Inten    --     0.8941                 0.2706                 1.0694
  Atom  AN      X      Y      Z        X      Y      Z        X      Y      Z
     1  14     0.00  -0.06   0.19     0.27   0.00   0.00     0.00  -0.10  -0.03
     2  14     0.00   0.23  -0.25    -0.01   0.00   0.00     0.00  -0.12   0.03
     3  14     0.00   0.21   0.21    -0.12  -0.02  -0.10     0.26  -0.19   0.06
     4  14     0.13   0.00  -0.13     0.23   0.00   0.49    -0.09   0.00  -0.33
     5  14     0.00  -0.21   0.21    -0.12   0.02  -0.10     0.26   0.19   0.06
     6  14     0.00  -0.23  -0.25    -0.01   0.00   0.00     0.00   0.12   0.03
     7  14     0.00  -0.21   0.21    -0.12  -0.02   0.10    -0.26   0.19   0.06
     8  14     0.00   0.00   0.00     0.00   0.00   0.00     0.00   0.00   0.43
     9  14     0.00   0.21   0.21    -0.12   0.02   0.10    -0.26  -0.19   0.06
    10  14    -0.13   0.00  -0.13     0.23   0.00  -0.49     0.09   0.00  -0.33
    11  14     0.00   0.06   0.19     0.27   0.00   0.00     0.00   0.10  -0.03
    12  14     0.27   0.00  -0.23    -0.26   0.00   0.14     0.22   0.00   0.00
    13  14    -0.27   0.00  -0.23    -0.26   0.00  -0.14    -0.22   0.00   0.00
                    16                     17                     18
                    B2                     B2                     ?A
 Frequencies --   249.1658               286.9571               288.9128
 Red. masses --    27.9769                27.9769                27.9769
 Frc consts  --     1.0234                 1.3573                 1.3759
 IR Inten    --     3.3717                 0.0204                 0.3478
  Atom  AN      X      Y      Z        X      Y      Z        X      Y      Z
     1  14     0.00   0.02  -0.04     0.00   0.08   0.13     0.00  -0.04   0.20
     2  14     0.00  -0.21   0.07     0.00   0.18  -0.37     0.00   0.12  -0.19
     3  14     0.07  -0.18   0.13     0.08  -0.09   0.08     0.07  -0.06  -0.15
     4  14     0.00   0.07   0.00     0.00   0.31   0.00     0.10   0.00   0.26
     5  14    -0.07  -0.18  -0.13    -0.08  -0.09  -0.08     0.07   0.06  -0.15
     6  14     0.00  -0.21  -0.07     0.00   0.18   0.37     0.00  -0.12  -0.19
     7  14     0.07  -0.18  -0.13     0.08  -0.09  -0.08    -0.07   0.06  -0.15
     8  14     0.00   0.81   0.00     0.00   0.03   0.00     0.00   0.00   0.56
     9  14    -0.07  -0.18   0.13    -0.08  -0.09   0.08    -0.07  -0.06  -0.15
    10  14     0.00   0.07   0.00     0.00   0.31   0.00    -0.10   0.00   0.26
    11  14     0.00   0.02   0.04     0.00   0.08  -0.13     0.00   0.04   0.20
    12  14     0.00   0.08   0.00     0.00  -0.40   0.00    -0.23   0.00  -0.25
    13  14     0.00   0.08   0.00     0.00  -0.40   0.00     0.23   0.00  -0.25
                    19                     20                     21
                    B2                     ?B                     B2
 Frequencies --   293.6586               300.4778               320.1982
 Red. masses --    27.9769                27.9769                27.9769
 Frc consts  --     1.4215                 1.4882                 1.6900
 IR Inten    --     0.9457                 0.0000                 1.8998
  Atom  AN      X      Y      Z        X      Y      Z        X      Y      Z
     1  14    -0.21   0.00   0.00    -0.06   0.00   0.00     0.00   0.02  -0.02
     2  14     0.25   0.00   0.00    -0.39   0.00   0.00     0.00   0.31   0.19
     3  14     0.19  -0.17   0.05    -0.17   0.16  -0.15     0.14   0.12   0.16
     4  14    -0.09   0.00   0.21     0.00   0.01   0.00     0.00  -0.40   0.00
     5  14     0.19   0.17   0.05     0.17   0.16   0.15    -0.14   0.12  -0.16
     6  14     0.25   0.00   0.00     0.39   0.00   0.00     0.00   0.31  -0.19
     7  14     0.19  -0.17  -0.05     0.17  -0.16  -0.15     0.14   0.12  -0.16
     8  14    -0.07   0.00   0.00     0.00   0.00   0.00     0.00   0.21   0.00
     9  14     0.19   0.17  -0.05    -0.17  -0.16   0.15    -0.14   0.12   0.16
    10  14    -0.09   0.00  -0.21     0.00  -0.01   0.00     0.00  -0.40   0.00
    11  14    -0.21   0.00   0.00     0.06   0.00   0.00     0.00   0.02   0.02
    12  14    -0.29   0.00  -0.35     0.00   0.43   0.00     0.00  -0.27   0.00
    13  14    -0.29   0.00   0.35     0.00  -0.43   0.00     0.00  -0.27   0.00
                    22                     23                     24
                    ?A                     B2                     ?A
 Frequencies --   325.2677               334.3841               398.2641
 Red. masses --    27.9769                27.9769                27.9769
 Frc consts  --     1.7439                 1.8431                 2.6145
 IR Inten    --     2.3234                 0.0016                 0.6290
  Atom  AN      X      Y      Z        X      Y      Z        X      Y      Z
     1  14     0.00   0.18  -0.16     0.42   0.00   0.00     0.00  -0.14   0.14
     2  14     0.00   0.15   0.09     0.21   0.00   0.00     0.00  -0.33  -0.02
     3  14    -0.17   0.20  -0.06    -0.03  -0.09   0.13    -0.16   0.05  -0.18
     4  14    -0.11   0.00  -0.24    -0.26   0.00  -0.26     0.27   0.00   0.05
     5  14    -0.17  -0.20  -0.06    -0.03   0.09   0.13    -0.16  -0.05  -0.18
     6  14     0.00  -0.15   0.09     0.21   0.00   0.00     0.00   0.33  -0.02
     7  14     0.17  -0.20  -0.06    -0.03  -0.09  -0.13     0.16  -0.05  -0.18
     8  14     0.00   0.00   0.59    -0.06   0.00   0.00     0.00   0.00   0.16
     9  14     0.17   0.20  -0.06    -0.03   0.09  -0.13     0.16   0.05  -0.18
    10  14     0.11   0.00  -0.24    -0.26   0.00   0.26    -0.27   0.00   0.05
    11  14     0.00  -0.18  -0.16     0.42   0.00   0.00     0.00   0.14   0.14
    12  14    -0.05   0.00   0.13    -0.27   0.00   0.14     0.35   0.00   0.12
    13  14     0.05   0.00   0.13    -0.27   0.00  -0.14    -0.35   0.00   0.12
                    25                     26                     27
                    ?A                     B2                     B2
 Frequencies --   426.2867               450.1038               458.2300
 Red. masses --    27.9769                27.9769                27.9769
 Frc consts  --     2.9954                 3.3395                 3.4611
 IR Inten    --     0.0863                 1.9772                 2.7442
  Atom  AN      X      Y      Z        X      Y      Z        X      Y      Z
     1  14     0.00  -0.29  -0.21    -0.25   0.00   0.00     0.00  -0.49  -0.17
     2  14     0.00   0.00   0.28     0.10   0.00   0.00     0.00   0.03   0.23
     3  14     0.07   0.17  -0.05    -0.02  -0.08   0.06     0.07   0.13   0.00
     4  14    -0.26   0.00   0.25     0.46   0.00  -0.27     0.00   0.33   0.00
     5  14     0.07  -0.17  -0.05    -0.02   0.08   0.06    -0.07   0.13   0.00
     6  14     0.00   0.00   0.28     0.10   0.00   0.00     0.00   0.03  -0.23
     7  14    -0.07  -0.17  -0.05    -0.02  -0.08  -0.06     0.07   0.13   0.00
     8  14     0.00   0.00   0.06    -0.03   0.00   0.00     0.00   0.03   0.00
     9  14    -0.07   0.17  -0.05    -0.02   0.08  -0.06    -0.07   0.13   0.00
    10  14     0.26   0.00   0.25     0.46   0.00   0.27     0.00   0.33   0.00
    11  14     0.00   0.29  -0.21    -0.25   0.00   0.00     0.00  -0.49   0.17
    12  14     0.18   0.00  -0.26    -0.26   0.00   0.23     0.00  -0.13   0.00
    13  14    -0.18   0.00  -0.26    -0.26   0.00  -0.23     0.00  -0.13   0.00
                    28                     29                     30
                    ?B                     ?B                     ?A
 Frequencies --   461.9992               483.5260               508.4176
 Red. masses --    27.9769                27.9769                27.9769
 Frc consts  --     3.5183                 3.8538                 4.2608
 IR Inten    --     0.0000                 0.0000                10.3819
  Atom  AN      X      Y      Z        X      Y      Z        X      Y      Z
     1  14    -0.49   0.00   0.00     0.04   0.00   0.00     0.00  -0.40  -0.13
     2  14     0.00   0.00   0.00    -0.25   0.00   0.00     0.00   0.07   0.14
     3  14     0.04   0.01   0.01     0.26   0.34  -0.01     0.07   0.08   0.03
     4  14     0.00   0.51   0.00     0.00  -0.05   0.00     0.39   0.00  -0.16
     5  14    -0.04   0.01  -0.01    -0.26   0.34   0.01     0.07  -0.08   0.03
     6  14     0.00   0.00   0.00     0.25   0.00   0.00     0.00  -0.07   0.14
     7  14    -0.04  -0.01   0.01    -0.26  -0.34  -0.01    -0.07  -0.08   0.03
     8  14     0.00   0.00   0.00     0.00   0.00   0.00     0.00   0.00  -0.01
     9  14     0.04  -0.01  -0.01     0.26  -0.34   0.01    -0.07   0.08   0.03
    10  14     0.00  -0.51   0.00     0.00   0.05   0.00    -0.39   0.00  -0.16
    11  14     0.49   0.00   0.00    -0.04   0.00   0.00     0.00   0.40  -0.13
    12  14     0.00  -0.06   0.00     0.00  -0.26   0.00    -0.28   0.00   0.10
    13  14     0.00   0.06   0.00     0.00   0.26   0.00     0.28   0.00   0.10
                    31                     32                     33
                    B2                     B2                     ?A
 Frequencies --   513.3008               536.8295               546.5090
 Red. masses --    27.9769                27.9769                27.9769
 Frc consts  --     4.3430                 4.7503                 4.9232
 IR Inten    --     0.4930                21.2362                 0.1707
  Atom  AN      X      Y      Z        X      Y      Z        X      Y      Z
     1  14     0.06   0.00   0.00     0.00  -0.12  -0.17     0.00  -0.17  -0.13
     2  14    -0.23   0.00   0.00     0.00   0.46   0.04     0.00   0.42   0.02
     3  14     0.22   0.33   0.00    -0.20  -0.26   0.04    -0.20  -0.27  -0.01
     4  14     0.00   0.00  -0.07     0.00   0.01   0.00     0.03   0.00   0.06
     5  14     0.22  -0.33   0.00     0.20  -0.26  -0.04    -0.20   0.27  -0.01
     6  14    -0.23   0.00   0.00     0.00   0.46  -0.04     0.00  -0.42   0.02
     7  14     0.22   0.33   0.00    -0.20  -0.26  -0.04     0.20   0.27  -0.01
     8  14     0.14   0.00   0.00     0.00   0.00   0.00     0.00   0.00   0.03
     9  14     0.22  -0.33   0.00     0.20  -0.26   0.04     0.20  -0.27  -0.01
    10  14     0.00   0.00   0.07     0.00   0.01   0.00    -0.03   0.00   0.06
    11  14     0.06   0.00   0.00     0.00  -0.12   0.17     0.00   0.17  -0.13
    12  14    -0.34   0.00  -0.05     0.00   0.16   0.00     0.21   0.00   0.05
    13  14    -0.34   0.00   0.05     0.00   0.16   0.00    -0.21   0.00   0.05

 -------------------
 - Thermochemistry -
 -------------------
 Temperature   298.150 Kelvin.  Pressure   1.00000 Atm.
 Atom     1 has atomic number 14 and mass  27.97693
 Atom     2 has atomic number 14 and mass  27.97693
 Atom     3 has atomic number 14 and mass  27.97693
 Atom     4 has atomic number 14 and mass  27.97693
 Atom     5 has atomic number 14 and mass  27.97693
 Atom     6 has atomic number 14 and mass  27.97693
 Atom     7 has atomic number 14 and mass  27.97693
 Atom     8 has atomic number 14 and mass  27.97693
 Atom     9 has atomic number 14 and mass  27.97693
 Atom    10 has atomic number 14 and mass  27.97693
 Atom    11 has atomic number 14 and mass  27.97693
 Atom    12 has atomic number 14 and mass  27.97693
 Atom    13 has atomic number 14 and mass  27.97693
 Molecular mass:   363.70007 amu.
 Principal axes and moments of inertia in atomic units:
                           1         2         3
     Eigenvalues --  5023.676575023.676576601.43213
           X            0.84203  -0.53943   0.00000
           Y            0.53943   0.84203   0.00000
           Z            0.00000   0.00000   1.00000
 This molecule is an oblate symmetric top.
 Rotational symmetry number  4.
 Warning -- assumption of classical behavior for rotation
           may cause significant error
 Rotational temperatures (Kelvin)      0.01724     0.01724     0.01312
 Rotational constants (GHZ):           0.35925     0.35925     0.27339
    3 imaginary frequencies ignored.
 Zero-point vibrational energy      54631.0 (Joules/Mol)
                                   13.05713 (Kcal/Mol)
 Warning -- explicit consideration of  30 degrees of freedom as
           vibrations may cause significant error
 Vibrational temperatures:     68.66   164.84   172.70   207.01   223.26
          (Kelvin)            232.99   241.00   256.48   282.51   296.45
                              326.36   334.94   358.49   412.87   415.68
                              422.51   432.32   460.69   467.99   481.10
                              573.01   613.33   647.60   659.29   664.71
                              695.69   731.50   738.52   772.38   786.30
 
 Zero-point correction=                           0.020808 (Hartree/Particle)
 Thermal correction to Energy=                    0.036953
 Thermal correction to Enthalpy=                  0.037897
 Thermal correction to Gibbs Free Energy=        -0.021425
 Sum of electronic and zero-point Energies=          -3763.538635
 Sum of electronic and thermal Energies=             -3763.522490
 Sum of electronic and thermal Enthalpies=           -3763.521546
 Sum of electronic and thermal Free Energies=        -3763.580867
 
                     E (Thermal)             CV                S
                      KCal/Mol        Cal/Mol-Kelvin    Cal/Mol-Kelvin
 Total                   23.188             54.884            124.852
 Electronic               0.000              0.000              0.000
 Translational            0.889              2.981             43.567
 Rotational               0.889              2.981             30.722
 Vibrational             21.411             48.923             50.564
 Vibration     1          0.595              1.978              4.910
 Vibration     2          0.608              1.937              3.190
 Vibration     3          0.609              1.933              3.100
 Vibration     4          0.616              1.909              2.752
 Vibration     5          0.620              1.897              2.608
 Vibration     6          0.622              1.889              2.527
 Vibration     7          0.624              1.882              2.463
 Vibration     8          0.629              1.869              2.347
 Vibration     9          0.636              1.845              2.167
 Vibration    10          0.641              1.831              2.078
 Vibration    11          0.650              1.800              1.904
 Vibration    12          0.654              1.791              1.857
 Vibration    13          0.662              1.764              1.736
 Vibration    14          0.684              1.698              1.492
 Vibration    15          0.685              1.694              1.480
 Vibration    16          0.688              1.686              1.453
 Vibration    17          0.693              1.673              1.414
 Vibration    18          0.706              1.635              1.309
 Vibration    19          0.709              1.625              1.283
 Vibration    20          0.716              1.607              1.239
 Vibration    21          0.765              1.474              0.969
 Vibration    22          0.788              1.413              0.871
 Vibration    23          0.809              1.361              0.795
 Vibration    24          0.816              1.343              0.771
 Vibration    25          0.820              1.334              0.760
 Vibration    26          0.840              1.287              0.701
 Vibration    27          0.864              1.231              0.637
 Vibration    28          0.868              1.221              0.626
 Vibration    29          0.892              1.169              0.572
 Vibration    30          0.902              1.147              0.551
                       Q            Log10(Q)             Ln(Q)
 Total Bot       0.715443D+10          9.854575         22.690997
 Total V=0       0.266382D+20         19.425505         44.728878
 Vib (Bot)       0.227184D-04         -4.643623        -10.692336
 Vib (Bot)    1  0.433274D+01          0.636762          1.466199
 Vib (Bot)    2  0.178593D+01          0.251865          0.579941
 Vib (Bot)    3  0.170250D+01          0.231087          0.532097
 Vib (Bot)    4  0.141171D+01          0.149747          0.344804
 Vib (Bot)    5  0.130473D+01          0.115521          0.265997
 Vib (Bot)    6  0.124769D+01          0.096107          0.221294
 Vib (Bot)    7  0.120410D+01          0.080664          0.185736
 Vib (Bot)    8  0.112740D+01          0.052079          0.119917
 Vib (Bot)    9  0.101688D+01          0.007268          0.016736
 Vib (Bot)   10  0.965482D+00         -0.015256         -0.035128
 Vib (Bot)   11  0.869488D+00         -0.060736         -0.139850
 Vib (Bot)   12  0.845007D+00         -0.073140         -0.168410
 Vib (Bot)   13  0.783610D+00         -0.105900         -0.243844
 Vib (Bot)   14  0.667519D+00         -0.175536         -0.404187
 Vib (Bot)   15  0.662299D+00         -0.178946         -0.412039
 Vib (Bot)   16  0.649904D+00         -0.187150         -0.430930
 Vib (Bot)   17  0.632744D+00         -0.198772         -0.457689
 Vib (Bot)   18  0.587012D+00         -0.231353         -0.532710
 Vib (Bot)   19  0.576101D+00         -0.239501         -0.551472
 Vib (Bot)   20  0.557264D+00         -0.253939         -0.584716
 Vib (Bot)   21  0.448101D+00         -0.348624         -0.802736
 Vib (Bot)   22  0.409917D+00         -0.387304         -0.891800
 Vib (Bot)   23  0.380963D+00         -0.419117         -0.965053
 Vib (Bot)   24  0.371728D+00         -0.429775         -0.989594
 Vib (Bot)   25  0.367547D+00         -0.434687         -1.000903
 Vib (Bot)   26  0.344842D+00         -0.462380         -1.064669
 Vib (Bot)   27  0.320841D+00         -0.493710         -1.136809
 Vib (Bot)   28  0.316390D+00         -0.499778         -1.150780
 Vib (Bot)   29  0.296015D+00         -0.528686         -1.217345
 Vib (Bot)   30  0.288116D+00         -0.540433         -1.244392
 Vib (V=0)       0.845877D+05          4.927307         11.345545
 Vib (V=0)    1  0.486149D+01          0.686769          1.581345
 Vib (V=0)    2  0.235460D+01          0.371918          0.856373
 Vib (V=0)    3  0.227440D+01          0.356867          0.821717
 Vib (V=0)    4  0.199764D+01          0.300518          0.691968
 Vib (V=0)    5  0.189726D+01          0.278126          0.640408
 Vib (V=0)    6  0.184415D+01          0.265795          0.612017
 Vib (V=0)    7  0.180379D+01          0.256186          0.589890
 Vib (V=0)    8  0.173330D+01          0.238875          0.550029
 Vib (V=0)    9  0.163315D+01          0.213027          0.490513
 Vib (V=0)   10  0.158727D+01          0.200651          0.462015
 Vib (V=0)   11  0.150300D+01          0.176959          0.407463
 Vib (V=0)   12  0.148185D+01          0.170805          0.393294
 Vib (V=0)   13  0.142954D+01          0.155196          0.357353
 Vib (V=0)   14  0.133402D+01          0.125161          0.288193
 Vib (V=0)   15  0.132984D+01          0.123800          0.285061
 Vib (V=0)   16  0.131999D+01          0.120569          0.277621
 Vib (V=0)   17  0.130645D+01          0.116094          0.267315
 Vib (V=0)   18  0.127109D+01          0.104177          0.239877
 Vib (V=0)   19  0.126282D+01          0.101341          0.233346
 Vib (V=0)   20  0.124869D+01          0.096456          0.222098
 Vib (V=0)   21  0.117141D+01          0.068710          0.158210
 Vib (V=0)   22  0.114655D+01          0.059395          0.136761
 Vib (V=0)   23  0.112860D+01          0.052538          0.120974
 Vib (V=0)   24  0.112304D+01          0.050396          0.116041
 Vib (V=0)   25  0.112056D+01          0.049434          0.113826
 Vib (V=0)   26  0.110738D+01          0.044298          0.102001
 Vib (V=0)   27  0.109409D+01          0.039052          0.089920
 Vib (V=0)   28  0.109169D+01          0.038101          0.087731
 Vib (V=0)   29  0.108105D+01          0.033848          0.077937
 Vib (V=0)   30  0.107707D+01          0.032244          0.074245
 Electronic      0.100000D+01          0.000000          0.000000
 Translational   0.272628D+09          8.435570         19.423618
 Rotational      0.115512D+07          6.062627         13.959715
 ***** Axes restored to original set *****
 -------------------------------------------------------------------
 Center     Atomic                   Forces (Hartrees/Bohr)
 Number     Number              X              Y              Z
 -------------------------------------------------------------------
      1       14           0.000000000   -0.011415813   -0.015374434
      2       14           0.000000000   -0.057084654   -0.001216300
      3       14          -0.019554608   -0.007251634    0.012639426
      4       14           0.006189898    0.000000000    0.002573186
      5       14          -0.019554608    0.007251634    0.012639426
      6       14           0.000000000    0.057084654   -0.001216300
      7       14           0.019554608    0.007251634    0.012639426
      8       14           0.000000000    0.000000000   -0.006775783
      9       14           0.019554608   -0.007251634    0.012639426
     10       14          -0.006189898    0.000000000    0.002573186
     11       14           0.000000000    0.011415813   -0.015374434
     12       14           0.013431159    0.000000000   -0.007873412
     13       14          -0.013431159    0.000000000   -0.007873412
 -------------------------------------------------------------------
 Cartesian Forces:  Max     0.057084654 RMS     0.016214203

 GradGradGradGradGradGradGradGradGradGradGradGradGradGradGradGradGradGrad
 Berny optimization.
 Search for a local minimum.
 Step number   1 out of a maximum of    2
 All quantities printed in internal units (Hartrees-Bohrs-Radians)
 Second derivative matrix not updated -- analytic derivatives used.
     Eigenvalues ---   -0.04695  -0.00477  -0.00158   0.00241   0.01390
     Eigenvalues ---    0.01525   0.02192   0.02549   0.02776   0.02970
     Eigenvalues ---    0.03364   0.04082   0.04495   0.05448   0.05738
     Eigenvalues ---    0.06573   0.08718   0.08837   0.09130   0.09559
     Eigenvalues ---    0.10855   0.11201   0.11838   0.16793   0.19240
     Eigenvalues ---    0.21449   0.22231   0.22598   0.24753   0.27367
     Eigenvalues ---    0.27896   0.30512   0.31622
 Eigenvalue     1 is  -4.69D-02 should be greater than     0.000000 Eigenvector:
                          X8        Y5        Y7        Y3        Y9
   1                    0.85302   0.15176  -0.15176  -0.15176   0.15176
                          X6        X2        Z12       Z13       X12
   1                   -0.14316  -0.14316   0.13386  -0.13386  -0.10124
 Eigenvalue     2 is  -4.77D-03 should be greater than     0.000000 Eigenvector:
                          Z1        Z11       X7        X3        X9
   1                    0.47409  -0.47409  -0.21697  -0.21697   0.21697
                          X5        Y13       Y12       Y11       Y1
   1                    0.21697  -0.20996  -0.20996   0.20564   0.20564
 Eigenvalue     3 is  -1.58D-03 should be greater than     0.000000 Eigenvector:
                          Z11       Z1        X9        X7        X3
   1                   -0.35913   0.35913  -0.35415   0.35415   0.35415
                          X5        Y8        Y13       Y12       Y11
   1                   -0.35415  -0.30224   0.18526   0.18526   0.11037
 Quadratic step=5.323D+00 exceeds max=3.000D-01 adjusted using Lamda=-2.253D-01.
 Angle between NR and scaled steps=  63.52 degrees.
 Angle between quadratic step and forces=  12.51 degrees.
 Linear search not attempted -- first point.
 TrRot=  0.000000  0.000000  0.000000  0.000000  0.000000  0.000000
 Variable       Old X    -DE/DX   Delta X   Delta X   Delta X     New X
                                 (Linear)    (Quad)   (Total)
    X1        0.00000   0.00000   0.00000   0.00000   0.00000   0.00000
    Y1       -3.10591  -0.01142   0.00000  -0.04678  -0.04678  -3.15269
    Z1       -2.84147  -0.01537   0.00000  -0.03374  -0.03374  -2.87521
    X2        0.00000   0.00000   0.00000   0.00000   0.00000   0.00000
    Y2       -5.99824  -0.05708   0.00000  -0.16694  -0.16694  -6.16518
    Z2        0.47732  -0.00122   0.00000  -0.01423  -0.01423   0.46309
    X3        2.58500  -0.01955   0.00000  -0.06638  -0.06638   2.51861
    Y3       -2.58500  -0.00725   0.00000  -0.03602  -0.03602  -2.62102
    Z3        1.42918   0.01264   0.00000   0.02837   0.02837   1.45755
    X4        3.10591   0.00619   0.00000   0.00225   0.00225   3.10817
    Y4        0.00000   0.00000   0.00000   0.00000   0.00000   0.00000
    Z4       -2.84147   0.00257   0.00000   0.01420   0.01420  -2.82728
    X5        2.58500  -0.01955   0.00000  -0.06638  -0.06638   2.51861
    Y5        2.58500   0.00725   0.00000   0.03602   0.03602   2.62102
    Z5        1.42918   0.01264   0.00000   0.02837   0.02837   1.45755
    X6        0.00000   0.00000   0.00000   0.00000   0.00000   0.00000
    Y6        5.99824   0.05708   0.00000   0.16694   0.16694   6.16518
    Z6        0.47732  -0.00122   0.00000  -0.01423  -0.01423   0.46309
    X7       -2.58500   0.01955   0.00000   0.06638   0.06638  -2.51861
    Y7        2.58500   0.00725   0.00000   0.03602   0.03602   2.62102
    Z7        1.42918   0.01264   0.00000   0.02837   0.02837   1.45755
    X8        0.00000   0.00000   0.00000   0.00000   0.00000   0.00000
    Y8        0.00000   0.00000   0.00000   0.00000   0.00000   0.00000
    Z8        4.50024  -0.00678   0.00000  -0.01964  -0.01964   4.48059
    X9       -2.58500   0.01955   0.00000   0.06638   0.06638  -2.51861
    Y9       -2.58500  -0.00725   0.00000  -0.03602  -0.03602  -2.62102
    Z9        1.42918   0.01264   0.00000   0.02837   0.02837   1.45755
   X10       -3.10591  -0.00619   0.00000  -0.00225  -0.00225  -3.10817
   Y10        0.00000   0.00000   0.00000   0.00000   0.00000   0.00000
   Z10       -2.84147   0.00257   0.00000   0.01420   0.01420  -2.82728
   X11        0.00000   0.00000   0.00000   0.00000   0.00000   0.00000
   Y11        3.10591   0.01142   0.00000   0.04678   0.04678   3.15269
   Z11       -2.84147  -0.01537   0.00000  -0.03374  -0.03374  -2.87521
   X12        5.99824   0.01343   0.00000   0.01566   0.01566   6.01390
   Y12        0.00000   0.00000   0.00000   0.00000   0.00000   0.00000
   Z12        0.47732  -0.00787   0.00000  -0.01315  -0.01315   0.46417
   X13       -5.99824  -0.01343   0.00000  -0.01566  -0.01566  -6.01390
   Y13        0.00000   0.00000   0.00000   0.00000   0.00000   0.00000
   Z13        0.47732  -0.00787   0.00000  -0.01315  -0.01315   0.46417
         Item               Value     Threshold  Converged?
 Maximum Force            0.057085     0.000450     NO 
 RMS     Force            0.016214     0.000300     NO 
 Maximum Displacement     0.166943     0.001800     NO 
 RMS     Displacement     0.048163     0.001200     NO 
 Predicted change in Energy=-2.505616D-02
 GradGradGradGradGradGradGradGradGradGradGradGradGradGradGradGradGradGrad

 1\1\GINC-NODE41\Freq\RB3LYP\6-311G(d)\Si13\TAM\18-Jan-2013\0\\# b3lyp/
 6-311G(d) freq scfcyc=500 scf=xqc\\si13-n\\0,1\Si,0.,-1.643579,-1.5036
 4192\Si,0.,-3.174131,0.25258908\Si,1.3679205,-1.3679205,0.75628808\Si,
 1.643579,0.,-1.50364192\Si,1.3679205,1.3679205,0.75628808\Si,0.,3.1741
 31,0.25258908\Si,-1.3679205,1.3679205,0.75628808\Si,0.,0.,2.38142308\S
 i,-1.3679205,-1.3679205,0.75628808\Si,-1.643579,0.,-1.50364192\Si,0.,1
 .643579,-1.50364192\Si,3.174131,0.,0.25258908\Si,-3.174131,0.,0.252589
 08\\Version=AM64L-G09RevA.02\HF=-3763.5594428\RMSD=3.267e-09\RMSF=1.62
 1e-02\ZeroPoint=0.0208079\Thermal=0.0369526\Dipole=0.,0.,-0.3140355\Di
 poleDeriv=-0.0982456,0.,0.,0.,-0.1479515,0.1774769,0.,-0.3454922,-0.20
 2314,-0.0160883,0.,0.,0.,0.3506678,-0.0156136,0.,0.0893759,0.1007355,0
 .0350897,-0.4462552,-0.0306169,-0.1682908,-0.1306302,-0.0314859,0.0147
 835,0.0286518,-0.0371732,0.0698049,0.,-0.2092244,0.,-0.0626478,0.,0.10
 11923,0.,-0.1672806,0.0350897,0.4462552,-0.0306169,0.1682908,-0.130630
 2,0.0314859,0.0147835,-0.0286518,-0.0371732,-0.0160883,0.,0.,0.,0.3506
 678,0.0156136,0.,-0.0893759,0.1007355,0.0350897,-0.4462552,0.0306169,-
 0.1682908,-0.1306302,0.0314859,-0.0147835,-0.0286518,-0.0371732,0.0926
 413,0.,0.,0.,-0.108456,0.,0.,0.,0.1965018,0.0350897,0.4462552,0.030616
 9,0.1682908,-0.1306302,-0.0314859,-0.0147835,0.0286518,-0.0371732,0.06
 98049,0.,0.2092244,0.,-0.0626478,0.,-0.1011923,0.,-0.1672806,-0.098245
 5,0.,0.,0.,-0.1479515,-0.1774769,0.,0.3454922,-0.202314,-0.0719713,0.,
 0.0680502,0.,0.17542,0.,0.019091,0.,0.2449546,-0.0719713,0.,-0.0680502
 ,0.,0.17542,0.,-0.0190909,0.,0.2449546\Polar=416.2825755,0.0000001,406
 .5291481,0.,0.0000001,312.6567425\PG=C04V [C4(Si1),2SGV(Si4),2SGD(Si2)
 ]\NImag=3\\0.10326316,0.,0.14172189,0.,-0.04954657,0.05201942,-0.00806
 979,0.,0.,0.06303931,0.,-0.03668166,0.04876570,0.,0.16619802,0.,0.0563
 0097,-0.03843713,0.,-0.01239008,0.05942686,-0.00348712,0.00127354,-0.0
 1025593,-0.02539576,-0.04221738,-0.00524495,0.08601677,0.00721462,-0.0
 0457227,-0.00796612,-0.05064225,-0.06058054,-0.01860600,0.06434072,0.1
 3730036,0.00039285,0.00056423,-0.00479314,-0.01084605,-0.01730527,-0.0
 0502056,-0.00660295,0.00791429,0.03588035,-0.03244356,-0.03773708,-0.0
 0356150,0.00046058,-0.00038228,0.00343315,-0.00627793,-0.00364333,0.00
 199414,0.13211271,-0.05007516,-0.03549898,0.00872083,-0.00059733,-0.00
 565139,0.00048471,0.00172340,-0.00333708,0.00477188,0.,0.11540818,-0.0
 0433205,0.00260359,-0.00084669,0.00354885,-0.00154768,-0.00024983,0.00
 533883,0.00725511,-0.01704293,0.03334907,0.,0.08350200,0.00014649,-0.0
 0069162,0.00532136,-0.00362098,0.00455566,-0.00121881,0.00968258,-0.00
 873707,-0.00217579,-0.00627793,-0.00172340,0.00533883,0.08601677,-0.00
 669627,-0.00592158,-0.00841034,0.00032177,-0.00037237,0.00218090,0.008
 73707,-0.01660443,0.00167728,0.00364333,-0.00333708,-0.00725511,-0.064
 34072,0.13730036,-0.00291566,-0.00459250,-0.00459987,0.00004530,0.0019
 7670,-0.00187374,-0.00217579,-0.00167728,0.00273306,0.00199414,-0.0047
 7188,-0.01704293,-0.00660295,-0.00791429,0.03588035,-0.00123792,0.,0.,
 0.00274925,0.,0.,-0.00362098,-0.00032177,0.00004530,0.00046058,0.00059
 733,0.00354885,-0.02539576,0.05064225,-0.01084605,0.06303931,0.,0.0009
 4528,-0.00137296,0.,-0.00317769,-0.00024507,-0.00455566,-0.00037237,-0
 .00197670,0.00038228,-0.00565139,0.00154768,0.04221738,-0.06058054,0.0
 1730527,0.,0.16619802,0.,-0.00046657,-0.00340397,0.,0.00024507,0.00397
 914,-0.00121881,-0.00218090,-0.00187374,0.00343315,-0.00048471,-0.0002
 4983,-0.00524495,0.01860600,-0.00502056,0.,0.01239008,0.05942686,0.000
 14649,0.00069162,-0.00532136,-0.00362098,-0.00455566,0.00121881,-0.015
 11058,0.00165365,0.00710134,-0.00170739,0.00086419,0.00043451,-0.00365
 667,-0.00245718,0.00668587,-0.02539576,-0.04221738,0.00524495,0.086016
 77,0.00669627,-0.00592158,-0.00841034,-0.00032177,-0.00037237,0.002180
 90,0.00165365,-0.00685616,0.00078892,-0.00295073,0.00296961,-0.0018182
 3,0.00245718,-0.00195752,0.00128786,-0.05064225,-0.06058054,0.01860600
 ,0.06434072,0.13730036,0.00291566,-0.00459250,-0.00459987,-0.00004530,
 0.00197670,-0.00187374,-0.00710134,-0.00078892,0.00470345,0.00400742,-
 0.00443487,-0.00030838,-0.00668587,0.00128786,0.00567508,0.01084605,0.
 01730527,-0.00502056,0.00660295,-0.00791429,0.03588035,0.00139305,0.,0
 .,-0.00302238,0.,0.,0.00857673,0.02364699,-0.00410055,0.00002293,0.,-0
 .00431257,0.00857673,-0.02364700,-0.00410055,-0.00302238,0.,0.,0.00857
 673,0.02364699,0.00410055,-0.02512355,0.,-0.00120183,0.00486540,0.,-0.
 00269898,-0.01035857,0.00777529,-0.00718366,-0.00874695,0.,-0.00187826
 ,0.,-0.00777529,-0.00718366,0.00874695,0.,-0.00269898,0.01035857,0.007
 77529,-0.00718366,0.00874695,0.,0.04916617,0.,0.00064454,-0.00341427,0
 .,-0.00556588,-0.00162857,0.00696205,-0.00624141,-0.01444019,0.0000493
 0,0.,-0.00502643,0.00696205,0.00624141,-0.01444019,0.,0.00556588,-0.00
 162857,-0.00696205,0.00624141,-0.01444019,0.,0.,0.08362656,-0.00348712
 ,-0.00127354,0.01025593,-0.02539576,0.04221738,0.00524495,-0.00365667,
 0.00245718,0.00668587,-0.00170739,-0.00086419,0.00043451,-0.01511058,-
 0.00165365,0.00710134,-0.00362098,0.00455566,0.00121881,0.00968258,-0.
 00873707,0.00217579,0.00857673,-0.00777529,-0.00696205,0.08601677,-0.0
 0721462,-0.00457227,-0.00796612,0.05064225,-0.06058054,-0.01860600,-0.
 00245718,-0.00195752,-0.00128786,0.00295073,0.00296961,0.00181823,-0.0
 0165365,-0.00685616,-0.00078892,0.00032177,-0.00037237,-0.00218090,0.0
 0873707,-0.01660443,-0.00167728,-0.02364699,-0.00718366,-0.00624141,-0
 .06434072,0.13730036,-0.00039285,0.00056423,-0.00479314,0.01084605,-0.
 01730527,-0.00502056,-0.00668587,-0.00128786,0.00567508,0.00400742,0.0
 0443487,-0.00030838,-0.00710134,0.00078892,0.00470345,-0.00004530,-0.0
 0197670,-0.00187374,0.00217579,0.00167728,0.00273306,0.00410055,-0.008
 74695,-0.01444019,0.00660295,0.00791429,0.03588035,-0.03244356,0.03773
 708,0.00356150,0.00046058,0.00038228,-0.00343315,-0.00170739,-0.002950
 73,-0.00400742,-0.01487398,0.,-0.00454703,-0.00170739,0.00295073,-0.00
 400742,0.00046058,-0.00038228,-0.00343315,-0.00627793,-0.00364333,-0.0
 0199414,0.00002293,0.,-0.00004930,-0.00627793,0.00364333,-0.00199414,0
 .13211271,0.05007516,-0.03549898,0.00872083,0.00059733,-0.00565139,0.0
 0048471,0.00086419,0.00296961,0.00443487,0.,-0.01354408,0.,-0.00086419
 ,0.00296961,-0.00443487,-0.00059733,-0.00565139,-0.00048471,0.00172340
 ,-0.00333708,-0.00477188,0.,-0.00187826,0.,-0.00172340,-0.00333708,0.0
 0477188,0.,0.11540818,0.00433205,0.00260359,-0.00084669,-0.00354885,-0
 .00154768,-0.00024983,-0.00043451,0.00181823,-0.00030838,0.00454703,0.
 ,0.00055066,-0.00043451,-0.00181823,-0.00030838,-0.00354885,0.00154768
 ,-0.00024983,-0.00533883,-0.00725511,-0.01704293,0.00431257,0.,-0.0050
 2643,-0.00533883,0.00725511,-0.01704293,-0.03334907,0.,0.08350200,-0.0
 1800286,0.,0.,-0.00123792,0.,0.,0.00014649,0.00669627,-0.00291566,-0.0
 3244356,0.05007516,-0.00433205,-0.00348712,-0.00721462,0.00039285,-0.0
 0806979,0.,0.,-0.00348712,0.00721462,-0.00039285,0.00139305,0.,0.,0.00
 014649,-0.00669627,0.00291566,-0.03244356,-0.05007516,0.00433205,0.103
 26316,0.,-0.02017111,-0.00159160,0.,0.00094528,0.00046657,0.00069162,-
 0.00592158,0.00459250,0.03773708,-0.03549898,-0.00260359,-0.00127354,-
 0.00457227,-0.00056423,0.,-0.03668166,-0.05630097,0.00127354,-0.004572
 27,-0.00056423,0.,-0.00120183,-0.00064454,-0.00069162,-0.00592158,0.00
 459250,-0.03773708,-0.03549898,-0.00260359,0.,0.14172189,0.,0.00159160
 ,0.01990365,0.,0.00137296,-0.00340397,0.00532136,0.00841034,-0.0045998
 7,-0.00356150,-0.00872083,-0.00084669,-0.01025593,0.00796612,-0.004793
 14,0.,-0.04876570,-0.03843713,0.01025593,0.00796612,-0.00479314,0.,-0.
 00486540,-0.00341427,-0.00532136,0.00841034,-0.00459987,0.00356150,-0.
 00872083,-0.00084669,0.,0.04954657,0.05201942,-0.00288862,0.00085374,-
 0.00049844,0.00182692,0.00134310,-0.00047429,-0.04359870,-0.03456039,0
 .01630167,-0.03902964,0.,-0.03652407,-0.04359870,0.03456039,0.01630167
 ,0.00182692,-0.00134310,-0.00047429,-0.00156744,-0.00515390,0.00187275
 ,-0.00298528,0.,-0.00406401,-0.00156744,0.00515390,0.00187275,0.001704
 57,0.,-0.00205431,-0.00288862,-0.00085374,-0.00049844,0.14056307,-0.00
 164264,0.00368655,0.00709564,-0.00175544,0.00431181,-0.00094652,-0.042
 52719,-0.03177421,0.00566297,0.,-0.01349560,0.,0.04252719,-0.03177421,
 -0.00566297,0.00175544,0.00431181,0.00094652,0.00469792,-0.00111016,0.
 00109015,0.,-0.00443670,0.,-0.00469792,-0.00111016,-0.00109015,0.,-0.0
 0345456,0.,0.00164264,0.00368655,-0.00709564,0.,0.07323141,-0.00359155
 ,-0.00283730,-0.00309415,-0.00056746,0.00066237,-0.00282403,0.02161440
 ,0.01394090,-0.00014542,-0.04702354,0.,-0.04192472,0.02161440,-0.01394
 090,-0.00014542,-0.00056746,-0.00066237,-0.00282403,-0.00048353,0.0005
 9037,-0.00076768,-0.00125017,0.,-0.00286363,-0.00048353,-0.00059037,-0
 .00076768,0.00266827,0.,-0.00020584,-0.00359155,0.00283730,-0.00309415
 ,0.00995037,0.,0.05594122,-0.00288862,-0.00085374,0.00049844,0.0018269
 2,-0.00134310,0.00047429,-0.00156744,-0.00515390,-0.00187275,0.0017045
 7,0.,0.00205431,-0.00156744,0.00515390,-0.00187275,0.00182692,0.001343
 10,0.00047429,-0.04359870,-0.03456039,-0.01630167,-0.00298528,0.,0.004
 06401,-0.04359870,0.03456039,-0.01630167,-0.03902964,0.,0.03652407,-0.
 00288862,0.00085374,0.00049844,-0.00779705,0.,0.00171135,0.14056307,0.
 00164264,0.00368655,0.00709564,0.00175544,0.00431181,-0.00094652,0.004
 69792,-0.00111016,-0.00109015,0.,-0.00345456,0.,-0.00469792,-0.0011101
 6,0.00109015,-0.00175544,0.00431181,0.00094652,-0.04252719,-0.03177421
 ,-0.00566297,0.,-0.00443670,0.,0.04252719,-0.03177421,0.00566297,0.,-0
 .01349560,0.,-0.00164264,0.00368655,-0.00709564,0.,-0.00207255,0.,0.,0
 .07323141,0.00359155,-0.00283730,-0.00309415,0.00056746,0.00066237,-0.
 00282403,0.00048353,-0.00059037,-0.00076768,-0.00266827,0.,-0.00020584
 ,0.00048353,0.00059037,-0.00076768,0.00056746,-0.00066237,-0.00282403,
 -0.02161440,-0.01394090,-0.00014542,0.00125017,0.,-0.00286363,-0.02161
 440,0.01394090,-0.00014542,0.04702354,0.,-0.04192472,0.00359155,0.0028
 3730,-0.00309415,-0.00171135,0.,0.00271555,-0.00995037,0.,0.05594122\\
 0.,0.01141581,0.01537443,0.,0.05708465,0.00121630,0.01955461,0.0072516
 3,-0.01263943,-0.00618990,0.,-0.00257319,0.01955461,-0.00725163,-0.012
 63943,0.,-0.05708465,0.00121630,-0.01955461,-0.00725163,-0.01263943,0.
 ,0.,0.00677578,-0.01955461,0.00725163,-0.01263943,0.00618990,0.,-0.002
 57319,0.,-0.01141581,0.01537443,-0.01343116,0.,0.00787341,0.01343116,0
 .,0.00787341\\\@


 THE MOST INCOMPREHENSIBLE THING ABOUT THE WORLD
 IS THAT IT IS COMPREHENSIBLE. -- A. EINSTEIN
 Job cpu time:  0 days  1 hours  9 minutes 41.9 seconds.
 File lengths (MBytes):  RWF=    137 Int=      0 D2E=      0 Chk=      8 Scr=      1
 Normal termination of Gaussian 09 at Fri Jan 18 13:23:47 2013.
 Initial command:
 /usr/local/chem/g09A2/l1.exe /temp0/tam/Gau-14211.inp -scrdir=/temp0/tam/
 Entering Link 1 = /usr/local/chem/g09A2/l1.exe PID=     14328.
  
 Copyright (c) 1988,1990,1992,1993,1995,1998,2003,2009, Gaussian, Inc.
                  All Rights Reserved.
  
 This is part of the Gaussian(R) 09 program.  It is based on
 the Gaussian(R) 03 system (copyright 2003, Gaussian, Inc.),
 the Gaussian(R) 98 system (copyright 1998, Gaussian, Inc.),
 the Gaussian(R) 94 system (copyright 1995, Gaussian, Inc.),
 the Gaussian 92(TM) system (copyright 1992, Gaussian, Inc.),
 the Gaussian 90(TM) system (copyright 1990, Gaussian, Inc.),
 the Gaussian 88(TM) system (copyright 1988, Gaussian, Inc.),
 the Gaussian 86(TM) system (copyright 1986, Carnegie Mellon
 University), and the Gaussian 82(TM) system (copyright 1983,
 Carnegie Mellon University). Gaussian is a federally registered
 trademark of Gaussian, Inc.
  
 This software contains proprietary and confidential information,
 including trade secrets, belonging to Gaussian, Inc.
  
 This software is provided under written license and may be
 used, copied, transmitted, or stored only in accord with that
 written license.
  
 The following legend is applicable only to US Government
 contracts under FAR:
  
                    RESTRICTED RIGHTS LEGEND
  
 Use, reproduction and disclosure by the US Government is
 subject to restrictions as set forth in subparagraphs (a)
 and (c) of the Commercial Computer Software - Restricted
 Rights clause in FAR 52.227-19.
  
 Gaussian, Inc.
 340 Quinnipiac St., Bldg. 40, Wallingford CT 06492
  
  
 ---------------------------------------------------------------
 Warning -- This program may not be used in any manner that
 competes with the business of Gaussian, Inc. or will provide
 assistance to any competitor of Gaussian, Inc.  The licensee
 of this program is prohibited from giving any competitor of
 Gaussian, Inc. access to this program.  By using this program,
 the user acknowledges that Gaussian, Inc. is engaged in the
 business of creating and licensing software in the field of
 computational chemistry and represents and warrants to the
 licensee that it is not a competitor of Gaussian, Inc. and that
 it will not use this program in any manner prohibited above.
 ---------------------------------------------------------------
  

 Cite this work as:
 Gaussian 09, Revision A.02,
 M. J. Frisch, G. W. Trucks, H. B. Schlegel, G. E. Scuseria, 
 M. A. Robb, J. R. Cheeseman, G. Scalmani, V. Barone, B. Mennucci, 
 G. A. Petersson, H. Nakatsuji, M. Caricato, X. Li, H. P. Hratchian, 
 A. F. Izmaylov, J. Bloino, G. Zheng, J. L. Sonnenberg, M. Hada, 
 M. Ehara, K. Toyota, R. Fukuda, J. Hasegawa, M. Ishida, T. Nakajima, 
 Y. Honda, O. Kitao, H. Nakai, T. Vreven, J. A. Montgomery, Jr., 
[...]
 ! D21   D(3,1,10,13)          -55.9299         -DE/DX =    0.0                 !
 ! D22   D(4,1,10,7)           -54.6922         -DE/DX =    0.0                 !
 ! D23   D(4,1,10,11)            6.1307         -DE/DX =    0.0                 !
 ! D24   D(4,1,10,13)         -119.289          -DE/DX =    0.0                 !
 ! D25   D(2,3,4,11)            98.3612         -DE/DX =    0.0                 !
 ! D26   D(8,3,4,11)           -24.6353         -DE/DX =    0.0                 !
 ! D27   D(9,3,4,11)            37.4365         -DE/DX =    0.0                 !
 ! D28   D(1,3,5,6)             34.2129         -DE/DX =    0.0                 !
 ! D29   D(1,3,5,7)             61.9448         -DE/DX =    0.0                 !
 ! D30   D(1,3,5,11)             0.0034         -DE/DX =    0.0                 !
 ! D31   D(2,3,5,6)              0.0023         -DE/DX =    0.0                 !
 ! D32   D(2,3,5,7)             27.7341         -DE/DX =    0.0                 !
 ! D33   D(2,3,5,11)           -34.2073         -DE/DX =    0.0                 !
 ! D34   D(9,3,5,6)            -27.7268         -DE/DX =    0.0                 !
 ! D35   D(9,3,5,7)              0.005          -DE/DX =    0.0                 !
 ! D36   D(9,3,5,11)           -61.9364         -DE/DX =    0.0                 !
 ! D37   D(1,3,8,7)            -26.408          -DE/DX =    0.0                 !
 ! D38   D(2,3,8,7)            -90.2532         -DE/DX =    0.0                 !
 ! D39   D(4,3,8,7)             28.7682         -DE/DX =    0.0                 !
 ! D40   D(12,3,8,7)            81.9324         -DE/DX =    0.0                 !
 ! D41   D(4,3,9,7)            -54.1354         -DE/DX =    0.0                 !
 ! D42   D(4,3,9,10)            -0.0008         -DE/DX =    0.0                 !
 ! D43   D(4,3,9,13)           -40.7113         -DE/DX =    0.0                 !
 ! D44   D(5,3,9,7)             -0.0039         -DE/DX =    0.0                 !
 ! D45   D(5,3,9,10)            54.1306         -DE/DX =    0.0                 !
 ! D46   D(5,3,9,13)            13.4202         -DE/DX =    0.0                 !
 ! D47   D(12,3,9,7)           -13.4345         -DE/DX =    0.0                 !
 ! D48   D(12,3,9,10)           40.7            -DE/DX =    0.0                 !
 ! D49   D(12,3,9,13)           -0.0104         -DE/DX =    0.0                 !
 ! D50   D(1,4,5,6)            -98.3663         -DE/DX =    0.0                 !
 ! D51   D(1,4,5,7)            -37.4352         -DE/DX =    0.0                 !
 ! D52   D(1,4,5,8)             24.6353         -DE/DX =    0.0                 !
 ! D53   D(1,4,11,6)           128.9351         -DE/DX =    0.0                 !
 ! D54   D(1,4,11,7)            69.4893         -DE/DX =    0.0                 !
 ! D55   D(1,4,11,10)            6.1305         -DE/DX =    0.0                 !
 ! D56   D(3,4,11,6)            68.1137         -DE/DX =    0.0                 !
 ! D57   D(3,4,11,7)             8.6679         -DE/DX =    0.0                 !
 ! D58   D(3,4,11,10)          -54.6908         -DE/DX =    0.0                 !
 ! D59   D(12,4,11,6)            3.5166         -DE/DX =    0.0                 !
 ! D60   D(12,4,11,7)          -55.9292         -DE/DX =    0.0                 !
 ! D61   D(12,4,11,10)        -119.2879         -DE/DX =    0.0                 !
 ! D62   D(3,5,7,9)             -0.0039         -DE/DX =    0.0                 !
 ! D63   D(3,5,7,10)           -54.1371         -DE/DX =    0.0                 !
 ! D64   D(3,5,7,13)           -13.4334         -DE/DX =    0.0                 !
 ! D65   D(4,5,7,9)             54.1312         -DE/DX =    0.0                 !
 ! D66   D(4,5,7,10)            -0.002          -DE/DX =    0.0                 !
 ! D67   D(4,5,7,13)            40.7017         -DE/DX =    0.0                 !
 ! D68   D(12,5,7,9)            13.4223         -DE/DX =    0.0                 !
 ! D69   D(12,5,7,10)          -40.7109         -DE/DX =    0.0                 !
 ! D70   D(12,5,7,13)           -0.0072         -DE/DX =    0.0                 !
 ! D71   D(4,5,8,9)            -28.7712         -DE/DX =    0.0                 !
 ! D72   D(6,5,8,9)             90.2531         -DE/DX =    0.0                 !
 ! D73   D(11,5,8,9)            26.409          -DE/DX =    0.0                 !
 ! D74   D(12,5,8,9)           -81.9379         -DE/DX =    0.0                 !
 ! D75   D(3,5,11,10)           39.5368         -DE/DX =    0.0                 !
 ! D76   D(8,5,11,10)          -10.825          -DE/DX =    0.0                 !
 ! D77   D(12,5,11,10)          89.7323         -DE/DX =    0.0                 !
 ! D78   D(6,7,8,3)            -90.2517         -DE/DX =    0.0                 !
 ! D79   D(10,7,8,3)            28.7701         -DE/DX =    0.0                 !
 ! D80   D(11,7,8,3)           -26.4068         -DE/DX =    0.0                 !
 ! D81   D(13,7,8,3)            81.9361         -DE/DX =    0.0                 !
 ! D82   D(5,7,9,1)            -61.9384         -DE/DX =    0.0                 !
 ! D83   D(5,7,9,2)            -27.7226         -DE/DX =    0.0                 !
 ! D84   D(5,7,9,3)              0.005          -DE/DX =    0.0                 !
 ! D85   D(6,7,9,1)            -34.2026         -DE/DX =    0.0                 !
 ! D86   D(6,7,9,2)              0.0132         -DE/DX =    0.0                 !
 ! D87   D(6,7,9,3)             27.7408         -DE/DX =    0.0                 !
 ! D88   D(11,7,9,1)             0.0041         -DE/DX =    0.0                 !
 ! D89   D(11,7,9,2)            34.2198         -DE/DX =    0.0                 !
 ! D90   D(11,7,9,3)            61.9474         -DE/DX =    0.0                 !
 ! D91   D(5,7,10,1)            37.4394         -DE/DX =    0.0                 !
 ! D92   D(6,7,10,1)            98.3664         -DE/DX =    0.0                 !
 ! D93   D(8,7,10,1)           -24.6356         -DE/DX =    0.0                 !
 ! D94   D(8,7,11,4)            10.8197         -DE/DX =    0.0                 !
 ! D95   D(9,7,11,4)           -39.5437         -DE/DX =    0.0                 !
 ! D96   D(13,7,11,4)          -89.7374         -DE/DX =    0.0                 !
 ! D97   D(5,8,9,1)             26.4111         -DE/DX =    0.0                 !
 ! D98   D(5,8,9,2)             90.2591         -DE/DX =    0.0                 !
 ! D99   D(5,8,9,10)           -28.7687         -DE/DX =    0.0                 !
 ! D100  D(5,8,9,13)           -81.9362         -DE/DX =    0.0                 !
 ! D101  D(2,9,10,11)          -98.3672         -DE/DX =    0.0                 !
 ! D102  D(3,9,10,11)          -37.4378         -DE/DX =    0.0                 !
 ! D103  D(8,9,10,11)           24.6334         -DE/DX =    0.0                 !
 ! D104  D(1,10,11,4)           -6.1306         -DE/DX =    0.0                 !
 ! D105  D(1,10,11,5)          -69.486          -DE/DX =    0.0                 !
 ! D106  D(1,10,11,6)         -128.9294         -DE/DX =    0.0                 !
 ! D107  D(9,10,11,4)           54.6921         -DE/DX =    0.0                 !
 ! D108  D(9,10,11,5)           -8.6633         -DE/DX =    0.0                 !
 ! D109  D(9,10,11,6)          -68.1068         -DE/DX =    0.0                 !
 ! D110  D(13,10,11,4)         119.2893         -DE/DX =    0.0                 !
 ! D111  D(13,10,11,5)          55.9339         -DE/DX =    0.0                 !
 ! D112  D(13,10,11,6)          -3.5095         -DE/DX =    0.0                 !
 --------------------------------------------------------------------------------
 GradGradGradGradGradGradGradGradGradGradGradGradGradGradGradGradGradGrad

 1\1\GINC-NODE41\Freq\RB3LYP\6-311+G(d)\Si13\TAM\18-Jan-2013\0\\#N Geom
 =AllCheck Guess=TCheck SCRF=Check GenChk RB3LYP/6-311+G(d) Freq\\si13-
 n\\0,1\Si,0.0003739167,-1.7541989907,-1.5402015416\Si,0.0000173041,-3.
 5739044348,0.1097197167\Si,1.2219179414,-1.5656007413,0.7527612431\Si,
 1.613237333,0.0003567571,-1.4121915642\Si,1.2218218145,1.5653578278,0.
 7532674825\Si,-0.0000824786,3.5739009488,0.1109998432\Si,-1.2221526676
 ,1.5652345939,0.7528856838\Si,-0.0004466337,-0.0005038591,2.3171847766
 \Si,-1.2221043946,-1.5656201096,0.7521651689\Si,-1.6126538439,0.000242
 7062,-1.4127895078\Si,0.0001649572,1.7548465149,-1.5394957213\Si,3.091
 593181,0.0000704912,0.3796090909\Si,-3.0916864294,-0.0001817046,0.3784
 493693\\Version=AM64L-G09RevA.02\State=1-A\HF=-3763.6297992\RMSD=8.146
 e-09\RMSF=1.381e-05\ZeroPoint=0.0207899\Thermal=0.0390574\Dipole=0.000
 105,0.0001029,-0.3299113\DipoleDeriv=-0.1100574,-0.0000085,-0.0000027,
 -0.0000322,-0.1541985,0.1941581,0.0000194,0.0814002,-0.1363678,0.02443
 07,-0.0000306,-0.0000204,0.000001,0.5175948,0.0026637,-0.0000111,0.022
 9981,0.1603804,-0.1163147,-0.2240422,0.0272484,-0.0815556,-0.098715,-0
 .0938313,0.0104959,-0.0510684,-0.1135727,-0.0370785,0.0000419,-0.20707
 97,0.000006,-0.0121563,0.0000206,0.0274378,0.0000293,-0.1603837,-0.116
 3243,0.2240323,0.0273485,0.081556,-0.0987838,0.0938144,0.0105283,0.051
 0624,-0.1135445,0.024441,-0.0000306,-0.0000194,-0.0000119,0.5175856,-0
 .0025476,-0.0000223,-0.0228107,0.160367,-0.1163193,-0.224054,-0.027348
 9,-0.0815689,-0.0987636,0.0937827,-0.0105453,0.0509785,-0.1135315,-0.0
 200356,0.0000076,-0.000051,-0.00002,-0.26515,-0.0000833,-0.0000536,-0.
 000131,0.240091,-0.1163147,0.2240587,-0.0272651,0.0815899,-0.0987676,-
 0.0937763,-0.0105286,-0.0509477,-0.1136292,-0.0371179,-0.0000545,0.207
 1397,0.0000098,-0.0121558,0.000047,-0.0273754,0.0000304,-0.160323,-0.1
 100532,0.0000086,-0.0000009,0.000022,-0.1541255,-0.1941551,-0.0000131,
 -0.0814443,-0.136472,0.3653572,0.0000202,0.1086326,-0.0000057,-0.02118
 79,-0.0000329,0.0587114,-0.0000421,0.2435226,0.3653867,0.0000512,-0.10
 8581,0.0000097,-0.0211764,-0.0000599,-0.0586436,-0.0000548,0.2434635\P
 olar=405.2210174,0.0012218,464.9784411,0.0157229,0.0248875,322.5068656
 \PG=C01 [X(Si13)]\NImag=0\\0.08391788,0.00000264,0.11658795,-0.0000008
 3,-0.01660486,0.06200823,-0.00860321,-0.00000664,0.00000164,0.03631510
 ,-0.00000554,-0.03169604,0.02731198,-0.00000642,0.12550076,0.00000124,
 0.03044816,-0.01675339,-0.00000157,-0.00262566,0.03685044,-0.00472630,
 0.00192911,-0.00692072,-0.01388054,-0.02005508,-0.00046261,0.10717278,
 0.00391473,-0.00221804,-0.00496777,-0.02617474,-0.04307627,-0.01364705
 ,0.02908430,0.09572565,-0.00677606,-0.00146139,-0.01434875,-0.00389952
 ,-0.01305658,-0.00821880,-0.00440341,0.01078758,0.04061619,-0.02517018
 ,-0.02450484,-0.00359308,0.00089517,0.00236230,0.00282417,-0.00241219,
 -0.00388862,0.00142729,0.12060870,-0.03149676,-0.03126490,0.00150353,-
 0.00084361,-0.00317455,0.00021075,-0.00004385,-0.00363692,0.00479299,0
 .00000280,0.09060781,-0.00607332,0.00178594,-0.00018487,0.00098472,-0.
 00238435,0.00013474,0.00487062,0.00350666,-0.01367499,0.03986979,0.000
 01165,0.08006236,-0.00177493,0.00007893,0.00197558,-0.00183316,0.00241
 608,-0.00152532,0.00717709,-0.00112909,-0.00124565,-0.00241176,0.00004
 245,0.00487332,0.10719887,-0.00418323,-0.00090975,-0.00200454,0.000371
 99,-0.00239149,0.00206818,0.00113051,-0.00917071,-0.00011177,0.0038899
 0,-0.00363694,-0.00350753,-0.02909871,0.09573375,-0.00201581,-0.002751
 08,-0.00194055,-0.00033326,0.00210577,-0.00101151,-0.00124507,0.000106
 79,0.00389236,0.00143195,-0.00479592,-0.01368366,-0.00441409,-0.010757
 32,0.04060897,-0.00156289,0.00000012,-0.00000032,0.00160688,-0.0000000
 4,-0.00000003,-0.00183263,-0.00037147,-0.00033368,0.00089561,0.0008434
 9,0.00098505,-0.01388128,0.02617557,-0.00389006,0.03630460,-0.00000015
 ,-0.00024698,0.00095393,0.00000010,-0.00321283,-0.00026896,-0.00241515
 ,-0.00239010,-0.00210654,-0.00236330,-0.00317640,0.00238326,0.02005737
 ,-0.04308687,0.01304150,-0.00001182,0.12548920,-0.00000016,0.00145501,
 -0.00084147,-0.00000050,0.00026650,0.00292881,-0.00152669,-0.00206862,
 -0.00101282,0.00282357,-0.00021263,0.00013596,-0.00045701,0.01363396,-
 0.00820881,0.00000362,0.00267858,0.03686111,-0.00177529,-0.00007783,-0
 .00197604,-0.00183340,-0.00241653,0.00152504,-0.00913950,0.00077217,0.
 00197198,-0.00310363,0.00408629,0.00151200,-0.04512514,-0.00435763,0.0
 0595434,-0.01387732,-0.02005073,0.00045059,0.10718602,0.00418400,-0.00
 090939,-0.00200234,-0.00037239,-0.00239224,0.00206803,0.00077258,-0.00
 044637,-0.00095494,0.00108854,0.00038041,-0.00196634,0.00434973,0.0002
 5402,-0.00156267,-0.02616926,-0.04307417,0.01361956,0.02908912,0.09572
 647,0.00201610,-0.00275199,-0.00194019,0.00033343,0.00210513,-0.001010
 60,-0.00197648,0.00095347,0.00280537,0.00420282,-0.00289530,-0.0016567
 5,-0.00596858,-0.00156599,0.00795362,0.00388436,0.01303104,-0.00820801
 ,0.00444287,-0.01074951,0.04061938,0.00123172,-0.00000019,0.00000217,-
 0.00121156,-0.00000018,-0.00000114,-0.00505611,0.00747975,0.00719750,-
 0.00551481,-0.00000063,0.00347171,-0.00505305,-0.00747594,0.00718629,-
 0.00121183,0.00000016,0.00000005,-0.00505001,0.00748074,-0.00718937,0.
 03462024,0.00000092,-0.00403488,-0.00600799,0.00000115,0.00126482,-0.0
 0332673,0.00921608,-0.01065167,-0.00560018,-0.00000083,0.00184517,0.00
 000230,-0.00921261,-0.01065128,0.00559551,-0.00000052,0.00126640,0.003
 32542,0.00921741,-0.01065684,0.00560732,-0.00000974,0.04514190,0.00000
 120,-0.00071958,-0.00698028,-0.00000050,0.00217382,0.00090800,0.006655
 25,-0.00838266,-0.01620054,-0.00092661,0.00000160,-0.00481074,0.006645
 92,0.00837899,-0.01619160,-0.00000036,-0.00217420,0.00090856,-0.006647
 22,0.00838844,-0.01619993,-0.00000743,-0.00000492,0.09086068,-0.004734
 48,-0.00192648,0.00692865,-0.01388658,0.02006700,0.00046283,-0.0451144
 6,0.00435118,0.00594949,-0.00310420,-0.00408796,0.00151039,-0.00913834
 ,-0.00077386,0.00197221,-0.00183372,0.00241640,0.00152624,0.00717675,-
 0.00113004,0.00124632,-0.00504952,-0.00921069,-0.00664861,0.10719353,-
 0.00391197,-0.00221690,-0.00497188,0.02618584,-0.04308730,-0.01363793,
 -0.00435274,0.00025039,0.00156247,-0.00109003,0.00037851,0.00196692,-0
 .00077293,-0.00044598,0.00095359,0.00037263,-0.00239017,-0.00206865,0.
 00113018,-0.00917175,0.00010637,-0.00747417,-0.01064960,-0.00838388,-0
 .02911375,0.09574524,0.00678454,-0.00146454,-0.01434915,0.00389896,-0.
 01304954,-0.00821720,-0.00597670,0.00156240,0.00795279,0.00420222,0.00
 289637,-0.00165520,-0.00197679,-0.00095494,0.00280836,0.00033331,-0.00
 210582,-0.00101204,0.00124708,-0.00011263,0.00389301,-0.00718909,-0.00
 560050,-0.01620695,0.00443098,0.01077146,0.04062881,-0.02517870,0.0245
 0454,0.00358452,0.00089682,-0.00236199,-0.00282352,-0.00310188,0.00108
 945,-0.00420352,-0.01698478,0.00000031,-0.00342153,-0.00310232,-0.0010
 8889,-0.00420275,0.00089611,0.00236315,-0.00282291,-0.00240944,-0.0038
 8787,-0.00142545,-0.00551374,0.00000006,0.00092646,-0.00240888,0.00388
 959,-0.00142666,0.12065121,0.03149637,-0.03126114,0.00151528,0.0008437
 4,-0.00317545,0.00021111,0.00408524,0.00037848,0.00289749,-0.00000157,
 -0.00507299,-0.00000085,-0.00408659,0.00038020,-0.00289715,-0.00084293
 ,-0.00317552,-0.00021250,-0.00004050,-0.00363621,-0.00479283,0.0000005
 6,0.00184499,0.00000141,0.00004333,-0.00364018,0.00480021,0.00001813,0
 .09063172,0.00606399,0.00179735,-0.00018260,-0.00098479,-0.00238571,0.
 00013369,-0.00151069,0.00196802,-0.00165675,0.00341587,-0.00000163,0.0
 0044043,-0.00151234,-0.00196686,-0.00165956,-0.00098479,0.00238422,0.0
 0013406,-0.00486744,-0.00350816,-0.01368425,-0.00347244,0.00000112,-0.
 00481222,-0.00486848,0.00351355,-0.01368422,-0.03985712,-0.00000375,0.
 08003585,-0.00497512,0.00000078,-0.00000196,-0.00156338,0.00000073,-0.
 00000021,-0.00177450,0.00418424,-0.00201454,-0.02516918,0.03148938,-0.
 00605912,-0.00472866,-0.00390997,-0.00678164,-0.00860141,0.00000438,0.
 00000155,-0.00473399,0.00390834,0.00678489,0.00123185,-0.00000022,0.00
 000146,-0.00177622,-0.00418569,0.00201470,-0.02518012,-0.03150746,0.00
 605181,0.08391971,-0.00000061,-0.01425722,0.00423936,0.00000044,-0.000
 24533,-0.00145528,-0.00007862,-0.00091044,0.00275192,0.02449670,-0.031
 24964,-0.00180236,-0.00192378,-0.00222050,0.00146876,0.00000408,-0.031
 68905,-0.03046555,0.00192453,-0.00221894,0.00146906,-0.00000024,-0.004
 03711,0.00072045,0.00007740,-0.00091173,0.00275169,-0.02451476,-0.0312
 7448,-0.00180688,0.00001715,0.11659051,-0.00000124,-0.00424586,0.00359
 824,0.,-0.00095394,-0.00084215,0.00197619,0.00200395,-0.00193785,-0.00
 358428,-0.00151560,-0.00018888,-0.00692465,0.00497501,-0.01434990,0.00
 000162,-0.02732822,-0.01678257,0.00692822,0.00497625,-0.01434693,0.000
 00146,0.00600784,-0.00697721,-0.00197553,0.00200323,-0.00193868,0.0035
 7446,-0.00152699,-0.00018121,0.00000325,0.01663577,0.06203008,-0.00332
 337,0.00100751,-0.00090246,0.00154877,0.00054186,-0.00014314,-0.025972
 76,-0.01774476,0.00676033,-0.03952662,0.00000803,-0.04212796,-0.025988
 94,0.01775228,0.00676761,0.00154874,-0.00054209,-0.00014303,-0.0013386
 6,-0.00156548,0.00042936,-0.00171189,-0.00000055,-0.00165550,-0.001337
 98,0.00156597,0.00043066,0.00099762,0.00000095,0.00039664,-0.00332371,
 -0.00100879,-0.00090311,0.10357128,-0.00301631,0.00121345,0.00051663,-
 0.00129454,0.00284307,-0.00002241,-0.02374475,-0.02178922,0.00104409,0
 .00000887,-0.00854057,0.00000505,0.02375117,-0.02179000,-0.00105286,0.
 00129513,0.00284311,0.00002472,0.00447247,-0.00206428,0.00054670,-0.00
 000113,-0.00034095,0.00000002,-0.00447157,-0.00206443,-0.00054675,-0.0
 0000016,-0.00345877,-0.00000025,0.00301665,0.00121233,-0.00051556,-0.0
 0001537,0.05259272,-0.00316126,-0.00274330,-0.00404347,-0.00012291,0.0
 0024658,-0.00245107,0.00967203,0.00578015,0.00346502,-0.05172183,0.000
 00455,-0.04345642,0.00968340,-0.00579041,0.00346343,-0.00012248,-0.000
 24466,-0.00245162,-0.00084643,-0.00239725,-0.00168188,0.00467655,0.000
 00060,-0.00214830,-0.00084797,0.00239643,-0.00168064,0.00037304,-0.000
 00041,-0.00146159,-0.00316058,0.00274654,-0.00404169,0.03333544,0.0000
 0112,0.05655224,-0.00332515,-0.00100766,0.00090286,0.00154908,-0.00054
 219,0.00014427,-0.00133902,-0.00156714,-0.00043022,0.00099786,0.000000
 07,-0.00039568,-0.00133840,0.00156797,-0.00042973,0.00154914,0.0005416
 8,0.00014468,-0.02597639,-0.01774802,-0.00678028,-0.00171130,-0.000000
 47,0.00165593,-0.02598591,0.01775707,-0.00677320,-0.03956189,-0.000009
 26,0.04212979,-0.00332528,0.00100650,0.00090361,-0.00514249,-0.0000004
 6,0.00224301,0.10360974,0.00301591,0.00121384,0.00051865,0.00129508,0.
 00284285,-0.00002220,0.00447237,-0.00206476,-0.00054514,0.00000009,-0.
 00345898,-0.00000036,-0.00447203,-0.00206444,0.00054507,-0.00129497,0.
 00284338,0.00002420,-0.02374895,-0.02179070,-0.00106347,0.00000100,-0.
 00034096,0.00000051,0.02375903,-0.02179611,0.00105259,-0.00001158,-0.0
 0854066,0.00000898,-0.00301830,0.00121160,-0.00051588,0.00000045,-0.00
 065646,0.00000004,0.00000190,0.05260140,0.00316163,-0.00274386,-0.0040
 4174,0.00012430,0.00024599,-0.00245096,0.00084829,0.00239708,-0.001681
 22,-0.00037190,-0.00000038,-0.00146198,0.00084620,-0.00239678,-0.00168
 114,0.00012376,-0.00024414,-0.00245116,-0.00969498,-0.00579845,0.00345
 716,-0.00467628,0.00000022,-0.00214948,-0.00968651,0.00578833,0.003461
 10,0.05172498,0.00000897,-0.04342165,0.00316040,0.00274651,-0.00404125
 ,-0.00224484,-0.00000050,-0.00006403,-0.03331504,-0.00000301,0.0565263
 4\\0.00000021,0.00001322,-0.00000550,-0.00000334,0.00000324,0.00001016
 ,0.00001087,0.00002222,0.00000052,-0.00000094,-0.00000367,-0.00000723,
 0.00001378,-0.00002712,-0.00000487,0.00000618,0.00000252,-0.00000190,-
 0.00001162,-0.00004023,-0.00000058,-0.00000267,-0.00000329,0.00000655,
 -0.00001745,0.00002928,-0.00000820,0.00001103,0.00000478,-0.00000545,-
 0.00001432,-0.00000418,-0.00000206,-0.00002527,0.00000615,0.00000908,0
 .00003354,-0.00000291,0.00000948\\\@


 A BIRD IN THE HAND IS SAFER THAN ONE OVERHEAD.

                       -- NEWTON'S SEVENTH LAW
 Job cpu time:  0 days  3 hours 28 minutes 20.9 seconds.
 File lengths (MBytes):  RWF=    287 Int=      0 D2E=      0 Chk=     12 Scr=      1
 Normal termination of Gaussian 09 at Fri Jan 18 16:07:46 2013.
