 Entering Gaussian System, Link 0=g03
 Initial command:
 /usr/local/chem/g03E01/l1.exe /temp0/tam/Gau-27837.inp -scrdir=/temp0/tam/
 Entering Link 1 = /usr/local/chem/g03E01/l1.exe PID=     27838.
  
 Copyright (c) 1988,1990,1992,1993,1995,1998,2003,2004,2007, Gaussian, Inc.
                  All Rights Reserved.
  
 This is the Gaussian(R) 03 program.  It is based on the
 the Gaussian(R) 98 system (copyright 1998, Gaussian, Inc.),
 the Gaussian(R) 94 system (copyright 1995, Gaussian, Inc.),
 the Gaussian 92(TM) system (copyright 1992, Gaussian, Inc.),
 the Gaussian 90(TM) system (copyright 1990, Gaussian, Inc.),
 the Gaussian 88(TM) system (copyright 1988, Gaussian, Inc.),
 the Gaussian 86(TM) system (copyright 1986, Carnegie Mellon
 University), and the Gaussian 82(TM) system (copyright 1983,
 Carnegie Mellon University). Gaussian is a federally registered
 trademark of Gaussian, Inc.
  
 This software contains proprietary and confidential information,
 including trade secrets, belonging to Gaussian, Inc.
  
 This software is provided under written license and may be
 used, copied, transmitted, or stored only in accord with that
 written license.
  
 The following legend is applicable only to US Government
 contracts under FAR:
  
                    RESTRICTED RIGHTS LEGEND
  
 Use, reproduction and disclosure by the US Government is
 subject to restrictions as set forth in subparagraphs (a)
 and (c) of the Commercial Computer Software - Restricted
 Rights clause in FAR 52.227-19.
  
 Gaussian, Inc.
 340 Quinnipiac St., Bldg. 40, Wallingford CT 06492
  
  
 ---------------------------------------------------------------
 Warning -- This program may not be used in any manner that
 competes with the business of Gaussian, Inc. or will provide
 assistance to any competitor of Gaussian, Inc.  The licensee
 of this program is prohibited from giving any competitor of
 Gaussian, Inc. access to this program.  By using this program,
 the user acknowledges that Gaussian, Inc. is engaged in the
 business of creating and licensing software in the field of
 computational chemistry and represents and warrants to the
 licensee that it is not a competitor of Gaussian, Inc. and that
 it will not use this program in any manner prohibited above.
 ---------------------------------------------------------------
  

 Cite this work as:
 Gaussian 03, Revision E.01,
 M. J. Frisch, G. W. Trucks, H. B. Schlegel, G. E. Scuseria, 
 M. A. Robb, J. R. Cheeseman, J. A. Montgomery, Jr., T. Vreven, 
 K. N. Kudin, J. C. Burant, J. M. Millam, S. S. Iyengar, J. Tomasi, 
 V. Barone, B. Mennucci, M. Cossi, G. Scalmani, N. Rega, 
 G. A. Petersson, H. Nakatsuji, M. Hada, M. Ehara, K. Toyota, 
 R. Fukuda, J. Hasegawa, M. Ishida, T. Nakajima, Y. Honda, O. Kitao, 
 H. Nakai, M. Klene, X. Li, J. E. Knox, H. P. Hratchian, J. B. Cross, 
 V. Bakken, C. Adamo, J. Jaramillo, R. Gomperts, R. E. Stratmann, 
 O. Yazyev, A. J. Austin, R. Cammi, C. Pomelli, J. W. Ochterski, 
 P. Y. Ayala, K. Morokuma, G. A. Voth, P. Salvador, J. J. Dannenberg, 
 V. G. Zakrzewski, S. Dapprich, A. D. Daniels, M. C. Strain, 
 O. Farkas, D. K. Malick, A. D. Rabuck, K. Raghavachari, 
 J. B. Foresman, J. V. Ortiz, Q. Cui, A. G. Baboul, S. Clifford, 
 J. Cioslowski, B. B. Stefanov, G. Liu, A. Liashenko, P. Piskorz, 
 I. Komaromi, R. L. Martin, D. J. Fox, T. Keith, M. A. Al-Laham, 
 C. Y. Peng, A. Nanayakkara, M. Challacombe, P. M. W. Gill, 
 B. Johnson, W. Chen, M. W. Wong, C. Gonzalez, and J. A. Pople, 
 Gaussian, Inc., Wallingford CT, 2004.
 
 ******************************************
 Gaussian 03:  AM64L-G03RevE.01 11-Sep-2007
                 6-Apr-2011 
 ******************************************
 %NprocShared=4
 Will use up to    4 processors via shared memory.
 %mem=3750MB
 %chk=S9L-ne-d-01
 ----------------------------------------------------------------------
 # b3lyp/LANL2DZ opt=(calcall,noeigentest,maxcycle=500) scfcyc=500 scf=
 xqc
 ----------------------------------------------------------------------
 1/6=500,10=4,11=1,14=-1,18=20,26=3,38=1/1,3;
 2/9=110,17=6,18=5,40=1/2;
 3/5=6,6=3,11=2,16=1,25=1,30=1,74=-5/1,2,3;
 4//1;
 5/5=2,7=500,8=3,13=1,38=5/2,8;
 8/6=4,10=90,11=11/1;
 11/6=1,8=1,9=11,15=111,16=1/1,2,10;
 10/6=1/2;
 6/7=2,8=2,9=2,10=2,18=1,28=1/1;
 7/10=1,25=1/1,2,3,16;
 1/6=500,10=4,11=1,14=-1,18=20/3(3);
 2/9=110/2;
 7/8=1,9=1,25=1,44=-1/16;
 99//99;
 2/9=110/2;
 3/5=6,6=3,11=2,16=1,25=1,30=1,74=-5/1,2,3;
 4/5=5,16=3/1;
 5/5=2,7=500,8=3,13=1,38=5/2,8;
 8/6=4,10=90,11=11/1;
 11/6=1,8=1,9=11,15=111,16=1/1,2,10;
 10/6=1/2;
 7/10=1,25=1/1,2,3,16;
 1/6=500,10=4,11=1,14=-1,18=20/3(-8);
 2/9=110/2;
 6/7=2,8=2,9=2,10=2,18=1,19=2,28=1/1;
 7/8=1,9=1,25=1,44=-1/16;
 99//99;
 -----
 si2-n
 -----
 Symbolic Z-matrix:
 Charge = -1 Multiplicity = 2
 Si                    0.        1.03613  -0.24984 
 Si                    0.       -1.03613  -0.24984 
 

 GradGradGradGradGradGradGradGradGradGradGradGradGradGradGradGradGradGrad
 Berny optimization.
 Initialization pass.
                           ----------------------------
                           !    Initial Parameters    !
                           ! (Angstroms and Degrees)  !
 --------------------------                            --------------------------
 ! Name  Definition              Value          Derivative Info.                !
 --------------------------------------------------------------------------------
 ! R1    R(1,2)                  2.0723         calculate D2E/DX2 analytically  !
 --------------------------------------------------------------------------------
 Trust Radius=3.00D-01 FncErr=1.00D-07 GrdErr=1.00D-06
 Number of steps in this run= 100 maximum allowed number of steps= 100.
 GradGradGradGradGradGradGradGradGradGradGradGradGradGradGradGradGradGrad

                          Input orientation:                          
 ---------------------------------------------------------------------
 Center     Atomic     Atomic              Coordinates (Angstroms)
 Number     Number      Type              X           Y           Z
 ---------------------------------------------------------------------
    1         14             0        0.000000    1.036131   -0.249839
    2         14             0        0.000000   -1.036131   -0.249839
 ---------------------------------------------------------------------
 Stoichiometry    Si2(1-,2)
 Framework group  D*H[C*(Si.Si)]
 Deg. of freedom     1
 Full point group                 D*H
 Largest Abelian subgroup         D2H     NOp   8
 Largest concise Abelian subgroup C2      NOp   2
                         Standard orientation:                         
 ---------------------------------------------------------------------
 Center     Atomic     Atomic              Coordinates (Angstroms)
 Number     Number      Type              X           Y           Z
 ---------------------------------------------------------------------
    1         14             0        0.000000    0.000000    1.036131
    2         14             0        0.000000    0.000000   -1.036131
 ---------------------------------------------------------------------
 Rotational constants (GHZ):      0.0000000      8.4131345      8.4131345
 Standard basis: LANL2DZ (5D, 7F)
 There are     4 symmetry adapted basis functions of AG  symmetry.
 There are     0 symmetry adapted basis functions of B1G symmetry.
 There are     2 symmetry adapted basis functions of B2G symmetry.
 There are     2 symmetry adapted basis functions of B3G symmetry.
 There are     0 symmetry adapted basis functions of AU  symmetry.
 There are     4 symmetry adapted basis functions of B1U symmetry.
 There are     2 symmetry adapted basis functions of B2U symmetry.
 There are     2 symmetry adapted basis functions of B3U symmetry.
 Integral buffers will be    131072 words long.
 Raffenetti 2 integral format.
 Two-electron integral symmetry is turned on.
    16 basis functions,    24 primitive gaussians,    16 cartesian basis functions
     5 alpha electrons        4 beta electrons
       nuclear repulsion energy         4.0857938488 Hartrees.
 NAtoms=    2 NActive=    2 NUniq=    1 SFac= 3.00D+00 NAtFMM=   80 NAOKFM=F Big=F
 One-electron integrals computed using PRISM.
   8 Symmetry operations used in ECPInt.
 ECPInt:  NShTT=      36 NPrTT=      82 LenC2=      37 LenP2D=      82.
 LDataN:  DoStor=F MaxTD1= 3 Len=   28
 LDataN:  DoStor=T MaxTD1= 3 Len=   28
 NBasis=    16 RedAO= T  NBF=     4     0     2     2     0     4     2     2
 NBsUse=    16 1.00D-06 NBFU=     4     0     2     2     0     4     2     2
 Harris functional with IExCor=  402 diagonalized for initial guess.
 ExpMin= 8.85D-02 ExpMax= 2.58D+00 ExpMxC= 2.58D+00 IAcc=2 IRadAn=         4 AccDes= 0.00D+00
 HarFok:  IExCor= 402 AccDes= 0.00D+00 IRadAn=         4 IDoV=1
 ScaDFX=  1.000000  1.000000  1.000000  1.000000
 Initial guess orbital symmetries:
 Alpha Orbitals:
       Occupied  (SGG) (SGU) (SGG) (PIU) (PIU)
       Virtual   (PIG) (PIG) (SGU) (SGG) (PIU) (PIU) (PIG) (PIG)
                 (SGU) (SGG) (SGU)
 Beta  Orbitals:
       Occupied  (SGG) (SGU) (SGG) (PIU)
       Virtual   (PIU) (PIG) (PIG) (SGU) (SGG) (PIU) (PIU) (PIG)
                 (PIG) (SGU) (SGG) (SGU)
 <S**2> of initial guess= 0.7500
 Requested convergence on RMS density matrix=1.00D-08 within 128 cycles.
 Requested convergence on MAX density matrix=1.00D-06.
 Requested convergence on             energy=1.00D-06.
 No special actions if energy rises.
 Keep R1 and R2 integrals in memory in canonical form, NReq=     1710372.
 Integral accuracy reduced to 1.0D-05 until final iterations.
 Initial convergence to 1.0D-05 achieved.  Increase integral accuracy.
 SCF Done:  E(UB+HF-LYP) =  -7.68456498670     A.U. after    9 cycles
             Convg  =    0.6516D-08             -V/T =  3.4917
             S**2   =   0.7507
 Annihilation of the first spin contaminant:
 S**2 before annihilation     0.7507,   after     0.7500
 QCSCF skips out because SCF is already converged.
 Range of M.O.s used for correlation:     1    16
 NBasis=    16 NAE=     5 NBE=     4 NFC=     0 NFV=     0
 NROrb=     16 NOA=     5 NOB=     4 NVA=    11 NVB=    12

 **** Warning!!: The smallest beta delta epsilon is  0.34630457D-01

   8 Symmetry operations used in ECPInt.
 ECPInt:  NShTT=      36 NPrTT=      82 LenC2=      37 LenP2D=      82.
 LDataN:  DoStor=F MaxTD1= 4 Len=   56
 LDataN:  DoStor=T MaxTD1= 4 Len=   56
 Symmetrizing basis deriv contribution to polar:
 IMax=3 JMax=2 DiffMx= 0.00D+00
 G2DrvN: will do    3 centers at a time, making    1 passes doing MaxLOS=1.
 FoFDir/FoFCou used for L=0 through L=1.
 DoAtom=TT
          Differentiating once with respect to electric field.
                with respect to dipole field.
          Differentiating once with respect to nuclear coordinates.
          Store integrals in memory, NReq=      819436.
          There are   6 degrees of freedom in the 1st order CPHF.
     6 vectors were produced by pass  0.
 AX will form   6 AO Fock derivatives at one time.
     6 vectors were produced by pass  1.
     6 vectors were produced by pass  2.
     6 vectors were produced by pass  3.
     6 vectors were produced by pass  4.
     6 vectors were produced by pass  5.
     6 vectors were produced by pass  6.
     3 vectors were produced by pass  7.
     1 vectors were produced by pass  8.
     1 vectors were produced by pass  9.
 Inv2:  IOpt= 1 Iter= 1 AM= 7.55D-16 Conv= 1.00D-12.
 Inverted reduced A of dimension   47 with in-core refinement.
 Isotropic polarizability for W=    0.000000       48.44 Bohr**3.
 End of Minotr Frequency-dependent properties file   721 does not exist.

 **********************************************************************

            Population analysis using the SCF density.

 **********************************************************************

 Orbital symmetries:
 Alpha Orbitals:
       Occupied  (SGG) (SGU) (PIU) (PIU) (SGG)
       Virtual   (PIG) (PIG) (SGU) (SGG) (PIU) (PIU) (PIG) (PIG)
                 (SGU) (SGG) (SGU)
 Beta  Orbitals:
       Occupied  (SGG) (SGU) (PIU) (SGG)
       Virtual   (PIU) (PIG) (PIG) (SGU) (SGG) (PIU) (PIU) (PIG)
                 (PIG) (SGU) (SGG) (SGU)
 Unable to determine electronic state:  partially filled degenerate orbitals.
 Alpha  occ. eigenvalues --   -0.32438  -0.11738  -0.02432  -0.00314   0.01369
 Alpha virt. eigenvalues --    0.14012   0.15812   0.27946   0.47042   0.50311
 Alpha virt. eigenvalues --    0.51929   0.55993   0.57518   0.63468   4.76693
 Alpha virt. eigenvalues --    8.23494
  Beta  occ. eigenvalues --   -0.30190  -0.10194   0.00362   0.01983
  Beta virt. eigenvalues --    0.05446   0.16331   0.17272   0.28670   0.47479
  Beta virt. eigenvalues --    0.52273   0.52618   0.57879   0.58210   0.64123
  Beta virt. eigenvalues --    4.77390   8.23689
          Condensed to atoms (all electrons):
              1          2
     1  Si   4.018444   0.481556
     2  Si   0.481556   4.018444
 Mulliken atomic charges:
              1
     1  Si  -0.500000
     2  Si  -0.500000
 Sum of Mulliken charges=  -1.00000
 Atomic charges with hydrogens summed into heavy atoms:
              1
     1  Si  -0.500000
     2  Si  -0.500000
 Sum of Mulliken charges=  -1.00000
          Atomic-Atomic Spin Densities.
              1          2
     1  Si   0.419137   0.080863
     2  Si   0.080863   0.419137
 Mulliken atomic spin densities:
              1
     1  Si   0.500000
     2  Si   0.500000
 Sum of Mulliken spin densities=   1.00000
 APT atomic charges:
              1
     1  Si  -0.500000
     2  Si  -0.500000
 Sum of APT charges=  -1.00000
 APT Atomic charges with hydrogens summed into heavy atoms:
              1
     1  Si  -0.500000
     2  Si  -0.500000
 Sum of APT charges=  -1.00000
 Electronic spatial extent (au):  <R**2>=   106.6950
 Charge=    -1.0000 electrons
 Dipole moment (field-independent basis, Debye):
    X=     0.0000    Y=     0.0000    Z=     0.0000  Tot=     0.0000
 Quadrupole moment (field-independent basis, Debye-Ang):
   XX=   -26.4889   YY=   -31.5613   ZZ=   -44.2057
   XY=     0.0000   XZ=     0.0000   YZ=     0.0000
 Traceless Quadrupole moment (field-independent basis, Debye-Ang):
   XX=     7.5964   YY=     2.5240   ZZ=   -10.1204
   XY=     0.0000   XZ=     0.0000   YZ=     0.0000
 Octapole moment (field-independent basis, Debye-Ang**2):
  XXX=     0.0000  YYY=     0.0000  ZZZ=     0.0000  XYY=     0.0000
  XXY=     0.0000  XXZ=     0.0000  XZZ=     0.0000  YZZ=     0.0000
  YYZ=     0.0000  XYZ=     0.0000
 Hexadecapole moment (field-independent basis, Debye-Ang**3):
 XXXX=   -54.9835 YYYY=   -74.2040 ZZZZ=  -329.6898 XXXY=     0.0000
 XXXZ=     0.0000 YYYX=     0.0000 YYYZ=     0.0000 ZZZX=     0.0000
 ZZZY=     0.0000 XXYY=   -21.5312 XXZZ=   -53.4332 YYZZ=   -60.5798
 XXYZ=     0.0000 YYXZ=     0.0000 ZZXY=     0.0000
 N-N= 4.085793848847D+00 E-N=-2.437335154170D+01  KE= 3.084100480438D+00
 Symmetry AG   KE= 1.430598474585D+00
 Symmetry B1G  KE= 0.000000000000D+00
 Symmetry B2G  KE= 3.015834127096D-33
 Symmetry B3G  KE= 1.028379539517D-32
 Symmetry AU   KE= 0.000000000000D+00
 Symmetry B1U  KE= 6.481034351060D-01
 Symmetry B2U  KE= 6.668470590689D-01
 Symmetry B3U  KE= 3.385515116776D-01
  Exact polarizability:  13.764   0.000  23.751   0.000   0.000 107.810
 Approx polarizability:  50.923   0.000  29.914   0.000   0.000 249.734
                          Isotropic Fermi Contact Couplings
        Atom                 a.u.       MegaHertz       Gauss      10(-4) cm-1
     1  Si(29)             0.00000       0.00064       0.00023       0.00021
     2  Si(29)             0.00000       0.00064       0.00023       0.00021
 --------------------------------------------------------
       Center         ----  Spin Dipole Couplings  ----
                      3XX-RR        3YY-RR        3ZZ-RR
 --------------------------------------------------------
     1   Atom        0.050015     -0.031107     -0.018909
     2   Atom        0.050015     -0.031107     -0.018909
 --------------------------------------------------------
                        XY            XZ            YZ
 --------------------------------------------------------
     1   Atom        0.000000      0.000000      0.000000
     2   Atom        0.000000      0.000000      0.000000
 --------------------------------------------------------


 ---------------------------------------------------------------------------------
              Anisotropic Spin Dipole Couplings in Principal Axis System
 ---------------------------------------------------------------------------------

       Atom             a.u.   MegaHertz   Gauss  10(-4) cm-1        Axes

              Baa    -0.0311     3.300     1.178     1.101  0.0000  1.0000  0.0000
     1 Si(29) Bbb    -0.0189     2.006     0.716     0.669  0.0000  0.0000  1.0000
              Bcc     0.0500    -5.306    -1.893    -1.770  1.0000  0.0000  0.0000
 
              Baa    -0.0311     3.300     1.178     1.101  0.0000  1.0000  0.0000
     2 Si(29) Bbb    -0.0189     2.006     0.716     0.669  0.0000  0.0000  1.0000
              Bcc     0.0500    -5.306    -1.893    -1.770  1.0000  0.0000  0.0000
 

 ---------------------------------------------------------------------------------

   8 Symmetry operations used in ECPInt.
 ECPInt:  NShTT=      36 NPrTT=      82 LenC2=      37 LenP2D=      82.
 LDataN:  DoStor=F MaxTD1= 5 Len=  102
 LDataN:  DoStor=T MaxTD1= 5 Len=  102
 ***** Axes restored to original set *****
 -------------------------------------------------------------------
 Center     Atomic                   Forces (Hartrees/Bohr)
 Number     Number              X              Y              Z
 -------------------------------------------------------------------
    1         14           0.000000000    0.064230732    0.000000000
    2         14           0.000000000   -0.064230732    0.000000000
 -------------------------------------------------------------------
 Cartesian Forces:  Max     0.064230732 RMS     0.037083630

 GradGradGradGradGradGradGradGradGradGradGradGradGradGradGradGradGradGrad
 Berny optimization.
 Internal  Forces:  Max     0.064230732 RMS     0.064230732
 Search for a local minimum.
 Step number   1 out of a maximum of 100
 All quantities printed in internal units (Hartrees-Bohrs-Radians)
 Second derivative matrix not updated -- analytic derivatives used.
 The second derivative matrix:
                          R1
           R1           0.26342
     Eigenvalues ---    0.26342
 RFO step:  Lambda=-1.48272893D-02.
 Linear search not attempted -- first point.
 Iteration  1 RMS(Cart)=  0.14142136 RMS(Int)=  0.03084416
 Iteration  2 RMS(Cart)=  0.02181011 RMS(Int)=  0.00000000
 Iteration  3 RMS(Cart)=  0.00000000 RMS(Int)=  0.00000000
 Variable       Old X    -DE/DX   Delta X   Delta X   Delta X     New X
                                 (Linear)    (Quad)   (Total)
    R1        3.91601   0.06423   0.00000   0.23084   0.23084   4.14685
         Item               Value     Threshold  Converged?
 Maximum Force            0.064231     0.000450     NO 
 RMS     Force            0.064231     0.000300     NO 
 Maximum Displacement     0.115422     0.001800     NO 
 RMS     Displacement     0.163231     0.001200     NO 
 Predicted change in Energy=-7.808711D-03
 GradGradGradGradGradGradGradGradGradGradGradGradGradGradGradGradGradGrad

                          Input orientation:                          
 ---------------------------------------------------------------------
 Center     Atomic     Atomic              Coordinates (Angstroms)
 Number     Number      Type              X           Y           Z
 ---------------------------------------------------------------------
    1         14             0        0.000000    1.097210   -0.249839
    2         14             0        0.000000   -1.097210   -0.249839
 ---------------------------------------------------------------------
 Stoichiometry    Si2(1-,2)
 Framework group  D*H[C*(Si.Si)]
 Deg. of freedom     1
 Full point group                 D*H
 Largest Abelian subgroup         D2H     NOp   8
 Largest concise Abelian subgroup C2      NOp   2
                         Standard orientation:                         
 ---------------------------------------------------------------------
 Center     Atomic     Atomic              Coordinates (Angstroms)
 Number     Number      Type              X           Y           Z
 ---------------------------------------------------------------------
    1         14             0        0.000000    0.000000    1.097210
    2         14             0        0.000000    0.000000   -1.097210
 ---------------------------------------------------------------------
 Rotational constants (GHZ):      0.0000000      7.5025322      7.5025322
 Standard basis: LANL2DZ (5D, 7F)
 There are     4 symmetry adapted basis functions of AG  symmetry.
 There are     0 symmetry adapted basis functions of B1G symmetry.
 There are     2 symmetry adapted basis functions of B2G symmetry.
 There are     2 symmetry adapted basis functions of B3G symmetry.
 There are     0 symmetry adapted basis functions of AU  symmetry.
 There are     4 symmetry adapted basis functions of B1U symmetry.
 There are     2 symmetry adapted basis functions of B2U symmetry.
 There are     2 symmetry adapted basis functions of B3U symmetry.
 Integral buffers will be    131072 words long.
 Raffenetti 2 integral format.
 Two-electron integral symmetry is turned on.
    16 basis functions,    24 primitive gaussians,    16 cartesian basis functions
     5 alpha electrons        4 beta electrons
       nuclear repulsion energy         3.8583486234 Hartrees.
 NAtoms=    2 NActive=    2 NUniq=    1 SFac= 3.00D+00 NAtFMM=   80 NAOKFM=F Big=F
 One-electron integrals computed using PRISM.
   8 Symmetry operations used in ECPInt.
 ECPInt:  NShTT=      36 NPrTT=      82 LenC2=      37 LenP2D=      82.
 LDataN:  DoStor=F MaxTD1= 3 Len=   28
 LDataN:  DoStor=T MaxTD1= 3 Len=   28
 NBasis=    16 RedAO= T  NBF=     4     0     2     2     0     4     2     2
 NBsUse=    16 1.00D-06 NBFU=     4     0     2     2     0     4     2     2
 Initial guess read from the read-write file:
 Initial guess orbital symmetries:
 Alpha Orbitals:
       Occupied  (SGG) (SGU) (PIU) (PIU) (SGG)
       Virtual   (PIG) (PIG) (SGU) (SGG) (PIU) (PIU) (PIG) (PIG)
                 (SGU) (SGG) (SGU)
 Beta  Orbitals:
       Occupied  (SGG) (SGU) (PIU) (SGG)
       Virtual   (PIU) (PIG) (PIG) (SGU) (SGG) (PIU) (PIU) (PIG)
                 (PIG) (SGU) (SGG) (SGU)
 <S**2> of initial guess= 0.7508
 Harris functional with IExCor=  402 diagonalized for initial guess.
 ExpMin= 8.85D-02 ExpMax= 2.58D+00 ExpMxC= 2.58D+00 IAcc=2 IRadAn=         4 AccDes= 0.00D+00
 HarFok:  IExCor= 402 AccDes= 0.00D+00 IRadAn=         4 IDoV=1
 ScaDFX=  1.000000  1.000000  1.000000  1.000000
 Requested convergence on RMS density matrix=1.00D-08 within 128 cycles.
 Requested convergence on MAX density matrix=1.00D-06.
 Requested convergence on             energy=1.00D-06.
 No special actions if energy rises.
 Keep R1 and R2 integrals in memory in canonical form, NReq=     1710372.
 Integral accuracy reduced to 1.0D-05 until final iterations.
 Initial convergence to 1.0D-05 achieved.  Increase integral accuracy.
 SCF Done:  E(UB+HF-LYP) =  -7.69329019397     A.U. after   10 cycles
             Convg  =    0.9843D-08             -V/T =  3.5545
             S**2   =   0.7506
 Annihilation of the first spin contaminant:
 S**2 before annihilation     0.7506,   after     0.7500
 QCSCF skips out because SCF is already converged.
 Range of M.O.s used for correlation:     1    16
 NBasis=    16 NAE=     5 NBE=     4 NFC=     0 NFV=     0
 NROrb=     16 NOA=     5 NOB=     4 NVA=    11 NVB=    12

 **** Warning!!: The smallest beta delta epsilon is  0.43574099D-01

   8 Symmetry operations used in ECPInt.
 ECPInt:  NShTT=      36 NPrTT=      82 LenC2=      37 LenP2D=      82.
 LDataN:  DoStor=F MaxTD1= 4 Len=   56
 LDataN:  DoStor=T MaxTD1= 4 Len=   56
 Symmetrizing basis deriv contribution to polar:
 IMax=3 JMax=2 DiffMx= 0.00D+00
 G2DrvN: will do    3 centers at a time, making    1 passes doing MaxLOS=1.
 FoFDir/FoFCou used for L=0 through L=1.
 DoAtom=TT
          Differentiating once with respect to electric field.
                with respect to dipole field.
          Differentiating once with respect to nuclear coordinates.
          Store integrals in memory, NReq=      819436.
          There are   6 degrees of freedom in the 1st order CPHF.
     6 vectors were produced by pass  0.
 AX will form   6 AO Fock derivatives at one time.
     6 vectors were produced by pass  1.
     6 vectors were produced by pass  2.
     6 vectors were produced by pass  3.
     6 vectors were produced by pass  4.
     6 vectors were produced by pass  5.
     6 vectors were produced by pass  6.
     3 vectors were produced by pass  7.
     1 vectors were produced by pass  8.
     1 vectors were produced by pass  9.
 Inv2:  IOpt= 1 Iter= 1 AM= 1.06D-15 Conv= 1.00D-12.
 Inverted reduced A of dimension   47 with in-core refinement.
 Isotropic polarizability for W=    0.000000       47.20 Bohr**3.
 End of Minotr Frequency-dependent properties file   721 does not exist.
   8 Symmetry operations used in ECPInt.
 ECPInt:  NShTT=      36 NPrTT=      82 LenC2=      37 LenP2D=      82.
 LDataN:  DoStor=F MaxTD1= 5 Len=  102
 LDataN:  DoStor=T MaxTD1= 5 Len=  102
 ***** Axes restored to original set *****
 -------------------------------------------------------------------
 Center     Atomic                   Forces (Hartrees/Bohr)
 Number     Number              X              Y              Z
 -------------------------------------------------------------------
    1         14           0.000000000    0.014964532    0.000000000
    2         14           0.000000000   -0.014964532    0.000000000
 -------------------------------------------------------------------
 Cartesian Forces:  Max     0.014964532 RMS     0.008639776

 GradGradGradGradGradGradGradGradGradGradGradGradGradGradGradGradGradGrad
 Berny optimization.
 Internal  Forces:  Max     0.014964532 RMS     0.014964532
 Search for a local minimum.
 Step number   2 out of a maximum of 100
 All quantities printed in internal units (Hartrees-Bohrs-Radians)
 Second derivative matrix not updated -- analytic derivatives used.
 Trust test= 1.12D+00 RLast= 2.31D-01 DXMaxT set to 4.24D-01
 The second derivative matrix:
                          R1
           R1           0.16957
     Eigenvalues ---    0.16957
 RFO step:  Lambda= 0.00000000D+00.
 Quintic linear search produced a step of  0.42006.
 Iteration  1 RMS(Cart)=  0.06856707 RMS(Int)=  0.00000000
 Iteration  2 RMS(Cart)=  0.00000000 RMS(Int)=  0.00000000
 Variable       Old X    -DE/DX   Delta X   Delta X   Delta X     New X
                                 (Linear)    (Quad)   (Total)
    R1        4.14685   0.01496   0.09697   0.00000   0.09697   4.24382
         Item               Value     Threshold  Converged?
 Maximum Force            0.014965     0.000450     NO 
 RMS     Force            0.014965     0.000300     NO 
 Maximum Displacement     0.048484     0.001800     NO 
 RMS     Displacement     0.068567     0.001200     NO 
 Predicted change in Energy=-6.538485D-04
 GradGradGradGradGradGradGradGradGradGradGradGradGradGradGradGradGradGrad

                          Input orientation:                          
 ---------------------------------------------------------------------
 Center     Atomic     Atomic              Coordinates (Angstroms)
 Number     Number      Type              X           Y           Z
 ---------------------------------------------------------------------
    1         14             0        0.000000    1.122866   -0.249839
    2         14             0        0.000000   -1.122866   -0.249839
 ---------------------------------------------------------------------
 Stoichiometry    Si2(1-,2)
 Framework group  D*H[C*(Si.Si)]
 Deg. of freedom     1
 Full point group                 D*H
 Largest Abelian subgroup         D2H     NOp   8
 Largest concise Abelian subgroup C2      NOp   2
                         Standard orientation:                         
 ---------------------------------------------------------------------
 Center     Atomic     Atomic              Coordinates (Angstroms)
 Number     Number      Type              X           Y           Z
 ---------------------------------------------------------------------
    1         14             0        0.000000    0.000000    1.122866
    2         14             0        0.000000    0.000000   -1.122866
 ---------------------------------------------------------------------
 Rotational constants (GHZ):      0.0000000      7.1635934      7.1635934
 Standard basis: LANL2DZ (5D, 7F)
 There are     4 symmetry adapted basis functions of AG  symmetry.
 There are     0 symmetry adapted basis functions of B1G symmetry.
 There are     2 symmetry adapted basis functions of B2G symmetry.
 There are     2 symmetry adapted basis functions of B3G symmetry.
 There are     0 symmetry adapted basis functions of AU  symmetry.
 There are     4 symmetry adapted basis functions of B1U symmetry.
 There are     2 symmetry adapted basis functions of B2U symmetry.
 There are     2 symmetry adapted basis functions of B3U symmetry.
 Integral buffers will be    131072 words long.
 Raffenetti 2 integral format.
 Two-electron integral symmetry is turned on.
    16 basis functions,    24 primitive gaussians,    16 cartesian basis functions
     5 alpha electrons        4 beta electrons
       nuclear repulsion energy         3.7701879103 Hartrees.
 NAtoms=    2 NActive=    2 NUniq=    1 SFac= 3.00D+00 NAtFMM=   80 NAOKFM=F Big=F
 One-electron integrals computed using PRISM.
   8 Symmetry operations used in ECPInt.
 ECPInt:  NShTT=      36 NPrTT=      82 LenC2=      37 LenP2D=      82.
 LDataN:  DoStor=F MaxTD1= 3 Len=   28
 LDataN:  DoStor=T MaxTD1= 3 Len=   28
 NBasis=    16 RedAO= T  NBF=     4     0     2     2     0     4     2     2
 NBsUse=    16 1.00D-06 NBFU=     4     0     2     2     0     4     2     2
 Initial guess read from the read-write file:
 Initial guess orbital symmetries:
 Alpha Orbitals:
       Occupied  (SGG) (SGU) (PIU) (PIU) (SGG)
       Virtual   (PIG) (PIG) (SGU) (SGG) (PIU) (PIU) (PIG) (PIG)
                 (SGU) (SGG) (SGU)
 Beta  Orbitals:
       Occupied  (SGG) (SGU) (PIU) (SGG)
       Virtual   (PIU) (PIG) (PIG) (SGU) (SGG) (PIU) (PIU) (PIG)
                 (PIG) (SGU) (SGG) (SGU)
 <S**2> of initial guess= 0.7507
 Harris functional with IExCor=  402 diagonalized for initial guess.
 ExpMin= 8.85D-02 ExpMax= 2.58D+00 ExpMxC= 2.58D+00 IAcc=2 IRadAn=         4 AccDes= 0.00D+00
 HarFok:  IExCor= 402 AccDes= 0.00D+00 IRadAn=         4 IDoV=1
 ScaDFX=  1.000000  1.000000  1.000000  1.000000
 Requested convergence on RMS density matrix=1.00D-08 within 128 cycles.
 Requested convergence on MAX density matrix=1.00D-06.
 Requested convergence on             energy=1.00D-06.
 No special actions if energy rises.
 Keep R1 and R2 integrals in memory in canonical form, NReq=     1710372.
 Integral accuracy reduced to 1.0D-05 until final iterations.
 Initial convergence to 1.0D-05 achieved.  Increase integral accuracy.
 SCF Done:  E(UB+HF-LYP) =  -7.69399238989     A.U. after    9 cycles
             Convg  =    0.1998D-08             -V/T =  3.5774
             S**2   =   0.7506
 Annihilation of the first spin contaminant:
 S**2 before annihilation     0.7506,   after     0.7500
 QCSCF skips out because SCF is already converged.
 Range of M.O.s used for correlation:     1    16
 NBasis=    16 NAE=     5 NBE=     4 NFC=     0 NFV=     0
 NROrb=     16 NOA=     5 NOB=     4 NVA=    11 NVB=    12

 **** Warning!!: The smallest beta delta epsilon is  0.46810284D-01

   8 Symmetry operations used in ECPInt.
 ECPInt:  NShTT=      36 NPrTT=      82 LenC2=      37 LenP2D=      82.
 LDataN:  DoStor=F MaxTD1= 4 Len=   56
 LDataN:  DoStor=T MaxTD1= 4 Len=   56
 Symmetrizing basis deriv contribution to polar:
 IMax=3 JMax=2 DiffMx= 0.00D+00
 G2DrvN: will do    3 centers at a time, making    1 passes doing MaxLOS=1.
 FoFDir/FoFCou used for L=0 through L=1.
 DoAtom=TT
          Differentiating once with respect to electric field.
                with respect to dipole field.
          Differentiating once with respect to nuclear coordinates.
          Store integrals in memory, NReq=      819436.
          There are   6 degrees of freedom in the 1st order CPHF.
     6 vectors were produced by pass  0.
 AX will form   6 AO Fock derivatives at one time.
     6 vectors were produced by pass  1.
     6 vectors were produced by pass  2.
     6 vectors were produced by pass  3.
     6 vectors were produced by pass  4.
     6 vectors were produced by pass  5.
     6 vectors were produced by pass  6.
     3 vectors were produced by pass  7.
     1 vectors were produced by pass  8.
     1 vectors were produced by pass  9.
 Inv2:  IOpt= 1 Iter= 1 AM= 1.55D-15 Conv= 1.00D-12.
 Inverted reduced A of dimension   47 with in-core refinement.
 Isotropic polarizability for W=    0.000000       43.73 Bohr**3.
 End of Minotr Frequency-dependent properties file   721 does not exist.
   8 Symmetry operations used in ECPInt.
 ECPInt:  NShTT=      36 NPrTT=      82 LenC2=      37 LenP2D=      82.
 LDataN:  DoStor=F MaxTD1= 5 Len=  102
 LDataN:  DoStor=T MaxTD1= 5 Len=  102
 ***** Axes restored to original set *****
 -------------------------------------------------------------------
 Center     Atomic                   Forces (Hartrees/Bohr)
 Number     Number              X              Y              Z
 -------------------------------------------------------------------
    1         14           0.000000000   -0.000003303    0.000000000
    2         14           0.000000000    0.000003303    0.000000000
 -------------------------------------------------------------------
 Cartesian Forces:  Max     0.000003303 RMS     0.000001907

 GradGradGradGradGradGradGradGradGradGradGradGradGradGradGradGradGradGrad
 Berny optimization.
 Internal  Forces:  Max     0.000003303 RMS     0.000003303
 Search for a local minimum.
 Step number   3 out of a maximum of 100
 All quantities printed in internal units (Hartrees-Bohrs-Radians)
 Second derivative matrix not updated -- analytic derivatives used.
 Trust test= 1.07D+00 RLast= 9.70D-02 DXMaxT set to 4.24D-01
 The second derivative matrix:
                          R1
           R1           0.13997
     Eigenvalues ---    0.13997
 RFO step:  Lambda= 0.00000000D+00.
 Quintic linear search produced a step of -0.00024.
 Iteration  1 RMS(Cart)=  0.00001669 RMS(Int)=  0.00000000
 Iteration  2 RMS(Cart)=  0.00000000 RMS(Int)=  0.00000000
 Variable       Old X    -DE/DX   Delta X   Delta X   Delta X     New X
                                 (Linear)    (Quad)   (Total)
    R1        4.24382   0.00000  -0.00002   0.00000  -0.00002   4.24380
         Item               Value     Threshold  Converged?
 Maximum Force            0.000003     0.000450     YES
 RMS     Force            0.000003     0.000300     YES
 Maximum Displacement     0.000012     0.001800     YES
 RMS     Displacement     0.000017     0.001200     YES
 Predicted change in Energy=-3.897656D-11
 Optimization completed.
    -- Stationary point found.
                           ----------------------------
                           !   Optimized Parameters   !
                           ! (Angstroms and Degrees)  !
 --------------------------                            --------------------------
 ! Name  Definition              Value          Derivative Info.                !
 --------------------------------------------------------------------------------
 ! R1    R(1,2)                  2.2457         -DE/DX =    0.0                 !
 --------------------------------------------------------------------------------
 GradGradGradGradGradGradGradGradGradGradGradGradGradGradGradGradGradGrad

                          Input orientation:                          
 ---------------------------------------------------------------------
 Center     Atomic     Atomic              Coordinates (Angstroms)
 Number     Number      Type              X           Y           Z
 ---------------------------------------------------------------------
    1         14             0        0.000000    1.122866   -0.249839
    2         14             0        0.000000   -1.122866   -0.249839
 ---------------------------------------------------------------------
 Stoichiometry    Si2(1-,2)
 Framework group  D*H[C*(Si.Si)]
 Deg. of freedom     1
 Full point group                 D*H
 Largest Abelian subgroup         D2H     NOp   8
 Largest concise Abelian subgroup C2      NOp   2
                         Standard orientation:                         
 ---------------------------------------------------------------------
 Center     Atomic     Atomic              Coordinates (Angstroms)
 Number     Number      Type              X           Y           Z
 ---------------------------------------------------------------------
    1         14             0        0.000000    0.000000    1.122866
    2         14             0        0.000000    0.000000   -1.122866
 ---------------------------------------------------------------------
 Rotational constants (GHZ):      0.0000000      7.1635934      7.1635934

 **********************************************************************

            Population analysis using the SCF density.

 **********************************************************************

 Orbital symmetries:
 Alpha Orbitals:
       Occupied  (SGG) (SGU) (PIU) (PIU) (SGG)
       Virtual   (PIG) (PIG) (SGU) (SGG) (PIU) (PIU) (PIG) (PIG)
                 (SGU) (SGG) (SGU)
 Beta  Orbitals:
       Occupied  (SGG) (SGU) (PIU) (SGG)
       Virtual   (PIU) (PIG) (PIG) (SGU) (SGG) (PIU) (PIU) (PIG)
                 (PIG) (SGU) (SGG) (SGU)
 Unable to determine electronic state:  partially filled degenerate orbitals.
 Alpha  occ. eigenvalues --   -0.30057  -0.13342  -0.01496   0.00497   0.00807
 Alpha virt. eigenvalues --    0.12604   0.14379   0.25621   0.48922   0.51066
 Alpha virt. eigenvalues --    0.52640   0.55026   0.56474   0.59386   4.72835
 Alpha virt. eigenvalues --    7.76655
  Beta  occ. eigenvalues --   -0.27932  -0.11782   0.01129   0.01411
  Beta virt. eigenvalues --    0.06092   0.14905   0.15971   0.26362   0.49326
  Beta virt. eigenvalues --    0.52981   0.53350   0.56804   0.57133   0.59910
  Beta virt. eigenvalues --    4.73551   7.76906
          Condensed to atoms (all electrons):
              1          2
     1  Si   4.027305   0.472695
     2  Si   0.472695   4.027305
 Mulliken atomic charges:
              1
     1  Si  -0.500000
     2  Si  -0.500000
 Sum of Mulliken charges=  -1.00000
 Atomic charges with hydrogens summed into heavy atoms:
              1
     1  Si  -0.500000
     2  Si  -0.500000
 Sum of Mulliken charges=  -1.00000
          Atomic-Atomic Spin Densities.
              1          2
     1  Si   0.417377   0.082623
     2  Si   0.082623   0.417377
 Mulliken atomic spin densities:
              1
     1  Si   0.500000
     2  Si   0.500000
 Sum of Mulliken spin densities=   1.00000
 APT atomic charges:
              1
     1  Si  -0.500000
     2  Si  -0.500000
 Sum of APT charges=  -1.00000
 APT Atomic charges with hydrogens summed into heavy atoms:
              1
     1  Si  -0.500000
     2  Si  -0.500000
 Sum of APT charges=  -1.00000
 Electronic spatial extent (au):  <R**2>=   113.0912
 Charge=    -1.0000 electrons
 Dipole moment (field-independent basis, Debye):
    X=     0.0000    Y=     0.0000    Z=     0.0000  Tot=     0.0000
 Quadrupole moment (field-independent basis, Debye-Ang):
   XX=   -27.0331   YY=   -32.2292   ZZ=   -44.4010
   XY=     0.0000   XZ=     0.0000   YZ=     0.0000
 Traceless Quadrupole moment (field-independent basis, Debye-Ang):
   XX=     7.5213   YY=     2.3252   ZZ=    -9.8466
   XY=     0.0000   XZ=     0.0000   YZ=     0.0000
 Octapole moment (field-independent basis, Debye-Ang**2):
  XXX=     0.0000  YYY=     0.0000  ZZZ=     0.0000  XYY=     0.0000
  XXY=     0.0000  XXZ=     0.0000  XZZ=     0.0000  YZZ=     0.0000
  YYZ=     0.0000  XYZ=     0.0000
 Hexadecapole moment (field-independent basis, Debye-Ang**3):
 XXXX=   -57.0621 YYYY=   -77.0796 ZZZZ=  -365.7343 XXXY=     0.0000
 XXXZ=     0.0000 YYYX=     0.0000 YYYZ=     0.0000 ZZZX=     0.0000
 ZZZY=     0.0000 XXYY=   -22.3569 XXZZ=   -58.5714 YYZZ=   -66.7916
 XXYZ=     0.0000 YYXZ=     0.0000 ZZXY=     0.0000
 N-N= 3.770187910328D+00 E-N=-2.371478285448D+01  KE= 2.985186066048D+00
 Symmetry AG   KE= 1.361576691155D+00
 Symmetry B1G  KE= 0.000000000000D+00
 Symmetry B2G  KE= 4.621091919080D-34
 Symmetry B3G  KE= 4.182271400970D-34
 Symmetry AU   KE= 0.000000000000D+00
 Symmetry B1U  KE= 6.433298291864D-01
 Symmetry B2U  KE= 6.504013156623D-01
 Symmetry B3U  KE= 3.298782300443D-01
  Exact polarizability: -10.329   0.000  23.315   0.000   0.000 118.208
 Approx polarizability:  45.494   0.000  29.316   0.000   0.000 320.711
                          Isotropic Fermi Contact Couplings
        Atom                 a.u.       MegaHertz       Gauss      10(-4) cm-1
     1  Si(29)             0.00000       0.00056       0.00020       0.00019
     2  Si(29)             0.00000       0.00056       0.00020       0.00019
 --------------------------------------------------------
       Center         ----  Spin Dipole Couplings  ----
                      3XX-RR        3YY-RR        3ZZ-RR
 --------------------------------------------------------
     1   Atom        0.047941     -0.029225     -0.018716
     2   Atom        0.047941     -0.029225     -0.018716
 --------------------------------------------------------
                        XY            XZ            YZ
 --------------------------------------------------------
     1   Atom        0.000000      0.000000      0.000000
     2   Atom        0.000000      0.000000      0.000000
 --------------------------------------------------------


 ---------------------------------------------------------------------------------
              Anisotropic Spin Dipole Couplings in Principal Axis System
 ---------------------------------------------------------------------------------

       Atom             a.u.   MegaHertz   Gauss  10(-4) cm-1        Axes

              Baa    -0.0292     3.100     1.106     1.034  0.0000  1.0000  0.0000
     1 Si(29) Bbb    -0.0187     1.985     0.708     0.662  0.0000  0.0000  1.0000
              Bcc     0.0479    -5.086    -1.815    -1.696  1.0000  0.0000  0.0000
 
              Baa    -0.0292     3.100     1.106     1.034  0.0000  1.0000  0.0000
     2 Si(29) Bbb    -0.0187     1.985     0.708     0.662  0.0000  0.0000  1.0000
              Bcc     0.0479    -5.086    -1.815    -1.696  1.0000  0.0000  0.0000
 

 ---------------------------------------------------------------------------------

 Rotating derivatives to standard orientation.
 Full mass-weighted force constant matrix:
 Low frequencies ---   -0.0001   -0.0001    0.0001    4.0120    6.3512  514.2005
 Diagonal vibrational polarizability:
        0.0000000       0.0000000       0.0000000
 Harmonic frequencies (cm**-1), IR intensities (KM/Mole), Raman scattering
 activities (A**4/AMU), depolarization ratios for plane and unpolarized
 incident light, reduced masses (AMU), force constants (mDyne/A),
 and normal coordinates:
                     1
                    SGG
 Frequencies --   514.2005
 Red. masses --    27.9769
 Frc consts  --     4.3583
 IR Inten    --     0.0000
 Atom AN      X      Y      Z
   1  14     0.00   0.00   0.71
   2  14     0.00   0.00  -0.71

 -------------------
 - Thermochemistry -
 -------------------
 Temperature   298.150 Kelvin.  Pressure   1.00000 Atm.
 Atom  1 has atomic number 14 and mass  27.97693
 Atom  2 has atomic number 14 and mass  27.97693
 Molecular mass:    55.95386 amu.
 Principal axes and moments of inertia in atomic units:
                           1         2         3
     EIGENVALUES --     0.00000 251.93239 251.93239
           X            0.00000   1.00000   0.00000
           Y            0.00000   0.00000   1.00000
           Z            1.00000   0.00000   0.00000
 This molecule is a prolate symmetric top.
 Rotational symmetry number  2.
 Rotational temperature (Kelvin)      0.34380
 Rotational constant (GHZ):           7.163593
 Zero-point vibrational energy       3075.6 (Joules/Mol)
                                    0.73509 (Kcal/Mol)
 Warning -- explicit consideration of   1 degrees of freedom as
           vibrations may cause significant error
 Vibrational temperatures:    739.82
          (Kelvin)
 
 Zero-point correction=                           0.001171 (Hartree/Particle)
 Thermal correction to Energy=                    0.003746
 Thermal correction to Enthalpy=                  0.004690
 Thermal correction to Gibbs Free Energy=        -0.020987
 Sum of electronic and zero-point Energies=             -7.692821
 Sum of electronic and thermal Energies=                -7.690247
 Sum of electronic and thermal Enthalpies=              -7.689302
 Sum of electronic and thermal Free Energies=           -7.714980
 
                     E (Thermal)             CV                S
                      KCal/Mol        Cal/Mol-Kelvin    Cal/Mol-Kelvin
 Total                    2.350              6.187             54.042
 Electronic               0.000              0.000              1.377
 Translational            0.889              2.981             37.987
 Rotational               0.592              1.987             14.054
 Vibrational              0.869              1.219              0.624
 Vibration  1             0.869              1.219              0.624
                       Q            Log10(Q)             Ln(Q)
 Total Bot       0.450235D+10          9.653439         22.227865
 Total V=0       0.155690D+11         10.192261         23.468547
 Vib (Bot)       0.315578D+00         -0.500893         -1.153348
 Vib (Bot)  1    0.315578D+00         -0.500893         -1.153348
 Vib (V=0)       0.109126D+01          0.037929          0.087334
 Vib (V=0)  1    0.109126D+01          0.037929          0.087334
 Electronic      0.200000D+01          0.301030          0.693147
 Translational   0.164513D+08          7.216200         16.615915
 Rotational      0.433612D+03          2.637102          6.072151
 ***** Axes restored to original set *****
 -------------------------------------------------------------------
 Center     Atomic                   Forces (Hartrees/Bohr)
 Number     Number              X              Y              Z
 -------------------------------------------------------------------
    1         14           0.000000000   -0.000003303    0.000000000
    2         14           0.000000000    0.000003303    0.000000000
 -------------------------------------------------------------------
 Cartesian Forces:  Max     0.000003303 RMS     0.000001907
 1\1\GINC-NODE31\Freq\UB3LYP\LANL2DZ\Si2(1-,2)\TAM\06-Apr-2011\0\\# b3l
 yp/LANL2DZ opt=(calcall,noeigentest,maxcycle=500) scfcyc=500 scf=xqc\\
 si2-n\\-1,2\Si,0.,1.1228664902,-0.249839\Si,0.,-1.1228664902,-0.249839
 \\Version=AM64L-G03RevE.01\HF=-7.6939924\S2=0.750599\S2-1=0.\S2A=0.75\
 RMSD=1.998e-09\RMSF=1.907e-06\ZeroPoint=0.0011714\Thermal=0.0037457\Di
 pole=0.,0.,0.\DipoleDeriv=-0.5,0.,0.,0.,-0.5,0.,0.,0.,-0.5,-0.5,0.,0.,
 0.,-0.5,0.,0.,0.,-0.5\Polar=-10.3292531,0.,118.2076112,0.,0.,23.314968
 2\PG=D*H [C*(Si1.Si1)]\NImag=0\\0.00000852,0.,0.13996724,0.,0.,0.00002
 135,-0.00000852,0.,0.,0.00000852,0.,-0.13996724,0.,0.,0.13996724,0.,0.
 ,-0.00002135,0.,0.,0.00002135\\0.,0.00000330,0.,0.,-0.00000330,0.\\\@


 Money is a good servant but a bad master.
                        -- French Proverb
 Job cpu time:  0 days  0 hours  1 minutes 59.3 seconds.
 File lengths (MBytes):  RWF=     13 Int=      0 D2E=      0 Chk=      6 Scr=      1
 Normal termination of Gaussian 03 at Wed Apr  6 16:48:31 2011.
 Initial command:
 /usr/local/chem/g03E01/l1.exe /temp0/tam/Gau-27837.inp -scrdir=/temp0/tam/
 Entering Link 1 = /usr/local/chem/g03E01/l1.exe PID=     28016.
  
 Copyright (c) 1988,1990,1992,1993,1995,1998,2003,2004,2007, Gaussian, Inc.
                  All Rights Reserved.
  
 This is the Gaussian(R) 03 program.  It is based on the
 the Gaussian(R) 98 system (copyright 1998, Gaussian, Inc.),
 the Gaussian(R) 94 system (copyright 1995, Gaussian, Inc.),
 the Gaussian 92(TM) system (copyright 1992, Gaussian, Inc.),
 the Gaussian 90(TM) system (copyright 1990, Gaussian, Inc.),
 the Gaussian 88(TM) system (copyright 1988, Gaussian, Inc.),
 the Gaussian 86(TM) system (copyright 1986, Carnegie Mellon
 University), and the Gaussian 82(TM) system (copyright 1983,
 Carnegie Mellon University). Gaussian is a federally registered
 trademark of Gaussian, Inc.
  
 This software contains proprietary and confidential information,
 including trade secrets, belonging to Gaussian, Inc.
  
 This software is provided under written license and may be
 used, copied, transmitted, or stored only in accord with that
 written license.
  
 The following legend is applicable only to US Government
 contracts under FAR:
  
                    RESTRICTED RIGHTS LEGEND
  
 Use, reproduction and disclosure by the US Government is
 subject to restrictions as set forth in subparagraphs (a)
 and (c) of the Commercial Computer Software - Restricted
 Rights clause in FAR 52.227-19.
  
 Gaussian, Inc.
 340 Quinnipiac St., Bldg. 40, Wallingford CT 06492
  
  
 ---------------------------------------------------------------
 Warning -- This program may not be used in any manner that
 competes with the business of Gaussian, Inc. or will provide
 assistance to any competitor of Gaussian, Inc.  The licensee
 of this program is prohibited from giving any competitor of
 Gaussian, Inc. access to this program.  By using this program,
 the user acknowledges that Gaussian, Inc. is engaged in the
 business of creating and licensing software in the field of
 computational chemistry and represents and warrants to the
 licensee that it is not a competitor of Gaussian, Inc. and that
 it will not use this program in any manner prohibited above.
 ---------------------------------------------------------------
  

 Cite this work as:
 Gaussian 03, Revision E.01,
 M. J. Frisch, G. W. Trucks, H. B. Schlegel, G. E. Scuseria, 
 M. A. Robb, J. R. Cheeseman, J. A. Montgomery, Jr., T. Vreven, 
 K. N. Kudin, J. C. Burant, J. M. Millam, S. S. Iyengar, J. Tomasi, 
 V. Barone, B. Mennucci, M. Cossi, G. Scalmani, N. Rega, 
 G. A. Petersson, H. Nakatsuji, M. Hada, M. Ehara, K. Toyota, 
 R. Fukuda, J. Hasegawa, M. Ishida, T. Nakajima, Y. Honda, O. Kitao, 
 H. Nakai, M. Klene, X. Li, J. E. Knox, H. P. Hratchian, J. B. Cross, 
 V. Bakken, C. Adamo, J. Jaramillo, R. Gomperts, R. E. Stratmann, 
 O. Yazyev, A. J. Austin, R. Cammi, C. Pomelli, J. W. Ochterski, 
 P. Y. Ayala, K. Morokuma, G. A. Voth, P. Salvador, J. J. Dannenberg, 
 V. G. Zakrzewski, S. Dapprich, A. D. Daniels, M. C. Strain, 
 O. Farkas, D. K. Malick, A. D. Rabuck, K. Raghavachari, 
 J. B. Foresman, J. V. Ortiz, Q. Cui, A. G. Baboul, S. Clifford, 
 J. Cioslowski, B. B. Stefanov, G. Liu, A. Liashenko, P. Piskorz, 
 I. Komaromi, R. L. Martin, D. J. Fox, T. Keith, M. A. Al-Laham, 
 C. Y. Peng, A. Nanayakkara, M. Challacombe, P. M. W. Gill, 
 B. Johnson, W. Chen, M. W. Wong, C. Gonzalez, and J. A. Pople, 
 Gaussian, Inc., Wallingford CT, 2004.
 
 ******************************************
 Gaussian 03:  AM64L-G03RevE.01 11-Sep-2007
                 6-Apr-2011 
 ******************************************
 %NprocShared=4
 Will use up to    4 processors via shared memory.
 %mem=3750MB
 %chk=S9L-ne-d-01
 ----------------------------------------------------------------------
 # b3lyp/6-31G(d) opt=(readfc,noeigentest,maxcycle=500) freq scfcyc=500
  optcyc=500 geom=allcheck guess=read scf=xqc
 ----------------------------------------------------------------------
 1/6=500,10=3,11=1,14=-1,18=20,26=3,29=7,38=1/1,3;
 2/9=110,40=1/2;
 3/5=1,6=6,7=1,11=2,16=1,25=1,30=1,74=-5/1,2,3;
 4/5=1/1;
 5/5=2,7=500,8=3,13=1,38=6/2,8;
 6/7=2,8=2,9=2,10=2,28=1/1;
 7//1,2,3,16;
 1/6=500,11=1,14=-1,18=20/3(3);
 2/9=110/2;
 6/7=2,8=2,9=2,10=2,19=2,28=1/1;
 99//99;
 2/9=110/2;
 3/5=1,6=6,7=1,11=2,16=1,25=1,30=1,74=-5/1,2,3;
 4/5=5,16=3/1;
 5/5=2,7=500,8=3,13=1,38=5/2,8;
 7//1,2,3,16;
 1/6=500,11=1,14=-1,18=20/3(-5);
 2/9=110/2;
 6/7=2,8=2,9=2,10=2,19=2,28=1/1;
 99/9=1/99;
 -----
 si2-n
 -----
 Redundant internal coordinates taken from checkpoint file:
 S9L-ne-d-01.chk
 Charge = -1 Multiplicity = 2
 Si,0,0.,1.1228664902,-0.249839
 Si,0,0.,-1.1228664902,-0.249839
 Recover connectivity data from disk.

 GradGradGradGradGradGradGradGradGradGradGradGradGradGradGradGradGradGrad
 Berny optimization.
 Initialization pass.
 Force constant matrix read from checkpoint file:
 S9L-ne-d-01.chk
                           ----------------------------
                           !    Initial Parameters    !
                           ! (Angstroms and Degrees)  !
 --------------------------                            --------------------------
 ! Name  Definition              Value          Derivative Info.                !
 --------------------------------------------------------------------------------
 ! R1    R(1,2)                  2.2457         D2E/DX2 =    0.14               !
 --------------------------------------------------------------------------------
 Trust Radius=3.00D-01 FncErr=1.00D-07 GrdErr=1.00D-06
 Number of steps in this run= 100 maximum allowed number of steps= 100.
 GradGradGradGradGradGradGradGradGradGradGradGradGradGradGradGradGradGrad

                          Input orientation:                          
 ---------------------------------------------------------------------
 Center     Atomic     Atomic              Coordinates (Angstroms)
 Number     Number      Type              X           Y           Z
 ---------------------------------------------------------------------
    1         14             0        0.000000    1.122866   -0.249839
    2         14             0        0.000000   -1.122866   -0.249839
 ---------------------------------------------------------------------
 Stoichiometry    Si2(1-,2)
 Framework group  D*H[C*(Si.Si)]
 Deg. of freedom     1
 Full point group                 D*H
 Largest Abelian subgroup         D2H     NOp   8
 Largest concise Abelian subgroup C2      NOp   2
                         Standard orientation:                         
 ---------------------------------------------------------------------
 Center     Atomic     Atomic              Coordinates (Angstroms)
 Number     Number      Type              X           Y           Z
 ---------------------------------------------------------------------
    1         14             0        0.000000    0.000000    1.122866
    2         14             0        0.000000    0.000000   -1.122866
 ---------------------------------------------------------------------
 Rotational constants (GHZ):      0.0000000      7.1635934      7.1635934
 Standard basis: 6-31G(d) (6D, 7F)
 There are    10 symmetry adapted basis functions of AG  symmetry.
 There are     1 symmetry adapted basis functions of B1G symmetry.
 There are     4 symmetry adapted basis functions of B2G symmetry.
 There are     4 symmetry adapted basis functions of B3G symmetry.
 There are     1 symmetry adapted basis functions of AU  symmetry.
 There are    10 symmetry adapted basis functions of B1U symmetry.
 There are     4 symmetry adapted basis functions of B2U symmetry.
 There are     4 symmetry adapted basis functions of B3U symmetry.
 Integral buffers will be    131072 words long.
 Raffenetti 2 integral format.
 Two-electron integral symmetry is turned on.
    38 basis functions,   104 primitive gaussians,    38 cartesian basis functions
    15 alpha electrons       14 beta electrons
       nuclear repulsion energy        46.1848019015 Hartrees.
 NAtoms=    2 NActive=    2 NUniq=    1 SFac= 3.00D+00 NAtFMM=   80 NAOKFM=F Big=F
 One-electron integrals computed using PRISM.
 NBasis=    38 RedAO= T  NBF=    10     1     4     4     1    10     4     4
 NBsUse=    38 1.00D-06 NBFU=    10     1     4     4     1    10     4     4
 Initial guess read from the checkpoint file:
 S9L-ne-d-01.chk
 Initial guess orbital symmetries:
 Alpha Orbitals:
       Occupied  (SGG) (SGU) (PIU) (PIU) (SGG) (PIG) (PIG) (SGU)
                 (SGG) (PIU) (PIU) (PIG) (PIG) (SGU) (SGG)
       Virtual   (SGU) (SGG) (SGG) (SGG) (SGG) (SGG) (DLTG) (DLTG)
                 (PIG) (PIG) (PIG) (PIG) (DLTU) (SGU) (SGU) (SGU)
                 (SGU) (SGU) (DLTU) (PIU) (PIU) (PIU) (PIU)
 Beta  Orbitals:
       Occupied  (SGG) (SGU) (PIU) (SGG) (PIU) (PIG) (PIG) (SGU)
                 (SGG) (PIU) (PIU) (PIG) (PIG) (SGU)
       Virtual   (SGG) (SGU) (SGG) (SGG) (SGG) (SGG) (SGG) (DLTG)
                 (DLTG) (PIG) (PIG) (PIG) (PIG) (DLTU) (SGU) (SGU)
                 (SGU) (SGU) (SGU) (DLTU) (PIU) (PIU) (PIU) (PIU)
 <S**2> of initial guess= 0.7500
 Requested convergence on RMS density matrix=1.00D-08 within 128 cycles.
 Requested convergence on MAX density matrix=1.00D-06.
 Requested convergence on             energy=1.00D-06.
 No special actions if energy rises.
 Keep R1 and R2 integrals in memory in canonical form, NReq=     2266901.
 SCF Done:  E(UB+HF-LYP) =  -578.916493605     A.U. after   14 cycles
             Convg  =    0.5561D-08             -V/T =  2.0037
             S**2   =   0.7560
 Annihilation of the first spin contaminant:
 S**2 before annihilation     0.7560,   after     0.7500
 QCSCF skips out because SCF is already converged.

 **********************************************************************

            Population analysis using the SCF density.

 **********************************************************************

 Orbital symmetries:
 Alpha Orbitals:
       Occupied  (SGU) (SGG) (SGG) (SGU) (SGG) (SGU) (PIU) (PIU)
                 (PIG) (PIG) (SGG) (SGU) (SGG) (PIU) (PIU)
       Virtual   (PIG) (PIG) (SGU) (SGG) (SGG) (SGU) (PIU) (PIU)
                 (PIG) (PIG) (SGU) (PIU) (PIU) (DLTG) (DLTG) (SGG)
                 (DLTU) (DLTU) (PIG) (PIG) (SGU) (SGG) (SGU)
 Beta  Orbitals:
       Occupied  (SGU) (SGG) (SGG) (SGU) (PIU) (PIU) (PIG) (PIG)
                 (SGG) (SGU) (SGG) (SGU) (PIU) (PIU)
       Virtual   (SGG) (PIG) (PIG) (SGU) (SGG) (SGG) (PIU) (PIU)
                 (SGU) (PIG) (PIG) (SGU) (PIU) (PIU) (DLTG) (DLTG)
                 (SGG) (DLTU) (DLTU) (PIG) (PIG) (SGU) (SGG) (SGU)
 The electronic state is 2-SGG.
 Alpha  occ. eigenvalues --  -65.92628 -65.92624  -5.07249  -5.07240  -3.43384
 Alpha  occ. eigenvalues --   -3.43290  -3.42950  -3.42950  -3.42944  -3.42944
 Alpha  occ. eigenvalues --   -0.29661  -0.16108  -0.02698   0.00845   0.00845
 Alpha virt. eigenvalues --    0.13357   0.13357   0.22183   0.35069   0.37115
 Alpha virt. eigenvalues --    0.43491   0.43537   0.43537   0.47430   0.47430
 Alpha virt. eigenvalues --    0.56299   0.68739   0.68739   0.79396   0.79397
 Alpha virt. eigenvalues --    0.81713   0.84685   0.84685   0.97754   0.97754
 Alpha virt. eigenvalues --    1.24457   3.05104   3.17402
  Beta  occ. eigenvalues --  -65.92457 -65.92453  -5.07067  -5.07060  -3.42855
  Beta  occ. eigenvalues --   -3.42855  -3.42850  -3.42850  -3.42740  -3.42651
  Beta  occ. eigenvalues --   -0.27167  -0.13318   0.01333   0.01333
  Beta virt. eigenvalues --    0.05773   0.14034   0.14034   0.23731   0.36235
  Beta virt. eigenvalues --    0.39055   0.43766   0.43766   0.45571   0.47642
  Beta virt. eigenvalues --    0.47642   0.57303   0.71526   0.71526   0.79568
  Beta virt. eigenvalues --    0.79568   0.84268   0.84793   0.84794   0.99641
  Beta virt. eigenvalues --    0.99641   1.26916   3.05846   3.18091
          Condensed to atoms (all electrons):
              1          2
     1  Si  13.873416   0.626584
     2  Si   0.626584  13.873416
 Mulliken atomic charges:
              1
     1  Si  -0.500000
     2  Si  -0.500000
 Sum of Mulliken charges=  -1.00000
 Atomic charges with hydrogens summed into heavy atoms:
              1
     1  Si  -0.500000
     2  Si  -0.500000
 Sum of Mulliken charges=  -1.00000
          Atomic-Atomic Spin Densities.
              1          2
     1  Si   0.399488   0.100512
     2  Si   0.100512   0.399488
 Mulliken atomic spin densities:
              1
     1  Si   0.500000
     2  Si   0.500000
 Sum of Mulliken spin densities=   1.00000
 Electronic spatial extent (au):  <R**2>=   206.2478
 Charge=    -1.0000 electrons
 Dipole moment (field-independent basis, Debye):
    X=     0.0000    Y=     0.0000    Z=     0.0000  Tot=     0.0000
 Quadrupole moment (field-independent basis, Debye-Ang):
   XX=   -35.3310   YY=   -35.3310   ZZ=   -37.1797
   XY=     0.0000   XZ=     0.0000   YZ=     0.0000
 Traceless Quadrupole moment (field-independent basis, Debye-Ang):
   XX=     0.6162   YY=     0.6162   ZZ=    -1.2325
   XY=     0.0000   XZ=     0.0000   YZ=     0.0000
 Octapole moment (field-independent basis, Debye-Ang**2):
  XXX=     0.0000  YYY=     0.0000  ZZZ=     0.0000  XYY=     0.0000
  XXY=     0.0000  XXZ=     0.0000  XZZ=     0.0000  YZZ=     0.0000
  YYZ=     0.0000  XYZ=     0.0000
 Hexadecapole moment (field-independent basis, Debye-Ang**3):
 XXXX=   -81.6408 YYYY=   -81.6408 ZZZZ=  -315.5927 XXXY=     0.0000
 XXXZ=     0.0000 YYYX=     0.0000 YYYZ=     0.0000 ZZZX=     0.0000
 ZZZY=     0.0000 XXYY=   -27.2136 XXZZ=   -66.5806 YYZZ=   -66.5806
 XXYZ=     0.0000 YYXZ=     0.0000 ZZXY=     0.0000
 N-N= 4.618480190152D+01 E-N=-1.476948930582D+03  KE= 5.767714292283D+02
 Symmetry AG   KE= 2.386779767219D+02
 Symmetry B1G  KE= 1.392547724015D-35
 Symmetry B2G  KE= 2.430532869737D+01
 Symmetry B3G  KE= 2.430532869736D+01
 Symmetry AU   KE= 4.973241413107D-35
 Symmetry B1U  KE= 2.376703997926D+02
 Symmetry B2U  KE= 2.590619765934D+01
 Symmetry B3U  KE= 2.590619765982D+01
                          Isotropic Fermi Contact Couplings
        Atom                 a.u.       MegaHertz       Gauss      10(-4) cm-1
     1  Si(29)            -0.04633      41.17512      14.69231      13.73454
     2  Si(29)            -0.04633      41.17512      14.69231      13.73454
 --------------------------------------------------------
       Center         ----  Spin Dipole Couplings  ----
                      3XX-RR        3YY-RR        3ZZ-RR
 --------------------------------------------------------
     1   Atom       -0.526529     -0.526529      1.053057
     2   Atom       -0.526529     -0.526529      1.053057
 --------------------------------------------------------
                        XY            XZ            YZ
 --------------------------------------------------------
     1   Atom        0.000000      0.000000      0.000000
     2   Atom        0.000000      0.000000      0.000000
 --------------------------------------------------------


 ---------------------------------------------------------------------------------
              Anisotropic Spin Dipole Couplings in Principal Axis System
 ---------------------------------------------------------------------------------

       Atom             a.u.   MegaHertz   Gauss  10(-4) cm-1        Axes

              Baa    -0.5265    55.856    19.931    18.632  1.0000  0.0000  0.0000
     1 Si(29) Bbb    -0.5265    55.856    19.931    18.632  0.0000  1.0000  0.0000
              Bcc     1.0531  -111.713   -39.862   -37.263  0.0000  0.0000  1.0000
 
              Baa    -0.5265    55.856    19.931    18.632  1.0000  0.0000  0.0000
     2 Si(29) Bbb    -0.5265    55.856    19.931    18.632  0.0000  1.0000  0.0000
              Bcc     1.0531  -111.713   -39.862   -37.263  0.0000  0.0000  1.0000
 

 ---------------------------------------------------------------------------------

 ***** Axes restored to original set *****
 -------------------------------------------------------------------
 Center     Atomic                   Forces (Hartrees/Bohr)
 Number     Number              X              Y              Z
 -------------------------------------------------------------------
    1         14           0.000000000   -0.034318807    0.000000000
    2         14           0.000000000    0.034318807    0.000000000
 -------------------------------------------------------------------
 Cartesian Forces:  Max     0.034318807 RMS     0.019813972

 GradGradGradGradGradGradGradGradGradGradGradGradGradGradGradGradGradGrad
 Berny optimization.
 Internal  Forces:  Max     0.034318807 RMS     0.034318807
 Search for a local minimum.
 Step number   1 out of a maximum of 100
 All quantities printed in internal units (Hartrees-Bohrs-Radians)
 Second derivative matrix not updated -- first step.
 The second derivative matrix:
                          R1
           R1           0.13997
     Eigenvalues ---    0.13997
 RFO step:  Lambda=-7.96179384D-03.
 Linear search not attempted -- first point.
 Iteration  1 RMS(Cart)=  0.14142136 RMS(Int)=  0.03199507
 Iteration  2 RMS(Cart)=  0.02262393 RMS(Int)=  0.00000000
 Iteration  3 RMS(Cart)=  0.00000000 RMS(Int)=  0.00000000
 Variable       Old X    -DE/DX   Delta X   Delta X   Delta X     New X
                                 (Linear)    (Quad)   (Total)
    R1        4.24382  -0.03432   0.00000  -0.23200  -0.23200   4.01183
         Item               Value     Threshold  Converged?
 Maximum Force            0.034319     0.000450     NO 
 RMS     Force            0.034319     0.000300     NO 
 Maximum Displacement     0.115998     0.001800     NO 
 RMS     Displacement     0.164045     0.001200     NO 
 Predicted change in Energy=-4.195156D-03
 GradGradGradGradGradGradGradGradGradGradGradGradGradGradGradGradGradGrad

                          Input orientation:                          
 ---------------------------------------------------------------------
 Center     Atomic     Atomic              Coordinates (Angstroms)
 Number     Number      Type              X           Y           Z
 ---------------------------------------------------------------------
    1         14             0        0.000000    1.061483   -0.249839
    2         14             0        0.000000   -1.061483   -0.249839
 ---------------------------------------------------------------------
 Stoichiometry    Si2(1-,2)
 Framework group  D*H[C*(Si.Si)]
 Deg. of freedom     1
 Full point group                 D*H
 Largest Abelian subgroup         D2H     NOp   8
 Largest concise Abelian subgroup C2      NOp   2
                         Standard orientation:                         
 ---------------------------------------------------------------------
 Center     Atomic     Atomic              Coordinates (Angstroms)
 Number     Number      Type              X           Y           Z
 ---------------------------------------------------------------------
    1         14             0        0.000000    0.000000    1.061483
    2         14             0        0.000000    0.000000   -1.061483
 ---------------------------------------------------------------------
 Rotational constants (GHZ):      0.0000000      8.0160587      8.0160587
 Standard basis: 6-31G(d) (6D, 7F)
 There are    10 symmetry adapted basis functions of AG  symmetry.
 There are     1 symmetry adapted basis functions of B1G symmetry.
 There are     4 symmetry adapted basis functions of B2G symmetry.
 There are     4 symmetry adapted basis functions of B3G symmetry.
 There are     1 symmetry adapted basis functions of AU  symmetry.
 There are    10 symmetry adapted basis functions of B1U symmetry.
 There are     4 symmetry adapted basis functions of B2U symmetry.
 There are     4 symmetry adapted basis functions of B3U symmetry.
 Integral buffers will be    131072 words long.
 Raffenetti 2 integral format.
 Two-electron integral symmetry is turned on.
    38 basis functions,   104 primitive gaussians,    38 cartesian basis functions
    15 alpha electrons       14 beta electrons
       nuclear repulsion energy        48.8555678411 Hartrees.
 NAtoms=    2 NActive=    2 NUniq=    1 SFac= 3.00D+00 NAtFMM=   80 NAOKFM=F Big=F
 One-electron integrals computed using PRISM.
 NBasis=    38 RedAO= T  NBF=    10     1     4     4     1    10     4     4
 NBsUse=    38 1.00D-06 NBFU=    10     1     4     4     1    10     4     4
 Initial guess read from the read-write file:
 Initial guess orbital symmetries:
 Alpha Orbitals:
       Occupied  (SGU) (SGG) (SGG) (SGU) (SGG) (SGU) (PIU) (PIU)
                 (PIG) (PIG) (SGG) (SGU) (SGG) (PIU) (PIU)
       Virtual   (PIG) (PIG) (SGU) (SGG) (SGG) (SGU) (PIU) (PIU)
                 (PIG) (PIG) (SGU) (PIU) (PIU) (DLTG) (DLTG) (SGG)
                 (DLTU) (DLTU) (PIG) (PIG) (SGU) (SGG) (SGU)
 Beta  Orbitals:
       Occupied  (SGU) (SGG) (SGG) (SGU) (PIU) (PIU) (PIG) (PIG)
                 (SGG) (SGU) (SGG) (SGU) (PIU) (PIU)
       Virtual   (SGG) (PIG) (PIG) (SGU) (SGG) (SGG) (PIU) (PIU)
                 (SGU) (PIG) (PIG) (SGU) (PIU) (PIU) (DLTG) (DLTG)
                 (SGG) (DLTU) (DLTU) (PIG) (PIG) (SGU) (SGG) (SGU)
 <S**2> of initial guess= 0.7556
 Harris functional with IExCor=  402 diagonalized for initial guess.
 ExpMin= 7.78D-02 ExpMax= 1.61D+04 ExpMxC= 2.43D+03 IAcc=2 IRadAn=         4 AccDes= 0.00D+00
 HarFok:  IExCor= 402 AccDes= 0.00D+00 IRadAn=         4 IDoV=1
 ScaDFX=  1.000000  1.000000  1.000000  1.000000
 Requested convergence on RMS density matrix=1.00D-08 within 128 cycles.
 Requested convergence on MAX density matrix=1.00D-06.
 Requested convergence on             energy=1.00D-06.
 No special actions if energy rises.
 Keep R1 and R2 integrals in memory in canonical form, NReq=     2266901.
 Integral accuracy reduced to 1.0D-05 until final iterations.
 Initial convergence to 1.0D-05 achieved.  Increase integral accuracy.
 SCF Done:  E(UB+HF-LYP) =  -578.921101496     A.U. after   11 cycles
             Convg  =    0.2581D-08             -V/T =  2.0035
             S**2   =   0.7558
 Annihilation of the first spin contaminant:
 S**2 before annihilation     0.7558,   after     0.7500
 QCSCF skips out because SCF is already converged.
 ***** Axes restored to original set *****
 -------------------------------------------------------------------
 Center     Atomic                   Forces (Hartrees/Bohr)
 Number     Number              X              Y              Z
 -------------------------------------------------------------------
    1         14           0.000000000   -0.002453244    0.000000000
    2         14           0.000000000    0.002453244    0.000000000
 -------------------------------------------------------------------
 Cartesian Forces:  Max     0.002453244 RMS     0.001416381

 GradGradGradGradGradGradGradGradGradGradGradGradGradGradGradGradGradGrad
 Berny optimization.
 Internal  Forces:  Max     0.002453244 RMS     0.002453244
 Search for a local minimum.
 Step number   2 out of a maximum of 100
 All quantities printed in internal units (Hartrees-Bohrs-Radians)
 Update second derivatives using D2CorX and points  1  2
 Trust test= 1.10D+00 RLast= 2.32D-01 DXMaxT set to 4.24D-01
 The second derivative matrix:
                          R1
           R1           0.13735
     Eigenvalues ---    0.13735
 RFO step:  Lambda= 0.00000000D+00.
 Quartic linear search produced a step of  0.05879.
 Iteration  1 RMS(Cart)=  0.00964381 RMS(Int)=  0.00000000
 Iteration  2 RMS(Cart)=  0.00000000 RMS(Int)=  0.00000000
 Variable       Old X    -DE/DX   Delta X   Delta X   Delta X     New X
                                 (Linear)    (Quad)   (Total)
    R1        4.01183  -0.00245  -0.01364   0.00000  -0.01364   3.99819
         Item               Value     Threshold  Converged?
 Maximum Force            0.002453     0.000450     NO 
 RMS     Force            0.002453     0.000300     NO 
 Maximum Displacement     0.006819     0.001800     NO 
 RMS     Displacement     0.009644     0.001200     NO 
 Predicted change in Energy=-2.068396D-05
 GradGradGradGradGradGradGradGradGradGradGradGradGradGradGradGradGradGrad

                          Input orientation:                          
 ---------------------------------------------------------------------
 Center     Atomic     Atomic              Coordinates (Angstroms)
 Number     Number      Type              X           Y           Z
 ---------------------------------------------------------------------
    1         14             0        0.000000    1.057875   -0.249839
    2         14             0        0.000000   -1.057875   -0.249839
 ---------------------------------------------------------------------
 Stoichiometry    Si2(1-,2)
 Framework group  D*H[C*(Si.Si)]
 Deg. of freedom     1
 Full point group                 D*H
 Largest Abelian subgroup         D2H     NOp   8
 Largest concise Abelian subgroup C2      NOp   2
                         Standard orientation:                         
 ---------------------------------------------------------------------
 Center     Atomic     Atomic              Coordinates (Angstroms)
 Number     Number      Type              X           Y           Z
 ---------------------------------------------------------------------
    1         14             0        0.000000    0.000000    1.057875
    2         14             0        0.000000    0.000000   -1.057875
 ---------------------------------------------------------------------
 Rotational constants (GHZ):      0.0000000      8.0708399      8.0708399
 Standard basis: 6-31G(d) (6D, 7F)
 There are    10 symmetry adapted basis functions of AG  symmetry.
 There are     1 symmetry adapted basis functions of B1G symmetry.
 There are     4 symmetry adapted basis functions of B2G symmetry.
 There are     4 symmetry adapted basis functions of B3G symmetry.
 There are     1 symmetry adapted basis functions of AU  symmetry.
 There are    10 symmetry adapted basis functions of B1U symmetry.
 There are     4 symmetry adapted basis functions of B2U symmetry.
 There are     4 symmetry adapted basis functions of B3U symmetry.
 Integral buffers will be    131072 words long.
 Raffenetti 2 integral format.
 Two-electron integral symmetry is turned on.
    38 basis functions,   104 primitive gaussians,    38 cartesian basis functions
    15 alpha electrons       14 beta electrons
       nuclear repulsion energy        49.0222214440 Hartrees.
 NAtoms=    2 NActive=    2 NUniq=    1 SFac= 3.00D+00 NAtFMM=   80 NAOKFM=F Big=F
 One-electron integrals computed using PRISM.
 NBasis=    38 RedAO= T  NBF=    10     1     4     4     1    10     4     4
 NBsUse=    38 1.00D-06 NBFU=    10     1     4     4     1    10     4     4
 Initial guess read from the read-write file:
 Initial guess orbital symmetries:
 Alpha Orbitals:
       Occupied  (SGU) (SGG) (SGG) (SGU) (SGG) (SGU) (PIU) (PIU)
                 (PIG) (PIG) (SGG) (SGU) (SGG) (PIU) (PIU)
       Virtual   (PIG) (PIG) (SGU) (SGG) (SGG) (PIU) (PIU) (SGU)
                 (PIG) (PIG) (SGU) (PIU) (PIU) (DLTG) (DLTG) (SGG)
                 (DLTU) (DLTU) (PIG) (PIG) (SGU) (SGG) (SGU)
 Beta  Orbitals:
       Occupied  (SGU) (SGG) (SGG) (SGU) (PIU) (PIU) (PIG) (PIG)
                 (SGG) (SGU) (SGG) (SGU) (PIU) (PIU)
       Virtual   (SGG) (PIG) (PIG) (SGU) (SGG) (SGG) (PIU) (PIU)
                 (SGU) (PIG) (PIG) (SGU) (PIU) (PIU) (DLTG) (DLTG)
                 (DLTU) (DLTU) (SGG) (PIG) (PIG) (SGU) (SGG) (SGU)
 <S**2> of initial guess= 0.7558
 Requested convergence on RMS density matrix=1.00D-08 within 128 cycles.
 Requested convergence on MAX density matrix=1.00D-06.
 Requested convergence on             energy=1.00D-06.
 No special actions if energy rises.
 Keep R1 and R2 integrals in memory in canonical form, NReq=     2266901.
 SCF Done:  E(UB+HF-LYP) =  -578.921118211     A.U. after    8 cycles
             Convg  =    0.1750D-08             -V/T =  2.0035
             S**2   =   0.7558
 Annihilation of the first spin contaminant:
 S**2 before annihilation     0.7558,   after     0.7500
 QCSCF skips out because SCF is already converged.
 ***** Axes restored to original set *****
 -------------------------------------------------------------------
 Center     Atomic                   Forces (Hartrees/Bohr)
 Number     Number              X              Y              Z
 -------------------------------------------------------------------
    1         14           0.000000000    0.000014432    0.000000000
    2         14           0.000000000   -0.000014432    0.000000000
 -------------------------------------------------------------------
 Cartesian Forces:  Max     0.000014432 RMS     0.000008332

 GradGradGradGradGradGradGradGradGradGradGradGradGradGradGradGradGradGrad
 Berny optimization.
 Internal  Forces:  Max     0.000014432 RMS     0.000014432
 Search for a local minimum.
 Step number   3 out of a maximum of 100
 All quantities printed in internal units (Hartrees-Bohrs-Radians)
 Update second derivatives using D2CorX and points  2  3
 Trust test= 8.08D-01 RLast= 1.36D-02 DXMaxT set to 4.24D-01
 The second derivative matrix:
                          R1
           R1           0.18094
     Eigenvalues ---    0.18094
 RFO step:  Lambda= 0.00000000D+00.
 Quartic linear search produced a step of -0.00576.
 Iteration  1 RMS(Cart)=  0.00005557 RMS(Int)=  0.00000000
 Iteration  2 RMS(Cart)=  0.00000000 RMS(Int)=  0.00000000
 Variable       Old X    -DE/DX   Delta X   Delta X   Delta X     New X
                                 (Linear)    (Quad)   (Total)
    R1        3.99819   0.00001   0.00008   0.00000   0.00008   3.99827
         Item               Value     Threshold  Converged?
 Maximum Force            0.000014     0.000450     YES
 RMS     Force            0.000014     0.000300     YES
 Maximum Displacement     0.000039     0.001800     YES
 RMS     Displacement     0.000056     0.001200     YES
 Predicted change in Energy=-5.754176D-10
 Optimization completed.
    -- Stationary point found.
                           ----------------------------
                           !   Optimized Parameters   !
                           ! (Angstroms and Degrees)  !
 --------------------------                            --------------------------
 ! Name  Definition              Value          Derivative Info.                !
 --------------------------------------------------------------------------------
 ! R1    R(1,2)                  2.1157         -DE/DX =    0.0                 !
 --------------------------------------------------------------------------------
 GradGradGradGradGradGradGradGradGradGradGradGradGradGradGradGradGradGrad

                          Input orientation:                          
 ---------------------------------------------------------------------
 Center     Atomic     Atomic              Coordinates (Angstroms)
 Number     Number      Type              X           Y           Z
 ---------------------------------------------------------------------
    1         14             0        0.000000    1.057875   -0.249839
    2         14             0        0.000000   -1.057875   -0.249839
 ---------------------------------------------------------------------
 Stoichiometry    Si2(1-,2)
 Framework group  D*H[C*(Si.Si)]
 Deg. of freedom     1
 Full point group                 D*H
 Largest Abelian subgroup         D2H     NOp   8
 Largest concise Abelian subgroup C2      NOp   2
                         Standard orientation:                         
 ---------------------------------------------------------------------
 Center     Atomic     Atomic              Coordinates (Angstroms)
 Number     Number      Type              X           Y           Z
 ---------------------------------------------------------------------
[...]
 Largest concise Abelian subgroup C2      NOp   2
                         Standard orientation:                         
 ---------------------------------------------------------------------
 Center     Atomic     Atomic              Coordinates (Angstroms)
 Number     Number      Type              X           Y           Z
 ---------------------------------------------------------------------
    1         14             0        0.000000    0.000000    1.057081
    2         14             0        0.000000    0.000000   -1.057081
 ---------------------------------------------------------------------
 Rotational constants (GHZ):      0.0000000      8.0829564      8.0829564
 Standard basis: 6-311+G(d) (5D, 7F)
 There are    15 symmetry adapted basis functions of AG  symmetry.
 There are     1 symmetry adapted basis functions of B1G symmetry.
 There are     7 symmetry adapted basis functions of B2G symmetry.
 There are     7 symmetry adapted basis functions of B3G symmetry.
 There are     1 symmetry adapted basis functions of AU  symmetry.
 There are    15 symmetry adapted basis functions of B1U symmetry.
 There are     7 symmetry adapted basis functions of B2U symmetry.
 There are     7 symmetry adapted basis functions of B3U symmetry.
 Integral buffers will be    131072 words long.
 Raffenetti 2 integral format.
 Two-electron integral symmetry is turned on.
    60 basis functions,   100 primitive gaussians,    62 cartesian basis functions
    15 alpha electrons       14 beta electrons
       nuclear repulsion energy        49.0590053292 Hartrees.
 NAtoms=    2 NActive=    2 NUniq=    1 SFac= 3.00D+00 NAtFMM=   80 NAOKFM=F Big=F
 One-electron integrals computed using PRISM.
 NBasis=    60 RedAO= T  NBF=    15     1     7     7     1    15     7     7
 NBsUse=    60 1.00D-06 NBFU=    15     1     7     7     1    15     7     7
 Initial guess read from the checkpoint file:
 S9L-ne-d-01.chk
 Initial guess orbital symmetries:
 Alpha Orbitals:
       Occupied  (SGU) (SGG) (SGG) (SGU) (SGG) (SGU) (PIU) (PIU)
                 (PIG) (PIG) (SGG) (SGU) (SGG) (PIU) (PIU)
       Virtual   (PIG) (PIG) (SGU) (SGG) (PIU) (PIU) (SGG) (PIG)
                 (PIG) (SGU) (SGU) (SGG) (PIU) (PIU) (SGU) (PIG)
                 (PIG) (SGG) (PIU) (PIU) (SGU) (DLTG) (DLTG) (SGG)
                 (DLTU) (DLTU) (PIG) (PIG) (SGU) (PIU) (PIU) (PIG)
                 (PIG) (SGU) (SGG) (SGG) (SGU) (PIU) (PIU) (SGG)
                 (PIG) (PIG) (SGU) (SGG) (SGU)
 Beta  Orbitals:
       Occupied  (SGU) (SGG) (SGG) (SGU) (PIU) (PIU) (PIG) (PIG)
                 (SGG) (SGU) (SGG) (SGU) (PIU) (PIU)
       Virtual   (SGG) (PIG) (PIG) (SGU) (SGG) (PIU) (PIU) (SGG)
                 (PIG) (PIG) (SGU) (SGU) (SGG) (PIU) (PIU) (PIG)
                 (PIG) (SGU) (SGG) (PIU) (PIU) (SGU) (DLTG) (DLTG)
                 (DLTU) (DLTU) (SGG) (PIG) (PIG) (SGU) (PIU) (PIU)
                 (PIG) (PIG) (SGU) (SGG) (SGG) (SGU) (PIU) (PIU)
                 (SGG) (PIG) (PIG) (SGU) (SGG) (SGU)
 <S**2> of initial guess= 0.7559
 Requested convergence on RMS density matrix=1.00D-08 within 128 cycles.
 Requested convergence on MAX density matrix=1.00D-06.
 Requested convergence on             energy=1.00D-06.
 No special actions if energy rises.
 Keep R1 and R2 integrals in memory in canonical form, NReq=     5564119.
 SCF Done:  E(UB+HF-LYP) =  -578.974790529     A.U. after    1 cycles
             Convg  =    0.5722D-09             -V/T =  2.0017
             S**2   =   0.7559
 Annihilation of the first spin contaminant:
 S**2 before annihilation     0.7559,   after     0.7500
 QCSCF skips out because SCF is already converged.
 Range of M.O.s used for correlation:     1    60
 NBasis=    60 NAE=    15 NBE=    14 NFC=     0 NFV=     0
 NROrb=     60 NOA=    15 NOB=    14 NVA=    45 NVB=    46

 **** Warning!!: The largest alpha MO coefficient is  0.13605797D+02


 **** Warning!!: The largest beta MO coefficient is  0.14973984D+02


 **** Warning!!: The smallest beta delta epsilon is  0.47869872D-01

 Symmetrizing basis deriv contribution to polar:
 IMax=3 JMax=2 DiffMx= 0.00D+00
 G2DrvN: will do    3 centers at a time, making    1 passes doing MaxLOS=2.
 FoFDir/FoFCou used for L=0 through L=2.
 DoAtom=TT
          Differentiating once with respect to electric field.
                with respect to dipole field.
          Differentiating once with respect to nuclear coordinates.
          Store integrals in memory, NReq=     4637654.
          There are   6 degrees of freedom in the 1st order CPHF.
     6 vectors were produced by pass  0.
 AX will form   6 AO Fock derivatives at one time.
     6 vectors were produced by pass  1.
     6 vectors were produced by pass  2.
     6 vectors were produced by pass  3.
     6 vectors were produced by pass  4.
     6 vectors were produced by pass  5.
     6 vectors were produced by pass  6.
     4 vectors were produced by pass  7.
     4 vectors were produced by pass  8.
     3 vectors were produced by pass  9.
     1 vectors were produced by pass 10.
     1 vectors were produced by pass 11.
 Inv2:  IOpt= 1 Iter= 1 AM= 1.11D-14 Conv= 1.00D-12.
 Inverted reduced A of dimension   55 with in-core refinement.
 Isotropic polarizability for W=    0.000000       16.54 Bohr**3.
 End of Minotr Frequency-dependent properties file   721 does not exist.

 **********************************************************************

            Population analysis using the SCF density.

 **********************************************************************

 Orbital symmetries:
 Alpha Orbitals:
       Occupied  (SGU) (SGG) (SGG) (SGU) (SGG) (SGU) (PIU) (PIU)
                 (PIG) (PIG) (SGG) (SGU) (SGG) (PIU) (PIU)
       Virtual   (PIG) (PIG) (SGU) (SGG) (PIU) (PIU) (SGG) (PIG)
                 (PIG) (SGU) (SGU) (SGG) (PIU) (PIU) (SGU) (PIG)
                 (PIG) (SGG) (PIU) (PIU) (SGU) (DLTG) (DLTG) (SGG)
                 (DLTU) (DLTU) (PIG) (PIG) (SGU) (PIU) (PIU) (PIG)
                 (PIG) (SGU) (SGG) (SGG) (SGU) (PIU) (PIU) (SGG)
                 (PIG) (PIG) (SGU) (SGG) (SGU)
 Beta  Orbitals:
       Occupied  (SGU) (SGG) (SGG) (SGU) (PIU) (PIU) (PIG) (PIG)
                 (SGG) (SGU) (SGG) (SGU) (PIU) (PIU)
       Virtual   (SGG) (PIG) (PIG) (SGU) (SGG) (PIU) (PIU) (SGG)
                 (PIG) (PIG) (SGU) (SGU) (SGG) (PIU) (PIU) (PIG)
                 (PIG) (SGU) (SGG) (PIU) (PIU) (SGU) (DLTG) (DLTG)
                 (DLTU) (DLTU) (SGG) (PIG) (PIG) (SGU) (PIU) (PIU)
                 (PIG) (PIG) (SGU) (SGG) (SGG) (SGU) (PIU) (PIU)
                 (SGG) (PIG) (PIG) (SGU) (SGG) (SGU)
 The electronic state is 2-SGG.
 Alpha  occ. eigenvalues --  -65.90540 -65.90540  -5.07573  -5.07546  -3.43768
 Alpha  occ. eigenvalues --   -3.43574  -3.43235  -3.43235  -3.43216  -3.43216
 Alpha  occ. eigenvalues --   -0.32758  -0.16794  -0.04194  -0.01394  -0.01394
 Alpha virt. eigenvalues --    0.11617   0.11617   0.13339   0.14873   0.16493
 Alpha virt. eigenvalues --    0.16493   0.17759   0.19743   0.19743   0.22809
 Alpha virt. eigenvalues --    0.26863   0.38025   0.44093   0.44093   0.46897
 Alpha virt. eigenvalues --    0.47510   0.47510   0.55953   0.65802   0.65802
 Alpha virt. eigenvalues --    0.71897   0.76727   0.76727   0.82760   0.84131
 Alpha virt. eigenvalues --    0.84131   1.00251   1.00251   1.29429   1.41000
 Alpha virt. eigenvalues --    1.41000   1.44205   1.44205   1.44602   1.49686
 Alpha virt. eigenvalues --    5.39634   5.70263  11.48548  11.48548  11.48663
 Alpha virt. eigenvalues --   11.50468  11.50468  11.55900 140.79673 141.14447
  Beta  occ. eigenvalues --  -65.90329 -65.90329  -5.07366  -5.07343  -3.43120
  Beta  occ. eigenvalues --   -3.43120  -3.43102  -3.43102  -3.43026  -3.42840
  Beta  occ. eigenvalues --   -0.30293  -0.13871  -0.00911  -0.00911
  Beta virt. eigenvalues --    0.03876   0.12184   0.12184   0.13568   0.15569
  Beta virt. eigenvalues --    0.16523   0.16523   0.18008   0.19932   0.19932
  Beta virt. eigenvalues --    0.23331   0.27973   0.39543   0.44311   0.44311
  Beta virt. eigenvalues --    0.47682   0.47682   0.49102   0.57407   0.68602
  Beta virt. eigenvalues --    0.68602   0.72306   0.76957   0.76957   0.84282
  Beta virt. eigenvalues --    0.84282   0.84797   1.02044   1.02044   1.31749
  Beta virt. eigenvalues --    1.41239   1.41239   1.44451   1.44451   1.46555
  Beta virt. eigenvalues --    1.51302   5.40069   5.70774  11.48710  11.48710
  Beta virt. eigenvalues --   11.49684  11.50638  11.50638  11.56871 140.79870
  Beta virt. eigenvalues --  141.14644
          Condensed to atoms (all electrons):
              1          2
     1  Si  13.903682   0.596318
     2  Si   0.596318  13.903682
 Mulliken atomic charges:
              1
     1  Si  -0.500000
     2  Si  -0.500000
 Sum of Mulliken charges=  -1.00000
 Atomic charges with hydrogens summed into heavy atoms:
              1
     1  Si  -0.500000
     2  Si  -0.500000
 Sum of Mulliken charges=  -1.00000
          Atomic-Atomic Spin Densities.
              1          2
     1  Si   0.334112   0.165888
     2  Si   0.165888   0.334112
 Mulliken atomic spin densities:
              1
     1  Si   0.500000
     2  Si   0.500000
 Sum of Mulliken spin densities=   1.00000
 APT atomic charges:
              1
     1  Si  -0.500000
     2  Si  -0.500000
 Sum of APT charges=  -1.00000
 APT Atomic charges with hydrogens summed into heavy atoms:
              1
     1  Si  -0.500000
     2  Si  -0.500000
 Sum of APT charges=  -1.00000
 Electronic spatial extent (au):  <R**2>=   197.7985
 Charge=    -1.0000 electrons
 Dipole moment (field-independent basis, Debye):
    X=     0.0000    Y=     0.0000    Z=     0.0000  Tot=     0.0000
 Quadrupole moment (field-independent basis, Debye-Ang):
   XX=   -38.3166   YY=   -38.3166   ZZ=   -39.1308
   XY=     0.0000   XZ=     0.0000   YZ=     0.0000
 Traceless Quadrupole moment (field-independent basis, Debye-Ang):
   XX=     0.2714   YY=     0.2714   ZZ=    -0.5427
   XY=     0.0000   XZ=     0.0000   YZ=     0.0000
 Octapole moment (field-independent basis, Debye-Ang**2):
  XXX=     0.0000  YYY=     0.0000  ZZZ=     0.0000  XYY=     0.0000
  XXY=     0.0000  XXZ=     0.0000  XZZ=     0.0000  YZZ=     0.0000
  YYZ=     0.0000  XYZ=     0.0000
 Hexadecapole moment (field-independent basis, Debye-Ang**3):
 XXXX=  -119.1636 YYYY=  -119.1636 ZZZZ=  -329.6549 XXXY=     0.0000
 XXXZ=     0.0000 YYYX=     0.0000 YYYZ=     0.0000 ZZZX=     0.0000
 ZZZY=     0.0000 XXYY=   -39.7212 XXZZ=   -75.2790 YYZZ=   -75.2790
 XXYZ=     0.0000 YYXZ=     0.0000 ZZXY=     0.0000
 N-N= 4.905900532917D+01 E-N=-1.483848051659D+03  KE= 5.779683775226D+02
 Symmetry AG   KE= 2.390115863379D+02
 Symmetry B1G  KE= 1.696273423903D-35
 Symmetry B2G  KE= 2.444285191066D+01
 Symmetry B3G  KE= 2.444285191066D+01
 Symmetry AU   KE= 7.216948564986D-35
 Symmetry B1U  KE= 2.378378625370D+02
 Symmetry B2U  KE= 2.611661241320D+01
 Symmetry B3U  KE= 2.611661241320D+01
  Exact polarizability: -58.202   0.000 -58.202   0.000   0.000 166.020
 Approx polarizability: 103.468   0.000 103.468   0.000   0.000 416.749
                          Isotropic Fermi Contact Couplings
        Atom                 a.u.       MegaHertz       Gauss      10(-4) cm-1
     1  Si(29)            -0.05934      52.73419      18.81687      17.59023
     2  Si(29)            -0.05934      52.73419      18.81687      17.59023
 --------------------------------------------------------
       Center         ----  Spin Dipole Couplings  ----
                      3XX-RR        3YY-RR        3ZZ-RR
 --------------------------------------------------------
     1   Atom       -0.622797     -0.622797      1.245594
     2   Atom       -0.622797     -0.622797      1.245594
 --------------------------------------------------------
                        XY            XZ            YZ
 --------------------------------------------------------
     1   Atom        0.000000      0.000000      0.000000
     2   Atom        0.000000      0.000000      0.000000
 --------------------------------------------------------


 ---------------------------------------------------------------------------------
              Anisotropic Spin Dipole Couplings in Principal Axis System
 ---------------------------------------------------------------------------------

       Atom             a.u.   MegaHertz   Gauss  10(-4) cm-1        Axes

              Baa    -0.6228    66.069    23.575    22.038  1.0000  0.0000  0.0000
     1 Si(29) Bbb    -0.6228    66.069    23.575    22.038  0.0000  1.0000  0.0000
              Bcc     1.2456  -132.138   -47.150   -44.076  0.0000  0.0000  1.0000
 
              Baa    -0.6228    66.069    23.575    22.038  1.0000  0.0001  0.0000
     2 Si(29) Bbb    -0.6228    66.069    23.575    22.038 -0.0001  1.0000  0.0000
              Bcc     1.2456  -132.138   -47.150   -44.076  0.0000  0.0000  1.0000
 

 ---------------------------------------------------------------------------------

 Full mass-weighted force constant matrix:
 Low frequencies ---   -0.0002    0.0013    0.0039    8.1139    8.1139  582.6388
 Diagonal vibrational polarizability:
        0.0000000       0.0000000       0.0000000
 Harmonic frequencies (cm**-1), IR intensities (KM/Mole), Raman scattering
 activities (A**4/AMU), depolarization ratios for plane and unpolarized
 incident light, reduced masses (AMU), force constants (mDyne/A),
 and normal coordinates:
                     1
                    SGG
 Frequencies --   582.6388
 Red. masses --    27.9769
 Frc consts  --     5.5956
 IR Inten    --     0.0000
 Atom AN      X      Y      Z
   1  14     0.00   0.00   0.71
   2  14     0.00   0.00  -0.71

 -------------------
 - Thermochemistry -
 -------------------
 Temperature   298.150 Kelvin.  Pressure   1.00000 Atm.
 Atom  1 has atomic number 14 and mass  27.97693
 Atom  2 has atomic number 14 and mass  27.97693
 Molecular mass:    55.95386 amu.
 Principal axes and moments of inertia in atomic units:
                           1         2         3
     EIGENVALUES --     0.00000 223.27737 223.27737
           X            0.00000   0.70711   0.70711
           Y            0.00000   0.70711  -0.70711
           Z            1.00000   0.00000   0.00000
 This molecule is a prolate symmetric top.
 Rotational symmetry number  2.
 Rotational temperature (Kelvin)      0.38792
 Rotational constant (GHZ):           8.082956
 Zero-point vibrational energy       3485.0 (Joules/Mol)
                                    0.83292 (Kcal/Mol)
 Warning -- explicit consideration of   1 degrees of freedom as
           vibrations may cause significant error
 Vibrational temperatures:    838.29
          (Kelvin)
 
 Zero-point correction=                           0.001327 (Hartree/Particle)
 Thermal correction to Energy=                    0.003858
 Thermal correction to Enthalpy=                  0.004802
 Thermal correction to Gibbs Free Energy=        -0.020693
 Sum of electronic and zero-point Energies=           -578.973463
 Sum of electronic and thermal Energies=              -578.970933
 Sum of electronic and thermal Enthalpies=            -578.969989
 Sum of electronic and thermal Free Energies=         -578.995484
 
                     E (Thermal)             CV                S
                      KCal/Mol        Cal/Mol-Kelvin    Cal/Mol-Kelvin
 Total                    2.421              6.037             53.659
 Electronic               0.000              0.000              1.377
 Translational            0.889              2.981             37.987
 Rotational               0.592              1.987             13.814
 Vibrational              0.939              1.069              0.480
 Vibration  1             0.939              1.069              0.480
                       Q            Log10(Q)             Ln(Q)
 Total Bot       0.329820D+10          9.518277         21.916644
 Total V=0       0.134528D+11         10.128814         23.322457
 Vib (Bot)       0.260846D+00         -0.583615         -1.343824
 Vib (Bot)  1    0.260846D+00         -0.583615         -1.343824
 Vib (V=0)       0.106395D+01          0.026922          0.061989
 Vib (V=0)  1    0.106395D+01          0.026922          0.061989
 Electronic      0.200000D+01          0.301030          0.693147
 Translational   0.164513D+08          7.216200         16.615915
 Rotational      0.384293D+03          2.584662          5.951405
 ***** Axes restored to original set *****
 -------------------------------------------------------------------
 Center     Atomic                   Forces (Hartrees/Bohr)
 Number     Number              X              Y              Z
 -------------------------------------------------------------------
    1         14           0.000000000    0.000003747    0.000000000
    2         14           0.000000000   -0.000003747    0.000000000
 -------------------------------------------------------------------
 Cartesian Forces:  Max     0.000003747 RMS     0.000002163

 GradGradGradGradGradGradGradGradGradGradGradGradGradGradGradGradGradGrad
 Berny optimization.
 Internal  Forces:  Max     0.000003747 RMS     0.000003747
 Search for a local minimum.
 Step number   1 out of a maximum of   2
 All quantities printed in internal units (Hartrees-Bohrs-Radians)
 Second derivative matrix not updated -- analytic derivatives used.
 The second derivative matrix:
                          R1
           R1           0.17971
     Eigenvalues ---    0.17971
 Angle between quadratic step and forces=   0.00 degrees.
 Linear search not attempted -- first point.
 Iteration  1 RMS(Cart)=  0.00001474 RMS(Int)=  0.00000000
 Iteration  2 RMS(Cart)=  0.00000000 RMS(Int)=  0.00000000
 Variable       Old X    -DE/DX   Delta X   Delta X   Delta X     New X
                                 (Linear)    (Quad)   (Total)
    R1        3.99519   0.00000   0.00000   0.00002   0.00002   3.99521
         Item               Value     Threshold  Converged?
 Maximum Force            0.000004     0.000450     YES
 RMS     Force            0.000004     0.000300     YES
 Maximum Displacement     0.000010     0.001800     YES
 RMS     Displacement     0.000015     0.001200     YES
 Predicted change in Energy=-3.906406D-11
 Optimization completed.
    -- Stationary point found.
                           ----------------------------
                           !   Optimized Parameters   !
                           ! (Angstroms and Degrees)  !
 --------------------------                            --------------------------
 ! Name  Definition              Value          Derivative Info.                !
 --------------------------------------------------------------------------------
 ! R1    R(1,2)                  2.1142         -DE/DX =    0.0                 !
 --------------------------------------------------------------------------------
 GradGradGradGradGradGradGradGradGradGradGradGradGradGradGradGradGradGrad

 1\1\GINC-NODE31\Freq\UB3LYP\6-311+G(d)\Si2(1-,2)\TAM\06-Apr-2011\0\\#N
  Geom=AllCheck Guess=Read SCRF=Check GenChk UB3LYP/6-311+G(d) Freq\\si
 2-n\\-1,2\Si,0.,1.0570814892,-0.249839\Si,0.,-1.0570814892,-0.249839\\
 Version=AM64L-G03RevE.01\State=2-SGG\HF=-578.9747905\S2=0.755863\S2-1=
 0.\S2A=0.750017\RMSD=5.722e-10\RMSF=2.163e-06\ZeroPoint=0.0013273\Ther
 mal=0.0038576\Dipole=0.,0.,0.\DipoleDeriv=-0.5,0.,0.,0.,-0.5,0.,0.,0.,
 -0.5,-0.5,0.,0.,0.,-0.5,0.,0.,0.,-0.5\Polar=-58.201532,0.,166.0200212,
 0.,0.,-58.2015318\PG=D*H [C*(Si1.Si1)]\NImag=0\\0.00003485,0.,0.179705
 07,0.,0.,0.00003485,-0.00003485,0.,0.,0.00003485,0.,-0.17970507,0.,0.,
 0.17970507,0.,0.,-0.00003485,0.,0.,0.00003485\\0.,-0.00000375,0.,0.,0.
 00000375,0.\\\@


 THERE IS NO SCIENCE WITHOUT FANCY, NOR ART WITHOUT FACTS.
     -- VLADIMIR NABAKOV
 Job cpu time:  0 days  0 hours  0 minutes 51.9 seconds.
 File lengths (MBytes):  RWF=     17 Int=      0 D2E=      0 Chk=      6 Scr=      1
 Normal termination of Gaussian 03 at Wed Apr  6 16:54:12 2011.
