 Entering Gaussian System, Link 0=g03
 Initial command:
 /usr/local/chem/g03E01/l1.exe /temp0/tam/Gau-27047.inp -scrdir=/temp0/tam/
 Entering Link 1 = /usr/local/chem/g03E01/l1.exe PID=     27048.
  
 Copyright (c) 1988,1990,1992,1993,1995,1998,2003,2004,2007, Gaussian, Inc.
                  All Rights Reserved.
  
 This is the Gaussian(R) 03 program.  It is based on the
 the Gaussian(R) 98 system (copyright 1998, Gaussian, Inc.),
 the Gaussian(R) 94 system (copyright 1995, Gaussian, Inc.),
 the Gaussian 92(TM) system (copyright 1992, Gaussian, Inc.),
 the Gaussian 90(TM) system (copyright 1990, Gaussian, Inc.),
 the Gaussian 88(TM) system (copyright 1988, Gaussian, Inc.),
 the Gaussian 86(TM) system (copyright 1986, Carnegie Mellon
 University), and the Gaussian 82(TM) system (copyright 1983,
 Carnegie Mellon University). Gaussian is a federally registered
 trademark of Gaussian, Inc.
  
 This software contains proprietary and confidential information,
 including trade secrets, belonging to Gaussian, Inc.
  
 This software is provided under written license and may be
 used, copied, transmitted, or stored only in accord with that
 written license.
  
 The following legend is applicable only to US Government
 contracts under FAR:
  
                    RESTRICTED RIGHTS LEGEND
  
 Use, reproduction and disclosure by the US Government is
 subject to restrictions as set forth in subparagraphs (a)
 and (c) of the Commercial Computer Software - Restricted
 Rights clause in FAR 52.227-19.
  
 Gaussian, Inc.
 340 Quinnipiac St., Bldg. 40, Wallingford CT 06492
  
  
 ---------------------------------------------------------------
 Warning -- This program may not be used in any manner that
 competes with the business of Gaussian, Inc. or will provide
 assistance to any competitor of Gaussian, Inc.  The licensee
 of this program is prohibited from giving any competitor of
 Gaussian, Inc. access to this program.  By using this program,
 the user acknowledges that Gaussian, Inc. is engaged in the
 business of creating and licensing software in the field of
 computational chemistry and represents and warrants to the
 licensee that it is not a competitor of Gaussian, Inc. and that
 it will not use this program in any manner prohibited above.
 ---------------------------------------------------------------
  

 Cite this work as:
 Gaussian 03, Revision E.01,
 M. J. Frisch, G. W. Trucks, H. B. Schlegel, G. E. Scuseria, 
 M. A. Robb, J. R. Cheeseman, J. A. Montgomery, Jr., T. Vreven, 
 K. N. Kudin, J. C. Burant, J. M. Millam, S. S. Iyengar, J. Tomasi, 
 V. Barone, B. Mennucci, M. Cossi, G. Scalmani, N. Rega, 
 G. A. Petersson, H. Nakatsuji, M. Hada, M. Ehara, K. Toyota, 
 R. Fukuda, J. Hasegawa, M. Ishida, T. Nakajima, Y. Honda, O. Kitao, 
 H. Nakai, M. Klene, X. Li, J. E. Knox, H. P. Hratchian, J. B. Cross, 
 V. Bakken, C. Adamo, J. Jaramillo, R. Gomperts, R. E. Stratmann, 
 O. Yazyev, A. J. Austin, R. Cammi, C. Pomelli, J. W. Ochterski, 
 P. Y. Ayala, K. Morokuma, G. A. Voth, P. Salvador, J. J. Dannenberg, 
 V. G. Zakrzewski, S. Dapprich, A. D. Daniels, M. C. Strain, 
 O. Farkas, D. K. Malick, A. D. Rabuck, K. Raghavachari, 
 J. B. Foresman, J. V. Ortiz, Q. Cui, A. G. Baboul, S. Clifford, 
 J. Cioslowski, B. B. Stefanov, G. Liu, A. Liashenko, P. Piskorz, 
 I. Komaromi, R. L. Martin, D. J. Fox, T. Keith, M. A. Al-Laham, 
 C. Y. Peng, A. Nanayakkara, M. Challacombe, P. M. W. Gill, 
 B. Johnson, W. Chen, M. W. Wong, C. Gonzalez, and J. A. Pople, 
 Gaussian, Inc., Wallingford CT, 2004.
 
 ******************************************
 Gaussian 03:  AM64L-G03RevE.01 11-Sep-2007
                17-Jun-2011 
 ******************************************
 %NprocShared=4
 Will use up to    4 processors via shared memory.
 %mem=3750MB
 %chk=S9L-ne-d-01
 --------------------------------------
 # hf/6-311G(d) freq scfcyc=500 scf=xqc
 --------------------------------------
 1/10=4,30=1,38=1/1,3;
 2/17=6,18=5,40=1/2;
 3/5=4,6=6,7=1,11=9,16=1,25=1,30=1/1,2,3;
 4//1;
 5/5=2,7=500,8=3,13=1,38=5/2,8;
 8/6=4,10=90,11=11/1;
 10/13=10/2;
 11/6=2,8=1,9=11,15=111,16=1/1,2,10;
 10/6=1/2;
 6/7=2,8=2,9=2,10=2,18=1,28=1/1;
 7/8=1,10=1,25=1/1,2,3,16;
 1/10=4,30=1/3;
 99//99;
 -----
 si2-n
 -----
 Symbolic Z-matrix:
 Charge =  1 Multiplicity = 4
 Si                    0.        1.03613  -0.24984 
 Si                    0.       -1.03613  -0.24984 
 

 GradGradGradGradGradGradGradGradGradGradGradGradGradGradGradGradGradGrad
 Berny optimization.
 Initialization pass.
 Trust Radius=3.00D-01 FncErr=1.00D-07 GrdErr=1.00D-07
 Number of steps in this run=   2 maximum allowed number of steps=   2.
 GradGradGradGradGradGradGradGradGradGradGradGradGradGradGradGradGradGrad

                          Input orientation:                          
 ---------------------------------------------------------------------
 Center     Atomic     Atomic              Coordinates (Angstroms)
 Number     Number      Type              X           Y           Z
 ---------------------------------------------------------------------
    1         14             0        0.000000    1.036131   -0.249839
    2         14             0        0.000000   -1.036131   -0.249839
 ---------------------------------------------------------------------
 Stoichiometry    Si2(1+,4)
 Framework group  D*H[C*(Si.Si)]
 Deg. of freedom     1
 Full point group                 D*H
 Largest Abelian subgroup         D2H     NOp   8
 Largest concise Abelian subgroup C2      NOp   2
                         Standard orientation:                         
 ---------------------------------------------------------------------
 Center     Atomic     Atomic              Coordinates (Angstroms)
 Number     Number      Type              X           Y           Z
 ---------------------------------------------------------------------
    1         14             0        0.000000    0.000000    1.036131
    2         14             0        0.000000    0.000000   -1.036131
 ---------------------------------------------------------------------
 Rotational constants (GHZ):      0.0000000      8.4131345      8.4131345
 Standard basis: 6-311G(d) (5D, 7F)
 There are    13 symmetry adapted basis functions of AG  symmetry.
 There are     1 symmetry adapted basis functions of B1G symmetry.
 There are     6 symmetry adapted basis functions of B2G symmetry.
 There are     6 symmetry adapted basis functions of B3G symmetry.
 There are     1 symmetry adapted basis functions of AU  symmetry.
 There are    13 symmetry adapted basis functions of B1U symmetry.
 There are     6 symmetry adapted basis functions of B2U symmetry.
 There are     6 symmetry adapted basis functions of B3U symmetry.
 Integral buffers will be    131072 words long.
 Raffenetti 2 integral format.
 Two-electron integral symmetry is turned on.
    52 basis functions,    92 primitive gaussians,    54 cartesian basis functions
    15 alpha electrons       12 beta electrons
       nuclear repulsion energy        50.0509746484 Hartrees.
 NAtoms=    2 NActive=    2 NUniq=    1 SFac= 3.00D+00 NAtFMM=   80 NAOKFM=F Big=F
 One-electron integrals computed using PRISM.
 NBasis=    52 RedAO= T  NBF=    13     1     6     6     1    13     6     6
 NBsUse=    52 1.00D-06 NBFU=    13     1     6     6     1    13     6     6
 Harris functional with IExCor=  205 diagonalized for initial guess.
 ExpMin= 6.54D-02 ExpMax= 6.94D+04 ExpMxC= 2.33D+03 IAcc=2 IRadAn=         4 AccDes= 0.00D+00
 HarFok:  IExCor= 205 AccDes= 0.00D+00 IRadAn=         4 IDoV=1
 ScaDFX=  1.000000  1.000000  1.000000  1.000000
 Initial guess orbital symmetries:
 Alpha Orbitals:
       Occupied  (SGU) (SGG) (SGG) (SGU) (SGG) (SGU) (PIU) (PIU)
                 (PIG) (PIG) (SGG) (SGU) (PIU) (PIU) (SGG)
       Virtual   (PIG) (PIG) (SGU) (SGG) (PIU) (PIU) (SGU) (PIG)
                 (PIG) (SGG) (PIU) (PIU) (SGU) (DLTG) (DLTG) (SGG)
                 (DLTU) (DLTU) (PIG) (PIG) (SGU) (PIU) (PIU) (PIG)
                 (PIG) (SGU) (SGG) (SGG) (SGU) (SGG) (PIU) (PIU)
                 (PIG) (PIG) (SGU) (SGG) (SGU)
 Beta  Orbitals:
       Occupied  (SGU) (SGG) (SGG) (SGU) (SGG) (SGU) (PIU) (PIU)
                 (PIG) (PIG) (SGG) (SGU)
       Virtual   (PIU) (PIU) (SGG) (PIG) (PIG) (SGU) (SGG) (PIU)
                 (PIU) (SGU) (PIG) (PIG) (SGG) (PIU) (PIU) (SGU)
                 (DLTG) (DLTG) (SGG) (DLTU) (DLTU) (PIG) (PIG)
                 (SGU) (PIU) (PIU) (PIG) (PIG) (SGU) (SGG) (SGG)
                 (SGU) (SGG) (PIU) (PIU) (PIG) (PIG) (SGU) (SGG)
                 (SGU)
 The electronic state of the initial guess is 4-SGG.
 <S**2> of initial guess= 3.7500
 Requested convergence on RMS density matrix=1.00D-08 within 128 cycles.
 Requested convergence on MAX density matrix=1.00D-06.
 Requested convergence on             energy=1.00D-06.
 No special actions if energy rises.
 Keep R1 and R2 integrals in memory in canonical form, NReq=     3138065.
 SCF Done:  E(UHF) =  -577.481944515     A.U. after   12 cycles
             Convg  =    0.1886D-08             -V/T =  1.9995
             S**2   =   3.7589
 Annihilation of the first spin contaminant:
 S**2 before annihilation     3.7589,   after     3.7500
 QCSCF skips out because SCF is already converged.
 Range of M.O.s used for correlation:     1    52
 NBasis=    52 NAE=    15 NBE=    12 NFC=     0 NFV=     0
 NROrb=     52 NOA=    15 NOB=    12 NVA=    37 NVB=    40
          Differentiating once with respect to electric field.
                with respect to dipole field.
          Electric field/nuclear overlap derivatives assumed to be zero.
          Store integrals in memory, NReq=     3027647.
          There are   3 degrees of freedom in the 1st order CPHF.
     3 vectors were produced by pass  0.
 AX will form   3 AO Fock derivatives at one time.
     3 vectors were produced by pass  1.
     3 vectors were produced by pass  2.
     3 vectors were produced by pass  3.
     3 vectors were produced by pass  4.
     3 vectors were produced by pass  5.
     3 vectors were produced by pass  6.
     3 vectors were produced by pass  7.
     3 vectors were produced by pass  8.
     1 vectors were produced by pass  9.
     1 vectors were produced by pass 10.
 Inv2:  IOpt= 1 Iter= 1 AM= 3.08D-15 Conv= 1.00D-12.
 Inverted reduced A of dimension   29 with in-core refinement.
 End of Minotr Frequency-dependent properties file   721 does not exist.
 Symmetrizing basis deriv contribution to polar:
 IMax=3 JMax=2 DiffMx= 0.00D+00
 G2DrvN: will do    3 centers at a time, making    1 passes doing MaxLOS=2.
 FoFDir/FoFCou used for L=0 through L=2.
 DoAtom=TT
          Differentiating once with respect to electric field.
                with respect to dipole field.
          Differentiating once with respect to nuclear coordinates.
          Store integrals in memory, NReq=     3027689.
          There are   6 degrees of freedom in the 1st order CPHF.
     6 vectors were produced by pass  0.
 AX will form   6 AO Fock derivatives at one time.
     6 vectors were produced by pass  1.
     6 vectors were produced by pass  2.
     6 vectors were produced by pass  3.
     6 vectors were produced by pass  4.
     6 vectors were produced by pass  5.
     6 vectors were produced by pass  6.
     6 vectors were produced by pass  7.
     4 vectors were produced by pass  8.
     3 vectors were produced by pass  9.
     1 vectors were produced by pass 10.
     1 vectors were produced by pass 11.
 Inv2:  IOpt= 1 Iter= 1 AM= 8.58D-15 Conv= 1.00D-12.
 Inverted reduced A of dimension   57 with in-core refinement.
 Isotropic polarizability for W=    0.000000       50.52 Bohr**3.
 End of Minotr Frequency-dependent properties file   721 does not exist.

 **********************************************************************

            Population analysis using the SCF density.

 **********************************************************************

 Orbital symmetries:
 Alpha Orbitals:
       Occupied  (SGG) (SGU) (SGG) (SGU) (SGG) (SGU) (PIU) (PIU)
                 (PIG) (PIG) (SGG) (SGU) (SGG) (PIU) (PIU)
       Virtual   (PIG) (PIG) (SGU) (SGG) (PIU) (PIU) (SGU) (PIG)
                 (PIG) (SGG) (PIU) (PIU) (SGU) (DLTG) (DLTG) (SGG)
                 (DLTU) (DLTU) (PIG) (PIG) (SGU) (PIU) (PIU) (PIG)
                 (PIG) (SGU) (SGG) (SGG) (SGU) (SGG) (PIU) (PIU)
                 (PIG) (PIG) (SGU) (SGG) (SGU)
 Beta  Orbitals:
       Occupied  (SGU) (SGG) (SGG) (SGU) (PIU) (PIU) (PIG) (PIG)
                 (SGG) (SGU) (SGG) (SGU)
       Virtual   (SGG) (PIU) (PIU) (PIG) (PIG) (SGU) (SGG) (PIU)
                 (PIU) (PIG) (PIG) (SGG) (SGU) (SGU) (PIU) (PIU)
                 (DLTG) (DLTG) (SGG) (DLTU) (DLTU) (PIG) (PIG)
                 (SGU) (PIU) (PIU) (PIG) (PIG) (SGU) (SGG) (SGG)
                 (SGU) (SGG) (PIU) (PIU) (PIG) (PIG) (SGU) (SGG)
                 (SGU)
 The electronic state is 4-SGG.
 Alpha  occ. eigenvalues --  -69.07448 -69.07447  -6.42066  -6.42009  -4.52921
 Alpha  occ. eigenvalues --   -4.52666  -4.52327  -4.52327  -4.52298  -4.52298
 Alpha  occ. eigenvalues --   -1.04464  -0.75637  -0.59340  -0.57456  -0.57456
 Alpha virt. eigenvalues --   -0.20267  -0.20267  -0.05421   0.00189   0.04177
 Alpha virt. eigenvalues --    0.04177   0.11098   0.11961   0.11961   0.13165
 Alpha virt. eigenvalues --    0.37418   0.37418   0.37551   0.47574   0.47574
 Alpha virt. eigenvalues --    0.52470   0.57928   0.57928   0.76882   0.76882
 Alpha virt. eigenvalues --    1.06573   1.09297   1.09297   1.14727   1.14727
 Alpha virt. eigenvalues --    1.18355   1.20173   5.28632   5.70310  11.78813
 Alpha virt. eigenvalues --   11.80337  11.80337  11.84013  11.84013  11.93815
 Alpha virt. eigenvalues --  143.00593 143.47632
  Beta  occ. eigenvalues --  -69.06532 -69.06531  -6.41068  -6.41041  -4.50632
  Beta  occ. eigenvalues --   -4.50632  -4.50609  -4.50609  -4.50604  -4.50377
  Beta  occ. eigenvalues --   -0.86648  -0.60899
  Beta virt. eigenvalues --   -0.23649  -0.23338  -0.23338  -0.11197  -0.11197
  Beta virt. eigenvalues --   -0.02127   0.05038   0.07931   0.07931   0.14995
  Beta virt. eigenvalues --    0.14995   0.17841   0.18734   0.39886   0.46841
  Beta virt. eigenvalues --    0.46841   0.55477   0.55477   0.58907   0.63624
  Beta virt. eigenvalues --    0.63624   0.82667   0.82667   1.11470   1.12680
  Beta virt. eigenvalues --    1.12680   1.17646   1.17646   1.22216   1.24549
  Beta virt. eigenvalues --    5.30259   5.71817  11.80869  11.81812  11.81812
  Beta virt. eigenvalues --   11.85471  11.85471  11.95768 143.01092 143.48124
          Condensed to atoms (all electrons):
              1          2
     1  Si  13.260678   0.239322
     2  Si   0.239322  13.260678
 Mulliken atomic charges:
              1
     1  Si   0.500000
     2  Si   0.500000
 Sum of Mulliken charges=   1.00000
 Atomic charges with hydrogens summed into heavy atoms:
              1
     1  Si   0.500000
     2  Si   0.500000
 Sum of Mulliken charges=   1.00000
          Atomic-Atomic Spin Densities.
              1          2
     1  Si   1.131100   0.368900
     2  Si   0.368900   1.131100
 Mulliken atomic spin densities:
              1
     1  Si   1.500000
     2  Si   1.500000
 Sum of Mulliken spin densities=   3.00000
 APT atomic charges:
              1
     1  Si   0.500000
     2  Si   0.500000
 Sum of APT charges=   1.00000
 APT Atomic charges with hydrogens summed into heavy atoms:
              1
     1  Si   0.500000
     2  Si   0.500000
 Sum of APT charges=   1.00000
 Electronic spatial extent (au):  <R**2>=   150.7525
 Charge=     1.0000 electrons
 Dipole moment (field-independent basis, Debye):
    X=     0.0000    Y=     0.0000    Z=     0.0000  Tot=     0.0000
 Quadrupole moment (field-independent basis, Debye-Ang):
   XX=   -21.2475   YY=   -21.2475   ZZ=   -15.8885
   XY=     0.0000   XZ=     0.0000   YZ=     0.0000
 Traceless Quadrupole moment (field-independent basis, Debye-Ang):
   XX=    -1.7863   YY=    -1.7863   ZZ=     3.5726
   XY=     0.0000   XZ=     0.0000   YZ=     0.0000
 Octapole moment (field-independent basis, Debye-Ang**2):
  XXX=     0.0000  YYY=     0.0000  ZZZ=     0.0000  XYY=     0.0000
  XXY=     0.0000  XXZ=     0.0000  XZZ=     0.0000  YZZ=     0.0000
  YYZ=     0.0000  XYZ=     0.0000
 Hexadecapole moment (field-independent basis, Debye-Ang**3):
 XXXX=   -33.6538 YYYY=   -33.6538 ZZZZ=  -171.2487 XXXY=     0.0000
 XXXZ=     0.0000 YYYX=     0.0000 YYYZ=     0.0000 ZZZX=     0.0000
 ZZZY=     0.0000 XXYY=   -11.2179 XXZZ=   -33.9362 YYZZ=   -33.9362
 XXYZ=     0.0000 YYXZ=     0.0000 ZZXY=     0.0000
 N-N= 5.005097464838D+01 E-N=-1.471666346833D+03  KE= 5.777439148306D+02
 Symmetry AG   KE= 2.397343163025D+02
 Symmetry B1G  KE= 1.150628474683D-35
 Symmetry B2G  KE= 2.438042876850D+01
 Symmetry B3G  KE= 2.438042876850D+01
 Symmetry AU   KE= 1.280317522633D-34
 Symmetry B1U  KE= 2.385496763235D+02
 Symmetry B2U  KE= 2.534953233380D+01
 Symmetry B3U  KE= 2.534953233380D+01
  Exact polarizability:  28.470   0.000  28.470   0.000   0.000  94.610
 Approx polarizability:  26.196   0.000  26.196   0.000   0.000  83.941
                          Isotropic Fermi Contact Couplings
        Atom                 a.u.       MegaHertz       Gauss      10(-4) cm-1
     1  Si(29)            -0.16353      48.44579      17.28666      16.15978
     2  Si(29)            -0.16353      48.44579      17.28666      16.15978
 --------------------------------------------------------
       Center         ----  Spin Dipole Couplings  ----
                      3XX-RR        3YY-RR        3ZZ-RR
 --------------------------------------------------------
     1   Atom       -0.252365     -0.252365      0.504730
     2   Atom       -0.252365     -0.252365      0.504730
 --------------------------------------------------------
                        XY            XZ            YZ
 --------------------------------------------------------
     1   Atom        0.000000      0.000000      0.000000
     2   Atom        0.000000      0.000000      0.000000
 --------------------------------------------------------


 ---------------------------------------------------------------------------------
              Anisotropic Spin Dipole Couplings in Principal Axis System
 ---------------------------------------------------------------------------------

       Atom             a.u.   MegaHertz   Gauss  10(-4) cm-1        Axes

              Baa    -0.2524    26.772     9.553     8.930  0.0000  1.0000  0.0000
     1 Si(29) Bbb    -0.2524    26.772     9.553     8.930  1.0000  0.0000  0.0000
              Bcc     0.5047   -53.544   -19.106   -17.860  0.0000  0.0000  1.0000
 
              Baa    -0.2524    26.772     9.553     8.930  0.0004  1.0000  0.0000
     2 Si(29) Bbb    -0.2524    26.772     9.553     8.930  1.0000 -0.0004  0.0000
              Bcc     0.5047   -53.544   -19.106   -17.860  0.0000  0.0000  1.0000
 

 ---------------------------------------------------------------------------------

 Full mass-weighted force constant matrix:
 Low frequencies --- -177.6078 -177.6078   -0.0025   -0.0025    0.0022  703.2607
 Diagonal vibrational polarizability:
        0.0000000       0.0000000       0.0000000
 Diagonal vibrational hyperpolarizability:
        0.0000000       0.0000000       0.0000000
 Harmonic frequencies (cm**-1), IR intensities (KM/Mole), Raman scattering
 activities (A**4/AMU), depolarization ratios for plane and unpolarized
 incident light, reduced masses (AMU), force constants (mDyne/A),
 and normal coordinates:
                     1
                    SGG
 Frequencies --   703.2607
 Red. masses --    27.9769
 Frc consts  --     8.1524
 IR Inten    --     0.0000
 Raman Activ --    37.1963
 Depolar (P) --     0.4434
 Depolar (U) --     0.6144
 Atom AN      X      Y      Z
   1  14     0.00   0.00   0.71
   2  14     0.00   0.00  -0.71

 -------------------
 - Thermochemistry -
 -------------------
 Temperature   298.150 Kelvin.  Pressure   1.00000 Atm.
 Atom  1 has atomic number 14 and mass  27.97693
 Atom  2 has atomic number 14 and mass  27.97693
 Molecular mass:    55.95386 amu.
 Principal axes and moments of inertia in atomic units:
                           1         2         3
     EIGENVALUES --     0.00000 214.51472 214.51472
           X            0.00000   1.00000   0.00000
           Y            0.00000   0.00000   1.00000
           Z            1.00000   0.00000   0.00000
 This molecule is a prolate symmetric top.
 Rotational symmetry number  2.
 Rotational temperature (Kelvin)      0.40377
 Rotational constant (GHZ):           8.413135
 Zero-point vibrational energy       4206.4 (Joules/Mol)
                                    1.00536 (Kcal/Mol)
 Vibrational temperatures:   1011.83
          (Kelvin)
 
 Zero-point correction=                           0.001602 (Hartree/Particle)
 Thermal correction to Energy=                    0.004074
 Thermal correction to Enthalpy=                  0.005018
 Thermal correction to Gibbs Free Energy=        -0.021009
 Sum of electronic and zero-point Energies=           -577.480342
 Sum of electronic and thermal Energies=              -577.477871
 Sum of electronic and thermal Enthalpies=            -577.476926
 Sum of electronic and thermal Free Energies=         -577.502953
 
                     E (Thermal)             CV                S
                      KCal/Mol        Cal/Mol-Kelvin    Cal/Mol-Kelvin
 Total                    2.556              5.791             54.779
 Electronic               0.000              0.000              2.755
 Translational            0.889              2.981             37.987
 Rotational               0.592              1.987             13.734
 Vibrational              1.075              0.823              0.302
                       Q            Log10(Q)             Ln(Q)
 Total Bot       0.460719D+10          9.663436         22.250885
 Total V=0       0.251403D+11         10.400371         23.947739
 Vib (Bot)       0.189628D+00         -0.722098         -1.662693
 Vib (V=0)       0.103475D+01          0.014836          0.034161
 Electronic      0.400000D+01          0.602060          1.386294
 Translational   0.164513D+08          7.216200         16.615915
 Rotational      0.369211D+03          2.567275          5.911369
 ***** Axes restored to original set *****
 -------------------------------------------------------------------
 Center     Atomic                   Forces (Hartrees/Bohr)
 Number     Number              X              Y              Z
 -------------------------------------------------------------------
    1         14           0.000000000    0.065392447    0.000000000
    2         14           0.000000000   -0.065392447    0.000000000
 -------------------------------------------------------------------
 Cartesian Forces:  Max     0.065392447 RMS     0.037754347
 ------------------------------------------------------------------------
           Internal Coordinate Forces (Hartree/Bohr or radian)
 Cent Atom N1     Length/X     N2     Alpha/Y      N3      Beta/Z       J
 ------------------------------------------------------------------------
   1  Si        0.000000(   1)      0.065392(   3)      0.000000(   5)
   2  Si        0.000000(   2)     -0.065392(   4)      0.000000(   6)
 ------------------------------------------------------------------------
 Internal  Forces:  Max     0.065392447 RMS     0.037754347

 GradGradGradGradGradGradGradGradGradGradGradGradGradGradGradGradGradGrad
 Berny optimization.
 Search for a local minimum.
 Step number   1 out of a maximum of   2
 All quantities printed in internal units (Hartrees-Bohrs-Radians)
 Second derivative matrix not updated -- analytic derivatives used.
 The second derivative matrix:
                          X1        Y1        Z1        X2        Y2
           X1          -0.01670
           Y1           0.00000   0.26181
           Z1           0.00000   0.00000  -0.01670
           X2           0.01670   0.00000   0.00000  -0.01670
           Y2           0.00000  -0.26181   0.00000   0.00000   0.26181
           Z2           0.00000   0.00000   0.01670   0.00000   0.00000
                          Z2
           Z2          -0.01670
     Eigenvalues ---    0.52363
 Angle between quadratic step and forces=   0.00 degrees.
 Linear search not attempted -- first point.
 TrRot=  0.000000  0.000000  0.000000  0.000000  0.000000  0.000000
 Variable       Old X    -DE/DX   Delta X   Delta X   Delta X     New X
                                 (Linear)    (Quad)   (Total)
    X1        0.00000   0.00000   0.00000   0.00000   0.00000   0.00000
    Y1        1.95800   0.06539   0.00000   0.12488   0.12488   2.08289
    Z1       -0.47213   0.00000   0.00000   0.00000   0.00000  -0.47213
    X2        0.00000   0.00000   0.00000   0.00000   0.00000   0.00000
    Y2       -1.95800  -0.06539   0.00000  -0.12488  -0.12488  -2.08289
    Z2       -0.47213   0.00000   0.00000   0.00000   0.00000  -0.47213
         Item               Value     Threshold  Converged?
 Maximum Force            0.065392     0.000450     NO 
 RMS     Force            0.037754     0.000300     NO 
 Maximum Displacement     0.124883     0.001800     NO 
 RMS     Displacement     0.072101     0.001200     NO 
 Predicted change in Energy=-8.166407D-03
 GradGradGradGradGradGradGradGradGradGradGradGradGradGradGradGradGradGrad

 1\1\GINC-NODE39\Freq\UHF\6-311G(d)\Si2(1+,4)\TAM\17-Jun-2011\0\\# hf/6
 -311G(d) freq scfcyc=500 scf=xqc\\si2-n\\1,4\Si,0.,1.036131,-0.249839\
 Si,0.,-1.036131,-0.249839\\Version=AM64L-G03RevE.01\State=4-SGG\HF=-57
 7.4819445\S2=3.758852\S2-1=0.\S2A=3.750004\RMSD=1.886e-09\RMSF=3.775e-
 02\ZeroPoint=0.0016021\Thermal=0.004074\Dipole=0.,0.,0.\DipoleDeriv=0.
 5,0.,0.,0.,0.5,0.,0.,0.,0.5,0.5,0.,0.,0.,0.5,0.,0.,0.,0.5\Polar=28.470
 1405,0.,94.6100943,0.,0.,28.4701405\PolarDeriv=0.,16.8896813,0.,0.,0.,
 0.,2.2262897,0.,-23.839741,0.,0.,2.2262897,0.,0.,0.,0.,16.8896813,0.,0
 .,-16.8896813,0.,0.,0.,0.,-2.2262897,0.,23.839741,0.,0.,-2.2262897,0.,
 0.,0.,0.,-16.8896813,0.\HyperPolar=0.,0.,0.,0.,0.,0.,0.,0.,0.,0.\PG=D*
 H [C*(Si1.Si1)]\NImag=0\\-0.01669880,0.,0.26181477,0.,0.,-0.01669880,0
 .01669880,0.,0.,-0.01669880,0.,-0.26181477,0.,0.,0.26181477,0.,0.,0.01
 669880,0.,0.,-0.01669880\\0.,-0.06539245,0.,0.,0.06539245,0.\\\@


 HE THAT RISETH LATE MUST TROT ALL DAY.

                  -- BENJAMIN FRANKLIN
 Job cpu time:  0 days  0 hours  0 minutes 47.4 seconds.
 File lengths (MBytes):  RWF=     14 Int=      0 D2E=      0 Chk=      6 Scr=      1
 Normal termination of Gaussian 03 at Fri Jun 17 15:54:48 2011.
 Initial command:
 /usr/local/chem/g03E01/l1.exe /temp0/tam/Gau-27047.inp -scrdir=/temp0/tam/
 Entering Link 1 = /usr/local/chem/g03E01/l1.exe PID=     27118.
  
 Copyright (c) 1988,1990,1992,1993,1995,1998,2003,2004,2007, Gaussian, Inc.
                  All Rights Reserved.
  
 This is the Gaussian(R) 03 program.  It is based on the
 the Gaussian(R) 98 system (copyright 1998, Gaussian, Inc.),
 the Gaussian(R) 94 system (copyright 1995, Gaussian, Inc.),
 the Gaussian 92(TM) system (copyright 1992, Gaussian, Inc.),
 the Gaussian 90(TM) system (copyright 1990, Gaussian, Inc.),
 the Gaussian 88(TM) system (copyright 1988, Gaussian, Inc.),
 the Gaussian 86(TM) system (copyright 1986, Carnegie Mellon
 University), and the Gaussian 82(TM) system (copyright 1983,
 Carnegie Mellon University). Gaussian is a federally registered
 trademark of Gaussian, Inc.
  
 This software contains proprietary and confidential information,
 including trade secrets, belonging to Gaussian, Inc.
  
 This software is provided under written license and may be
 used, copied, transmitted, or stored only in accord with that
 written license.
  
 The following legend is applicable only to US Government
 contracts under FAR:
  
                    RESTRICTED RIGHTS LEGEND
  
 Use, reproduction and disclosure by the US Government is
 subject to restrictions as set forth in subparagraphs (a)
 and (c) of the Commercial Computer Software - Restricted
 Rights clause in FAR 52.227-19.
  
 Gaussian, Inc.
 340 Quinnipiac St., Bldg. 40, Wallingford CT 06492
  
  
 ---------------------------------------------------------------
 Warning -- This program may not be used in any manner that
 competes with the business of Gaussian, Inc. or will provide
 assistance to any competitor of Gaussian, Inc.  The licensee
 of this program is prohibited from giving any competitor of
 Gaussian, Inc. access to this program.  By using this program,
 the user acknowledges that Gaussian, Inc. is engaged in the
 business of creating and licensing software in the field of
 computational chemistry and represents and warrants to the
 licensee that it is not a competitor of Gaussian, Inc. and that
 it will not use this program in any manner prohibited above.
 ---------------------------------------------------------------
  

 Cite this work as:
 Gaussian 03, Revision E.01,
 M. J. Frisch, G. W. Trucks, H. B. Schlegel, G. E. Scuseria, 
 M. A. Robb, J. R. Cheeseman, J. A. Montgomery, Jr., T. Vreven, 
 K. N. Kudin, J. C. Burant, J. M. Millam, S. S. Iyengar, J. Tomasi, 
 V. Barone, B. Mennucci, M. Cossi, G. Scalmani, N. Rega, 
 G. A. Petersson, H. Nakatsuji, M. Hada, M. Ehara, K. Toyota, 
 R. Fukuda, J. Hasegawa, M. Ishida, T. Nakajima, Y. Honda, O. Kitao, 
 H. Nakai, M. Klene, X. Li, J. E. Knox, H. P. Hratchian, J. B. Cross, 
 V. Bakken, C. Adamo, J. Jaramillo, R. Gomperts, R. E. Stratmann, 
 O. Yazyev, A. J. Austin, R. Cammi, C. Pomelli, J. W. Ochterski, 
 P. Y. Ayala, K. Morokuma, G. A. Voth, P. Salvador, J. J. Dannenberg, 
 V. G. Zakrzewski, S. Dapprich, A. D. Daniels, M. C. Strain, 
 O. Farkas, D. K. Malick, A. D. Rabuck, K. Raghavachari, 
 J. B. Foresman, J. V. Ortiz, Q. Cui, A. G. Baboul, S. Clifford, 
 J. Cioslowski, B. B. Stefanov, G. Liu, A. Liashenko, P. Piskorz, 
 I. Komaromi, R. L. Martin, D. J. Fox, T. Keith, M. A. Al-Laham, 
 C. Y. Peng, A. Nanayakkara, M. Challacombe, P. M. W. Gill, 
 B. Johnson, W. Chen, M. W. Wong, C. Gonzalez, and J. A. Pople, 
 Gaussian, Inc., Wallingford CT, 2004.
 
 ******************************************
 Gaussian 03:  AM64L-G03RevE.01 11-Sep-2007
                17-Jun-2011 
 ******************************************
 %NprocShared=4
 Will use up to    4 processors via shared memory.
 %mem=3750MB
 %chk=S9L-ne-d-01
 ----------------------------------------------------------------------
 # b3lyp/6-311+G(d) opt=(readfc,noeigentest,maxcycle=500) freq scfcyc=5
 00 optcyc=500 scf=xqc geom=allcheck guess=read
 ----------------------------------------------------------------------
 1/6=500,10=3,11=1,14=-1,18=20,26=3,29=7,38=1/1,3;
 2/9=110,40=1/2;
 3/5=4,6=6,7=11,11=2,16=1,25=1,30=1,74=-5/1,2,3;
 4/5=1/1;
 5/5=2,7=500,8=3,13=1,38=6/2,8;
 6/7=2,8=2,9=2,10=2,28=1/1;
 7//1,2,3,16;
 1/6=500,11=1,14=-1,18=20/3(3);
 2/9=110/2;
 6/7=2,8=2,9=2,10=2,19=2,28=1/1;
 99//99;
 2/9=110/2;
 3/5=4,6=6,7=11,11=2,16=1,25=1,30=1,74=-5/1,2,3;
 4/5=5,16=3/1;
 5/5=2,7=500,8=3,13=1,38=5/2,8;
 7//1,2,3,16;
 1/6=500,11=1,14=-1,18=20/3(-5);
 2/9=110/2;
 6/7=2,8=2,9=2,10=2,19=2,28=1/1;
 99/9=1/99;
 -----
 si2-n
 -----
 No Z-matrix found on checkpoint file.
 Cartesian coordinates read from the checkpoint file:
 S9L-ne-d-01.chk
 Charge =  1 Multiplicity = 4
  Si                                                0.000000000000      1.036131000000     -0.249839000000
  Si                                                0.000000000000     -1.036131000000     -0.249839000000
 Recover connectivity data from disk.

 GradGradGradGradGradGradGradGradGradGradGradGradGradGradGradGradGradGrad
 Berny optimization.
 Initialization pass.
 No redundant coordinates on chk file, so ReadFC converted to ReadCartesianFC.
 Cartesian force constants read from checkpoint file:
 S9L-ne-d-01.chk
                           ----------------------------
                           !    Initial Parameters    !
                           ! (Angstroms and Degrees)  !
 --------------------------                            --------------------------
 ! Name  Definition              Value          Derivative Info.                !
 --------------------------------------------------------------------------------
 ! R1    R(1,2)                  2.0723         D2E/DX2 =    0.2618             !
 --------------------------------------------------------------------------------
 Trust Radius=3.00D-01 FncErr=1.00D-07 GrdErr=1.00D-06
 Number of steps in this run= 100 maximum allowed number of steps= 100.
 GradGradGradGradGradGradGradGradGradGradGradGradGradGradGradGradGradGrad

                          Input orientation:                          
 ---------------------------------------------------------------------
 Center     Atomic     Atomic              Coordinates (Angstroms)
 Number     Number      Type              X           Y           Z
 ---------------------------------------------------------------------
    1         14             0        0.000000    1.036131   -0.249839
    2         14             0        0.000000   -1.036131   -0.249839
 ---------------------------------------------------------------------
 Stoichiometry    Si2(1+,4)
 Framework group  D*H[C*(Si.Si)]
 Deg. of freedom     1
 Full point group                 D*H
 Largest Abelian subgroup         D2H     NOp   8
 Largest concise Abelian subgroup C2      NOp   2
                         Standard orientation:                         
 ---------------------------------------------------------------------
 Center     Atomic     Atomic              Coordinates (Angstroms)
 Number     Number      Type              X           Y           Z
 ---------------------------------------------------------------------
    1         14             0        0.000000    0.000000    1.036131
    2         14             0        0.000000    0.000000   -1.036131
 ---------------------------------------------------------------------
 Rotational constants (GHZ):      0.0000000      8.4131345      8.4131345
 Standard basis: 6-311+G(d) (5D, 7F)
 There are    15 symmetry adapted basis functions of AG  symmetry.
 There are     1 symmetry adapted basis functions of B1G symmetry.
 There are     7 symmetry adapted basis functions of B2G symmetry.
 There are     7 symmetry adapted basis functions of B3G symmetry.
 There are     1 symmetry adapted basis functions of AU  symmetry.
 There are    15 symmetry adapted basis functions of B1U symmetry.
 There are     7 symmetry adapted basis functions of B2U symmetry.
 There are     7 symmetry adapted basis functions of B3U symmetry.
 Integral buffers will be    131072 words long.
 Raffenetti 2 integral format.
 Two-electron integral symmetry is turned on.
    60 basis functions,   100 primitive gaussians,    62 cartesian basis functions
    15 alpha electrons       12 beta electrons
       nuclear repulsion energy        50.0509746484 Hartrees.
 NAtoms=    2 NActive=    2 NUniq=    1 SFac= 3.00D+00 NAtFMM=   80 NAOKFM=F Big=F
 One-electron integrals computed using PRISM.
 NBasis=    60 RedAO= T  NBF=    15     1     7     7     1    15     7     7
 NBsUse=    60 1.00D-06 NBFU=    15     1     7     7     1    15     7     7
 Initial guess read from the checkpoint file:
 S9L-ne-d-01.chk
 Initial guess orbital symmetries:
 Alpha Orbitals:
       Occupied  (SGG) (SGU) (SGG) (SGU) (SGG) (SGU) (PIU) (PIU)
                 (PIG) (PIG) (SGG) (SGU) (SGG) (PIU) (PIU)
       Virtual   (PIG) (PIG) (SGU) (SGG) (PIU) (PIU) (SGU) (PIG)
                 (PIG) (SGG) (PIU) (PIU) (SGU) (DLTG) (DLTG) (SGG)
                 (DLTU) (DLTU) (PIG) (PIG) (SGU) (PIU) (PIU) (PIG)
                 (PIG) (SGU) (SGG) (SGG) (SGU) (SGG) (PIU) (PIU)
                 (PIG) (PIG) (SGU) (SGG) (SGU) (SGG) (SGG) (PIG)
                 (PIG) (SGU) (SGU) (PIU) (PIU)
 Beta  Orbitals:
       Occupied  (SGU) (SGG) (SGG) (SGU) (PIU) (PIU) (PIG) (PIG)
                 (SGG) (SGU) (SGG) (SGU)
       Virtual   (SGG) (PIU) (PIU) (PIG) (PIG) (SGU) (SGG) (PIU)
                 (PIU) (PIG) (PIG) (SGG) (SGU) (SGU) (PIU) (PIU)
                 (DLTG) (DLTG) (SGG) (DLTU) (DLTU) (PIG) (PIG)
                 (SGU) (PIU) (PIU) (PIG) (PIG) (SGU) (SGG) (SGG)
                 (SGU) (SGG) (PIU) (PIU) (PIG) (PIG) (SGU) (SGG)
                 (SGU) (SGG) (SGG) (PIG) (PIG) (SGU) (SGU) (PIU)
                 (PIU)
 <S**2> of initial guess= 3.7589
 Requested convergence on RMS density matrix=1.00D-08 within 128 cycles.
 Requested convergence on MAX density matrix=1.00D-06.
 Requested convergence on             energy=1.00D-06.
 No special actions if energy rises.
 Keep R1 and R2 integrals in memory in canonical form, NReq=     5564119.
 SCF Done:  E(UB+HF-LYP) =  -578.596653556     A.U. after    9 cycles
             Convg  =    0.5048D-08             -V/T =  2.0012
             S**2   =   3.7508
 Annihilation of the first spin contaminant:
 S**2 before annihilation     3.7508,   after     3.7500
 QCSCF skips out because SCF is already converged.

 **********************************************************************

            Population analysis using the SCF density.

 **********************************************************************

 Orbital symmetries:
 Alpha Orbitals:
       Occupied  (SGU) (SGG) (SGG) (SGU) (SGG) (PIU) (PIU) (PIG)
                 (PIG) (SGU) (SGG) (SGU) (PIU) (PIU) (SGG)
       Virtual   (PIG) (PIG) (SGU) (SGG) (PIU) (PIU) (SGG) (SGU)
                 (PIG) (PIG) (SGU) (SGG) (PIU) (PIU) (SGU) (PIG)
                 (PIG) (SGG) (PIU) (PIU) (DLTG) (DLTG) (SGU) (DLTU)
                 (DLTU) (SGG) (PIG) (PIG) (SGU) (PIU) (PIU) (PIG)
                 (PIG) (SGU) (SGG) (SGG) (SGU) (SGG) (PIU) (PIU)
                 (PIG) (PIG) (SGU) (SGG) (SGU)
 Beta  Orbitals:
       Occupied  (SGU) (SGG) (SGG) (SGU) (PIU) (PIU) (PIG) (PIG)
                 (SGG) (SGU) (SGG) (SGU)
       Virtual   (PIU) (PIU) (SGG) (PIG) (PIG) (SGG) (SGU) (PIU)
                 (PIU) (SGG) (SGU) (PIG) (PIG) (SGU) (SGG) (PIU)
                 (PIU) (SGU) (PIG) (PIG) (SGG) (PIU) (PIU) (DLTG)
                 (DLTG) (SGU) (DLTU) (DLTU) (SGG) (PIG) (PIG) (SGU)
                 (PIU) (PIU) (PIG) (PIG) (SGU) (SGG) (SGG) (SGU)
                 (SGG) (PIU) (PIU) (PIG) (PIG) (SGU) (SGG) (SGU)
 The electronic state is 4-SGG.
 Alpha  occ. eigenvalues --  -66.39414 -66.39413  -5.56342  -5.56303  -3.92270
 Alpha  occ. eigenvalues --   -3.92254  -3.92254  -3.92231  -3.92231  -3.92027
 Alpha  occ. eigenvalues --   -0.83264  -0.62346  -0.48551  -0.48551  -0.48259
 Alpha virt. eigenvalues --   -0.30745  -0.30745  -0.16138  -0.15854  -0.09973
 Alpha virt. eigenvalues --   -0.09973  -0.08991  -0.08511  -0.05400  -0.05400
 Alpha virt. eigenvalues --   -0.01225   0.04085   0.08857   0.08857   0.12100
 Alpha virt. eigenvalues --    0.13214   0.13214   0.17432   0.17881   0.17881
 Alpha virt. eigenvalues --    0.26638   0.26638   0.32490   0.35019   0.35019
 Alpha virt. eigenvalues --    0.39093   0.53447   0.53447   0.85922   0.95999
 Alpha virt. eigenvalues --    0.95999   0.99702   0.99702   1.01148   1.04323
 Alpha virt. eigenvalues --    4.91499   5.24117  10.98205  10.99599  10.99599
 Alpha virt. eigenvalues --   11.01824  11.01824  11.10338 140.30932 140.68320
  Beta  occ. eigenvalues --  -66.38780 -66.38779  -5.55699  -5.55668  -3.91345
  Beta  occ. eigenvalues --   -3.91345  -3.91323  -3.91323  -3.91202  -3.90970
  Beta  occ. eigenvalues --   -0.75946  -0.55971
  Beta virt. eigenvalues --   -0.38226  -0.38226  -0.37795  -0.25732  -0.25732
  Beta virt. eigenvalues --   -0.14486  -0.13263  -0.09304  -0.09304  -0.08200
  Beta virt. eigenvalues --   -0.06973  -0.04981  -0.04981  -0.00721   0.06013
  Beta virt. eigenvalues --    0.10397   0.10397   0.14082   0.14534   0.14534
  Beta virt. eigenvalues --    0.19681   0.23522   0.23522   0.32051   0.32051
  Beta virt. eigenvalues --    0.34356   0.39930   0.39930   0.42859   0.58276
  Beta virt. eigenvalues --    0.58276   0.89342   0.98448   0.98448   1.02048
  Beta virt. eigenvalues --    1.02048   1.04273   1.07436   4.92962   5.25755
  Beta virt. eigenvalues --   10.99651  11.00853  11.00853  11.03074  11.03074
  Beta virt. eigenvalues --   11.11786 140.31539 140.68933
          Condensed to atoms (all electrons):
              1          2
     1  Si  13.190650   0.309350
     2  Si   0.309350  13.190650
 Mulliken atomic charges:
              1
     1  Si   0.500000
     2  Si   0.500000
 Sum of Mulliken charges=   1.00000
 Atomic charges with hydrogens summed into heavy atoms:
              1
     1  Si   0.500000
     2  Si   0.500000
 Sum of Mulliken charges=   1.00000
          Atomic-Atomic Spin Densities.
              1          2
     1  Si   1.172423   0.327577
     2  Si   0.327577   1.172423
 Mulliken atomic spin densities:
              1
     1  Si   1.500000
     2  Si   1.500000
 Sum of Mulliken spin densities=   3.00000
 Electronic spatial extent (au):  <R**2>=   149.3823
 Charge=     1.0000 electrons
 Dipole moment (field-independent basis, Debye):
    X=     0.0000    Y=     0.0000    Z=     0.0000  Tot=     0.0000
 Quadrupole moment (field-independent basis, Debye-Ang):
   XX=   -20.6952   YY=   -20.6952   ZZ=   -15.1501
   XY=     0.0000   XZ=     0.0000   YZ=     0.0000
 Traceless Quadrupole moment (field-independent basis, Debye-Ang):
   XX=    -1.8484   YY=    -1.8484   ZZ=     3.6967
   XY=     0.0000   XZ=     0.0000   YZ=     0.0000
 Octapole moment (field-independent basis, Debye-Ang**2):
  XXX=     0.0000  YYY=     0.0000  ZZZ=     0.0000  XYY=     0.0000
  XXY=     0.0000  XXZ=     0.0000  XZZ=     0.0000  YZZ=     0.0000
  YYZ=     0.0000  XYZ=     0.0000
 Hexadecapole moment (field-independent basis, Debye-Ang**3):
 XXXX=   -31.2413 YYYY=   -31.2413 ZZZZ=  -165.1160 XXXY=     0.0000
 XXXZ=     0.0000 YYYX=     0.0000 YYYZ=     0.0000 ZZZX=     0.0000
 ZZZY=     0.0000 XXYY=   -10.4138 XXZZ=   -32.7149 YYZZ=   -32.7149
 XXYZ=     0.0000 YYXZ=     0.0000 ZZXY=     0.0000
 N-N= 5.005097464838D+01 E-N=-1.472343392190D+03  KE= 5.779312596951D+02
 Symmetry AG   KE= 2.395978450187D+02
 Symmetry B1G  KE= 1.153587612612D-35
 Symmetry B2G  KE= 2.444049670865D+01
 Symmetry B3G  KE= 2.444049670865D+01
 Symmetry AU   KE= 9.714390815087D-35
 Symmetry B1U  KE= 2.383464921539D+02
 Symmetry B2U  KE= 2.555296455260D+01
 Symmetry B3U  KE= 2.555296455260D+01
                          Isotropic Fermi Contact Couplings
        Atom                 a.u.       MegaHertz       Gauss      10(-4) cm-1
     1  Si(29)             0.06132     -18.16443      -6.48152      -6.05900
     2  Si(29)             0.06132     -18.16443      -6.48152      -6.05900
 --------------------------------------------------------
       Center         ----  Spin Dipole Couplings  ----
                      3XX-RR        3YY-RR        3ZZ-RR
 --------------------------------------------------------
     1   Atom       -0.175219     -0.175219      0.350438
     2   Atom       -0.175219     -0.175219      0.350438
 --------------------------------------------------------
                        XY            XZ            YZ
 --------------------------------------------------------
     1   Atom        0.000000      0.000000      0.000000
     2   Atom        0.000000      0.000000      0.000000
 --------------------------------------------------------


 ---------------------------------------------------------------------------------
              Anisotropic Spin Dipole Couplings in Principal Axis System
 ---------------------------------------------------------------------------------

       Atom             a.u.   MegaHertz   Gauss  10(-4) cm-1        Axes

              Baa    -0.1752    18.588     6.633     6.200  0.0001  1.0000  0.0000
     1 Si(29) Bbb    -0.1752    18.588     6.633     6.200  1.0000 -0.0001  0.0000
              Bcc     0.3504   -37.176   -13.265   -12.401  0.0000  0.0000  1.0000
 
              Baa    -0.1752    18.588     6.633     6.200  0.0000  1.0000  0.0000
     2 Si(29) Bbb    -0.1752    18.588     6.633     6.200  1.0000  0.0000  0.0000
              Bcc     0.3504   -37.176   -13.265   -12.401  0.0000  0.0000  1.0000
 

 ---------------------------------------------------------------------------------

 ***** Axes restored to original set *****
 -------------------------------------------------------------------
 Center     Atomic                   Forces (Hartrees/Bohr)
 Number     Number              X              Y              Z
 -------------------------------------------------------------------
    1         14           0.000000000    0.072088221    0.000000000
    2         14           0.000000000   -0.072088221    0.000000000
 -------------------------------------------------------------------
 Cartesian Forces:  Max     0.072088221 RMS     0.041620154

 GradGradGradGradGradGradGradGradGradGradGradGradGradGradGradGradGradGrad
 Berny optimization.
 Internal  Forces:  Max     0.072088221 RMS     0.072088221
 Search for a local minimum.
 Step number   1 out of a maximum of 100
 All quantities printed in internal units (Hartrees-Bohrs-Radians)
 Second derivative matrix not updated -- first step.
 The second derivative matrix:
                          R1
           R1           0.26181
     Eigenvalues ---    0.26181
 RFO step:  Lambda=-1.85364342D-02.
 Linear search not attempted -- first point.
 Iteration  1 RMS(Cart)=  0.14142136 RMS(Int)=  0.05713541
 Iteration  2 RMS(Cart)=  0.04040083 RMS(Int)=  0.00000000
 Iteration  3 RMS(Cart)=  0.00000000 RMS(Int)=  0.00000000
 Variable       Old X    -DE/DX   Delta X   Delta X   Delta X     New X
                                 (Linear)    (Quad)   (Total)
    R1        3.91601   0.07209   0.00000   0.25714   0.25714   4.17314
         Item               Value     Threshold  Converged?
 Maximum Force            0.072088     0.000450     NO 
 RMS     Force            0.072088     0.000300     NO 
 Maximum Displacement     0.128568     0.001800     NO 
 RMS     Displacement     0.181822     0.001200     NO 
 Predicted change in Energy=-9.881019D-03
 GradGradGradGradGradGradGradGradGradGradGradGradGradGradGradGradGradGrad

                          Input orientation:                          
 ---------------------------------------------------------------------
 Center     Atomic     Atomic              Coordinates (Angstroms)
 Number     Number      Type              X           Y           Z
 ---------------------------------------------------------------------
    1         14             0        0.000000    1.104166   -0.249839
    2         14             0        0.000000   -1.104166   -0.249839
 ---------------------------------------------------------------------
 Stoichiometry    Si2(1+,4)
 Framework group  D*H[C*(Si.Si)]
 Deg. of freedom     1
 Full point group                 D*H
 Largest Abelian subgroup         D2H     NOp   8
 Largest concise Abelian subgroup C2      NOp   2
                         Standard orientation:                         
 ---------------------------------------------------------------------
 Center     Atomic     Atomic              Coordinates (Angstroms)
 Number     Number      Type              X           Y           Z
 ---------------------------------------------------------------------
    1         14             0        0.000000    0.000000    1.104166
    2         14             0        0.000000    0.000000   -1.104166
 ---------------------------------------------------------------------
 Rotational constants (GHZ):      0.0000000      7.4082964      7.4082964
 Standard basis: 6-311+G(d) (5D, 7F)
 There are    15 symmetry adapted basis functions of AG  symmetry.
 There are     1 symmetry adapted basis functions of B1G symmetry.
 There are     7 symmetry adapted basis functions of B2G symmetry.
 There are     7 symmetry adapted basis functions of B3G symmetry.
 There are     1 symmetry adapted basis functions of AU  symmetry.
 There are    15 symmetry adapted basis functions of B1U symmetry.
 There are     7 symmetry adapted basis functions of B2U symmetry.
 There are     7 symmetry adapted basis functions of B3U symmetry.
 Integral buffers will be    131072 words long.
 Raffenetti 2 integral format.
 Two-electron integral symmetry is turned on.
    60 basis functions,   100 primitive gaussians,    62 cartesian basis functions
    15 alpha electrons       12 beta electrons
       nuclear repulsion energy        46.9669975230 Hartrees.
 NAtoms=    2 NActive=    2 NUniq=    1 SFac= 3.00D+00 NAtFMM=   80 NAOKFM=F Big=F
 One-electron integrals computed using PRISM.
 NBasis=    60 RedAO= T  NBF=    15     1     7     7     1    15     7     7
 NBsUse=    60 1.00D-06 NBFU=    15     1     7     7     1    15     7     7
 Initial guess read from the read-write file:
 Initial guess orbital symmetries:
 Alpha Orbitals:
       Occupied  (SGU) (SGG) (SGG) (SGU) (SGG) (PIU) (PIU) (PIG)
                 (PIG) (SGU) (SGG) (SGU) (PIU) (PIU) (SGG)
       Virtual   (PIG) (PIG) (SGU) (SGG) (PIU) (PIU) (SGG) (SGU)
                 (PIG) (PIG) (SGU) (SGG) (PIU) (PIU) (SGU) (PIG)
                 (PIG) (SGG) (PIU) (PIU) (DLTG) (DLTG) (SGU) (DLTU)
                 (DLTU) (SGG) (PIG) (PIG) (SGU) (PIU) (PIU) (PIG)
                 (PIG) (SGU) (SGG) (SGG) (SGU) (SGG) (PIU) (PIU)
                 (PIG) (PIG) (SGU) (SGG) (SGU)
 Beta  Orbitals:
       Occupied  (SGU) (SGG) (SGG) (SGU) (PIU) (PIU) (PIG) (PIG)
                 (SGG) (SGU) (SGG) (SGU)
       Virtual   (PIU) (PIU) (SGG) (PIG) (PIG) (SGG) (SGU) (PIU)
                 (PIU) (SGG) (SGU) (PIG) (PIG) (SGU) (SGG) (PIU)
                 (PIU) (SGU) (PIG) (PIG) (SGG) (PIU) (PIU) (DLTG)
                 (DLTG) (SGU) (DLTU) (DLTU) (SGG) (PIG) (PIG) (SGU)
                 (PIU) (PIU) (PIG) (PIG) (SGU) (SGG) (SGG) (SGU)
                 (SGG) (PIU) (PIU) (PIG) (PIG) (SGU) (SGG) (SGU)
 <S**2> of initial guess= 3.7509
 Harris functional with IExCor=  402 diagonalized for initial guess.
 ExpMin= 3.31D-02 ExpMax= 6.94D+04 ExpMxC= 2.33D+03 IAcc=3 IRadAn=         5 AccDes= 0.00D+00
 HarFok:  IExCor= 402 AccDes= 0.00D+00 IRadAn=         5 IDoV=1
 ScaDFX=  1.000000  1.000000  1.000000  1.000000
 Requested convergence on RMS density matrix=1.00D-08 within 128 cycles.
 Requested convergence on MAX density matrix=1.00D-06.
 Requested convergence on             energy=1.00D-06.
 No special actions if energy rises.
 Keep R1 and R2 integrals in memory in canonical form, NReq=     5564119.
 SCF Done:  E(UB+HF-LYP) =  -578.608134734     A.U. after    9 cycles
             Convg  =    0.1299D-08             -V/T =  2.0015
             S**2   =   3.7509
 Annihilation of the first spin contaminant:
 S**2 before annihilation     3.7509,   after     3.7500
 QCSCF skips out because SCF is already converged.
 ***** Axes restored to original set *****
 -------------------------------------------------------------------
 Center     Atomic                   Forces (Hartrees/Bohr)
 Number     Number              X              Y              Z
 -------------------------------------------------------------------
    1         14           0.000000000    0.021704351    0.000000000
    2         14           0.000000000   -0.021704351    0.000000000
 -------------------------------------------------------------------
 Cartesian Forces:  Max     0.021704351 RMS     0.012531013

 GradGradGradGradGradGradGradGradGradGradGradGradGradGradGradGradGradGrad
 Berny optimization.
 Internal  Forces:  Max     0.021704351 RMS     0.021704351
 Search for a local minimum.
 Step number   2 out of a maximum of 100
 All quantities printed in internal units (Hartrees-Bohrs-Radians)
 Update second derivatives using D2CorX and points  1  2
 Trust test= 1.16D+00 RLast= 2.57D-01 DXMaxT set to 4.24D-01
 The second derivative matrix:
                          R1
           R1           0.19594
     Eigenvalues ---    0.19594
 RFO step:  Lambda= 0.00000000D+00.
 Quartic linear search produced a step of  0.73291.
 Iteration  1 RMS(Cart)=  0.13325967 RMS(Int)=  0.00000000
 Iteration  2 RMS(Cart)=  0.00000000 RMS(Int)=  0.00000000
 Variable       Old X    -DE/DX   Delta X   Delta X   Delta X     New X
                                 (Linear)    (Quad)   (Total)
    R1        4.17314   0.02170   0.18846   0.00000   0.18846   4.36160
         Item               Value     Threshold  Converged?
 Maximum Force            0.021704     0.000450     NO 
 RMS     Force            0.021704     0.000300     NO 
 Maximum Displacement     0.094229     0.001800     NO 
 RMS     Displacement     0.133260     0.001200     NO 
 Predicted change in Energy=-6.107684D-04
 GradGradGradGradGradGradGradGradGradGradGradGradGradGradGradGradGradGrad

                          Input orientation:                          
 ---------------------------------------------------------------------
 Center     Atomic     Atomic              Coordinates (Angstroms)
 Number     Number      Type              X           Y           Z
 ---------------------------------------------------------------------
    1         14             0        0.000000    1.154030   -0.249839
    2         14             0        0.000000   -1.154030   -0.249839
 ---------------------------------------------------------------------
 Stoichiometry    Si2(1+,4)
 Framework group  D*H[C*(Si.Si)]
 Deg. of freedom     1
 Full point group                 D*H
 Largest Abelian subgroup         D2H     NOp   8
 Largest concise Abelian subgroup C2      NOp   2
                         Standard orientation:                         
 ---------------------------------------------------------------------
 Center     Atomic     Atomic              Coordinates (Angstroms)
 Number     Number      Type              X           Y           Z
 ---------------------------------------------------------------------
    1         14             0        0.000000    0.000000    1.154030
    2         14             0        0.000000    0.000000   -1.154030
 ---------------------------------------------------------------------
 Rotational constants (GHZ):      0.0000000      6.7819267      6.7819267
 Standard basis: 6-311+G(d) (5D, 7F)
 There are    15 symmetry adapted basis functions of AG  symmetry.
 There are     1 symmetry adapted basis functions of B1G symmetry.
 There are     7 symmetry adapted basis functions of B2G symmetry.
 There are     7 symmetry adapted basis functions of B3G symmetry.
 There are     1 symmetry adapted basis functions of AU  symmetry.
 There are    15 symmetry adapted basis functions of B1U symmetry.
 There are     7 symmetry adapted basis functions of B2U symmetry.
 There are     7 symmetry adapted basis functions of B3U symmetry.
 Integral buffers will be    131072 words long.
 Raffenetti 2 integral format.
 Two-electron integral symmetry is turned on.
    60 basis functions,   100 primitive gaussians,    62 cartesian basis functions
    15 alpha electrons       12 beta electrons
       nuclear repulsion energy        44.9376303789 Hartrees.
 NAtoms=    2 NActive=    2 NUniq=    1 SFac= 3.00D+00 NAtFMM=   80 NAOKFM=F Big=F
 One-electron integrals computed using PRISM.
 NBasis=    60 RedAO= T  NBF=    15     1     7     7     1    15     7     7
 NBsUse=    60 1.00D-06 NBFU=    15     1     7     7     1    15     7     7
 Initial guess read from the read-write file:
 Initial guess orbital symmetries:
 Alpha Orbitals:
       Occupied  (SGU) (SGG) (SGG) (SGU) (PIU) (PIU) (PIG) (PIG)
                 (SGG) (SGU) (SGG) (SGU) (SGG) (PIU) (PIU)
       Virtual   (PIG) (PIG) (SGU) (SGG) (PIU) (PIU) (SGU) (SGG)
                 (PIG) (PIG) (SGU) (SGG) (PIU) (PIU) (SGU) (PIG)
                 (PIG) (SGG) (PIU) (PIU) (DLTG) (DLTG) (SGU) (DLTU)
                 (DLTU) (SGG) (PIG) (PIG) (SGU) (PIU) (PIU) (PIG)
                 (PIG) (SGU) (SGG) (SGG) (SGU) (PIU) (PIU) (PIG)
                 (PIG) (SGU) (SGG) (SGG) (SGU)
 Beta  Orbitals:
       Occupied  (SGU) (SGG) (SGG) (SGU) (PIU) (PIU) (PIG) (PIG)
                 (SGG) (SGU) (SGG) (SGU)
       Virtual   (SGG) (PIU) (PIU) (PIG) (PIG) (SGU) (SGG) (PIU)
                 (PIU) (SGG) (SGU) (PIG) (PIG) (SGU) (SGG) (PIU)
                 (PIU) (SGU) (PIG) (PIG) (SGG) (PIU) (PIU) (SGU)
                 (DLTG) (DLTG) (DLTU) (DLTU) (SGG) (PIG) (PIG)
                 (SGU) (PIU) (PIU) (PIG) (PIG) (SGU) (SGG) (SGG)
                 (SGU) (PIU) (PIU) (PIG) (PIG) (SGU) (SGG) (SGG)
                 (SGU)
 <S**2> of initial guess= 3.7510
 Harris functional with IExCor=  402 diagonalized for initial guess.
 ExpMin= 3.31D-02 ExpMax= 6.94D+04 ExpMxC= 2.33D+03 IAcc=3 IRadAn=         5 AccDes= 0.00D+00
 HarFok:  IExCor= 402 AccDes= 0.00D+00 IRadAn=         5 IDoV=1
 ScaDFX=  1.000000  1.000000  1.000000  1.000000
 Requested convergence on RMS density matrix=1.00D-08 within 128 cycles.
 Requested convergence on MAX density matrix=1.00D-06.
 Requested convergence on             energy=1.00D-06.
 No special actions if energy rises.
 Keep R1 and R2 integrals in memory in canonical form, NReq=     5564119.
 SCF Done:  E(UB+HF-LYP) =  -578.609938563     A.U. after    9 cycles
             Convg  =    0.1111D-08             -V/T =  2.0016
             S**2   =   3.7510
 Annihilation of the first spin contaminant:
 S**2 before annihilation     3.7510,   after     3.7500
 QCSCF skips out because SCF is already converged.
 ***** Axes restored to original set *****
 -------------------------------------------------------------------
 Center     Atomic                   Forces (Hartrees/Bohr)
 Number     Number              X              Y              Z
 -------------------------------------------------------------------
    1         14           0.000000000   -0.001020155    0.000000000
    2         14           0.000000000    0.001020155    0.000000000
 -------------------------------------------------------------------
 Cartesian Forces:  Max     0.001020155 RMS     0.000588987

 GradGradGradGradGradGradGradGradGradGradGradGradGradGradGradGradGradGrad
 Berny optimization.
 Internal  Forces:  Max     0.001020155 RMS     0.001020155
 Search for a local minimum.
 Step number   3 out of a maximum of 100
 All quantities printed in internal units (Hartrees-Bohrs-Radians)
 Update second derivatives using D2CorX and points  2  3
 Trust test= 2.95D+00 RLast= 1.88D-01 DXMaxT set to 5.65D-01
 The second derivative matrix:
                          R1
           R1           0.12058
     Eigenvalues ---    0.12058
 RFO step:  Lambda= 0.00000000D+00.
 Quartic linear search produced a step of -0.05518.
 Iteration  1 RMS(Cart)=  0.00735299 RMS(Int)=  0.00000000
 Iteration  2 RMS(Cart)=  0.00000000 RMS(Int)=  0.00000000
 Variable       Old X    -DE/DX   Delta X   Delta X   Delta X     New X
                                 (Linear)    (Quad)   (Total)
    R1        4.36160  -0.00102  -0.01040   0.00000  -0.01040   4.35120
         Item               Value     Threshold  Converged?
 Maximum Force            0.001020     0.000450     NO 
 RMS     Force            0.001020     0.000300     NO 
 Maximum Displacement     0.005199     0.001800     NO 
 RMS     Displacement     0.007353     0.001200     NO 
 Predicted change in Energy=-4.088865D-06
 GradGradGradGradGradGradGradGradGradGradGradGradGradGradGradGradGradGrad

                          Input orientation:                          
 ---------------------------------------------------------------------
 Center     Atomic     Atomic              Coordinates (Angstroms)
 Number     Number      Type              X           Y           Z
 ---------------------------------------------------------------------
    1         14             0        0.000000    1.151278   -0.249839
    2         14             0        0.000000   -1.151278   -0.249839
 ---------------------------------------------------------------------
 Stoichiometry    Si2(1+,4)
 Framework group  D*H[C*(Si.Si)]
 Deg. of freedom     1
 Full point group                 D*H
 Largest Abelian subgroup         D2H     NOp   8
 Largest concise Abelian subgroup C2      NOp   2
                         Standard orientation:                         
 ---------------------------------------------------------------------
 Center     Atomic     Atomic              Coordinates (Angstroms)
 Number     Number      Type              X           Y           Z
 ---------------------------------------------------------------------
    1         14             0        0.000000    0.000000    1.151278
    2         14             0        0.000000    0.000000   -1.151278
 ---------------------------------------------------------------------
 Rotational constants (GHZ):      0.0000000      6.8143809      6.8143809
 Standard basis: 6-311+G(d) (5D, 7F)
 There are    15 symmetry adapted basis functions of AG  symmetry.
 There are     1 symmetry adapted basis functions of B1G symmetry.
 There are     7 symmetry adapted basis functions of B2G symmetry.
 There are     7 symmetry adapted basis functions of B3G symmetry.
 There are     1 symmetry adapted basis functions of AU  symmetry.
 There are    15 symmetry adapted basis functions of B1U symmetry.
 There are     7 symmetry adapted basis functions of B2U symmetry.
 There are     7 symmetry adapted basis functions of B3U symmetry.
 Integral buffers will be    131072 words long.
 Raffenetti 2 integral format.
 Two-electron integral symmetry is turned on.
    60 basis functions,   100 primitive gaussians,    62 cartesian basis functions
    15 alpha electrons       12 beta electrons
       nuclear repulsion energy        45.0450242807 Hartrees.
 NAtoms=    2 NActive=    2 NUniq=    1 SFac= 3.00D+00 NAtFMM=   80 NAOKFM=F Big=F
 One-electron integrals computed using PRISM.
 NBasis=    60 RedAO= T  NBF=    15     1     7     7     1    15     7     7
 NBsUse=    60 1.00D-06 NBFU=    15     1     7     7     1    15     7     7
 Initial guess read from the read-write file:
 Initial guess orbital symmetries:
 Alpha Orbitals:
       Occupied  (SGU) (SGG) (SGG) (SGU) (PIU) (PIU) (PIG) (PIG)
                 (SGG) (SGU) (SGG) (SGU) (SGG) (PIU) (PIU)
       Virtual   (PIG) (PIG) (SGU) (SGG) (PIU) (PIU) (SGU) (SGG)
                 (PIG) (PIG) (SGU) (SGG) (PIU) (PIU) (SGU) (PIG)
                 (PIG) (SGG) (PIU) (PIU) (DLTG) (DLTG) (SGU) (DLTU)
                 (DLTU) (SGG) (PIG) (PIG) (SGU) (PIU) (PIU) (PIG)
                 (PIG) (SGU) (SGG) (SGG) (SGU) (PIU) (PIU) (SGU)
                 (PIG) (PIG) (SGG) (SGG) (SGU)
 Beta  Orbitals:
       Occupied  (SGU) (SGG) (SGG) (SGU) (PIU) (PIU) (PIG) (PIG)
                 (SGG) (SGU) (SGG) (SGU)
       Virtual   (SGG) (PIU) (PIU) (PIG) (PIG) (SGU) (SGG) (PIU)
                 (PIU) (SGG) (SGU) (PIG) (PIG) (SGU) (SGG) (PIU)
                 (PIU) (SGU) (PIG) (PIG) (SGG) (PIU) (PIU) (SGU)
                 (DLTG) (DLTG) (DLTU) (DLTU) (SGG) (PIG) (PIG)
                 (SGU) (PIU) (PIU) (PIG) (PIG) (SGU) (SGG) (SGG)
                 (SGU) (PIU) (PIU) (SGU) (PIG) (PIG) (SGG) (SGG)
                 (SGU)
 <S**2> of initial guess= 3.7510
 Requested convergence on RMS density matrix=1.00D-08 within 128 cycles.
 Requested convergence on MAX density matrix=1.00D-06.
 Requested convergence on             energy=1.00D-06.
 No special actions if energy rises.
 Keep R1 and R2 integrals in memory in canonical form, NReq=     5564119.
 SCF Done:  E(UB+HF-LYP) =  -578.609943856     A.U. after    7 cycles
             Convg  =    0.5233D-08             -V/T =  2.0016
             S**2   =   3.7510
 Annihilation of the first spin contaminant:
 S**2 before annihilation     3.7510,   after     3.7500
 QCSCF skips out because SCF is already converged.
 ***** Axes restored to original set *****
 -------------------------------------------------------------------
 Center     Atomic                   Forces (Hartrees/Bohr)
 Number     Number              X              Y              Z
 -------------------------------------------------------------------
    1         14           0.000000000    0.000006107    0.000000000
    2         14           0.000000000   -0.000006107    0.000000000
 -------------------------------------------------------------------
 Cartesian Forces:  Max     0.000006107 RMS     0.000003526

 GradGradGradGradGradGradGradGradGradGradGradGradGradGradGradGradGradGrad
 Berny optimization.
 Internal  Forces:  Max     0.000006107 RMS     0.000006107
 Search for a local minimum.
 Step number   4 out of a maximum of 100
 All quantities printed in internal units (Hartrees-Bohrs-Radians)
 Update second derivatives using D2CorX and points  3  4
 Trust test= 1.29D+00 RLast= 1.04D-02 DXMaxT set to 5.65D-01
 The second derivative matrix:
                          R1
           R1           0.09869
     Eigenvalues ---    0.09869
 RFO step:  Lambda= 0.00000000D+00.
 Quartic linear search produced a step of -0.00588.
 Iteration  1 RMS(Cart)=  0.00004326 RMS(Int)=  0.00000000
 Iteration  2 RMS(Cart)=  0.00000000 RMS(Int)=  0.00000000
 Variable       Old X    -DE/DX   Delta X   Delta X   Delta X     New X
                                 (Linear)    (Quad)   (Total)
    R1        4.35120   0.00001   0.00006   0.00000   0.00006   4.35126
         Item               Value     Threshold  Converged?
 Maximum Force            0.000006     0.000450     YES
 RMS     Force            0.000006     0.000300     YES
 Maximum Displacement     0.000031     0.001800     YES
 RMS     Displacement     0.000043     0.001200     YES
 Predicted change in Energy=-1.889144D-10
 Optimization completed.
    -- Stationary point found.
                           ----------------------------
                           !   Optimized Parameters   !
                           ! (Angstroms and Degrees)  !
 --------------------------                            --------------------------
 ! Name  Definition              Value          Derivative Info.                !
 --------------------------------------------------------------------------------
 ! R1    R(1,2)                  2.3026         -DE/DX =    0.0                 !
 --------------------------------------------------------------------------------
 GradGradGradGradGradGradGradGradGradGradGradGradGradGradGradGradGradGrad

                          Input orientation:                          
 ---------------------------------------------------------------------
 Center     Atomic     Atomic              Coordinates (Angstroms)
 Number     Number      Type              X           Y           Z
 ---------------------------------------------------------------------
    1         14             0        0.000000    1.151278   -0.249839
    2         14             0        0.000000   -1.151278   -0.249839
 ---------------------------------------------------------------------
 Stoichiometry    Si2(1+,4)
 Framework group  D*H[C*(Si.Si)]
 Deg. of freedom     1
 Full point group                 D*H
 Largest Abelian subgroup         D2H     NOp   8
 Largest concise Abelian subgroup C2      NOp   2
                         Standard orientation:                         
 ---------------------------------------------------------------------
 Center     Atomic     Atomic              Coordinates (Angstroms)
 Number     Number      Type              X           Y           Z
 ---------------------------------------------------------------------
    1         14             0        0.000000    0.000000    1.151278
    2         14             0        0.000000    0.000000   -1.151278
 ---------------------------------------------------------------------
 Rotational constants (GHZ):      0.0000000      6.8143809      6.8143809

 **********************************************************************

            Population analysis using the SCF density.

 **********************************************************************

 Orbital symmetries:
 Alpha Orbitals:
       Occupied  (SGU) (SGG) (SGG) (SGU) (PIU) (PIU) (PIG) (PIG)
                 (SGG) (SGU) (SGG) (SGU) (SGG) (PIU) (PIU)
       Virtual   (PIG) (PIG) (SGU) (SGG) (PIU) (PIU) (SGU) (SGG)
                 (PIG) (PIG) (SGU) (SGG) (PIU) (PIU) (SGU) (PIG)
                 (PIG) (SGG) (PIU) (PIU) (DLTG) (DLTG) (SGU) (DLTU)
                 (DLTU) (SGG) (PIG) (PIG) (SGU) (PIU) (PIU) (PIG)
                 (PIG) (SGU) (SGG) (SGG) (SGU) (PIU) (PIU) (SGU)
                 (PIG) (PIG) (SGG) (SGG) (SGU)
 Beta  Orbitals:
       Occupied  (SGU) (SGG) (SGG) (SGU) (PIU) (PIU) (PIG) (PIG)
                 (SGG) (SGU) (SGG) (SGU)
       Virtual   (SGG) (PIU) (PIU) (PIG) (PIG) (SGU) (SGG) (PIU)
                 (PIU) (SGG) (SGU) (PIG) (PIG) (SGU) (SGG) (PIU)
                 (PIU) (SGU) (PIG) (PIG) (SGG) (PIU) (PIU) (SGU)
                 (DLTG) (DLTG) (DLTU) (DLTU) (SGG) (PIG) (PIG)
                 (SGU) (PIU) (PIU) (PIG) (PIG) (SGU) (SGG) (SGG)
                 (SGU) (PIU) (PIU) (SGU) (PIG) (PIG) (SGG) (SGG)
                 (SGU)
 The electronic state is 4-SGG.
 Alpha  occ. eigenvalues --  -66.40065 -66.40065  -5.56554  -5.56548  -3.92493
 Alpha  occ. eigenvalues --   -3.92493  -3.92486  -3.92486  -3.92409  -3.92333
 Alpha  occ. eigenvalues --   -0.79437  -0.63525  -0.47962  -0.46065  -0.46065
 Alpha virt. eigenvalues --   -0.31989  -0.31989  -0.19471  -0.15276  -0.09413
 Alpha virt. eigenvalues --   -0.09413  -0.09035  -0.08731  -0.05581  -0.05581
 Alpha virt. eigenvalues --   -0.01879   0.05428   0.10174   0.10174   0.11508
 Alpha virt. eigenvalues --    0.12918   0.12918   0.18981   0.20323   0.20323
 Alpha virt. eigenvalues --    0.29125   0.29126   0.29563   0.33729   0.33729
 Alpha virt. eigenvalues --    0.34677   0.46737   0.46737   0.71743   0.95585
 Alpha virt. eigenvalues --    0.95585   0.99992   0.99992   1.03605   1.07042
 Alpha virt. eigenvalues --    4.92387   5.13689  10.99359  10.99359  10.99983
 Alpha virt. eigenvalues --   11.01214  11.01214  11.08802 140.31554 140.55317
  Beta  occ. eigenvalues --  -66.39468 -66.39467  -5.55949  -5.55948  -3.91628
  Beta  occ. eigenvalues --   -3.91628  -3.91622  -3.91622  -3.91429  -3.91358
  Beta  occ. eigenvalues --   -0.72695  -0.57258
  Beta virt. eigenvalues --   -0.37577  -0.36434  -0.36434  -0.26798  -0.26798
  Beta virt. eigenvalues --   -0.15685  -0.14119  -0.08830  -0.08830  -0.07985
  Beta virt. eigenvalues --   -0.07902  -0.05162  -0.05162  -0.01490   0.07297
  Beta virt. eigenvalues --    0.11521   0.11521   0.13231   0.14214   0.14214
  Beta virt. eigenvalues --    0.21228   0.25975   0.25975   0.31562   0.34275
  Beta virt. eigenvalues --    0.34275   0.38553   0.38554   0.38649   0.51394
  Beta virt. eigenvalues --    0.51394   0.75255   0.97942   0.97942   1.02292
  Beta virt. eigenvalues --    1.02292   1.06544   1.09796   4.93816   5.15188
  Beta virt. eigenvalues --   11.00557  11.00557  11.01318  11.02408  11.02408
  Beta virt. eigenvalues --   11.10140 140.32129 140.55894
          Condensed to atoms (all electrons):
              1          2
     1  Si  13.202146   0.297854
     2  Si   0.297854  13.202146
 Mulliken atomic charges:
              1
     1  Si   0.500000
     2  Si   0.500000
 Sum of Mulliken charges=   1.00000
 Atomic charges with hydrogens summed into heavy atoms:
              1
     1  Si   0.500000
     2  Si   0.500000
 Sum of Mulliken charges=   1.00000
          Atomic-Atomic Spin Densities.
              1          2
     1  Si   1.215780   0.284220
     2  Si   0.284220   1.215780
 Mulliken atomic spin densities:
              1
     1  Si   1.500000
     2  Si   1.500000
 Sum of Mulliken spin densities=   3.00000
 Electronic spatial extent (au):  <R**2>=   174.0700
 Charge=     1.0000 electrons
 Dipole moment (field-independent basis, Debye):
    X=     0.0000    Y=     0.0000    Z=     0.0000  Tot=     0.0000
 Quadrupole moment (field-independent basis, Debye-Ang):
   XX=   -21.2888   YY=   -21.2888   ZZ=   -13.2940
   XY=     0.0000   XZ=     0.0000   YZ=     0.0000
 Traceless Quadrupole moment (field-independent basis, Debye-Ang):
   XX=    -2.6649   YY=    -2.6649   ZZ=     5.3299
   XY=     0.0000   XZ=     0.0000   YZ=     0.0000
 Octapole moment (field-independent basis, Debye-Ang**2):
  XXX=     0.0000  YYY=     0.0000  ZZZ=     0.0000  XYY=     0.0000
  XXY=     0.0000  XXZ=     0.0000  XZZ=     0.0000  YZZ=     0.0000
  YYZ=     0.0000  XYZ=     0.0000
 Hexadecapole moment (field-independent basis, Debye-Ang**3):
 XXXX=   -33.5300 YYYY=   -33.5300 ZZZZ=  -190.1853 XXXY=     0.0000
 XXXZ=     0.0000 YYYX=     0.0000 YYYZ=     0.0000 ZZZX=     0.0000
 ZZZY=     0.0000 XXYY=   -11.1767 XXZZ=   -38.3934 YYZZ=   -38.3934
 XXYZ=     0.0000 YYXZ=     0.0000 ZZXY=     0.0000
 N-N= 4.504502428066D+01 E-N=-1.462153625613D+03  KE= 5.776622680296D+02
 Symmetry AG   KE= 2.393116613738D+02
 Symmetry B1G  KE= 6.164355843940D-36
 Symmetry B2G  KE= 2.445213024523D+01
 Symmetry B3G  KE= 2.445213024523D+01
 Symmetry AU   KE= 5.160801952255D-35
 Symmetry B1U  KE= 2.383994973072D+02
 Symmetry B2U  KE= 2.552342442909D+01
 Symmetry B3U  KE= 2.552342442910D+01
                          Isotropic Fermi Contact Couplings
        Atom                 a.u.       MegaHertz       Gauss      10(-4) cm-1
     1  Si(29)             0.07091     -21.00640      -7.49560      -7.00698
     2  Si(29)             0.07091     -21.00640      -7.49560      -7.00698
 --------------------------------------------------------
       Center         ----  Spin Dipole Couplings  ----
                      3XX-RR        3YY-RR        3ZZ-RR
 --------------------------------------------------------
     1   Atom       -0.131102     -0.131102      0.262203
     2   Atom       -0.131102     -0.131102      0.262203
 --------------------------------------------------------
                        XY            XZ            YZ
 --------------------------------------------------------
     1   Atom        0.000000      0.000000      0.000000
     2   Atom        0.000000      0.000000      0.000000
 --------------------------------------------------------


 ---------------------------------------------------------------------------------
              Anisotropic Spin Dipole Couplings in Principal Axis System
 ---------------------------------------------------------------------------------

       Atom             a.u.   MegaHertz   Gauss  10(-4) cm-1        Axes

              Baa    -0.1311    13.908     4.963     4.639  0.0000  1.0000  0.0000
     1 Si(29) Bbb    -0.1311    13.908     4.963     4.639  1.0000  0.0000  0.0000
              Bcc     0.2622   -27.816    -9.925    -9.278  0.0000  0.0000  1.0000
 
              Baa    -0.1311    13.908     4.963     4.639  0.0000  1.0000  0.0000
     2 Si(29) Bbb    -0.1311    13.908     4.963     4.639  1.0000  0.0000  0.0000
              Bcc     0.2622   -27.816    -9.925    -9.278  0.0000  0.0000  1.0000
 

 ---------------------------------------------------------------------------------

 1\1\GINC-NODE39\FOpt\UB3LYP\6-311+G(d)\Si2(1+,4)\TAM\17-Jun-2011\0\\# 
 b3lyp/6-311+G(d) opt=(readfc,noeigentest,maxcycle=500) freq scfcyc=500
  optcyc=500 scf=xqc geom=allcheck guess=read\\si2-n\\1,4\Si,0.,1.15127
 84651,-0.249839\Si,0.,-1.1512784651,-0.249839\\Version=AM64L-G03RevE.0
 1\State=4-SGG\HF=-578.6099439\S2=3.750999\S2-1=0.\S2A=3.75\RMSD=5.233e
 -09\RMSF=3.526e-06\Thermal=0.\Dipole=0.,0.,0.\PG=D*H [C*(Si1.Si1)]\\@


 In the beginning the Universe was created.
 This has made a lot of people very angry
 and been widely regarded as a bad move.
                               -D.Adams
 Job cpu time:  0 days  0 hours  1 minutes 53.9 seconds.
 File lengths (MBytes):  RWF=     17 Int=      0 D2E=      0 Chk=      6 Scr=      1
 Normal termination of Gaussian 03 at Fri Jun 17 15:56:39 2011.
 Link1:  Proceeding to internal job step number  2.
 --------------------------------------------------------------------
 #N Geom=AllCheck Guess=Read SCRF=Check GenChk UB3LYP/6-311+G(d) Freq
 --------------------------------------------------------------------
 1/6=500,10=4,11=1,29=7,30=1,38=1,40=1,46=1/1,3;
 2/40=1/2;
 3/5=4,6=6,7=11,11=2,16=1,25=1,30=1,70=2,71=2,74=-5/1,2,3;
 4/5=1,7=2/1;
 5/5=2,7=500,8=3,13=1,38=6/2,8;
 8/6=4,10=90,11=11/1;
 11/6=1,8=1,9=11,15=111,16=1/1,2,10;
 10/6=1/2;
 6/7=2,8=2,9=2,10=2,18=1,28=1/1;
 7/8=1,10=1,25=1/1,2,3,16;
 1/6=500,10=4,11=1,30=1,46=1/3;
 99//99;
 -----
 si2-n
 -----
 Redundant internal coordinates taken from checkpoint file:
 S9L-ne-d-01.chk
 Charge =  1 Multiplicity = 4
 Si,0,0.,1.1512784651,-0.249839
 Si,0,0.,-1.1512784651,-0.249839
 Recover connectivity data from disk.

 GradGradGradGradGradGradGradGradGradGradGradGradGradGradGradGradGradGrad
 Berny optimization.
 Initialization pass.
                           ----------------------------
                           !    Initial Parameters    !
                           ! (Angstroms and Degrees)  !
 --------------------------                            --------------------------
 ! Name  Definition              Value          Derivative Info.                !
 --------------------------------------------------------------------------------
 ! R1    R(1,2)                  2.3026         calculate D2E/DX2 analytically  !
 --------------------------------------------------------------------------------
 Trust Radius=3.00D-01 FncErr=1.00D-07 GrdErr=1.00D-07
 Number of steps in this run=   2 maximum allowed number of steps=   2.
 GradGradGradGradGradGradGradGradGradGradGradGradGradGradGradGradGradGrad

                          Input orientation:                          
 ---------------------------------------------------------------------
 Center     Atomic     Atomic              Coordinates (Angstroms)
 Number     Number      Type              X           Y           Z
 ---------------------------------------------------------------------
    1         14             0        0.000000    1.151278   -0.249839
    2         14             0        0.000000   -1.151278   -0.249839
 ---------------------------------------------------------------------
 Stoichiometry    Si2(1+,4)
 Framework group  D*H[C*(Si.Si)]
 Deg. of freedom     1
 Full point group                 D*H
 Largest Abelian subgroup         D2H     NOp   8
 Largest concise Abelian subgroup C2      NOp   2
                         Standard orientation:                         
 ---------------------------------------------------------------------
 Center     Atomic     Atomic              Coordinates (Angstroms)
 Number     Number      Type              X           Y           Z
 ---------------------------------------------------------------------
    1         14             0        0.000000    0.000000    1.151278
    2         14             0        0.000000    0.000000   -1.151278
 ---------------------------------------------------------------------
 Rotational constants (GHZ):      0.0000000      6.8143809      6.8143809
 Standard basis: 6-311+G(d) (5D, 7F)
 There are    15 symmetry adapted basis functions of AG  symmetry.
 There are     1 symmetry adapted basis functions of B1G symmetry.
 There are     7 symmetry adapted basis functions of B2G symmetry.
 There are     7 symmetry adapted basis functions of B3G symmetry.
 There are     1 symmetry adapted basis functions of AU  symmetry.
 There are    15 symmetry adapted basis functions of B1U symmetry.
 There are     7 symmetry adapted basis functions of B2U symmetry.
 There are     7 symmetry adapted basis functions of B3U symmetry.
 Integral buffers will be    131072 words long.
 Raffenetti 2 integral format.
 Two-electron integral symmetry is turned on.
    60 basis functions,   100 primitive gaussians,    62 cartesian basis functions
    15 alpha electrons       12 beta electrons
       nuclear repulsion energy        45.0450242807 Hartrees.
 NAtoms=    2 NActive=    2 NUniq=    1 SFac= 3.00D+00 NAtFMM=   80 NAOKFM=F Big=F
 One-electron integrals computed using PRISM.
 NBasis=    60 RedAO= T  NBF=    15     1     7     7     1    15     7     7
 NBsUse=    60 1.00D-06 NBFU=    15     1     7     7     1    15     7     7
 Initial guess read from the checkpoint file:
 S9L-ne-d-01.chk
 Initial guess orbital symmetries:
 Alpha Orbitals:
       Occupied  (SGU) (SGG) (SGG) (SGU) (PIU) (PIU) (PIG) (PIG)
                 (SGG) (SGU) (SGG) (SGU) (SGG) (PIU) (PIU)
       Virtual   (PIG) (PIG) (SGU) (SGG) (PIU) (PIU) (SGU) (SGG)
                 (PIG) (PIG) (SGU) (SGG) (PIU) (PIU) (SGU) (PIG)
                 (PIG) (SGG) (PIU) (PIU) (DLTG) (DLTG) (SGU) (DLTU)
                 (DLTU) (SGG) (PIG) (PIG) (SGU) (PIU) (PIU) (PIG)
                 (PIG) (SGU) (SGG) (SGG) (SGU) (PIU) (PIU) (SGU)
                 (PIG) (PIG) (SGG) (SGG) (SGU)
 Beta  Orbitals:
       Occupied  (SGU) (SGG) (SGG) (SGU) (PIU) (PIU) (PIG) (PIG)
                 (SGG) (SGU) (SGG) (SGU)
       Virtual   (SGG) (PIU) (PIU) (PIG) (PIG) (SGU) (SGG) (PIU)
                 (PIU) (SGG) (SGU) (PIG) (PIG) (SGU) (SGG) (PIU)
                 (PIU) (SGU) (PIG) (PIG) (SGG) (PIU) (PIU) (SGU)
                 (DLTG) (DLTG) (DLTU) (DLTU) (SGG) (PIG) (PIG)
                 (SGU) (PIU) (PIU) (PIG) (PIG) (SGU) (SGG) (SGG)
                 (SGU) (PIU) (PIU) (SGU) (PIG) (PIG) (SGG) (SGG)
                 (SGU)
 <S**2> of initial guess= 3.7510
 Requested convergence on RMS density matrix=1.00D-08 within 128 cycles.
 Requested convergence on MAX density matrix=1.00D-06.
 Requested convergence on             energy=1.00D-06.
 No special actions if energy rises.
 Keep R1 and R2 integrals in memory in canonical form, NReq=     5564119.
 SCF Done:  E(UB+HF-LYP) =  -578.609943856     A.U. after    1 cycles
             Convg  =    0.5095D-09             -V/T =  2.0016
             S**2   =   3.7510
 Annihilation of the first spin contaminant:
 S**2 before annihilation     3.7510,   after     3.7500
 QCSCF skips out because SCF is already converged.
 Range of M.O.s used for correlation:     1    60
 NBasis=    60 NAE=    15 NBE=    12 NFC=     0 NFV=     0
 NROrb=     60 NOA=    15 NOB=    12 NVA=    45 NVB=    48

 **** Warning!!: The largest alpha MO coefficient is  0.12178631D+02


 **** Warning!!: The largest beta MO coefficient is  0.12141756D+02

 Symmetrizing basis deriv contribution to polar:
 IMax=3 JMax=2 DiffMx= 0.00D+00
 G2DrvN: will do    3 centers at a time, making    1 passes doing MaxLOS=2.
 FoFDir/FoFCou used for L=0 through L=2.
 DoAtom=TT
          Differentiating once with respect to electric field.
                with respect to dipole field.
          Differentiating once with respect to nuclear coordinates.
          Store integrals in memory, NReq=     4637654.
          There are   6 degrees of freedom in the 1st order CPHF.
     6 vectors were produced by pass  0.
 AX will form   6 AO Fock derivatives at one time.
     6 vectors were produced by pass  1.
     6 vectors were produced by pass  2.
     6 vectors were produced by pass  3.
     6 vectors were produced by pass  4.
     6 vectors were produced by pass  5.
     6 vectors were produced by pass  6.
     4 vectors were produced by pass  7.
     2 vectors were produced by pass  8.
     1 vectors were produced by pass  9.
     1 vectors were produced by pass 10.
 Inv2:  IOpt= 1 Iter= 1 AM= 1.06D-15 Conv= 1.00D-12.
 Inverted reduced A of dimension   50 with in-core refinement.
 Isotropic polarizability for W=    0.000000       49.10 Bohr**3.
 End of Minotr Frequency-dependent properties file   721 does not exist.

 **********************************************************************

            Population analysis using the SCF density.

 **********************************************************************

 Orbital symmetries:
 Alpha Orbitals:
       Occupied  (SGU) (SGG) (SGG) (SGU) (PIU) (PIU) (PIG) (PIG)
                 (SGG) (SGU) (SGG) (SGU) (SGG) (PIU) (PIU)
       Virtual   (PIG) (PIG) (SGU) (SGG) (PIU) (PIU) (SGU) (SGG)
                 (PIG) (PIG) (SGU) (SGG) (PIU) (PIU) (SGU) (PIG)
                 (PIG) (SGG) (PIU) (PIU) (DLTG) (DLTG) (SGU) (DLTU)
                 (DLTU) (SGG) (PIG) (PIG) (SGU) (PIU) (PIU) (PIG)
                 (PIG) (SGU) (SGG) (SGG) (SGU) (PIU) (PIU) (SGU)
                 (PIG) (PIG) (SGG) (SGG) (SGU)
 Beta  Orbitals:
       Occupied  (SGU) (SGG) (SGG) (SGU) (PIU) (PIU) (PIG) (PIG)
                 (SGG) (SGU) (SGG) (SGU)
       Virtual   (SGG) (PIU) (PIU) (PIG) (PIG) (SGU) (SGG) (PIU)
                 (PIU) (SGG) (SGU) (PIG) (PIG) (SGU) (SGG) (PIU)
                 (PIU) (SGU) (PIG) (PIG) (SGG) (PIU) (PIU) (SGU)
                 (DLTG) (DLTG) (DLTU) (DLTU) (SGG) (PIG) (PIG)
                 (SGU) (PIU) (PIU) (PIG) (PIG) (SGU) (SGG) (SGG)
                 (SGU) (PIU) (PIU) (SGU) (PIG) (PIG) (SGG) (SGG)
                 (SGU)
 The electronic state is 4-SGG.
 Alpha  occ. eigenvalues --  -66.40065 -66.40065  -5.56554  -5.56548  -3.92493
 Alpha  occ. eigenvalues --   -3.92493  -3.92486  -3.92486  -3.92409  -3.92333
 Alpha  occ. eigenvalues --   -0.79437  -0.63525  -0.47962  -0.46065  -0.46065
 Alpha virt. eigenvalues --   -0.31989  -0.31989  -0.19471  -0.15276  -0.09413
 Alpha virt. eigenvalues --   -0.09413  -0.09035  -0.08731  -0.05581  -0.05581
 Alpha virt. eigenvalues --   -0.01879   0.05428   0.10174   0.10174   0.11508
 Alpha virt. eigenvalues --    0.12918   0.12918   0.18981   0.20323   0.20323
 Alpha virt. eigenvalues --    0.29125   0.29126   0.29563   0.33729   0.33729
 Alpha virt. eigenvalues --    0.34677   0.46737   0.46737   0.71743   0.95585
 Alpha virt. eigenvalues --    0.95585   0.99992   0.99992   1.03605   1.07042
 Alpha virt. eigenvalues --    4.92387   5.13689  10.99359  10.99359  10.99983
 Alpha virt. eigenvalues --   11.01214  11.01214  11.08802 140.31554 140.55317
  Beta  occ. eigenvalues --  -66.39468 -66.39467  -5.55949  -5.55948  -3.91628
  Beta  occ. eigenvalues --   -3.91628  -3.91622  -3.91622  -3.91429  -3.91358
  Beta  occ. eigenvalues --   -0.72695  -0.57258
  Beta virt. eigenvalues --   -0.37577  -0.36434  -0.36434  -0.26798  -0.26798
  Beta virt. eigenvalues --   -0.15685  -0.14119  -0.08830  -0.08830  -0.07985
  Beta virt. eigenvalues --   -0.07902  -0.05162  -0.05162  -0.01490   0.07297
  Beta virt. eigenvalues --    0.11521   0.11521   0.13231   0.14214   0.14214
  Beta virt. eigenvalues --    0.21228   0.25975   0.25975   0.31562   0.34275
  Beta virt. eigenvalues --    0.34275   0.38553   0.38554   0.38649   0.51394
  Beta virt. eigenvalues --    0.51394   0.75255   0.97942   0.97942   1.02292
  Beta virt. eigenvalues --    1.02292   1.06544   1.09796   4.93816   5.15188
  Beta virt. eigenvalues --   11.00557  11.00557  11.01318  11.02408  11.02408
  Beta virt. eigenvalues --   11.10140 140.32129 140.55894
          Condensed to atoms (all electrons):
              1          2
     1  Si  13.202146   0.297854
     2  Si   0.297854  13.202146
 Mulliken atomic charges:
              1
     1  Si   0.500000
     2  Si   0.500000
 Sum of Mulliken charges=   1.00000
 Atomic charges with hydrogens summed into heavy atoms:
              1
     1  Si   0.500000
     2  Si   0.500000
 Sum of Mulliken charges=   1.00000
          Atomic-Atomic Spin Densities.
              1          2
     1  Si   1.215780   0.284220
     2  Si   0.284220   1.215780
 Mulliken atomic spin densities:
              1
     1  Si   1.500000
     2  Si   1.500000
 Sum of Mulliken spin densities=   3.00000
 APT atomic charges:
              1
     1  Si   0.500000
     2  Si   0.500000
 Sum of APT charges=   1.00000
 APT Atomic charges with hydrogens summed into heavy atoms:
              1
     1  Si   0.500000
     2  Si   0.500000
 Sum of APT charges=   1.00000
 Electronic spatial extent (au):  <R**2>=   174.0700
 Charge=     1.0000 electrons
 Dipole moment (field-independent basis, Debye):
    X=     0.0000    Y=     0.0000    Z=     0.0000  Tot=     0.0000
 Quadrupole moment (field-independent basis, Debye-Ang):
   XX=   -21.2888   YY=   -21.2888   ZZ=   -13.2940
   XY=     0.0000   XZ=     0.0000   YZ=     0.0000
 Traceless Quadrupole moment (field-independent basis, Debye-Ang):
   XX=    -2.6649   YY=    -2.6649   ZZ=     5.3299
   XY=     0.0000   XZ=     0.0000   YZ=     0.0000
 Octapole moment (field-independent basis, Debye-Ang**2):
  XXX=     0.0000  YYY=     0.0000  ZZZ=     0.0000  XYY=     0.0000
  XXY=     0.0000  XXZ=     0.0000  XZZ=     0.0000  YZZ=     0.0000
  YYZ=     0.0000  XYZ=     0.0000
 Hexadecapole moment (field-independent basis, Debye-Ang**3):
 XXXX=   -33.5300 YYYY=   -33.5300 ZZZZ=  -190.1853 XXXY=     0.0000
 XXXZ=     0.0000 YYYX=     0.0000 YYYZ=     0.0000 ZZZX=     0.0000
 ZZZY=     0.0000 XXYY=   -11.1767 XXZZ=   -38.3934 YYZZ=   -38.3934
 XXYZ=     0.0000 YYXZ=     0.0000 ZZXY=     0.0000
 N-N= 4.504502428066D+01 E-N=-1.462153625544D+03  KE= 5.776622679737D+02
 Symmetry AG   KE= 2.393116613675D+02
 Symmetry B1G  KE= 6.164355843810D-36
 Symmetry B2G  KE= 2.445213023750D+01
 Symmetry B3G  KE= 2.445213023750D+01
 Symmetry AU   KE= 5.160802326761D-35
 Symmetry B1U  KE= 2.383994972965D+02
 Symmetry B2U  KE= 2.552342441735D+01
 Symmetry B3U  KE= 2.552342441735D+01
  Exact polarizability:  29.678   0.000  29.678   0.000   0.000  87.949
 Approx polarizability:  43.723   0.000  43.723   0.000   0.000 228.922
                          Isotropic Fermi Contact Couplings
        Atom                 a.u.       MegaHertz       Gauss      10(-4) cm-1
     1  Si(29)             0.07091     -21.00638      -7.49560      -7.00697
     2  Si(29)             0.07091     -21.00638      -7.49560      -7.00697
 --------------------------------------------------------
       Center         ----  Spin Dipole Couplings  ----
                      3XX-RR        3YY-RR        3ZZ-RR
 --------------------------------------------------------
     1   Atom       -0.131102     -0.131102      0.262203
     2   Atom       -0.131102     -0.131102      0.262203
 --------------------------------------------------------
                        XY            XZ            YZ
 --------------------------------------------------------
     1   Atom        0.000000      0.000000      0.000000
     2   Atom        0.000000      0.000000      0.000000
 --------------------------------------------------------


 ---------------------------------------------------------------------------------
              Anisotropic Spin Dipole Couplings in Principal Axis System
 ---------------------------------------------------------------------------------

       Atom             a.u.   MegaHertz   Gauss  10(-4) cm-1        Axes

              Baa    -0.1311    13.908     4.963     4.639 -0.0001  1.0000  0.0000
     1 Si(29) Bbb    -0.1311    13.908     4.963     4.639  1.0000  0.0001  0.0000
              Bcc     0.2622   -27.816    -9.925    -9.278  0.0000  0.0000  1.0000
 
              Baa    -0.1311    13.908     4.963     4.639 -0.0001  1.0000  0.0000
     2 Si(29) Bbb    -0.1311    13.908     4.963     4.639  1.0000  0.0001  0.0000
              Bcc     0.2622   -27.816    -9.925    -9.278  0.0000  0.0000  1.0000
 

 ---------------------------------------------------------------------------------

 Full mass-weighted force constant matrix:
 Low frequencies ---   -0.0022    0.0029    0.0029    8.5815    8.5815  434.2650
 Diagonal vibrational polarizability:
        0.0000000       0.0000000       0.0000000
 Harmonic frequencies (cm**-1), IR intensities (KM/Mole), Raman scattering
 activities (A**4/AMU), depolarization ratios for plane and unpolarized
 incident light, reduced masses (AMU), force constants (mDyne/A),
 and normal coordinates:
                     1
                    SGG
 Frequencies --   434.2650
 Red. masses --    27.9769
 Frc consts  --     3.1086
 IR Inten    --     0.0000
 Atom AN      X      Y      Z
   1  14     0.00   0.00   0.71
   2  14     0.00   0.00  -0.71

 -------------------
 - Thermochemistry -
 -------------------
 Temperature   298.150 Kelvin.  Pressure   1.00000 Atm.
 Atom  1 has atomic number 14 and mass  27.97693
 Atom  2 has atomic number 14 and mass  27.97693
 Molecular mass:    55.95386 amu.
 Principal axes and moments of inertia in atomic units:
                           1         2         3
     EIGENVALUES --     0.00000 264.84302 264.84302
           X            0.00000   1.00000   0.00000
           Y            0.00000   0.00000   1.00000
           Z            1.00000   0.00000   0.00000
 This molecule is a prolate symmetric top.
 Rotational symmetry number  2.
 Rotational temperature (Kelvin)      0.32704
 Rotational constant (GHZ):           6.814381
 Zero-point vibrational energy       2597.5 (Joules/Mol)
                                    0.62081 (Kcal/Mol)
 Warning -- explicit consideration of   1 degrees of freedom as
           vibrations may cause significant error
 Vibrational temperatures:    624.81
          (Kelvin)
 
 Zero-point correction=                           0.000989 (Hartree/Particle)
 Thermal correction to Energy=                    0.003627
 Thermal correction to Enthalpy=                  0.004571
 Thermal correction to Gibbs Free Energy=        -0.021912
 Sum of electronic and zero-point Energies=           -578.608955
 Sum of electronic and thermal Energies=              -578.606317
 Sum of electronic and thermal Enthalpies=            -578.605372
 Sum of electronic and thermal Free Energies=         -578.631856
 
                     E (Thermal)             CV                S
                      KCal/Mol        Cal/Mol-Kelvin    Cal/Mol-Kelvin
 Total                    2.276              6.364             55.740
 Electronic               0.000              0.000              2.755
 Translational            0.889              2.981             37.987
 Rotational               0.592              1.987             14.153
 Vibrational              0.795              1.396              0.845
 Vibration  1             0.795              1.396              0.845
                       Q            Log10(Q)             Ln(Q)
 Total Bot       0.119951D+11         10.079005         23.207767
 Total V=0       0.342030D+11         10.534064         24.255578
 Vib (Bot)       0.399888D+00         -0.398061         -0.916570
 Vib (Bot)  1    0.399888D+00         -0.398061         -0.916570
 Vib (V=0)       0.114024D+01          0.056997          0.131241
 Vib (V=0)  1    0.114024D+01          0.056997          0.131241
 Electronic      0.400000D+01          0.602060          1.386294
 Translational   0.164513D+08          7.216200         16.615915
 Rotational      0.455833D+03          2.658806          6.122127
 ***** Axes restored to original set *****
 -------------------------------------------------------------------
 Center     Atomic                   Forces (Hartrees/Bohr)
 Number     Number              X              Y              Z
 -------------------------------------------------------------------
    1         14           0.000000000    0.000006108    0.000000000
    2         14           0.000000000   -0.000006108    0.000000000
 -------------------------------------------------------------------
 Cartesian Forces:  Max     0.000006108 RMS     0.000003527

 GradGradGradGradGradGradGradGradGradGradGradGradGradGradGradGradGradGrad
 Berny optimization.
 Internal  Forces:  Max     0.000006108 RMS     0.000006108
 Search for a local minimum.
 Step number   1 out of a maximum of   2
 All quantities printed in internal units (Hartrees-Bohrs-Radians)
 Second derivative matrix not updated -- analytic derivatives used.
 The second derivative matrix:
                          R1
           R1           0.09983
     Eigenvalues ---    0.09983
 Angle between quadratic step and forces=   0.00 degrees.
 Linear search not attempted -- first point.
 Iteration  1 RMS(Cart)=  0.00004326 RMS(Int)=  0.00000000
 Iteration  2 RMS(Cart)=  0.00000000 RMS(Int)=  0.00000000
 Variable       Old X    -DE/DX   Delta X   Delta X   Delta X     New X
                                 (Linear)    (Quad)   (Total)
    R1        4.35120   0.00001   0.00000   0.00006   0.00006   4.35126
         Item               Value     Threshold  Converged?
 Maximum Force            0.000006     0.000450     YES
 RMS     Force            0.000006     0.000300     YES
 Maximum Displacement     0.000031     0.001800     YES
 RMS     Displacement     0.000043     0.001200     YES
 Predicted change in Energy=-1.868679D-10
 Optimization completed.
    -- Stationary point found.
                           ----------------------------
                           !   Optimized Parameters   !
                           ! (Angstroms and Degrees)  !
 --------------------------                            --------------------------
 ! Name  Definition              Value          Derivative Info.                !
 --------------------------------------------------------------------------------
 ! R1    R(1,2)                  2.3026         -DE/DX =    0.0                 !
 --------------------------------------------------------------------------------
 GradGradGradGradGradGradGradGradGradGradGradGradGradGradGradGradGradGrad

 1\1\GINC-NODE39\Freq\UB3LYP\6-311+G(d)\Si2(1+,4)\TAM\17-Jun-2011\0\\#N
  Geom=AllCheck Guess=Read SCRF=Check GenChk UB3LYP/6-311+G(d) Freq\\si
 2-n\\1,4\Si,0.,1.1512784651,-0.249839\Si,0.,-1.1512784651,-0.249839\\V
 ersion=AM64L-G03RevE.01\State=4-SGG\HF=-578.6099439\S2=3.750999\S2-1=0
 .\S2A=3.75\RMSD=5.095e-10\RMSF=3.527e-06\Thermal=0.0036273\Dipole=0.,0
 .,0.\DipoleDeriv=0.5,0.,0.,0.,0.5,0.,0.,0.,0.5,0.5,0.,0.,0.,0.5,0.,0.,
 0.,0.5\Polar=29.6781186,0.,87.9492445,0.,0.,29.6781186\PG=D*H [C*(Si1.
 Si1)]\NImag=0\\0.00003898,0.,0.09983230,0.,0.,0.00003898,-0.00003898,0
 .,0.,0.00003898,0.,-0.09983230,0.,0.,0.09983230,0.,0.,-0.00003898,0.,0
 .,0.00003898\\0.,-0.00000611,0.,0.,0.00000611,0.\\\@


 CLIMB THE MOUNTAINS AND GET THEIR GOOD TIDINGS.
 NATURE'S PEACE WILL FLOW INTO YOU AS SUNSHINE FLOWS INTO TREES.
 THE WINDS WILL BLOW THEIR OWN FRESHNESS INTO YOU, 
 AND CARES WILL DROP OFF LIKE AUTUMN LEAVES.

                                         -- JOHN MUIR
 Job cpu time:  0 days  0 hours  0 minutes 50.4 seconds.
 File lengths (MBytes):  RWF=     17 Int=      0 D2E=      0 Chk=      6 Scr=      1
 Normal termination of Gaussian 03 at Fri Jun 17 15:57:24 2011.
