 Entering Link 1 = C:\G09W\l1.exe PID=      5024.
  
 Copyright (c) 1988,1990,1992,1993,1995,1998,2003,2009, Gaussian, Inc.
                  All Rights Reserved.
  
 This is part of the Gaussian(R) 09 program.  It is based on
 the Gaussian(R) 03 system (copyright 2003, Gaussian, Inc.),
 the Gaussian(R) 98 system (copyright 1998, Gaussian, Inc.),
 the Gaussian(R) 94 system (copyright 1995, Gaussian, Inc.),
 the Gaussian 92(TM) system (copyright 1992, Gaussian, Inc.),
 the Gaussian 90(TM) system (copyright 1990, Gaussian, Inc.),
 the Gaussian 88(TM) system (copyright 1988, Gaussian, Inc.),
 the Gaussian 86(TM) system (copyright 1986, Carnegie Mellon
 University), and the Gaussian 82(TM) system (copyright 1983,
 Carnegie Mellon University). Gaussian is a federally registered
 trademark of Gaussian, Inc.
  
 This software contains proprietary and confidential information,
 including trade secrets, belonging to Gaussian, Inc.
  
 This software is provided under written license and may be
 used, copied, transmitted, or stored only in accord with that
 written license.
  
 The following legend is applicable only to US Government
 contracts under FAR:
  
                    RESTRICTED RIGHTS LEGEND
  
 Use, reproduction and disclosure by the US Government is
 subject to restrictions as set forth in subparagraphs (a)
 and (c) of the Commercial Computer Software - Restricted
 Rights clause in FAR 52.227-19.
  
 Gaussian, Inc.
 340 Quinnipiac St., Bldg. 40, Wallingford CT 06492
  
  
 ---------------------------------------------------------------
 Warning -- This program may not be used in any manner that
 competes with the business of Gaussian, Inc. or will provide
 assistance to any competitor of Gaussian, Inc.  The licensee
 of this program is prohibited from giving any competitor of
 Gaussian, Inc. access to this program.  By using this program,
 the user acknowledges that Gaussian, Inc. is engaged in the
 business of creating and licensing software in the field of
 computational chemistry and represents and warrants to the
 licensee that it is not a competitor of Gaussian, Inc. and that
 it will not use this program in any manner prohibited above.
 ---------------------------------------------------------------
  

 Cite this work as:
 Gaussian 09, Revision A.02,
 M. J. Frisch, G. W. Trucks, H. B. Schlegel, G. E. Scuseria, 
 M. A. Robb, J. R. Cheeseman, G. Scalmani, V. Barone, B. Mennucci, 
 G. A. Petersson, H. Nakatsuji, M. Caricato, X. Li, H. P. Hratchian, 
 A. F. Izmaylov, J. Bloino, G. Zheng, J. L. Sonnenberg, M. Hada, 
 M. Ehara, K. Toyota, R. Fukuda, J. Hasegawa, M. Ishida, T. Nakajima, 
 Y. Honda, O. Kitao, H. Nakai, T. Vreven, J. A. Montgomery, Jr., 
 J. E. Peralta, F. Ogliaro, M. Bearpark, J. J. Heyd, E. Brothers, 
 K. N. Kudin, V. N. Staroverov, R. Kobayashi, J. Normand, 
 K. Raghavachari, A. Rendell, J. C. Burant, S. S. Iyengar, J. Tomasi, 
 M. Cossi, N. Rega, J. M. Millam, M. Klene, J. E. Knox, J. B. Cross, 
 V. Bakken, C. Adamo, J. Jaramillo, R. Gomperts, R. E. Stratmann, 
 O. Yazyev, A. J. Austin, R. Cammi, C. Pomelli, J. W. Ochterski, 
 R. L. Martin, K. Morokuma, V. G. Zakrzewski, G. A. Voth, 
 P. Salvador, J. J. Dannenberg, S. Dapprich, A. D. Daniels, 
 O. Farkas, J. B. Foresman, J. V. Ortiz, J. Cioslowski, 
 and D. J. Fox, Gaussian, Inc., Wallingford CT, 2009.
 
 ******************************************
 Gaussian 09:  IA32W-G09RevA.02 11-Jun-2009
                23-Apr-2012 
 ******************************************
 %mem=1250MB
 %chk=D:\COMPUTATIONAL CHEMMISRTY\Pure Si\S9L-ne-d-01.chk
 ----------------------------------------------------------------------
 # opt=(calcall,noeigentest,maxcycle=500) freq b3lyp/6-311+g(d) scf=xqc
 ----------------------------------------------------------------------
 1/6=500,10=4,11=1,14=-1,18=20,19=15,26=3,38=1/1,3;
 2/9=110,12=2,17=6,18=5,40=1/2;
 3/5=4,6=6,7=11,11=2,16=1,25=1,30=1,71=2,74=-5/1,2,3;
 4//1;
 5/5=2,8=3,13=1,38=5/2,8;
 8/6=4,10=90,11=11/1;
 11/6=1,8=1,9=11,15=111,16=1/1,2,10;
 10/6=1/2;
 6/7=2,8=2,9=2,10=2,18=1,28=1/1;
 7/10=1,25=1/1,2,3,16;
 1/6=500,10=4,11=1,14=-1,18=20,19=15/3(3);
 2/9=110/2;
 7/8=1,9=1,25=1,44=-1/16;
 99//99;
 2/9=110/2;
 3/5=4,6=6,7=11,11=2,16=1,25=1,30=1,71=2,74=-5/1,2,3;
 4/5=5,16=3/1;
 5/5=2,8=3,13=1,38=5/2,8;
 8/6=4,10=90,11=11/1;
 11/6=1,8=1,9=11,15=111,16=1/1,2,10;
 10/6=1/2;
 7/10=1,25=1/1,2,3,16;
 1/6=500,10=4,11=1,14=-1,18=20,19=15/3(-8);
 2/9=110/2;
 6/7=2,8=2,9=2,10=2,18=1,19=2,28=1/1;
 7/8=1,9=1,25=1,44=-1/16;
 99//99;
 -------
 si2-n-t
 -------
 Symbolic Z-matrix:
 Charge =  0 Multiplicity = 3
 Si                    0.        0.        1.03136 
 Si                    0.        0.       -1.03136 
 

 GradGradGradGradGradGradGradGradGradGradGradGradGradGradGradGradGradGrad
 Berny optimization.
 Initialization pass.
                           ----------------------------
                           !    Initial Parameters    !
                           ! (Angstroms and Degrees)  !
 --------------------------                            --------------------------
 ! Name  Definition              Value          Derivative Info.                !
 --------------------------------------------------------------------------------
 ! R1    R(1,2)                  2.0627         calculate D2E/DX2 analytically  !
 --------------------------------------------------------------------------------
 Trust Radius=3.00D-01 FncErr=1.00D-07 GrdErr=1.00D-06
 Number of steps in this run= 100 maximum allowed number of steps= 100.
 GradGradGradGradGradGradGradGradGradGradGradGradGradGradGradGradGradGrad

                          Input orientation:                          
 ---------------------------------------------------------------------
 Center     Atomic      Atomic             Coordinates (Angstroms)
 Number     Number       Type             X           Y           Z
 ---------------------------------------------------------------------
      1         14           0        0.000000    0.000000    1.031357
      2         14           0        0.000000    0.000000   -1.031357
 ---------------------------------------------------------------------
 Stoichiometry    Si2(3)
 Framework group  D*H[C*(Si.Si)]
 Deg. of freedom     1
 Full point group                 D*H     NOp   8
 Largest Abelian subgroup         D2H     NOp   8
 Largest concise Abelian subgroup C2      NOp   2
                         Standard orientation:                         
 ---------------------------------------------------------------------
 Center     Atomic      Atomic             Coordinates (Angstroms)
 Number     Number       Type             X           Y           Z
 ---------------------------------------------------------------------
      1         14           0        0.000000    0.000000    1.031357
      2         14           0        0.000000    0.000000   -1.031357
 ---------------------------------------------------------------------
 Rotational constants (GHZ):      0.0000000      8.4912011      8.4912011
 Standard basis: 6-311+G(d) (5D, 7F)
 There are    15 symmetry adapted basis functions of AG  symmetry.
 There are     1 symmetry adapted basis functions of B1G symmetry.
 There are     7 symmetry adapted basis functions of B2G symmetry.
 There are     7 symmetry adapted basis functions of B3G symmetry.
 There are     1 symmetry adapted basis functions of AU  symmetry.
 There are    15 symmetry adapted basis functions of B1U symmetry.
 There are     7 symmetry adapted basis functions of B2U symmetry.
 There are     7 symmetry adapted basis functions of B3U symmetry.
 Integral buffers will be    262144 words long.
 Raffenetti 2 integral format.
 Two-electron integral symmetry is turned on.
    60 basis functions,   100 primitive gaussians,    62 cartesian basis functions
    15 alpha electrons       13 beta electrons
       nuclear repulsion energy        50.2826532828 Hartrees.
 NAtoms=    2 NActive=    2 NUniq=    1 SFac= 3.00D+00 NAtFMM=   80 NAOKFM=F Big=F
 One-electron integrals computed using PRISM.
 NBasis=    60 RedAO= T  NBF=    15     1     7     7     1    15     7     7
 NBsUse=    60 1.00D-06 NBFU=    15     1     7     7     1    15     7     7
 Harris functional with IExCor=  402 diagonalized for initial guess.
 ExpMin= 3.31D-02 ExpMax= 6.94D+04 ExpMxC= 2.33D+03 IAcc=3 IRadAn=         0 AccDes= 0.00D+00
 HarFok:  IExCor=  402 AccDes= 0.00D+00 IRadAn=         0 IDoV= 1
 ScaDFX=  1.000000  1.000000  1.000000  1.000000
 FoFCou: FMM=F IPFlag=           0 FMFlag=      100000 FMFlg1=           0
         NFxFlg=           0 DoJE=T BraDBF=F KetDBF=T FulRan=T
         Omega=  0.000000  0.000000  1.000000  0.000000  0.000000 ICntrl=     500 IOpCl=  0
         NMat0=    1 NMatS0=    1 NMatT0=    0 NMatD0=    1 NMtDS0=    0 NMtDT0=    0
         I1Cent=           4 NGrid=           0.
 Petite list used in FoFCou.
 Initial guess orbital symmetries:
 Alpha Orbitals:
       Occupied  (SGU) (SGG) (SGG) (SGU) (SGG) (SGU) (PIU) (PIU)
                 (PIG) (PIG) (SGG) (SGU) (PIU) (PIU) (SGG)
       Virtual   (PIG) (PIG) (SGG) (SGU) (PIU) (PIU) (SGG) (SGU)
                 (PIG) (PIG) (SGU) (SGG) (PIU) (PIU) (SGU) (PIG)
                 (PIG) (SGG) (PIU) (PIU) (DLTG) (DLTG) (SGU) (DLTU)
                 (DLTU) (SGG) (PIG) (PIG) (SGU) (PIU) (PIU) (PIG)
                 (PIG) (SGU) (SGG) (SGG) (SGU) (SGG) (PIU) (PIU)
                 (PIG) (PIG) (SGU) (SGG) (SGU)
 Beta  Orbitals:
       Occupied  (SGU) (SGG) (SGG) (SGU) (SGG) (SGU) (PIU) (PIU)
                 (PIG) (PIG) (SGG) (SGU) (PIU)
       Virtual   (PIU) (SGG) (PIG) (PIG) (SGG) (SGU) (PIU) (PIU)
                 (SGG) (SGU) (PIG) (PIG) (SGU) (SGG) (PIU) (PIU)
                 (SGU) (PIG) (PIG) (SGG) (PIU) (PIU) (DLTG) (DLTG)
                 (SGU) (DLTU) (DLTU) (SGG) (PIG) (PIG) (SGU) (PIU)
                 (PIU) (PIG) (PIG) (SGU) (SGG) (SGG) (SGU) (SGG)
                 (PIU) (PIU) (PIG) (PIG) (SGU) (SGG) (SGU)
 Initial guess <Sx>= 0.0000 <Sy>= 0.0000 <Sz>= 1.0000 <S**2>= 2.0000 S= 1.0000
 Requested convergence on RMS density matrix=1.00D-08 within  64 cycles.
 Requested convergence on MAX density matrix=1.00D-06.
 Requested convergence on             energy=1.00D-06.
 No special actions if energy rises.
 Keep R1 and R2 ints in memory in canonical form, NReq=4726547.
 SCF Done:  E(UB3LYP) =  -578.892119725     A.U. after    9 cycles
             Convg  =    0.6101D-08             -V/T =  2.0014
 <Sx>= 0.0000 <Sy>= 0.0000 <Sz>= 1.0000 <S**2>= 2.0034 S= 1.0011
 <L.S>= 0.000000000000E+00
 Annihilation of the first spin contaminant:
 S**2 before annihilation     2.0034,   after     2.0000
 QCSCF skips out because SCF is already converged.
 Range of M.O.s used for correlation:     1    60
 NBasis=    60 NAE=    15 NBE=    13 NFC=     0 NFV=     0
 NROrb=     60 NOA=    15 NOB=    13 NVA=    45 NVB=    47

 **** Warning!!: The largest alpha MO coefficient is  0.15708387D+02


 **** Warning!!: The largest beta MO coefficient is  0.12870913D+02


 **** Warning!!: The smallest beta delta epsilon is  0.55532599D-01

 Symmetrizing basis deriv contribution to polar:
 IMax=3 JMax=2 DiffMx= 0.00D+00
 G2DrvN: will do     3 centers at a time, making    1 passes doing MaxLOS=2.
 Calling FoFCou, ICntrl=  3107 FMM=F I1Cent=   0 AccDes= 0.00D+00.
 FoFDir/FoFCou used for L=0 through L=2.
 End of G2Drv Frequency-dependent properties file   721 does not exist.
 End of G2Drv Frequency-dependent properties file   722 does not exist.
          IDoAtm=11
          Differentiating once with respect to electric field.
                with respect to dipole field.
          Differentiating once with respect to nuclear coordinates.
          Keep R1 and R2 ints in memory in canonical form, NReq=4637183.
          There are     6 degrees of freedom in the 1st order CPHF.  IDoFFX=4.
      6 vectors produced by pass  0 Test12= 2.14D-14 1.67D-08 XBig12= 7.30D+02 1.36D+01.
 AX will form     6 AO Fock derivatives at one time.
      6 vectors produced by pass  1 Test12= 2.14D-14 1.67D-08 XBig12= 3.51D+02 9.17D+00.
      6 vectors produced by pass  2 Test12= 2.14D-14 1.67D-08 XBig12= 1.00D+01 1.65D+00.
      6 vectors produced by pass  3 Test12= 2.14D-14 1.67D-08 XBig12= 1.42D+00 8.02D-01.
      6 vectors produced by pass  4 Test12= 2.14D-14 1.67D-08 XBig12= 6.66D-02 1.40D-01.
      6 vectors produced by pass  5 Test12= 2.14D-14 1.67D-08 XBig12= 9.96D-03 5.50D-02.
      6 vectors produced by pass  6 Test12= 2.14D-14 1.67D-08 XBig12= 6.87D-04 8.70D-03.
      4 vectors produced by pass  7 Test12= 2.14D-14 1.67D-08 XBig12= 1.72D-05 2.46D-03.
      4 vectors produced by pass  8 Test12= 2.14D-14 1.67D-08 XBig12= 3.91D-07 3.02D-04.
      1 vectors produced by pass  9 Test12= 2.14D-14 1.67D-08 XBig12= 3.18D-09 3.03D-05.
      1 vectors produced by pass 10 Test12= 2.14D-14 1.67D-08 XBig12= 2.13D-11 2.01D-06.
      1 vectors produced by pass 11 Test12= 2.14D-14 1.67D-08 XBig12= 1.02D-13 1.01D-07.
 Inverted reduced A of dimension    53 with in-core refinement.
 Isotropic polarizability for W=    0.000000      118.40 Bohr**3.
 End of Minotr Frequency-dependent properties file   721 does not exist.
 End of Minotr Frequency-dependent properties file   722 does not exist.

 **********************************************************************

            Population analysis using the SCF density.

 **********************************************************************

 Orbital symmetries:
 Alpha Orbitals:
       Occupied  (SGU) (SGG) (SGG) (SGU) (PIU) (SGG) (PIG) (SGU)
                 (PIU) (PIG) (SGG) (SGU) (SGG) (PIU) (PIU)
       Virtual   (PIG) (PIG) (SGG) (SGU) (PIU) (PIU) (SGG) (PIG)
                 (PIG) (SGU) (SGU) (SGG) (PIU) (PIU) (SGU) (PIG)
                 (PIG) (SGG) (PIU) (PIU) (?A) (?A) (SGU) (DLTU)
                 (DLTU) (?A) (PIG) (PIG) (SGU) (PIU) (PIU) (PIG)
                 (SGU) (PIG) (SGG) (SGG) (SGU) (SGG) (PIU) (PIU)
                 (PIG) (PIG) (SGU) (SGG) (SGU)
 Beta  Orbitals:
       Occupied  (SGU) (SGG) (SGG) (SGU) (PIU) (PIG) (PIU) (SGG)
                 (PIG) (SGU) (SGG) (SGU) (PIU)
       Virtual   (PIU) (SGG) (PIG) (PIG) (SGG) (SGU) (PIU) (PIU)
                 (SGG) (PIG) (PIG) (SGU) (SGU) (SGG) (PIU) (PIU)
                 (PIG) (PIG) (SGU) (SGG) (PIU) (PIU) (SGU) (DLTG)
                 (DLTG) (DLTU) (DLTU) (SGG) (PIG) (PIG) (SGU) (PIU)
                 (PIU) (PIG) (PIG) (SGU) (SGG) (SGG) (SGU) (SGG)
                 (PIU) (PIU) (PIG) (PIG) (SGU) (SGG) (SGU)
 Unable to determine electronic state:  partially filled degenerate orbitals.
 Alpha  occ. eigenvalues --  -66.12573 -66.12573  -5.29716  -5.29675  -3.65819
 Alpha  occ. eigenvalues --   -3.65813  -3.65794  -3.65560  -3.65133  -3.65109
 Alpha  occ. eigenvalues --   -0.56488  -0.37828  -0.24652  -0.24641  -0.22344
 Alpha virt. eigenvalues --   -0.08281  -0.06582   0.01083   0.01348   0.03687
 Alpha virt. eigenvalues --    0.04050   0.04572   0.07185   0.07502   0.07986
 Alpha virt. eigenvalues --    0.12358   0.21222   0.26051   0.27171   0.29755
 Alpha virt. eigenvalues --    0.30229   0.31230   0.36977   0.42344   0.44088
 Alpha virt. eigenvalues --    0.53085   0.53137   0.53474   0.61614   0.61654
 Alpha virt. eigenvalues --    0.62861   0.78706   0.80628   1.11612   1.19131
 Alpha virt. eigenvalues --    1.20831   1.22494   1.24082   1.24122   1.27946
 Alpha virt. eigenvalues --    5.17699   5.50833  11.23932  11.25802  11.26591
 Alpha virt. eigenvalues --   11.28096  11.28881  11.37366 140.57714 140.95701
  Beta  occ. eigenvalues --  -66.12167 -66.12166  -5.29308  -5.29274  -3.65094
  Beta  occ. eigenvalues --   -3.65071  -3.64909  -3.64902  -3.64885  -3.64659
  Beta  occ. eigenvalues --   -0.51705  -0.33226  -0.21179
  Beta virt. eigenvalues --   -0.15626  -0.15300  -0.05369  -0.04402   0.01805
  Beta virt. eigenvalues --    0.01866   0.04069   0.04208   0.05097   0.07588
  Beta virt. eigenvalues --    0.07722   0.09558   0.13289   0.23023   0.27503
  Beta virt. eigenvalues --    0.27661   0.31536   0.31675   0.32169   0.39017
  Beta virt. eigenvalues --    0.47228   0.47715   0.54651   0.55727   0.55866
  Beta virt. eigenvalues --    0.63923   0.64054   0.65708   0.82770   0.83055
  Beta virt. eigenvalues --    1.14392   1.21232   1.21349   1.24500   1.24683
  Beta virt. eigenvalues --    1.26742   1.30332   5.18618   5.51876  11.25181
  Beta virt. eigenvalues --   11.26814  11.26911  11.29106  11.29203  11.38573
  Beta virt. eigenvalues --  140.58100 140.96089
          Condensed to atoms (all electrons):
              1          2
     1  Si  13.574470   0.425530
     2  Si   0.425530  13.574470
 Mulliken atomic charges:
              1
     1  Si   0.000000
     2  Si   0.000000
 Sum of Mulliken atomic charges =   0.00000
 Mulliken charges with hydrogens summed into heavy atoms:
              1
     1  Si   0.000000
     2  Si   0.000000
 Sum of Mulliken charges with hydrogens summed into heavy atoms =   0.00000
          Atomic-Atomic Spin Densities.
              1          2
     1  Si   0.740314   0.259686
     2  Si   0.259686   0.740314
 Mulliken atomic spin densities:
              1
     1  Si   1.000000
     2  Si   1.000000
 Sum of Mulliken atomic spin densities =   2.00000
 APT atomic charges:
              1
     1  Si   0.000000
     2  Si   0.000000
 Sum of APT charges=   0.00000
 APT Atomic charges with hydrogens summed into heavy atoms:
              1
     1  Si   0.000000
     2  Si   0.000000
 Sum of APT charges=   0.00000
 Electronic spatial extent (au):  <R**2>=            166.5050
 Charge=              0.0000 electrons
 Dipole moment (field-independent basis, Debye):
    X=              0.0000    Y=              0.0000    Z=              0.0000  Tot=              0.0000
 Quadrupole moment (field-independent basis, Debye-Ang):
   XX=            -25.1487   YY=            -29.8924   ZZ=            -25.8575
   XY=              0.0000   XZ=              0.0000   YZ=              0.0000
 Traceless Quadrupole moment (field-independent basis, Debye-Ang):
   XX=              1.8175   YY=             -2.9262   ZZ=              1.1087
   XY=              0.0000   XZ=              0.0000   YZ=              0.0000
 Octapole moment (field-independent basis, Debye-Ang**2):
  XXX=              0.0000  YYY=              0.0000  ZZZ=              0.0000  XYY=              0.0000
  XXY=              0.0000  XXZ=              0.0000  XZZ=              0.0000  YZZ=              0.0000
  YYZ=              0.0000  XYZ=              0.0000
 Hexadecapole moment (field-independent basis, Debye-Ang**3):
 XXXX=            -46.2621 YYYY=            -65.7683 ZZZZ=           -222.9402 XXXY=              0.0000
 XXXZ=              0.0000 YYYX=              0.0000 YYYZ=              0.0000 ZZZX=              0.0000
 ZZZY=              0.0000 XXYY=            -18.6715 XXZZ=            -42.9916 YYZZ=            -49.6717
 XXYZ=              0.0000 YYXZ=              0.0000 ZZXY=              0.0000
 N-N= 5.028265328283D+01 E-N=-2.209495742353D+03  KE= 8.658652894951D+02
 Symmetry AG   KE= 3.582908653534D+02
 Symmetry B1G  KE= 3.535495087704D-35
 Symmetry B2G  KE= 3.663055451090D+01
 Symmetry B3G  KE= 3.667317177495D+01
 Symmetry AU   KE= 1.353827182042D-34
 Symmetry B1U  KE= 3.570671054973D+02
 Symmetry B2U  KE= 3.958100701577D+01
 Symmetry B3U  KE= 3.762258534278D+01
  Exact polarizability:  35.785   0.000 217.361   0.000   0.000 102.057
 Approx polarizability:  52.451   0.000  66.728   0.000   0.000 255.735
                          Isotropic Fermi Contact Couplings
        Atom                 a.u.       MegaHertz       Gauss      10(-4) cm-1
     1  Si(29)            -0.01629       7.23848       2.58287       2.41450
     2  Si(29)            -0.01629       7.23848       2.58287       2.41450
 --------------------------------------------------------
       Center         ----  Spin Dipole Couplings  ----
                      3XX-RR        3YY-RR        3ZZ-RR
 --------------------------------------------------------
     1   Atom        0.292899     -1.179237      0.886338
     2   Atom        0.292899     -1.179237      0.886338
 --------------------------------------------------------
                        XY            XZ            YZ
 --------------------------------------------------------
     1   Atom        0.000000      0.000000      0.000000
     2   Atom        0.000000      0.000000      0.000000
 --------------------------------------------------------


 ---------------------------------------------------------------------------------
              Anisotropic Spin Dipole Couplings in Principal Axis System
 ---------------------------------------------------------------------------------

       Atom             a.u.   MegaHertz   Gauss  10(-4) cm-1        Axes

              Baa    -1.1792   125.098    44.638    41.728  0.0000  1.0000  0.0000
     1 Si(29) Bbb     0.2929   -31.072   -11.087   -10.364  1.0000  0.0000  0.0000
              Bcc     0.8863   -94.026   -33.551   -31.364  0.0000  0.0000  1.0000
 
              Baa    -1.1792   125.098    44.638    41.728  0.0000  1.0000  0.0000
     2 Si(29) Bbb     0.2929   -31.072   -11.087   -10.364  1.0000  0.0000  0.0000
              Bcc     0.8863   -94.026   -33.551   -31.364  0.0000  0.0000  1.0000
 

 ---------------------------------------------------------------------------------

 Calling FoFJK, ICntrl=    100127 FMM=F ISym2X=1 I1Cent= 0 IOpClX= 1 NMat=1 NMatS=1 NMatT=0.
 ***** Axes restored to original set *****
 -------------------------------------------------------------------
 Center     Atomic                   Forces (Hartrees/Bohr)
 Number     Number              X              Y              Z
 -------------------------------------------------------------------
      1       14           0.000000000    0.000000000    0.038065180
      2       14           0.000000000    0.000000000   -0.038065180
 -------------------------------------------------------------------
 Cartesian Forces:  Max     0.038065180 RMS     0.021976942

 GradGradGradGradGradGradGradGradGradGradGradGradGradGradGradGradGradGrad
 Berny optimization.
 Internal  Forces:  Max     0.038065180 RMS     0.038065180
 Search for a local minimum.
 Step number   1 out of a maximum of  100
 All quantities printed in internal units (Hartrees-Bohrs-Radians)
 Mixed Optimization -- RFO/linear search
 Second derivative matrix not updated -- analytic derivatives used.
 The second derivative matrix:
                          R1
           R1           0.23698
     Eigenvalues ---    0.23698
 RFO step:  Lambda=-5.96420752D-03 EMin= 2.36978035D-01
 Linear search not attempted -- first point.
 Iteration  1 RMS(Cart)=  0.11079237 RMS(Int)=  0.00000000
 Iteration  2 RMS(Cart)=  0.00000000 RMS(Int)=  0.00000000
 ClnCor:  largest displacement from symmetrization is 4.80D-18 for atom     2.
 Variable       Old X    -DE/DX   Delta X   Delta X   Delta X     New X
                                 (Linear)    (Quad)   (Total)
    R1        3.89796   0.03807   0.00000   0.15668   0.15668   4.05465
         Item               Value     Threshold  Converged?
 Maximum Force            0.038065     0.000450     NO 
 RMS     Force            0.038065     0.000300     NO 
 Maximum Displacement     0.078342     0.001800     NO 
 RMS     Displacement     0.110792     0.001200     NO 
 Predicted change in Energy=-3.055314D-03
 GradGradGradGradGradGradGradGradGradGradGradGradGradGradGradGradGradGrad

                          Input orientation:                          
 ---------------------------------------------------------------------
 Center     Atomic      Atomic             Coordinates (Angstroms)
 Number     Number       Type             X           Y           Z
 ---------------------------------------------------------------------
      1         14           0        0.000000    0.000000    1.072814
      2         14           0        0.000000    0.000000   -1.072814
 ---------------------------------------------------------------------
 Stoichiometry    Si2(3)
 Framework group  D*H[C*(Si.Si)]
 Deg. of freedom     1
 Full point group                 D*H     NOp   8
 Largest Abelian subgroup         D2H     NOp   8
 Largest concise Abelian subgroup C2      NOp   2
                         Standard orientation:                         
 ---------------------------------------------------------------------
 Center     Atomic      Atomic             Coordinates (Angstroms)
 Number     Number       Type             X           Y           Z
 ---------------------------------------------------------------------
      1         14           0        0.000000    0.000000    1.072814
      2         14           0        0.000000    0.000000   -1.072814
 ---------------------------------------------------------------------
 Rotational constants (GHZ):      0.0000000      7.8476288      7.8476288
 Standard basis: 6-311+G(d) (5D, 7F)
 There are    15 symmetry adapted basis functions of AG  symmetry.
 There are     1 symmetry adapted basis functions of B1G symmetry.
 There are     7 symmetry adapted basis functions of B2G symmetry.
 There are     7 symmetry adapted basis functions of B3G symmetry.
 There are     1 symmetry adapted basis functions of AU  symmetry.
 There are    15 symmetry adapted basis functions of B1U symmetry.
 There are     7 symmetry adapted basis functions of B2U symmetry.
 There are     7 symmetry adapted basis functions of B3U symmetry.
 Integral buffers will be    262144 words long.
 Raffenetti 2 integral format.
 Two-electron integral symmetry is turned on.
    60 basis functions,   100 primitive gaussians,    62 cartesian basis functions
    15 alpha electrons       13 beta electrons
       nuclear repulsion energy        48.3395771511 Hartrees.
 NAtoms=    2 NActive=    2 NUniq=    1 SFac= 3.00D+00 NAtFMM=   80 NAOKFM=F Big=F
 One-electron integrals computed using PRISM.
 NBasis=    60 RedAO= T  NBF=    15     1     7     7     1    15     7     7
 NBsUse=    60 1.00D-06 NBFU=    15     1     7     7     1    15     7     7
 Initial guess read from the read-write file.
 B after Tr=     0.000000    0.000000    0.000000
         Rot=    1.000000    0.000000    0.000000    0.000000 Ang=   0.00 deg.
 Initial guess orbital symmetries:
 Alpha Orbitals:
       Occupied  (SGU) (SGG) (SGG) (SGU) (PIU) (SGG) (PIG) (SGU)
                 (PIU) (PIG) (SGG) (SGU) (SGG) (PIU) (PIU)
       Virtual   (PIG) (PIG) (SGG) (SGU) (PIU) (PIU) (SGG) (PIG)
                 (PIG) (SGU) (SGU) (SGG) (PIU) (PIU) (SGU) (PIG)
                 (PIG) (SGG) (PIU) (PIU) (?A) (?A) (SGU) (DLTU)
                 (DLTU) (?A) (PIG) (PIG) (SGU) (PIU) (PIU) (PIG)
                 (SGU) (PIG) (SGG) (SGG) (SGU) (SGG) (PIU) (PIU)
                 (PIG) (PIG) (SGU) (SGG) (SGU)
 Beta  Orbitals:
       Occupied  (SGU) (SGG) (SGG) (SGU) (PIU) (PIG) (PIU) (SGG)
                 (PIG) (SGU) (SGG) (SGU) (PIU)
       Virtual   (PIU) (SGG) (PIG) (PIG) (SGG) (SGU) (PIU) (PIU)
                 (SGG) (PIG) (PIG) (SGU) (SGU) (SGG) (PIU) (PIU)
                 (PIG) (PIG) (SGU) (SGG) (PIU) (PIU) (SGU) (DLTG)
                 (DLTG) (DLTU) (DLTU) (SGG) (PIG) (PIG) (SGU) (PIU)
                 (PIU) (PIG) (PIG) (SGU) (SGG) (SGG) (SGU) (SGG)
                 (PIU) (PIU) (PIG) (PIG) (SGU) (SGG) (SGU)
 Initial guess <Sx>= 0.0000 <Sy>= 0.0000 <Sz>= 1.0000 <S**2>= 2.0036 S= 1.0012
 Harris functional with IExCor=  402 diagonalized for initial guess.
 ExpMin= 3.31D-02 ExpMax= 6.94D+04 ExpMxC= 2.33D+03 IAcc=3 IRadAn=         0 AccDes= 0.00D+00
 HarFok:  IExCor=  402 AccDes= 0.00D+00 IRadAn=         0 IDoV= 1
 ScaDFX=  1.000000  1.000000  1.000000  1.000000
 FoFCou: FMM=F IPFlag=           0 FMFlag=      100000 FMFlg1=           0
         NFxFlg=           0 DoJE=T BraDBF=F KetDBF=T FulRan=T
         Omega=  0.000000  0.000000  1.000000  0.000000  0.000000 ICntrl=     500 IOpCl=  0
         NMat0=    1 NMatS0=    1 NMatT0=    0 NMatD0=    1 NMtDS0=    0 NMtDT0=    0
         I1Cent=           4 NGrid=           0.
 Petite list used in FoFCou.
 Requested convergence on RMS density matrix=1.00D-08 within  64 cycles.
 Requested convergence on MAX density matrix=1.00D-06.
 Requested convergence on             energy=1.00D-06.
 No special actions if energy rises.
 Keep R1 and R2 ints in memory in canonical form, NReq=4726547.
 SCF Done:  E(UB3LYP) =  -578.895465109     A.U. after    9 cycles
             Convg  =    0.1305D-08             -V/T =  2.0017
 <Sx>= 0.0000 <Sy>= 0.0000 <Sz>= 1.0000 <S**2>= 2.0036 S= 1.0012
 <L.S>= 0.000000000000E+00
 Annihilation of the first spin contaminant:
 S**2 before annihilation     2.0036,   after     2.0000
 QCSCF skips out because SCF is already converged.
 Range of M.O.s used for correlation:     1    60
 NBasis=    60 NAE=    15 NBE=    13 NFC=     0 NFV=     0
 NROrb=     60 NOA=    15 NOB=    13 NVA=    45 NVB=    47

 **** Warning!!: The largest alpha MO coefficient is  0.14735355D+02


 **** Warning!!: The largest beta MO coefficient is  0.12861069D+02


 **** Warning!!: The smallest beta delta epsilon is  0.52573677D-01

 Symmetrizing basis deriv contribution to polar:
 IMax=3 JMax=2 DiffMx= 0.00D+00
 G2DrvN: will do     3 centers at a time, making    1 passes doing MaxLOS=2.
 Calling FoFCou, ICntrl=  3107 FMM=F I1Cent=   0 AccDes= 0.00D+00.
 FoFDir/FoFCou used for L=0 through L=2.
 End of G2Drv Frequency-dependent properties file   721 does not exist.
 End of G2Drv Frequency-dependent properties file   722 does not exist.
          IDoAtm=11
          Differentiating once with respect to electric field.
                with respect to dipole field.
          Differentiating once with respect to nuclear coordinates.
          Keep R1 and R2 ints in memory in canonical form, NReq=4637183.
          There are     6 degrees of freedom in the 1st order CPHF.  IDoFFX=4.
      6 vectors produced by pass  0 Test12= 2.14D-14 1.67D-08 XBig12= 8.45D+02 1.45D+01.
 AX will form     6 AO Fock derivatives at one time.
      6 vectors produced by pass  1 Test12= 2.14D-14 1.67D-08 XBig12= 4.22D+02 9.75D+00.
      6 vectors produced by pass  2 Test12= 2.14D-14 1.67D-08 XBig12= 1.31D+01 1.90D+00.
      6 vectors produced by pass  3 Test12= 2.14D-14 1.67D-08 XBig12= 1.28D+00 7.51D-01.
      6 vectors produced by pass  4 Test12= 2.14D-14 1.67D-08 XBig12= 7.76D-02 1.54D-01.
      6 vectors produced by pass  5 Test12= 2.14D-14 1.67D-08 XBig12= 1.24D-02 5.98D-02.
      6 vectors produced by pass  6 Test12= 2.14D-14 1.67D-08 XBig12= 9.11D-04 1.05D-02.
      4 vectors produced by pass  7 Test12= 2.14D-14 1.67D-08 XBig12= 1.97D-05 2.42D-03.
      3 vectors produced by pass  8 Test12= 2.14D-14 1.67D-08 XBig12= 5.56D-07 4.00D-04.
      1 vectors produced by pass  9 Test12= 2.14D-14 1.67D-08 XBig12= 6.17D-09 4.17D-05.
      1 vectors produced by pass 10 Test12= 2.14D-14 1.67D-08 XBig12= 4.72D-11 2.90D-06.
      1 vectors produced by pass 11 Test12= 2.14D-14 1.67D-08 XBig12= 2.12D-13 1.40D-07.
 Inverted reduced A of dimension    52 with in-core refinement.
 Isotropic polarizability for W=    0.000000       35.53 Bohr**3.
 End of Minotr Frequency-dependent properties file   721 does not exist.
 End of Minotr Frequency-dependent properties file   722 does not exist.
 Calling FoFJK, ICntrl=    100127 FMM=F ISym2X=1 I1Cent= 0 IOpClX= 1 NMat=1 NMatS=1 NMatT=0.
 ***** Axes restored to original set *****
 -------------------------------------------------------------------
 Center     Atomic                   Forces (Hartrees/Bohr)
 Number     Number              X              Y              Z
 -------------------------------------------------------------------
      1       14           0.000000000    0.000000000    0.006389610
      2       14           0.000000000    0.000000000   -0.006389610
 -------------------------------------------------------------------
 Cartesian Forces:  Max     0.006389610 RMS     0.003689043

 GradGradGradGradGradGradGradGradGradGradGradGradGradGradGradGradGradGrad
 Berny optimization.
 Using GEDIIS/GDIIS optimizer.
 Internal  Forces:  Max     0.006389610 RMS     0.006389610
 Search for a local minimum.
 Step number   2 out of a maximum of  100
 All quantities printed in internal units (Hartrees-Bohrs-Radians)
 Mixed Optimization -- RFO/linear search
 Second derivative matrix not updated -- analytic derivatives used.
 DE= -3.35D-03 DEPred=-3.06D-03 R= 1.09D+00
 SS=  1.41D+00  RLast= 1.57D-01 DXNew= 5.0454D-01 4.7005D-01
 Trust test= 1.09D+00 RLast= 1.57D-01 DXMaxT set to 4.70D-01
 The second derivative matrix:
                          R1
           R1           0.16972
 Use linear search instead of GDIIS.
     Eigenvalues ---    0.16972
 RFO step:  Lambda= 0.00000000D+00 EMin= 1.69723801D-01
 Quintic linear search produced a step of  0.25146.
 Iteration  1 RMS(Cart)=  0.02786000 RMS(Int)=  0.00000000
 Iteration  2 RMS(Cart)=  0.00000000 RMS(Int)=  0.00000000
 ClnCor:  largest displacement from symmetrization is 1.21D-18 for atom     1.
 Variable       Old X    -DE/DX   Delta X   Delta X   Delta X     New X
                                 (Linear)    (Quad)   (Total)
    R1        4.05465   0.00639   0.03940   0.00000   0.03940   4.09405
         Item               Value     Threshold  Converged?
 Maximum Force            0.006390     0.000450     NO 
 RMS     Force            0.006390     0.000300     NO 
 Maximum Displacement     0.019700     0.001800     NO 
 RMS     Displacement     0.027860     0.001200     NO 
 Predicted change in Energy=-1.200144D-04
 GradGradGradGradGradGradGradGradGradGradGradGradGradGradGradGradGradGrad

                          Input orientation:                          
 ---------------------------------------------------------------------
 Center     Atomic      Atomic             Coordinates (Angstroms)
 Number     Number       Type             X           Y           Z
 ---------------------------------------------------------------------
      1         14           0        0.000000    0.000000    1.083239
      2         14           0        0.000000    0.000000   -1.083239
 ---------------------------------------------------------------------
 Stoichiometry    Si2(3)
 Framework group  D*H[C*(Si.Si)]
 Deg. of freedom     1
 Full point group                 D*H     NOp   8
 Largest Abelian subgroup         D2H     NOp   8
 Largest concise Abelian subgroup C2      NOp   2
                         Standard orientation:                         
 ---------------------------------------------------------------------
 Center     Atomic      Atomic             Coordinates (Angstroms)
 Number     Number       Type             X           Y           Z
 ---------------------------------------------------------------------
      1         14           0        0.000000    0.000000    1.083239
      2         14           0        0.000000    0.000000   -1.083239
 ---------------------------------------------------------------------
 Rotational constants (GHZ):      0.0000000      7.6973087      7.6973087
 Standard basis: 6-311+G(d) (5D, 7F)
 There are    15 symmetry adapted basis functions of AG  symmetry.
 There are     1 symmetry adapted basis functions of B1G symmetry.
 There are     7 symmetry adapted basis functions of B2G symmetry.
 There are     7 symmetry adapted basis functions of B3G symmetry.
 There are     1 symmetry adapted basis functions of AU  symmetry.
 There are    15 symmetry adapted basis functions of B1U symmetry.
 There are     7 symmetry adapted basis functions of B2U symmetry.
 There are     7 symmetry adapted basis functions of B3U symmetry.
 Integral buffers will be    262144 words long.
 Raffenetti 2 integral format.
 Two-electron integral symmetry is turned on.
    60 basis functions,   100 primitive gaussians,    62 cartesian basis functions
    15 alpha electrons       13 beta electrons
       nuclear repulsion energy        47.8743703816 Hartrees.
 NAtoms=    2 NActive=    2 NUniq=    1 SFac= 3.00D+00 NAtFMM=   80 NAOKFM=F Big=F
 One-electron integrals computed using PRISM.
 NBasis=    60 RedAO= T  NBF=    15     1     7     7     1    15     7     7
 NBsUse=    60 1.00D-06 NBFU=    15     1     7     7     1    15     7     7
 Initial guess read from the read-write file.
 B after Tr=     0.000000    0.000000    0.000000
         Rot=    1.000000    0.000000    0.000000    0.000000 Ang=   0.00 deg.
 Initial guess orbital symmetries:
 Alpha Orbitals:
       Occupied  (SGU) (SGG) (SGG) (SGU) (PIU) (PIG) (SGG) (SGU)
                 (PIU) (PIG) (SGG) (SGU) (SGG) (PIU) (PIU)
       Virtual   (PIG) (PIG) (SGU) (SGG) (PIU) (PIU) (SGG) (PIG)
                 (SGU) (PIG) (SGU) (SGG) (PIU) (PIU) (SGU) (PIG)
                 (PIG) (SGG) (PIU) (PIU) (SGU) (?A) (?A) (DLTU)
                 (DLTU) (?A) (PIG) (PIG) (SGU) (PIU) (PIU) (PIG)
                 (PIG) (SGU) (SGG) (SGG) (SGU) (PIU) (PIU) (PIG)
                 (SGG) (PIG) (SGU) (SGG) (SGU)
 Beta  Orbitals:
       Occupied  (SGU) (SGG) (SGG) (SGU) (PIU) (PIG) (PIU) (PIG)
                 (SGG) (SGU) (SGG) (SGU) (PIU)
       Virtual   (SGG) (PIU) (PIG) (PIG) (SGU) (SGG) (PIU) (PIU)
                 (SGG) (PIG) (PIG) (SGU) (SGU) (SGG) (PIU) (PIU)
                 (PIG) (PIG) (SGU) (SGG) (PIU) (PIU) (SGU) (DLTG)
                 (DLTG) (DLTU) (DLTU) (SGG) (PIG) (PIG) (SGU) (PIU)
                 (PIU) (PIG) (PIG) (SGU) (SGG) (SGG) (SGU) (PIU)
                 (PIU) (PIG) (PIG) (SGG) (SGU) (SGG) (SGU)
 Initial guess <Sx>= 0.0000 <Sy>= 0.0000 <Sz>= 1.0000 <S**2>= 2.0037 S= 1.0012
 Requested convergence on RMS density matrix=1.00D-08 within  64 cycles.
 Requested convergence on MAX density matrix=1.00D-06.
 Requested convergence on             energy=1.00D-06.
 No special actions if energy rises.
 Keep R1 and R2 ints in memory in canonical form, NReq=4726547.
 SCF Done:  E(UB3LYP) =  -578.895589006     A.U. after    8 cycles
             Convg  =    0.1901D-08             -V/T =  2.0017
 <Sx>= 0.0000 <Sy>= 0.0000 <Sz>= 1.0000 <S**2>= 2.0036 S= 1.0012
 <L.S>= 0.000000000000E+00
 Annihilation of the first spin contaminant:
 S**2 before annihilation     2.0036,   after     2.0000
 QCSCF skips out because SCF is already converged.
 Range of M.O.s used for correlation:     1    60
 NBasis=    60 NAE=    15 NBE=    13 NFC=     0 NFV=     0
 NROrb=     60 NOA=    15 NOB=    13 NVA=    45 NVB=    47

 **** Warning!!: The largest alpha MO coefficient is  0.14460573D+02


 **** Warning!!: The largest beta MO coefficient is  0.12811389D+02


 **** Warning!!: The smallest beta delta epsilon is  0.51168803D-01

 Symmetrizing basis deriv contribution to polar:
 IMax=3 JMax=2 DiffMx= 0.00D+00
 G2DrvN: will do     3 centers at a time, making    1 passes doing MaxLOS=2.
 Calling FoFCou, ICntrl=  3107 FMM=F I1Cent=   0 AccDes= 0.00D+00.
 FoFDir/FoFCou used for L=0 through L=2.
 End of G2Drv Frequency-dependent properties file   721 does not exist.
 End of G2Drv Frequency-dependent properties file   722 does not exist.
          IDoAtm=11
          Differentiating once with respect to electric field.
                with respect to dipole field.
          Differentiating once with respect to nuclear coordinates.
          Keep R1 and R2 ints in memory in canonical form, NReq=4637183.
          There are     6 degrees of freedom in the 1st order CPHF.  IDoFFX=4.
      6 vectors produced by pass  0 Test12= 2.14D-14 1.67D-08 XBig12= 8.78D+02 1.49D+01.
 AX will form     6 AO Fock derivatives at one time.
      6 vectors produced by pass  1 Test12= 2.14D-14 1.67D-08 XBig12= 4.43D+02 9.90D+00.
      6 vectors produced by pass  2 Test12= 2.14D-14 1.67D-08 XBig12= 1.39D+01 1.96D+00.
      6 vectors produced by pass  3 Test12= 2.14D-14 1.67D-08 XBig12= 1.23D+00 7.26D-01.
      6 vectors produced by pass  4 Test12= 2.14D-14 1.67D-08 XBig12= 7.93D-02 1.55D-01.
      6 vectors produced by pass  5 Test12= 2.14D-14 1.67D-08 XBig12= 1.30D-02 6.13D-02.
      6 vectors produced by pass  6 Test12= 2.14D-14 1.67D-08 XBig12= 9.76D-04 1.11D-02.
      4 vectors produced by pass  7 Test12= 2.14D-14 1.67D-08 XBig12= 1.89D-05 2.16D-03.
      3 vectors produced by pass  8 Test12= 2.14D-14 1.67D-08 XBig12= 5.54D-07 4.17D-04.
      1 vectors produced by pass  9 Test12= 2.14D-14 1.67D-08 XBig12= 7.13D-09 4.36D-05.
      1 vectors produced by pass 10 Test12= 2.14D-14 1.67D-08 XBig12= 5.73D-11 3.16D-06.
      1 vectors produced by pass 11 Test12= 2.14D-14 1.67D-08 XBig12= 2.54D-13 1.52D-07.
 Inverted reduced A of dimension    52 with in-core refinement.
 Isotropic polarizability for W=    0.000000       43.49 Bohr**3.
 End of Minotr Frequency-dependent properties file   721 does not exist.
 End of Minotr Frequency-dependent properties file   722 does not exist.
 Calling FoFJK, ICntrl=    100127 FMM=F ISym2X=1 I1Cent= 0 IOpClX= 1 NMat=1 NMatS=1 NMatT=0.
 ***** Axes restored to original set *****
 -------------------------------------------------------------------
 Center     Atomic                   Forces (Hartrees/Bohr)
 Number     Number              X              Y              Z
 -------------------------------------------------------------------
      1       14           0.000000000    0.000000000   -0.000003196
      2       14           0.000000000    0.000000000    0.000003196
 -------------------------------------------------------------------
 Cartesian Forces:  Max     0.000003196 RMS     0.000001845

 GradGradGradGradGradGradGradGradGradGradGradGradGradGradGradGradGradGrad
 Berny optimization.
 Using GEDIIS/GDIIS optimizer.
 Internal  Forces:  Max     0.000003196 RMS     0.000003196
 Search for a local minimum.
 Step number   3 out of a maximum of  100
 All quantities printed in internal units (Hartrees-Bohrs-Radians)
 Mixed Optimization -- En-DIIS/RFO-DIIS
 Second derivative matrix not updated -- analytic derivatives used.
 DE= -1.24D-04 DEPred=-1.20D-04 R= 1.03D+00
 SS=  1.41D+00  RLast= 3.94D-02 DXNew= 7.9053D-01 1.1820D-01
 Trust test= 1.03D+00 RLast= 3.94D-02 DXMaxT set to 4.70D-01
 The second derivative matrix:
                          R1
           R1           0.15493
 Use linear search instead of GDIIS.
     Eigenvalues ---    0.15493
 RFO step:  Lambda= 0.00000000D+00 EMin= 1.54926356D-01
 Quintic linear search produced a step of -0.00052.
 Iteration  1 RMS(Cart)=  0.00001459 RMS(Int)=  0.00000000
 Iteration  2 RMS(Cart)=  0.00000000 RMS(Int)=  0.00000000
 ClnCor:  largest displacement from symmetrization is 6.32D-22 for atom     1.
 Variable       Old X    -DE/DX   Delta X   Delta X   Delta X     New X
                                 (Linear)    (Quad)   (Total)
    R1        4.09405   0.00000  -0.00002   0.00000  -0.00002   4.09403
         Item               Value     Threshold  Converged?
 Maximum Force            0.000003     0.000450     YES
 RMS     Force            0.000003     0.000300     YES
 Maximum Displacement     0.000010     0.001800     YES
 RMS     Displacement     0.000015     0.001200     YES
 Predicted change in Energy=-3.296384D-11
 Optimization completed.
    -- Stationary point found.
                           ----------------------------
                           !   Optimized Parameters   !
                           ! (Angstroms and Degrees)  !
 --------------------------                            --------------------------
 ! Name  Definition              Value          Derivative Info.                !
 --------------------------------------------------------------------------------
 ! R1    R(1,2)                  2.1665         -DE/DX =    0.0                 !
 --------------------------------------------------------------------------------
 GradGradGradGradGradGradGradGradGradGradGradGradGradGradGradGradGradGrad

                          Input orientation:                          
 ---------------------------------------------------------------------
 Center     Atomic      Atomic             Coordinates (Angstroms)
 Number     Number       Type             X           Y           Z
 ---------------------------------------------------------------------
      1         14           0        0.000000    0.000000    1.083239
      2         14           0        0.000000    0.000000   -1.083239
 ---------------------------------------------------------------------
 Stoichiometry    Si2(3)
 Framework group  D*H[C*(Si.Si)]
 Deg. of freedom     1
 Full point group                 D*H     NOp   8
 Largest Abelian subgroup         D2H     NOp   8
 Largest concise Abelian subgroup C2      NOp   2
                         Standard orientation:                         
 ---------------------------------------------------------------------
 Center     Atomic      Atomic             Coordinates (Angstroms)
 Number     Number       Type             X           Y           Z
 ---------------------------------------------------------------------
      1         14           0        0.000000    0.000000    1.083239
      2         14           0        0.000000    0.000000   -1.083239
 ---------------------------------------------------------------------
 Rotational constants (GHZ):      0.0000000      7.6973087      7.6973087

 **********************************************************************

            Population analysis using the SCF density.

 **********************************************************************

 Orbital symmetries:
 Alpha Orbitals:
       Occupied  (SGU) (SGG) (SGG) (SGU) (PIU) (PIG) (SGG) (SGU)
                 (PIU) (PIG) (SGG) (SGU) (SGG) (PIU) (PIU)
       Virtual   (PIG) (PIG) (SGU) (SGG) (PIU) (PIU) (SGG) (PIG)
                 (SGU) (PIG) (SGU) (SGG) (PIU) (PIU) (SGU) (PIG)
                 (PIG) (SGG) (PIU) (PIU) (SGU) (?A) (?A) (DLTU)
                 (DLTU) (?A) (PIG) (PIG) (SGU) (PIU) (PIU) (PIG)
                 (PIG) (SGU) (SGG) (SGG) (SGU) (PIU) (PIU) (PIG)
                 (PIG) (SGG) (SGU) (SGG) (SGU)
 Beta  Orbitals:
       Occupied  (SGU) (SGG) (SGG) (SGU) (PIU) (PIG) (PIU) (PIG)
                 (SGG) (SGU) (SGG) (SGU) (PIU)
       Virtual   (SGG) (PIU) (PIG) (PIG) (SGU) (SGG) (PIU) (PIU)
                 (SGG) (PIG) (PIG) (SGU) (SGU) (SGG) (PIU) (PIU)
                 (PIG) (SGU) (PIG) (SGG) (PIU) (PIU) (SGU) (DLTG)
                 (DLTG) (DLTU) (DLTU) (SGG) (PIG) (PIG) (SGU) (PIU)
                 (PIU) (PIG) (PIG) (SGU) (SGG) (SGG) (SGU) (PIU)
                 (PIU) (PIG) (PIG) (SGG) (SGU) (SGG) (SGU)
 Unable to determine electronic state:  partially filled degenerate orbitals.
 Alpha  occ. eigenvalues --  -66.13333 -66.13333  -5.30235  -5.30216  -3.66352
 Alpha  occ. eigenvalues --   -3.66338  -3.66275  -3.66126  -3.65688  -3.65674
 Alpha  occ. eigenvalues --   -0.55290  -0.38602  -0.24836  -0.23923  -0.21740
 Alpha virt. eigenvalues --   -0.09046  -0.07332   0.00855   0.01040   0.03788
 Alpha virt. eigenvalues --    0.04138   0.04568   0.07032   0.07077   0.07331
 Alpha virt. eigenvalues --    0.11832   0.21610   0.26625   0.27702   0.29037
 Alpha virt. eigenvalues --    0.29905   0.30885   0.37601   0.42947   0.44659
 Alpha virt. eigenvalues --    0.51948   0.53888   0.53977   0.60533   0.60563
 Alpha virt. eigenvalues --    0.60712   0.74978   0.76806   1.04090   1.18739
 Alpha virt. eigenvalues --    1.20379   1.22349   1.23949   1.24542   1.29369
 Alpha virt. eigenvalues --    5.17274   5.45239  11.25499  11.26266  11.27238
 Alpha virt. eigenvalues --   11.27999  11.29044  11.30599 140.57086 140.88637
  Beta  occ. eigenvalues --  -66.12941 -66.12941  -5.29841  -5.29826  -3.65649
  Beta  occ. eigenvalues --   -3.65636  -3.65471  -3.65457  -3.65402  -3.65260
  Beta  occ. eigenvalues --   -0.50639  -0.34088  -0.20611
  Beta virt. eigenvalues --   -0.15494  -0.15177  -0.06144  -0.05067   0.01544
  Beta virt. eigenvalues --    0.01728   0.04151   0.04298   0.05088   0.07394
  Beta virt. eigenvalues --    0.07543   0.08959   0.12510   0.23397   0.27997
  Beta virt. eigenvalues --    0.28141   0.31166   0.31313   0.31322   0.39603
  Beta virt. eigenvalues --    0.47778   0.48318   0.53169   0.56488   0.56619
  Beta virt. eigenvalues --    0.62813   0.62940   0.63599   0.78964   0.79281
  Beta virt. eigenvalues --    1.06972   1.20802   1.20889   1.24331   1.24480
  Beta virt. eigenvalues --    1.27061   1.31667   5.18178   5.46236  11.26484
  Beta virt. eigenvalues --   11.26572  11.28223  11.28312  11.30242  11.31775
  Beta virt. eigenvalues --  140.57459 140.89013
          Condensed to atoms (all electrons):
              1          2
     1  Si  13.582631   0.417369
     2  Si   0.417369  13.582631
 Mulliken atomic charges:
              1
     1  Si   0.000000
     2  Si   0.000000
 Sum of Mulliken atomic charges =   0.00000
 Mulliken charges with hydrogens summed into heavy atoms:
              1
     1  Si   0.000000
     2  Si   0.000000
 Sum of Mulliken charges with hydrogens summed into heavy atoms =   0.00000
          Atomic-Atomic Spin Densities.
              1          2
     1  Si   0.757844   0.242156
     2  Si   0.242156   0.757844
 Mulliken atomic spin densities:
              1
     1  Si   1.000000
     2  Si   1.000000
 Sum of Mulliken atomic spin densities =   2.00000
 APT atomic charges:
              1
     1  Si   0.000000
     2  Si   0.000000
 Sum of APT charges=   0.00000
 APT Atomic charges with hydrogens summed into heavy atoms:
              1
     1  Si   0.000000
     2  Si   0.000000
 Sum of APT charges=   0.00000
 Electronic spatial extent (au):  <R**2>=            177.8761
 Charge=              0.0000 electrons
 Dipole moment (field-independent basis, Debye):
    X=              0.0000    Y=              0.0000    Z=              0.0000  Tot=              0.0000
 Quadrupole moment (field-independent basis, Debye-Ang):
   XX=            -25.4977   YY=            -30.3713   ZZ=            -25.5694
   XY=              0.0000   XZ=              0.0000   YZ=              0.0000
 Traceless Quadrupole moment (field-independent basis, Debye-Ang):
   XX=              1.6485   YY=             -3.2252   ZZ=              1.5768
   XY=              0.0000   XZ=              0.0000   YZ=              0.0000
 Octapole moment (field-independent basis, Debye-Ang**2):
  XXX=              0.0000  YYY=              0.0000  ZZZ=              0.0000  XYY=              0.0000
  XXY=              0.0000  XXZ=              0.0000  XZZ=              0.0000  YZZ=              0.0000
  YYZ=              0.0000  XYZ=              0.0000
 Hexadecapole moment (field-independent basis, Debye-Ang**3):
 XXXX=            -47.8182 YYYY=            -68.3779 ZZZZ=           -237.8439 XXXY=              0.0000
 XXXZ=              0.0000 YYYX=              0.0000 YYYZ=              0.0000 ZZZX=              0.0000
 ZZZY=              0.0000 XXYY=            -19.3658 XXZZ=            -45.9731 YYZZ=            -53.3939
 XXYZ=              0.0000 YYXZ=              0.0000 ZZXY=              0.0000
 N-N= 4.787437038155D+01 E-N=-2.202168894409D+03  KE= 8.656884616870D+02
 Symmetry AG   KE= 3.581117820337D+02
 Symmetry B1G  KE= 2.957927248343D-35
 Symmetry B2G  KE= 3.663992453892D+01
 Symmetry B3G  KE= 3.668105759244D+01
 Symmetry AU   KE= 1.056598019677D-34
 Symmetry B1U  KE= 3.571237085173D+02
 Symmetry B2U  KE= 3.951997134762D+01
 Symmetry B3U  KE= 3.761201765707D+01
  Exact polarizability:  36.543   0.000 -13.426   0.000   0.000 107.347
 Approx polarizability:  53.018   0.000  68.351   0.000   0.000 287.916
                          Isotropic Fermi Contact Couplings
        Atom                 a.u.       MegaHertz       Gauss      10(-4) cm-1
     1  Si(29)            -0.01024       4.54852       1.62302       1.51722
     2  Si(29)            -0.01024       4.54852       1.62302       1.51722
 --------------------------------------------------------
       Center         ----  Spin Dipole Couplings  ----
                      3XX-RR        3YY-RR        3ZZ-RR
 --------------------------------------------------------
     1   Atom        0.296393     -1.135315      0.838922
     2   Atom        0.296393     -1.135315      0.838922
 --------------------------------------------------------
                        XY            XZ            YZ
 --------------------------------------------------------
     1   Atom        0.000000      0.000000      0.000000
     2   Atom        0.000000      0.000000      0.000000
 --------------------------------------------------------


 ---------------------------------------------------------------------------------
              Anisotropic Spin Dipole Couplings in Principal Axis System
 ---------------------------------------------------------------------------------

       Atom             a.u.   MegaHertz   Gauss  10(-4) cm-1        Axes

              Baa    -1.1353   120.439    42.976    40.174  0.0000  1.0000  0.0000
     1 Si(29) Bbb     0.2964   -31.443   -11.219   -10.488  1.0000  0.0000  0.0000
              Bcc     0.8389   -88.996   -31.756   -29.686  0.0000  0.0000  1.0000
 
              Baa    -1.1353   120.439    42.976    40.174  0.0000  1.0000  0.0000
     2 Si(29) Bbb     0.2964   -31.443   -11.219   -10.488  1.0000  0.0000  0.0000
              Bcc     0.8389   -88.996   -31.756   -29.686  0.0000  0.0000  1.0000
 

 ---------------------------------------------------------------------------------

 Rotating derivatives to standard orientation.
 Full mass-weighted force constant matrix:
 Low frequencies ---   -4.7247   -0.0031   -0.0028   -0.0017    4.7667  540.9809
 Diagonal vibrational polarizability:
        0.0000000       0.0000000       0.0000000
 Harmonic frequencies (cm**-1), IR intensities (KM/Mole), Raman scattering
 activities (A**4/AMU), depolarization ratios for plane and unpolarized
 incident light, reduced masses (AMU), force constants (mDyne/A),
 and normal coordinates:
                     1
                    SGG
 Frequencies --   540.9809
 Red. masses --    27.9769
 Frc consts  --     4.8241
 IR Inten    --     0.0000
  Atom  AN      X      Y      Z
     1  14     0.00   0.00   0.71
     2  14     0.00   0.00  -0.71

 -------------------
 - Thermochemistry -
 -------------------
 Temperature   298.150 Kelvin.  Pressure   1.00000 Atm.
 Atom     1 has atomic number 14 and mass  27.97693
 Atom     2 has atomic number 14 and mass  27.97693
 Molecular mass:    55.95386 amu.
 Principal axes and moments of inertia in atomic units:
                           1         2         3
     Eigenvalues --     0.00000 234.46392 234.46392
           X            0.00000   1.00000   0.00000
           Y            0.00000   0.00000   1.00000
           Z            1.00000   0.00000   0.00000
 This molecule is a prolate symmetric top.
 Rotational symmetry number  2.
 Rotational temperature (Kelvin)      0.36941
 Rotational constant (GHZ):           7.697309
 Zero-point vibrational energy       3235.8 (Joules/Mol)
                                    0.77337 (Kcal/Mol)
 Warning -- explicit consideration of   1 degrees of freedom as
           vibrations may cause significant error
 Vibrational temperatures:    778.35
          (Kelvin)
 
 Zero-point correction=                           0.001232 (Hartree/Particle)
 Thermal correction to Energy=                    0.003788
 Thermal correction to Enthalpy=                  0.004733
 Thermal correction to Gibbs Free Energy=        -0.021231
 Sum of electronic and zero-point Energies=           -578.894357
 Sum of electronic and thermal Energies=              -578.891801
 Sum of electronic and thermal Enthalpies=            -578.890856
 Sum of electronic and thermal Free Energies=         -578.916820
 
                     E (Thermal)             CV                S
                      KCal/Mol        Cal/Mol-Kelvin    Cal/Mol-Kelvin
 Total                    2.377              6.127             54.645
 Electronic               0.000              0.000              2.183
 Translational            0.889              2.981             37.987
 Rotational               0.592              1.987             13.911
 Vibrational              0.896              1.159              0.563
 Vibration     1          0.896              1.159              0.563
                       Q            Log10(Q)             Ln(Q)
 Total Bot       0.582748D+10          9.765481         22.485851
 Total V=0       0.214964D+11         10.332365         23.791150
 Vib (Bot)       0.292594D+00         -0.533734         -1.228968
 Vib (Bot)    1  0.292594D+00         -0.533734         -1.228968
 Vib (V=0)       0.107932D+01          0.033150          0.076331
 Vib (V=0)    1  0.107932D+01          0.033150          0.076331
 Electronic      0.300000D+01          0.477121          1.098612
 Translational   0.164513D+08          7.216200         16.615915
 Rotational      0.403547D+03          2.605894          6.000292
 ***** Axes restored to original set *****
 -------------------------------------------------------------------
 Center     Atomic                   Forces (Hartrees/Bohr)
 Number     Number              X              Y              Z
 -------------------------------------------------------------------
      1       14           0.000000000    0.000000000   -0.000003196
      2       14           0.000000000    0.000000000    0.000003196
 -------------------------------------------------------------------
 Cartesian Forces:  Max     0.000003196 RMS     0.000001845
 1|1|UNPC-PC-PC|Freq|UB3LYP|6-311+G(d)|Si2(3)|PC|23-Apr-2012|0||# opt=(
 calcall,noeigentest,maxcycle=500) freq b3lyp/6-311+g(d) scf=xqc||si2-n
 -t||0,3|Si,0.,0.,1.0832386103|Si,0.,0.,-1.0832386103||Version=IA32W-G0
 9RevA.02|HF=-578.895589|S2=2.003643|S2-1=0.|S2A=2.000005|RMSD=1.901e-0
 09|RMSF=1.845e-006|ZeroPoint=0.0012324|Thermal=0.0037884|Dipole=0.,0.,
 0.|DipoleDeriv=0.,0.,0.,0.,0.,0.,0.,0.,0.,0.,0.,0.,0.,0.,0.,0.,0.,0.|P
 olar=36.5425635,0.,-13.4256313,0.,0.,107.3473176|PG=D*H [C*(Si1.Si1)]|
 NImag=0||-0.00001182,0.,0.00001203,0.,0.,0.15492636,0.00001182,0.,0.,-
 0.00001182,0.,-0.00001203,0.,0.,0.00001203,0.,0.,-0.15492636,0.,0.,0.1
 5492636||0.,0.,0.00000320,0.,0.,-0.00000320|||@


 THERE IS NO SCIENCE WITHOUT FANCY, NOR ART WITHOUT FACTS.
     -- VLADIMIR NABAKOV
 Job cpu time:  0 days  0 hours  0 minutes 24.0 seconds.
 File lengths (MBytes):  RWF=      5 Int=      0 D2E=      0 Chk=      1 Scr=      1
 Normal termination of Gaussian 09 at Mon Apr 23 14:35:11 2012.
 Link1:  Proceeding to internal job step number  2.
 ----------------------------------------------------------------------
 #N Geom=AllCheck Guess=TCheck SCRF=Check GenChk UB3LYP/6-311+G(d) Freq
 ----------------------------------------------------------------------
 1/6=500,10=4,11=1,29=7,30=1,38=1,40=1/1,3;
 2/12=2,40=1/2;
 3/5=4,6=6,7=11,11=2,14=-4,16=1,25=1,30=1,70=2,71=2,74=-5,116=2/1,2,3;
 4/5=101/1;
 5/5=2,8=3,13=1,98=1/2,8;
 8/6=4,10=90,11=11/1;
 11/6=1,8=1,9=11,15=111,16=1/1,2,10;
 10/6=1/2;
 6/7=2,8=2,9=2,10=2,18=1,28=1/1;
 7/8=1,10=1,25=1/1,2,3,16;
 1/6=500,10=4,11=1,30=1/3;
 99//99;
 -------
 si2-n-t
 -------
 Redundant internal coordinates taken from checkpoint file:
 D:\COMPUTATIONAL CHEMMISRTY\Pure Si\S9L-ne-d-01.chk
 Charge =  0 Multiplicity = 3
 Si,0,0.,0.,1.0832386103
 Si,0,0.,0.,-1.0832386103
 Recover connectivity data from disk.

 GradGradGradGradGradGradGradGradGradGradGradGradGradGradGradGradGradGrad
 Berny optimization.
 Initialization pass.
                           ----------------------------
                           !    Initial Parameters    !
                           ! (Angstroms and Degrees)  !
 --------------------------                            --------------------------
 ! Name  Definition              Value          Derivative Info.                !
 --------------------------------------------------------------------------------
 ! R1    R(1,2)                  2.1665         calculate D2E/DX2 analytically  !
 --------------------------------------------------------------------------------
 Trust Radius=3.00D-01 FncErr=1.00D-07 GrdErr=1.00D-07
 Number of steps in this run=   2 maximum allowed number of steps=   2.
 GradGradGradGradGradGradGradGradGradGradGradGradGradGradGradGradGradGrad

                          Input orientation:                          
 ---------------------------------------------------------------------
 Center     Atomic      Atomic             Coordinates (Angstroms)
 Number     Number       Type             X           Y           Z
 ---------------------------------------------------------------------
      1         14           0        0.000000    0.000000    1.083239
      2         14           0        0.000000    0.000000   -1.083239
 ---------------------------------------------------------------------
 Stoichiometry    Si2(3)
 Framework group  D*H[C*(Si.Si)]
 Deg. of freedom     1
 Full point group                 D*H     NOp   8
 Largest Abelian subgroup         D2H     NOp   8
 Largest concise Abelian subgroup C2      NOp   2
                         Standard orientation:                         
 ---------------------------------------------------------------------
 Center     Atomic      Atomic             Coordinates (Angstroms)
 Number     Number       Type             X           Y           Z
 ---------------------------------------------------------------------
      1         14           0        0.000000    0.000000    1.083239
      2         14           0        0.000000    0.000000   -1.083239
 ---------------------------------------------------------------------
 Rotational constants (GHZ):      0.0000000      7.6973087      7.6973087
 Standard basis: 6-311+G(d) (5D, 7F)
 There are    15 symmetry adapted basis functions of AG  symmetry.
 There are     1 symmetry adapted basis functions of B1G symmetry.
 There are     7 symmetry adapted basis functions of B2G symmetry.
 There are     7 symmetry adapted basis functions of B3G symmetry.
 There are     1 symmetry adapted basis functions of AU  symmetry.
 There are    15 symmetry adapted basis functions of B1U symmetry.
 There are     7 symmetry adapted basis functions of B2U symmetry.
 There are     7 symmetry adapted basis functions of B3U symmetry.
 Integral buffers will be    262144 words long.
 Raffenetti 2 integral format.
 Two-electron integral symmetry is turned on.
    60 basis functions,   100 primitive gaussians,    62 cartesian basis functions
    15 alpha electrons       13 beta electrons
       nuclear repulsion energy        47.8743703816 Hartrees.
 NAtoms=    2 NActive=    2 NUniq=    1 SFac= 3.00D+00 NAtFMM=   80 NAOKFM=F Big=F
 One-electron integrals computed using PRISM.
 NBasis=    60 RedAO= T  NBF=    15     1     7     7     1    15     7     7
 NBsUse=    60 1.00D-06 NBFU=    15     1     7     7     1    15     7     7
 Initial guess read from the checkpoint file:  D:\COMPUTATIONAL CHEMMISRTY\Pure S
 i\S9L-ne-d-01.chk
 B after Tr=     0.000000    0.000000    0.000000
         Rot=    1.000000    0.000000    0.000000    0.000000 Ang=   0.00 deg.
 Initial guess orbital symmetries:
 Alpha Orbitals:
       Occupied  (SGU) (SGG) (SGG) (SGU) (PIU) (PIG) (SGG) (SGU)
                 (PIU) (PIG) (SGG) (SGU) (SGG) (PIU) (PIU)
       Virtual   (PIG) (PIG) (SGU) (SGG) (PIU) (PIU) (SGG) (PIG)
                 (SGU) (PIG) (SGU) (SGG) (PIU) (PIU) (SGU) (PIG)
                 (PIG) (SGG) (PIU) (PIU) (SGU) (?A) (?A) (DLTU)
                 (DLTU) (?A) (PIG) (PIG) (SGU) (PIU) (PIU) (PIG)
                 (PIG) (SGU) (SGG) (SGG) (SGU) (PIU) (PIU) (PIG)
                 (PIG) (SGG) (SGU) (SGG) (SGU)
 Beta  Orbitals:
       Occupied  (SGU) (SGG) (SGG) (SGU) (PIU) (PIG) (PIU) (PIG)
                 (SGG) (SGU) (SGG) (SGU) (PIU)
       Virtual   (SGG) (PIU) (PIG) (PIG) (SGU) (SGG) (PIU) (PIU)
                 (SGG) (PIG) (PIG) (SGU) (SGU) (SGG) (PIU) (PIU)
                 (PIG) (SGU) (PIG) (SGG) (PIU) (PIU) (SGU) (DLTG)
                 (DLTG) (DLTU) (DLTU) (SGG) (PIG) (PIG) (SGU) (PIU)
                 (PIU) (PIG) (PIG) (SGU) (SGG) (SGG) (SGU) (PIU)
                 (PIU) (PIG) (PIG) (SGG) (SGU) (SGG) (SGU)
 Initial guess <Sx>= 0.0000 <Sy>= 0.0000 <Sz>= 1.0000 <S**2>= 2.0036 S= 1.0012
 Requested convergence on RMS density matrix=1.00D-08 within  64 cycles.
 Requested convergence on MAX density matrix=1.00D-06.
 Requested convergence on             energy=1.00D-06.
 No special actions if energy rises.
 Keep R1 and R2 ints in memory in canonical form, NReq=4726547.
 SCF Done:  E(UB3LYP) =  -578.895589006     A.U. after    1 cycles
             Convg  =    0.1733D-09             -V/T =  2.0017
 <Sx>= 0.0000 <Sy>= 0.0000 <Sz>= 1.0000 <S**2>= 2.0036 S= 1.0012
 <L.S>= 0.000000000000E+00
 Annihilation of the first spin contaminant:
 S**2 before annihilation     2.0036,   after     2.0000
 QCSCF skips out because SCF is already converged.
 Range of M.O.s used for correlation:     1    60
 NBasis=    60 NAE=    15 NBE=    13 NFC=     0 NFV=     0
 NROrb=     60 NOA=    15 NOB=    13 NVA=    45 NVB=    47

 **** Warning!!: The largest alpha MO coefficient is  0.14460573D+02


 **** Warning!!: The largest beta MO coefficient is  0.12811389D+02


 **** Warning!!: The smallest beta delta epsilon is  0.51168804D-01

 Symmetrizing basis deriv contribution to polar:
 IMax=3 JMax=2 DiffMx= 0.00D+00
 G2DrvN: will do     3 centers at a time, making    1 passes doing MaxLOS=2.
 Calling FoFCou, ICntrl=  3107 FMM=F I1Cent=   0 AccDes= 0.00D+00.
 FoFDir/FoFCou used for L=0 through L=2.
 End of G2Drv Frequency-dependent properties file   721 does not exist.
 End of G2Drv Frequency-dependent properties file   722 does not exist.
          IDoAtm=11
          Differentiating once with respect to electric field.
                with respect to dipole field.
          Differentiating once with respect to nuclear coordinates.
          Keep R1 and R2 ints in memory in canonical form, NReq=4637183.
          There are     6 degrees of freedom in the 1st order CPHF.  IDoFFX=4.
      6 vectors produced by pass  0 Test12= 2.14D-14 1.67D-08 XBig12= 8.78D+02 1.49D+01.
 AX will form     6 AO Fock derivatives at one time.
      6 vectors produced by pass  1 Test12= 2.14D-14 1.67D-08 XBig12= 4.43D+02 9.90D+00.
      6 vectors produced by pass  2 Test12= 2.14D-14 1.67D-08 XBig12= 1.39D+01 1.96D+00.
      6 vectors produced by pass  3 Test12= 2.14D-14 1.67D-08 XBig12= 1.23D+00 7.26D-01.
      6 vectors produced by pass  4 Test12= 2.14D-14 1.67D-08 XBig12= 7.93D-02 1.55D-01.
      6 vectors produced by pass  5 Test12= 2.14D-14 1.67D-08 XBig12= 1.30D-02 6.13D-02.
      6 vectors produced by pass  6 Test12= 2.14D-14 1.67D-08 XBig12= 9.76D-04 1.11D-02.
      4 vectors produced by pass  7 Test12= 2.14D-14 1.67D-08 XBig12= 1.89D-05 2.16D-03.
      3 vectors produced by pass  8 Test12= 2.14D-14 1.67D-08 XBig12= 5.54D-07 4.17D-04.
      1 vectors produced by pass  9 Test12= 2.14D-14 1.67D-08 XBig12= 7.13D-09 4.36D-05.
      1 vectors produced by pass 10 Test12= 2.14D-14 1.67D-08 XBig12= 5.73D-11 3.16D-06.
      1 vectors produced by pass 11 Test12= 2.14D-14 1.67D-08 XBig12= 2.54D-13 1.52D-07.
 Inverted reduced A of dimension    52 with in-core refinement.
 Isotropic polarizability for W=    0.000000       43.49 Bohr**3.
 End of Minotr Frequency-dependent properties file   721 does not exist.
 End of Minotr Frequency-dependent properties file   722 does not exist.

 **********************************************************************

            Population analysis using the SCF density.

 **********************************************************************

 Orbital symmetries:
 Alpha Orbitals:
       Occupied  (SGU) (SGG) (SGG) (SGU) (PIU) (PIG) (SGG) (SGU)
                 (PIU) (PIG) (SGG) (SGU) (SGG) (PIU) (PIU)
       Virtual   (PIG) (PIG) (SGU) (SGG) (PIU) (PIU) (SGG) (PIG)
                 (SGU) (PIG) (SGU) (SGG) (PIU) (PIU) (SGU) (PIG)
                 (PIG) (SGG) (PIU) (PIU) (SGU) (?A) (?A) (DLTU)
                 (DLTU) (?A) (PIG) (PIG) (SGU) (PIU) (PIU) (PIG)
                 (PIG) (SGU) (SGG) (SGG) (SGU) (PIU) (PIU) (PIG)
                 (PIG) (SGG) (SGU) (SGG) (SGU)
 Beta  Orbitals:
       Occupied  (SGU) (SGG) (SGG) (SGU) (PIU) (PIG) (PIU) (PIG)
                 (SGG) (SGU) (SGG) (SGU) (PIU)
       Virtual   (SGG) (PIU) (PIG) (PIG) (SGU) (SGG) (PIU) (PIU)
                 (SGG) (PIG) (PIG) (SGU) (SGU) (SGG) (PIU) (PIU)
                 (PIG) (SGU) (PIG) (SGG) (PIU) (PIU) (SGU) (DLTG)
                 (DLTG) (DLTU) (DLTU) (SGG) (PIG) (PIG) (SGU) (PIU)
                 (PIU) (PIG) (PIG) (SGU) (SGG) (SGG) (SGU) (PIU)
                 (PIU) (PIG) (PIG) (SGG) (SGU) (SGG) (SGU)
 Unable to determine electronic state:  partially filled degenerate orbitals.
 Alpha  occ. eigenvalues --  -66.13333 -66.13333  -5.30235  -5.30216  -3.66352
 Alpha  occ. eigenvalues --   -3.66338  -3.66275  -3.66126  -3.65688  -3.65674
 Alpha  occ. eigenvalues --   -0.55290  -0.38602  -0.24836  -0.23923  -0.21740
 Alpha virt. eigenvalues --   -0.09046  -0.07332   0.00855   0.01040   0.03788
 Alpha virt. eigenvalues --    0.04138   0.04568   0.07032   0.07077   0.07331
 Alpha virt. eigenvalues --    0.11832   0.21610   0.26625   0.27702   0.29037
 Alpha virt. eigenvalues --    0.29905   0.30885   0.37601   0.42947   0.44659
 Alpha virt. eigenvalues --    0.51948   0.53888   0.53977   0.60533   0.60563
 Alpha virt. eigenvalues --    0.60712   0.74978   0.76806   1.04090   1.18739
 Alpha virt. eigenvalues --    1.20379   1.22349   1.23949   1.24542   1.29369
 Alpha virt. eigenvalues --    5.17274   5.45239  11.25499  11.26266  11.27238
 Alpha virt. eigenvalues --   11.27999  11.29044  11.30599 140.57086 140.88637
  Beta  occ. eigenvalues --  -66.12941 -66.12941  -5.29841  -5.29826  -3.65649
  Beta  occ. eigenvalues --   -3.65636  -3.65471  -3.65457  -3.65402  -3.65260
  Beta  occ. eigenvalues --   -0.50639  -0.34088  -0.20611
  Beta virt. eigenvalues --   -0.15494  -0.15177  -0.06144  -0.05067   0.01544
  Beta virt. eigenvalues --    0.01728   0.04151   0.04298   0.05088   0.07394
  Beta virt. eigenvalues --    0.07543   0.08959   0.12510   0.23397   0.27997
  Beta virt. eigenvalues --    0.28141   0.31166   0.31313   0.31322   0.39603
  Beta virt. eigenvalues --    0.47778   0.48318   0.53169   0.56488   0.56619
  Beta virt. eigenvalues --    0.62813   0.62940   0.63599   0.78964   0.79281
  Beta virt. eigenvalues --    1.06972   1.20802   1.20889   1.24331   1.24480
  Beta virt. eigenvalues --    1.27061   1.31667   5.18178   5.46236  11.26484
  Beta virt. eigenvalues --   11.26572  11.28223  11.28312  11.30242  11.31775
  Beta virt. eigenvalues --  140.57459 140.89013
          Condensed to atoms (all electrons):
              1          2
     1  Si  13.582631   0.417369
     2  Si   0.417369  13.582631
 Mulliken atomic charges:
              1
     1  Si   0.000000
     2  Si   0.000000
 Sum of Mulliken atomic charges =   0.00000
 Mulliken charges with hydrogens summed into heavy atoms:
              1
     1  Si   0.000000
     2  Si   0.000000
 Sum of Mulliken charges with hydrogens summed into heavy atoms =   0.00000
          Atomic-Atomic Spin Densities.
              1          2
     1  Si   0.757844   0.242156
     2  Si   0.242156   0.757844
 Mulliken atomic spin densities:
              1
     1  Si   1.000000
     2  Si   1.000000
 Sum of Mulliken atomic spin densities =   2.00000
 APT atomic charges:
              1
     1  Si   0.000000
     2  Si   0.000000
 Sum of APT charges=   0.00000
 APT Atomic charges with hydrogens summed into heavy atoms:
              1
     1  Si   0.000000
     2  Si   0.000000
 Sum of APT charges=   0.00000
 Electronic spatial extent (au):  <R**2>=            177.8761
 Charge=              0.0000 electrons
 Dipole moment (field-independent basis, Debye):
    X=              0.0000    Y=              0.0000    Z=              0.0000  Tot=              0.0000
 Quadrupole moment (field-independent basis, Debye-Ang):
   XX=            -25.4977   YY=            -30.3713   ZZ=            -25.5694
   XY=              0.0000   XZ=              0.0000   YZ=              0.0000
 Traceless Quadrupole moment (field-independent basis, Debye-Ang):
   XX=              1.6485   YY=             -3.2252   ZZ=              1.5768
   XY=              0.0000   XZ=              0.0000   YZ=              0.0000
 Octapole moment (field-independent basis, Debye-Ang**2):
  XXX=              0.0000  YYY=              0.0000  ZZZ=              0.0000  XYY=              0.0000
  XXY=              0.0000  XXZ=              0.0000  XZZ=              0.0000  YZZ=              0.0000
  YYZ=              0.0000  XYZ=              0.0000
 Hexadecapole moment (field-independent basis, Debye-Ang**3):
 XXXX=            -47.8182 YYYY=            -68.3779 ZZZZ=           -237.8439 XXXY=              0.0000
 XXXZ=              0.0000 YYYX=              0.0000 YYYZ=              0.0000 ZZZX=              0.0000
 ZZZY=              0.0000 XXYY=            -19.3658 XXZZ=            -45.9731 YYZZ=            -53.3939
 XXYZ=              0.0000 YYXZ=              0.0000 ZZXY=              0.0000
 N-N= 4.787437038155D+01 E-N=-2.202168894445D+03  KE= 8.656884616908D+02
 Symmetry AG   KE= 3.581117820322D+02
 Symmetry B1G  KE= 2.957927385928D-35
 Symmetry B2G  KE= 3.663992453803D+01
 Symmetry B3G  KE= 3.668105759124D+01
 Symmetry AU   KE= 1.056598032955D-34
 Symmetry B1U  KE= 3.571237085197D+02
 Symmetry B2U  KE= 3.951997135187D+01
 Symmetry B3U  KE= 3.761201765776D+01
  Exact polarizability:  36.543   0.000 -13.426   0.000   0.000 107.347
 Approx polarizability:  53.018   0.000  68.351   0.000   0.000 287.916
                          Isotropic Fermi Contact Couplings
        Atom                 a.u.       MegaHertz       Gauss      10(-4) cm-1
     1  Si(29)            -0.01024       4.54852       1.62303       1.51722
     2  Si(29)            -0.01024       4.54852       1.62303       1.51722
 --------------------------------------------------------
       Center         ----  Spin Dipole Couplings  ----
                      3XX-RR        3YY-RR        3ZZ-RR
 --------------------------------------------------------
     1   Atom        0.296393     -1.135315      0.838922
     2   Atom        0.296393     -1.135315      0.838922
 --------------------------------------------------------
                        XY            XZ            YZ
 --------------------------------------------------------
     1   Atom        0.000000      0.000000      0.000000
     2   Atom        0.000000      0.000000      0.000000
 --------------------------------------------------------


 ---------------------------------------------------------------------------------
              Anisotropic Spin Dipole Couplings in Principal Axis System
 ---------------------------------------------------------------------------------

       Atom             a.u.   MegaHertz   Gauss  10(-4) cm-1        Axes

              Baa    -1.1353   120.439    42.976    40.174  0.0000  1.0000  0.0000
     1 Si(29) Bbb     0.2964   -31.443   -11.219   -10.488  1.0000  0.0000  0.0000
              Bcc     0.8389   -88.996   -31.756   -29.686  0.0000  0.0000  1.0000
 
              Baa    -1.1353   120.439    42.976    40.174  0.0000  1.0000  0.0000
     2 Si(29) Bbb     0.2964   -31.443   -11.219   -10.488  1.0000  0.0000  0.0000
              Bcc     0.8389   -88.996   -31.756   -29.686  0.0000  0.0000  1.0000
 

 ---------------------------------------------------------------------------------

 Calling FoFJK, ICntrl=    100127 FMM=F ISym2X=1 I1Cent= 0 IOpClX= 1 NMat=1 NMatS=1 NMatT=0.
 Full mass-weighted force constant matrix:
 Low frequencies ---   -4.7247    0.0036    0.0050    0.0054    4.7668  540.9809
 Diagonal vibrational polarizability:
        0.0000000       0.0000000       0.0000000
 Harmonic frequencies (cm**-1), IR intensities (KM/Mole), Raman scattering
 activities (A**4/AMU), depolarization ratios for plane and unpolarized
 incident light, reduced masses (AMU), force constants (mDyne/A),
 and normal coordinates:
                     1
                    SGG
 Frequencies --   540.9809
 Red. masses --    27.9769
 Frc consts  --     4.8241
 IR Inten    --     0.0000
  Atom  AN      X      Y      Z
     1  14     0.00   0.00   0.71
     2  14     0.00   0.00  -0.71

 -------------------
 - Thermochemistry -
 -------------------
 Temperature   298.150 Kelvin.  Pressure   1.00000 Atm.
 Atom     1 has atomic number 14 and mass  27.97693
 Atom     2 has atomic number 14 and mass  27.97693
 Molecular mass:    55.95386 amu.
 Principal axes and moments of inertia in atomic units:
                           1         2         3
     Eigenvalues --     0.00000 234.46392 234.46392
           X            0.00000   1.00000   0.00000
           Y            0.00000   0.00000   1.00000
           Z            1.00000   0.00000   0.00000
 This molecule is a prolate symmetric top.
 Rotational symmetry number  2.
 Rotational temperature (Kelvin)      0.36941
 Rotational constant (GHZ):           7.697309
 Zero-point vibrational energy       3235.8 (Joules/Mol)
                                    0.77337 (Kcal/Mol)
 Warning -- explicit consideration of   1 degrees of freedom as
           vibrations may cause significant error
 Vibrational temperatures:    778.35
          (Kelvin)
 
 Zero-point correction=                           0.001232 (Hartree/Particle)
 Thermal correction to Energy=                    0.003788
 Thermal correction to Enthalpy=                  0.004733
 Thermal correction to Gibbs Free Energy=        -0.021231
 Sum of electronic and zero-point Energies=           -578.894357
 Sum of electronic and thermal Energies=              -578.891801
 Sum of electronic and thermal Enthalpies=            -578.890856
 Sum of electronic and thermal Free Energies=         -578.916820
 
                     E (Thermal)             CV                S
                      KCal/Mol        Cal/Mol-Kelvin    Cal/Mol-Kelvin
 Total                    2.377              6.127             54.645
 Electronic               0.000              0.000              2.183
 Translational            0.889              2.981             37.987
 Rotational               0.592              1.987             13.911
 Vibrational              0.896              1.159              0.563
 Vibration     1          0.896              1.159              0.563
                       Q            Log10(Q)             Ln(Q)
 Total Bot       0.582748D+10          9.765481         22.485851
 Total V=0       0.214964D+11         10.332365         23.791150
 Vib (Bot)       0.292594D+00         -0.533734         -1.228968
 Vib (Bot)    1  0.292594D+00         -0.533734         -1.228968
 Vib (V=0)       0.107932D+01          0.033150          0.076331
 Vib (V=0)    1  0.107932D+01          0.033150          0.076331
 Electronic      0.300000D+01          0.477121          1.098612
 Translational   0.164513D+08          7.216200         16.615915
 Rotational      0.403547D+03          2.605894          6.000292
 ***** Axes restored to original set *****
 -------------------------------------------------------------------
 Center     Atomic                   Forces (Hartrees/Bohr)
 Number     Number              X              Y              Z
 -------------------------------------------------------------------
      1       14           0.000000000    0.000000000   -0.000003196
      2       14           0.000000000    0.000000000    0.000003196
 -------------------------------------------------------------------
 Cartesian Forces:  Max     0.000003196 RMS     0.000001845

 GradGradGradGradGradGradGradGradGradGradGradGradGradGradGradGradGradGrad
 Berny optimization.
 Internal  Forces:  Max     0.000003196 RMS     0.000003196
 Search for a local minimum.
 Step number   1 out of a maximum of    2
 All quantities printed in internal units (Hartrees-Bohrs-Radians)
 Second derivative matrix not updated -- analytic derivatives used.
 The second derivative matrix:
                          R1
           R1           0.15493
     Eigenvalues ---    0.15493
 Angle between quadratic step and forces=   0.00 degrees.
 Linear search not attempted -- first point.
 Iteration  1 RMS(Cart)=  0.00001459 RMS(Int)=  0.00000000
 Iteration  2 RMS(Cart)=  0.00000000 RMS(Int)=  0.00000000
 ClnCor:  largest displacement from symmetrization is 6.32D-22 for atom     1.
 Variable       Old X    -DE/DX   Delta X   Delta X   Delta X     New X
                                 (Linear)    (Quad)   (Total)
    R1        4.09405   0.00000   0.00000  -0.00002  -0.00002   4.09403
         Item               Value     Threshold  Converged?
 Maximum Force            0.000003     0.000450     YES
 RMS     Force            0.000003     0.000300     YES
 Maximum Displacement     0.000010     0.001800     YES
 RMS     Displacement     0.000015     0.001200     YES
 Predicted change in Energy=-3.296307D-11
 Optimization completed.
    -- Stationary point found.
                           ----------------------------
                           !   Optimized Parameters   !
                           ! (Angstroms and Degrees)  !
 --------------------------                            --------------------------
 ! Name  Definition              Value          Derivative Info.                !
 --------------------------------------------------------------------------------
 ! R1    R(1,2)                  2.1665         -DE/DX =    0.0                 !
 --------------------------------------------------------------------------------
 GradGradGradGradGradGradGradGradGradGradGradGradGradGradGradGradGradGrad

 1|1|UNPC-PC-PC|Freq|UB3LYP|6-311+G(d)|Si2(3)|PC|23-Apr-2012|0||#N Geom
 =AllCheck Guess=TCheck SCRF=Check GenChk UB3LYP/6-311+G(d) Freq||si2-n
 -t||0,3|Si,0.,0.,1.0832386103|Si,0.,0.,-1.0832386103||Version=IA32W-G0
 9RevA.02|HF=-578.895589|S2=2.003643|S2-1=0.|S2A=2.000005|RMSD=1.733e-0
 10|RMSF=1.845e-006|ZeroPoint=0.0012324|Thermal=0.0037884|Dipole=0.,0.,
 0.|DipoleDeriv=0.,0.,0.,0.,0.,0.,0.,0.,0.,0.,0.,0.,0.,0.,0.,0.,0.,0.|P
 olar=36.5425634,0.,-13.42564,0.,0.,107.3473175|PG=D*H [C*(Si1.Si1)]|NI
 mag=0||-0.00001182,0.,0.00001203,0.,0.,0.15492636,0.00001182,0.,0.,-0.
 00001182,0.,-0.00001203,0.,0.,0.00001203,0.,0.,-0.15492636,0.,0.,0.154
 92636||0.,0.,0.00000320,0.,0.,-0.00000320|||@


 THERE IS NO SCIENCE WITHOUT FANCY, NOR ART WITHOUT FACTS.
     -- VLADIMIR NABAKOV
 Job cpu time:  0 days  0 hours  0 minutes  6.0 seconds.
 File lengths (MBytes):  RWF=      5 Int=      0 D2E=      0 Chk=      1 Scr=      1
 Normal termination of Gaussian 09 at Mon Apr 23 14:35:17 2012.
