 Entering Gaussian System, Link 0=g03
 Initial command:
 /usr/local/chem/g03E01/l1.exe /temp0/tam/Gau-13172.inp -scrdir=/temp0/tam/
 Entering Link 1 = /usr/local/chem/g03E01/l1.exe PID=     13173.
  
 Copyright (c) 1988,1990,1992,1993,1995,1998,2003,2004,2007, Gaussian, Inc.
                  All Rights Reserved.
  
 This is the Gaussian(R) 03 program.  It is based on the
 the Gaussian(R) 98 system (copyright 1998, Gaussian, Inc.),
 the Gaussian(R) 94 system (copyright 1995, Gaussian, Inc.),
 the Gaussian 92(TM) system (copyright 1992, Gaussian, Inc.),
 the Gaussian 90(TM) system (copyright 1990, Gaussian, Inc.),
 the Gaussian 88(TM) system (copyright 1988, Gaussian, Inc.),
 the Gaussian 86(TM) system (copyright 1986, Carnegie Mellon
 University), and the Gaussian 82(TM) system (copyright 1983,
 Carnegie Mellon University). Gaussian is a federally registered
 trademark of Gaussian, Inc.
  
 This software contains proprietary and confidential information,
 including trade secrets, belonging to Gaussian, Inc.
  
 This software is provided under written license and may be
 used, copied, transmitted, or stored only in accord with that
 written license.
  
 The following legend is applicable only to US Government
 contracts under FAR:
  
                    RESTRICTED RIGHTS LEGEND
  
 Use, reproduction and disclosure by the US Government is
 subject to restrictions as set forth in subparagraphs (a)
 and (c) of the Commercial Computer Software - Restricted
 Rights clause in FAR 52.227-19.
  
 Gaussian, Inc.
 340 Quinnipiac St., Bldg. 40, Wallingford CT 06492
  
  
 ---------------------------------------------------------------
 Warning -- This program may not be used in any manner that
 competes with the business of Gaussian, Inc. or will provide
 assistance to any competitor of Gaussian, Inc.  The licensee
 of this program is prohibited from giving any competitor of
 Gaussian, Inc. access to this program.  By using this program,
 the user acknowledges that Gaussian, Inc. is engaged in the
 business of creating and licensing software in the field of
 computational chemistry and represents and warrants to the
 licensee that it is not a competitor of Gaussian, Inc. and that
 it will not use this program in any manner prohibited above.
 ---------------------------------------------------------------
  

 Cite this work as:
 Gaussian 03, Revision E.01,
 M. J. Frisch, G. W. Trucks, H. B. Schlegel, G. E. Scuseria, 
 M. A. Robb, J. R. Cheeseman, J. A. Montgomery, Jr., T. Vreven, 
 K. N. Kudin, J. C. Burant, J. M. Millam, S. S. Iyengar, J. Tomasi, 
 V. Barone, B. Mennucci, M. Cossi, G. Scalmani, N. Rega, 
 G. A. Petersson, H. Nakatsuji, M. Hada, M. Ehara, K. Toyota, 
 R. Fukuda, J. Hasegawa, M. Ishida, T. Nakajima, Y. Honda, O. Kitao, 
 H. Nakai, M. Klene, X. Li, J. E. Knox, H. P. Hratchian, J. B. Cross, 
 V. Bakken, C. Adamo, J. Jaramillo, R. Gomperts, R. E. Stratmann, 
 O. Yazyev, A. J. Austin, R. Cammi, C. Pomelli, J. W. Ochterski, 
 P. Y. Ayala, K. Morokuma, G. A. Voth, P. Salvador, J. J. Dannenberg, 
 V. G. Zakrzewski, S. Dapprich, A. D. Daniels, M. C. Strain, 
 O. Farkas, D. K. Malick, A. D. Rabuck, K. Raghavachari, 
 J. B. Foresman, J. V. Ortiz, Q. Cui, A. G. Baboul, S. Clifford, 
 J. Cioslowski, B. B. Stefanov, G. Liu, A. Liashenko, P. Piskorz, 
 I. Komaromi, R. L. Martin, D. J. Fox, T. Keith, M. A. Al-Laham, 
 C. Y. Peng, A. Nanayakkara, M. Challacombe, P. M. W. Gill, 
 B. Johnson, W. Chen, M. W. Wong, C. Gonzalez, and J. A. Pople, 
 Gaussian, Inc., Wallingford CT, 2004.
 
 ******************************************
 Gaussian 03:  AM64L-G03RevE.01 11-Sep-2007
                 6-Apr-2011 
 ******************************************
 %NprocShared=4
 Will use up to    4 processors via shared memory.
 %mem=3750MB
 %chk=S9L-ne-d-01
 ----------------------------------------------------------------------
 # b3lyp/LANL2DZ opt=(calcall,noeigentest,maxcycle=500) scfcyc=500 scf=
 xqc
 ----------------------------------------------------------------------
 1/6=500,10=4,11=1,14=-1,18=20,26=3,38=1/1,3;
 2/9=110,17=6,18=5,40=1/2;
 3/5=6,6=3,11=2,16=1,25=1,30=1,74=-5/1,2,3;
 4//1;
 5/5=2,7=500,8=3,13=1,38=5/2,8;
 8/6=4,10=90,11=11/1;
 11/6=1,8=1,9=11,15=111,16=1/1,2,10;
 10/6=1/2;
 6/7=2,8=2,9=2,10=2,18=1,28=1/1;
 7/10=1,25=1/1,2,3,16;
 1/6=500,10=4,11=1,14=-1,18=20/3(3);
 2/9=110/2;
 7/8=1,9=1,25=1,44=-1/16;
 99//99;
 2/9=110/2;
 3/5=6,6=3,11=2,16=1,25=1,30=1,74=-5/1,2,3;
 4/5=5,16=3/1;
 5/5=2,7=500,8=3,13=1,38=5/2,8;
 8/6=4,10=90,11=11/1;
 11/6=1,8=1,9=11,15=111,16=1/1,2,10;
 10/6=1/2;
 7/10=1,25=1/1,2,3,16;
 1/6=500,10=4,11=1,14=-1,18=20/3(-8);
 2/9=110/2;
 6/7=2,8=2,9=2,10=2,18=1,19=2,28=1/1;
 7/8=1,9=1,25=1,44=-1/16;
 99//99;
 -----
 si4-n
 -----
 Symbolic Z-matrix:
 Charge = -1 Multiplicity = 2
 Si                    0.05023   1.19315   0. 
 Si                   -2.0161    0.00962   0. 
 Si                   -0.05463  -1.15159   0. 
 Si                    2.0205   -0.05119   0. 
 

 GradGradGradGradGradGradGradGradGradGradGradGradGradGradGradGradGradGrad
 Berny optimization.
 Initialization pass.
                           ----------------------------
                           !    Initial Parameters    !
                           ! (Angstroms and Degrees)  !
 --------------------------                            --------------------------
 ! Name  Definition              Value          Derivative Info.                !
 --------------------------------------------------------------------------------
 ! R1    R(1,2)                  2.3813         calculate D2E/DX2 analytically  !
 ! R2    R(1,3)                  2.3471         calculate D2E/DX2 analytically  !
 ! R3    R(1,4)                  2.3303         calculate D2E/DX2 analytically  !
 ! R4    R(2,3)                  2.2794         calculate D2E/DX2 analytically  !
 ! R5    R(3,4)                  2.3488         calculate D2E/DX2 analytically  !
 ! A1    A(2,1,4)              117.9223         calculate D2E/DX2 analytically  !
 ! A2    A(2,3,4)              121.4379         calculate D2E/DX2 analytically  !
 --------------------------------------------------------------------------------
 Trust Radius=3.00D-01 FncErr=1.00D-07 GrdErr=1.00D-06
 Number of steps in this run= 100 maximum allowed number of steps= 100.
 GradGradGradGradGradGradGradGradGradGradGradGradGradGradGradGradGradGrad

                          Input orientation:                          
 ---------------------------------------------------------------------
 Center     Atomic     Atomic              Coordinates (Angstroms)
 Number     Number      Type              X           Y           Z
 ---------------------------------------------------------------------
    1         14             0        0.050226    1.193155    0.000000
    2         14             0       -2.016099    0.009624    0.000000
    3         14             0       -0.054627   -1.151588    0.000000
    4         14             0        2.020500   -0.051191    0.000000
 ---------------------------------------------------------------------
                    Distance matrix (angstroms):
                    1          2          3          4
     1  Si   0.000000
     2  Si   2.381269   0.000000
     3  Si   2.347086   2.279427   0.000000
     4  Si   2.330317   4.037057   2.348835   0.000000
 Stoichiometry    Si4(1-,2)
 Framework group  CS[SG(Si4)]
 Deg. of freedom     5
 Full point group                 CS
 Largest Abelian subgroup         CS      NOp   2
 Largest concise Abelian subgroup C1      NOp   1
                         Standard orientation:                         
 ---------------------------------------------------------------------
 Center     Atomic     Atomic              Coordinates (Angstroms)
 Number     Number      Type              X           Y           Z
 ---------------------------------------------------------------------
    1         14             0       -0.006366   -1.194194    0.000000
    2         14             0       -2.014290    0.085915    0.000000
    3         14             0        0.000000    1.152883    0.000000
    4         14             0        2.020656   -0.044604    0.000000
 ---------------------------------------------------------------------
 Rotational constants (GHZ):      6.5628425      2.2157564      1.6564899
 Standard basis: LANL2DZ (5D, 7F)
 There are    24 symmetry adapted basis functions of A'  symmetry.
 There are     8 symmetry adapted basis functions of A"  symmetry.
 Integral buffers will be    131072 words long.
 Raffenetti 2 integral format.
 Two-electron integral symmetry is turned on.
    32 basis functions,    48 primitive gaussians,    32 cartesian basis functions
     9 alpha electrons        8 beta electrons
       nuclear repulsion energy        20.2127536664 Hartrees.
 NAtoms=    4 NActive=    4 NUniq=    4 SFac= 7.50D-01 NAtFMM=   80 NAOKFM=F Big=F
 One-electron integrals computed using PRISM.
   1 Symmetry operations used in ECPInt.
 ECPInt:  NShTT=     136 NPrTT=     308 LenC2=     137 LenP2D=     307.
 LDataN:  DoStor=F MaxTD1= 3 Len=   28
 LDataN:  DoStor=T MaxTD1= 3 Len=   28
 NBasis=    32 RedAO= T  NBF=    24     8
 NBsUse=    32 1.00D-06 NBFU=    24     8
 Harris functional with IExCor=  402 diagonalized for initial guess.
 ExpMin= 8.85D-02 ExpMax= 2.58D+00 ExpMxC= 2.58D+00 IAcc=2 IRadAn=         4 AccDes= 0.00D+00
 HarFok:  IExCor= 402 AccDes= 0.00D+00 IRadAn=         4 IDoV=1
 ScaDFX=  1.000000  1.000000  1.000000  1.000000
 Initial guess orbital symmetries:
 Alpha Orbitals:
       Occupied  (A') (A') (A') (A') (A') (A") (A') (A') (A")
       Virtual   (A") (A') (A") (A') (A') (A') (A') (A') (A') (A')
                 (A") (A') (A') (A") (A") (A') (A') (A") (A') (A')
                 (A') (A') (A')
 Beta  Orbitals:
       Occupied  (A') (A') (A') (A') (A') (A") (A') (A')
       Virtual   (A") (A") (A') (A") (A') (A') (A') (A') (A') (A')
                 (A') (A") (A') (A') (A") (A") (A') (A') (A") (A')
                 (A') (A') (A') (A')
 The electronic state of the initial guess is 2-A".
 <S**2> of initial guess= 0.7500
 Requested convergence on RMS density matrix=1.00D-08 within 128 cycles.
 Requested convergence on MAX density matrix=1.00D-06.
 Requested convergence on             energy=1.00D-06.
 No special actions if energy rises.
 Keep R1 and R2 integrals in memory in canonical form, NReq=     1990320.
 Integral accuracy reduced to 1.0D-05 until final iterations.
 Initial convergence to 1.0D-05 achieved.  Increase integral accuracy.
 SCF Done:  E(UB+HF-LYP) =  -15.4724756505     A.U. after   18 cycles
             Convg  =    0.4004D-08             -V/T =  3.5570
             S**2   =   0.7690
 Annihilation of the first spin contaminant:
 S**2 before annihilation     0.7690,   after     0.7501
 QCSCF skips out because SCF is already converged.
 Range of M.O.s used for correlation:     1    32
 NBasis=    32 NAE=     9 NBE=     8 NFC=     0 NFV=     0
 NROrb=     32 NOA=     9 NOB=     8 NVA=    23 NVB=    24

 **** Warning!!: The smallest alpha delta epsilon is  0.93177889D-01

   2 Symmetry operations used in ECPInt.
 ECPInt:  NShTT=     136 NPrTT=     308 LenC2=     137 LenP2D=     307.
 LDataN:  DoStor=F MaxTD1= 4 Len=   56
 LDataN:  DoStor=T MaxTD1= 4 Len=   56
 Symmetrizing basis deriv contribution to polar:
 IMax=3 JMax=2 DiffMx= 0.00D+00
 G2DrvN: will do    5 centers at a time, making    1 passes doing MaxLOS=1.
 FoFDir/FoFCou used for L=0 through L=1.
 DoAtom=TTTT
          Differentiating once with respect to electric field.
                with respect to dipole field.
          Differentiating once with respect to nuclear coordinates.
          Store integrals in memory, NReq=     1080522.
          There are  15 degrees of freedom in the 1st order CPHF.
    12 vectors were produced by pass  0.
 AX will form  12 AO Fock derivatives at one time.
    12 vectors were produced by pass  1.
    12 vectors were produced by pass  2.
    12 vectors were produced by pass  3.
    12 vectors were produced by pass  4.
    12 vectors were produced by pass  5.
    12 vectors were produced by pass  6.
     9 vectors were produced by pass  7.
     4 vectors were produced by pass  8.
     2 vectors were produced by pass  9.
 Inv2:  IOpt= 1 Iter= 1 AM= 1.39D-15 Conv= 1.00D-12.
 Inverted reduced A of dimension   99 with in-core refinement.
 Isotropic polarizability for W=    0.000000      125.77 Bohr**3.
 End of Minotr Frequency-dependent properties file   721 does not exist.

 **********************************************************************

            Population analysis using the SCF density.

 **********************************************************************

 Orbital symmetries:
 Alpha Orbitals:
       Occupied  (A') (A') (A') (A') (A") (A') (A') (A') (A")
       Virtual   (A") (A') (A") (A') (A') (A') (A') (A') (A') (A")
                 (A') (A') (A") (A") (A') (A') (A") (A') (A') (A')
                 (A') (A') (A')
 Beta  Orbitals:
       Occupied  (A') (A') (A') (A') (A") (A') (A') (A')
       Virtual   (A") (A") (A') (A") (A') (A') (A') (A') (A') (A')
                 (A') (A") (A') (A") (A') (A") (A') (A") (A') (A')
                 (A') (A') (A') (A')
 The electronic state is 2-A".
 Alpha  occ. eigenvalues --   -0.46369  -0.32592  -0.22975  -0.16166  -0.10688
 Alpha  occ. eigenvalues --   -0.08820  -0.06109  -0.05393  -0.01404
 Alpha virt. eigenvalues --    0.07914   0.09169   0.11166   0.17251   0.18192
 Alpha virt. eigenvalues --    0.22409   0.23816   0.43552   0.45818   0.47317
 Alpha virt. eigenvalues --    0.47596   0.48674   0.49567   0.50606   0.52136
 Alpha virt. eigenvalues --    0.53337   0.53843   0.55808   0.60880   5.89230
 Alpha virt. eigenvalues --    8.45998   9.38504   9.42877
  Beta  occ. eigenvalues --   -0.45990  -0.30875  -0.23135  -0.14554  -0.09336
  Beta  occ. eigenvalues --   -0.08444  -0.06262  -0.04661
  Beta virt. eigenvalues --    0.05702   0.07519   0.09756   0.14075   0.17785
  Beta virt. eigenvalues --    0.18258   0.22834   0.24106   0.43585   0.46068
  Beta virt. eigenvalues --    0.47871   0.48309   0.48988   0.50321   0.52023
  Beta virt. eigenvalues --    0.52036   0.53768   0.54975   0.56135   0.61045
  Beta virt. eigenvalues --    5.89538   8.46419   9.38560   9.42894
          Condensed to atoms (all electrons):
              1          2          3          4
     1  Si   3.901160   0.188673  -0.060830   0.206692
     2  Si   0.188673   3.963389   0.214340  -0.106525
     3  Si  -0.060830   0.214340   3.895178   0.194814
     4  Si   0.206692  -0.106525   0.194814   3.965946
 Mulliken atomic charges:
              1
     1  Si  -0.235695
     2  Si  -0.259877
     3  Si  -0.243502
     4  Si  -0.260926
 Sum of Mulliken charges=  -1.00000
 Atomic charges with hydrogens summed into heavy atoms:
              1
     1  Si  -0.235695
     2  Si  -0.259877
     3  Si  -0.243502
     4  Si  -0.260926
 Sum of Mulliken charges=  -1.00000
          Atomic-Atomic Spin Densities.
              1          2          3          4
     1  Si  -0.091699  -0.015335  -0.008529   0.002716
     2  Si  -0.015335   0.636650   0.002911  -0.016505
     3  Si  -0.008529   0.002911  -0.096982  -0.015439
     4  Si   0.002716  -0.016505  -0.015439   0.652391
 Mulliken atomic spin densities:
              1
     1  Si  -0.112847
     2  Si   0.607721
     3  Si  -0.118038
     4  Si   0.623163
 Sum of Mulliken spin densities=   1.00000
 APT atomic charges:
              1
     1  Si  -0.205523
     2  Si  -0.280428
     3  Si  -0.232658
     4  Si  -0.281391
 Sum of APT charges=  -1.00000
 APT Atomic charges with hydrogens summed into heavy atoms:
              1
     1  Si  -0.205523
     2  Si  -0.280428
     3  Si  -0.232658
     4  Si  -0.281391
 Sum of APT charges=  -1.00000
 Electronic spatial extent (au):  <R**2>=   299.4857
 Charge=    -1.0000 electrons
 Dipole moment (field-independent basis, Debye):
    X=     0.0018    Y=     0.0378    Z=     0.0000  Tot=     0.0378
 Quadrupole moment (field-independent basis, Debye-Ang):
   XX=   -77.9452   YY=   -61.9623   ZZ=   -53.3939
   XY=     0.2234   XZ=     0.0000   YZ=     0.0000
 Traceless Quadrupole moment (field-independent basis, Debye-Ang):
   XX=   -13.5114   YY=     2.4715   ZZ=    11.0399
   XY=     0.2234   XZ=     0.0000   YZ=     0.0000
 Octapole moment (field-independent basis, Debye-Ang**2):
  XXX=    -0.0838  YYY=     1.1686  ZZZ=     0.0000  XYY=     0.0234
  XXY=    -0.4196  XXZ=     0.0000  XZZ=    -0.0850  YZZ=    -0.1562
  YYZ=     0.0000  XYZ=     0.0000
 Hexadecapole moment (field-independent basis, Debye-Ang**3):
 XXXX= -1000.6699 YYYY=  -379.0513 ZZZZ=  -116.5762 XXXY=    14.3246
 XXXZ=     0.0000 YYYX=     8.3007 YYYZ=     0.0000 ZZZX=     0.0000
 ZZZY=     0.0000 XXYY=  -188.5401 XXZZ=  -159.9645 YYZZ=   -75.2506
 XXYZ=     0.0000 YYXZ=     0.0000 ZZXY=     3.7391
 N-N= 2.021275366636D+01 E-N=-7.175369822434D+01  KE= 6.050944440947D+00
 Symmetry A'   KE= 5.037457889402D+00
 Symmetry A"   KE= 1.013486551544D+00
  Exact polarizability: 197.195  -2.261 128.421   0.000   0.000  51.691
 Approx polarizability: 536.085  -5.808 351.575   0.000   0.000  70.376
                          Isotropic Fermi Contact Couplings
        Atom                 a.u.       MegaHertz       Gauss      10(-4) cm-1
     1  Si(29)             0.00000       0.00015       0.00005       0.00005
     2  Si(29)             0.00000       0.00016       0.00006       0.00005
     3  Si(29)             0.00000       0.00019       0.00007       0.00006
     4  Si(29)             0.00000       0.00017       0.00006       0.00006
 --------------------------------------------------------
       Center         ----  Spin Dipole Couplings  ----
                      3XX-RR        3YY-RR        3ZZ-RR
 --------------------------------------------------------
     1   Atom        0.010787     -0.000787     -0.010000
     2   Atom       -0.030419     -0.029241      0.059660
     3   Atom        0.011986     -0.001841     -0.010145
     4   Atom       -0.031146     -0.029791      0.060937
 --------------------------------------------------------
                        XY            XZ            YZ
 --------------------------------------------------------
     1   Atom        0.000115      0.000000      0.000000
     2   Atom       -0.000065      0.000000      0.000000
     3   Atom       -0.000139      0.000000      0.000000
     4   Atom        0.000156      0.000000      0.000000
 --------------------------------------------------------


 ---------------------------------------------------------------------------------
              Anisotropic Spin Dipole Couplings in Principal Axis System
 ---------------------------------------------------------------------------------

       Atom             a.u.   MegaHertz   Gauss  10(-4) cm-1        Axes

              Baa    -0.0100     1.061     0.379     0.354  0.0000  0.0000  1.0000
     1 Si(29) Bbb    -0.0008     0.084     0.030     0.028 -0.0099  1.0000  0.0000
              Bcc     0.0108    -1.144    -0.408    -0.382  1.0000  0.0099  0.0000
 
              Baa    -0.0304     3.227     1.152     1.077  0.9985  0.0549  0.0000
     2 Si(29) Bbb    -0.0292     3.102     1.107     1.035 -0.0549  0.9985  0.0000
              Bcc     0.0597    -6.329    -2.258    -2.111  0.0000  0.0000  1.0000
 
              Baa    -0.0101     1.076     0.384     0.359  0.0000  0.0000  1.0000
     3 Si(29) Bbb    -0.0018     0.195     0.070     0.065  0.0100  0.9999  0.0000
              Bcc     0.0120    -1.272    -0.454    -0.424  0.9999 -0.0100  0.0000
 
              Baa    -0.0312     3.306     1.180     1.103  0.9936 -0.1127  0.0000
     4 Si(29) Bbb    -0.0298     3.158     1.127     1.054  0.1127  0.9936  0.0000
              Bcc     0.0609    -6.464    -2.307    -2.156  0.0000  0.0000  1.0000
 

 ---------------------------------------------------------------------------------

   2 Symmetry operations used in ECPInt.
 ECPInt:  NShTT=     136 NPrTT=     308 LenC2=     137 LenP2D=     308.
 LDataN:  DoStor=F MaxTD1= 5 Len=  102
 LDataN:  DoStor=T MaxTD1= 5 Len=  102
 ***** Axes restored to original set *****
 -------------------------------------------------------------------
 Center     Atomic                   Forces (Hartrees/Bohr)
 Number     Number              X              Y              Z
 -------------------------------------------------------------------
    1         14          -0.002966689    0.028350404    0.000000000
    2         14          -0.017423339    0.005719915    0.000000000
    3         14           0.006798650   -0.032143938    0.000000000
    4         14           0.013591378   -0.001926381    0.000000000
 -------------------------------------------------------------------
 Cartesian Forces:  Max     0.032143938 RMS     0.014191334

 GradGradGradGradGradGradGradGradGradGradGradGradGradGradGradGradGradGrad
 Berny optimization.
 Internal  Forces:  Max     0.019684316 RMS     0.010817557
 Search for a local minimum.
 Step number   1 out of a maximum of 100
 All quantities printed in internal units (Hartrees-Bohrs-Radians)
 Second derivative matrix not updated -- analytic derivatives used.
 The second derivative matrix:
                          R1        R2        R3        R4        R5
           R1           0.05374
           R2          -0.00689   0.09104
           R3          -0.00247  -0.00255   0.06584
           R4           0.02175  -0.00443   0.01205   0.08381
           R5           0.01254  -0.00874   0.02093  -0.00407   0.06323
           A1           0.00413  -0.02525   0.00095   0.01716   0.01341
           A2           0.01109  -0.02551   0.01284  -0.00038   0.00354
                          A1        A2
           A1           0.01364
           A2           0.00422   0.01281
     Eigenvalues ---    0.03601   0.05609   0.07963   0.09013   0.12227
     Eigenvalues --- 1000.000001000.00000
 RFO step:  Lambda=-8.53882903D-03.
 Linear search not attempted -- first point.
 Iteration  1 RMS(Cart)=  0.06624068 RMS(Int)=  0.00186363
 Iteration  2 RMS(Cart)=  0.00142978 RMS(Int)=  0.00056062
 Iteration  3 RMS(Cart)=  0.00000055 RMS(Int)=  0.00056062
 Variable       Old X    -DE/DX   Delta X   Delta X   Delta X     New X
                                 (Linear)    (Quad)   (Total)
    R1        4.49995   0.00547   0.00000   0.05114   0.05078   4.55072
    R2        4.43535   0.01968   0.00000   0.20425   0.20454   4.63989
    R3        4.40366   0.01018   0.00000   0.10390   0.10355   4.50721
    R4        4.30749   0.01548   0.00000   0.15703   0.15724   4.46473
    R5        4.43866   0.00632   0.00000   0.08659   0.08680   4.52545
    A1        2.05813  -0.00138   0.00000  -0.00885  -0.00906   2.04908
    A2        2.11949  -0.00410   0.00000  -0.04670  -0.04538   2.07411
         Item               Value     Threshold  Converged?
 Maximum Force            0.019684     0.000450     NO 
 RMS     Force            0.010818     0.000300     NO 
 Maximum Displacement     0.126016     0.001800     NO 
 RMS     Displacement     0.066802     0.001200     NO 
 Predicted change in Energy=-4.651680D-03
 GradGradGradGradGradGradGradGradGradGradGradGradGradGradGradGradGradGrad

                          Input orientation:                          
 ---------------------------------------------------------------------
 Center     Atomic     Atomic              Coordinates (Angstroms)
 Number     Number      Type              X           Y           Z
 ---------------------------------------------------------------------
    1         14             0        0.038671    1.235761    0.000000
    2         14             0       -2.046353    0.030851    0.000000
    3         14             0       -0.040927   -1.218273    0.000000
    4         14             0        2.048609   -0.048339    0.000000
 ---------------------------------------------------------------------
                    Distance matrix (angstroms):
                    1          2          3          4
     1  Si   0.000000
     2  Si   2.408139   0.000000
     3  Si   2.455325   2.362634   0.000000
     4  Si   2.385113   4.095727   2.394766   0.000000
 Stoichiometry    Si4(1-,2)
 Framework group  CS[SG(Si4)]
 Deg. of freedom     5
 Full point group                 CS
 Largest Abelian subgroup         CS      NOp   2
 Largest concise Abelian subgroup C1      NOp   1
                         Standard orientation:                         
 ---------------------------------------------------------------------
 Center     Atomic     Atomic              Coordinates (Angstroms)
 Number     Number      Type              X           Y           Z
 ---------------------------------------------------------------------
    1         14             0       -0.002842   -1.236363    0.000000
    2         14             0       -2.046235    0.037874    0.000000
    3         14             0        0.000000    1.218960    0.000000
    4         14             0        2.049077   -0.020471    0.000000
 ---------------------------------------------------------------------
 Rotational constants (GHZ):      5.9937895      2.1534910      1.5842798
 Standard basis: LANL2DZ (5D, 7F)
 There are    24 symmetry adapted basis functions of A'  symmetry.
 There are     8 symmetry adapted basis functions of A"  symmetry.
 Integral buffers will be    131072 words long.
 Raffenetti 2 integral format.
 Two-electron integral symmetry is turned on.
    32 basis functions,    48 primitive gaussians,    32 cartesian basis functions
     9 alpha electrons        8 beta electrons
       nuclear repulsion energy        19.7005848345 Hartrees.
 NAtoms=    4 NActive=    4 NUniq=    4 SFac= 7.50D-01 NAtFMM=   80 NAOKFM=F Big=F
 One-electron integrals computed using PRISM.
   1 Symmetry operations used in ECPInt.
 ECPInt:  NShTT=     136 NPrTT=     308 LenC2=     137 LenP2D=     305.
 LDataN:  DoStor=F MaxTD1= 3 Len=   28
 LDataN:  DoStor=T MaxTD1= 3 Len=   28
 NBasis=    32 RedAO= T  NBF=    24     8
 NBsUse=    32 1.00D-06 NBFU=    24     8
 Initial guess read from the read-write file:
 Initial guess orbital symmetries:
 Alpha Orbitals:
       Occupied  (A') (A') (A') (A') (A") (A') (A') (A') (A")
       Virtual   (A") (A') (A") (A') (A') (A') (A') (A') (A') (A")
                 (A') (A') (A") (A") (A') (A') (A") (A') (A') (A')
                 (A') (A') (A')
 Beta  Orbitals:
       Occupied  (A') (A') (A') (A') (A") (A') (A') (A')
       Virtual   (A") (A") (A') (A") (A') (A') (A') (A') (A') (A')
                 (A') (A") (A') (A") (A') (A") (A') (A") (A') (A')
                 (A') (A') (A') (A')
 <S**2> of initial guess= 0.7700
 Harris functional with IExCor=  402 diagonalized for initial guess.
 ExpMin= 8.85D-02 ExpMax= 2.58D+00 ExpMxC= 2.58D+00 IAcc=2 IRadAn=         4 AccDes= 0.00D+00
 HarFok:  IExCor= 402 AccDes= 0.00D+00 IRadAn=         4 IDoV=1
 ScaDFX=  1.000000  1.000000  1.000000  1.000000
 Requested convergence on RMS density matrix=1.00D-08 within 128 cycles.
 Requested convergence on MAX density matrix=1.00D-06.
 Requested convergence on             energy=1.00D-06.
 No special actions if energy rises.
 Keep R1 and R2 integrals in memory in canonical form, NReq=     1990320.
 Integral accuracy reduced to 1.0D-05 until final iterations.
 Initial convergence to 1.0D-05 achieved.  Increase integral accuracy.
 SCF Done:  E(UB+HF-LYP) =  -15.4775153165     A.U. after   18 cycles
             Convg  =    0.2399D-08             -V/T =  3.6007
             S**2   =   0.7720
 Annihilation of the first spin contaminant:
 S**2 before annihilation     0.7720,   after     0.7501
 QCSCF skips out because SCF is already converged.
 Range of M.O.s used for correlation:     1    32
 NBasis=    32 NAE=     9 NBE=     8 NFC=     0 NFV=     0
 NROrb=     32 NOA=     9 NOB=     8 NVA=    23 NVB=    24

 **** Warning!!: The smallest alpha delta epsilon is  0.86941881D-01

   2 Symmetry operations used in ECPInt.
 ECPInt:  NShTT=     136 NPrTT=     308 LenC2=     137 LenP2D=     305.
 LDataN:  DoStor=F MaxTD1= 4 Len=   56
 LDataN:  DoStor=T MaxTD1= 4 Len=   56
 Symmetrizing basis deriv contribution to polar:
 IMax=3 JMax=2 DiffMx= 0.00D+00
 G2DrvN: will do    5 centers at a time, making    1 passes doing MaxLOS=1.
 FoFDir/FoFCou used for L=0 through L=1.
 DoAtom=TTTT
          Differentiating once with respect to electric field.
                with respect to dipole field.
          Differentiating once with respect to nuclear coordinates.
          Store integrals in memory, NReq=     1080522.
          There are  15 degrees of freedom in the 1st order CPHF.
    12 vectors were produced by pass  0.
 AX will form  12 AO Fock derivatives at one time.
    12 vectors were produced by pass  1.
    12 vectors were produced by pass  2.
    12 vectors were produced by pass  3.
    12 vectors were produced by pass  4.
    12 vectors were produced by pass  5.
    12 vectors were produced by pass  6.
    10 vectors were produced by pass  7.
     4 vectors were produced by pass  8.
     2 vectors were produced by pass  9.
 Inv2:  IOpt= 1 Iter= 1 AM= 1.35D-15 Conv= 1.00D-12.
 Inverted reduced A of dimension  100 with in-core refinement.
 Isotropic polarizability for W=    0.000000      128.91 Bohr**3.
 End of Minotr Frequency-dependent properties file   721 does not exist.
   2 Symmetry operations used in ECPInt.
 ECPInt:  NShTT=     136 NPrTT=     308 LenC2=     137 LenP2D=     308.
 LDataN:  DoStor=F MaxTD1= 5 Len=  102
 LDataN:  DoStor=T MaxTD1= 5 Len=  102
 ***** Axes restored to original set *****
 -------------------------------------------------------------------
 Center     Atomic                   Forces (Hartrees/Bohr)
 Number     Number              X              Y              Z
 -------------------------------------------------------------------
    1         14          -0.001027194    0.006073002    0.000000000
    2         14          -0.003608816    0.001784277    0.000000000
    3         14           0.002141577   -0.007367076    0.000000000
    4         14           0.002494433   -0.000490203    0.000000000
 -------------------------------------------------------------------
 Cartesian Forces:  Max     0.007367076 RMS     0.003155238

 GradGradGradGradGradGradGradGradGradGradGradGradGradGradGradGradGradGrad
 Berny optimization.
 Internal  Forces:  Max     0.004498654 RMS     0.002428483
 Search for a local minimum.
 Step number   2 out of a maximum of 100
 All quantities printed in internal units (Hartrees-Bohrs-Radians)
 Second derivative matrix not updated -- analytic derivatives used.
 Trust test= 1.08D+00 RLast= 2.99D-01 DXMaxT set to 4.24D-01
 The second derivative matrix:
                          R1        R2        R3        R4        R5
           R1           0.04663
           R2          -0.00737   0.06986
           R3           0.00114  -0.00530   0.05095
           R4           0.02028  -0.00595   0.00911   0.05719
           R5           0.00976  -0.00803   0.02004   0.00064   0.05002
           A1           0.00379  -0.01981   0.00247   0.01246   0.01127
           A2           0.01048  -0.01985   0.01099   0.00209   0.00361
                          A1        A2
           A1           0.01025
           A2           0.00395   0.00994
     Eigenvalues ---    0.02814   0.03884   0.06124   0.06393   0.10269
     Eigenvalues --- 1000.000001000.00000
 RFO step:  Lambda=-2.43372284D-05.
 Quintic linear search produced a step of  0.35764.
 Iteration  1 RMS(Cart)=  0.02646519 RMS(Int)=  0.00032529
 Iteration  2 RMS(Cart)=  0.00008070 RMS(Int)=  0.00031247
 Iteration  3 RMS(Cart)=  0.00000001 RMS(Int)=  0.00031247
 Variable       Old X    -DE/DX   Delta X   Delta X   Delta X     New X
                                 (Linear)    (Quad)   (Total)
    R1        4.55072   0.00068   0.01816  -0.01954  -0.00158   4.54915
    R2        4.63989   0.00450   0.07315  -0.00023   0.07307   4.71296
    R3        4.50721   0.00209   0.03703  -0.00337   0.03347   4.54068
    R4        4.46473   0.00374   0.05623   0.01322   0.06957   4.53430
    R5        4.52545   0.00101   0.03104  -0.00452   0.02664   4.55210
    A1        2.04908  -0.00029  -0.00324   0.00490   0.00151   2.05058
    A2        2.07411  -0.00105  -0.01623  -0.00678  -0.02229   2.05183
         Item               Value     Threshold  Converged?
 Maximum Force            0.004499     0.000450     NO 
 RMS     Force            0.002428     0.000300     NO 
 Maximum Displacement     0.052671     0.001800     NO 
 RMS     Displacement     0.026464     0.001200     NO 
 Predicted change in Energy=-3.358304D-04
 GradGradGradGradGradGradGradGradGradGradGradGradGradGradGradGradGradGrad

                          Input orientation:                          
 ---------------------------------------------------------------------
 Center     Atomic     Atomic              Coordinates (Angstroms)
 Number     Number      Type              X           Y           Z
 ---------------------------------------------------------------------
    1         14             0        0.030731    1.247052    0.000000
    2         14             0       -2.054801    0.044691    0.000000
    3         14             0       -0.032153   -1.246145    0.000000
    4         14             0        2.056223   -0.045598    0.000000
 ---------------------------------------------------------------------
                    Distance matrix (angstroms):
                    1          2          3          4
     1  Si   0.000000
     2  Si   2.407304   0.000000
     3  Si   2.493990   2.399450   0.000000
     4  Si   2.402824   4.112016   2.408865   0.000000
 Stoichiometry    Si4(1-,2)
 Framework group  CS[SG(Si4)]
 Deg. of freedom     5
 Full point group                 CS
 Largest Abelian subgroup         CS      NOp   2
 Largest concise Abelian subgroup C1      NOp   1
                         Standard orientation:                         
 ---------------------------------------------------------------------
 Center     Atomic     Atomic              Coordinates (Angstroms)
 Number     Number      Type              X           Y           Z
 ---------------------------------------------------------------------
    1         14             0       -0.001445   -1.247430    0.000000
    2         14             0       -2.055270    0.008324    0.000000
    3         14             0        0.000000    1.246560    0.000000
    4         14             0        2.056715   -0.007455    0.000000
 ---------------------------------------------------------------------
 Rotational constants (GHZ):      5.8085126      2.1366572      1.5620560
 Standard basis: LANL2DZ (5D, 7F)
 There are    24 symmetry adapted basis functions of A'  symmetry.
 There are     8 symmetry adapted basis functions of A"  symmetry.
 Integral buffers will be    131072 words long.
 Raffenetti 2 integral format.
 Two-electron integral symmetry is turned on.
    32 basis functions,    48 primitive gaussians,    32 cartesian basis functions
     9 alpha electrons        8 beta electrons
       nuclear repulsion energy        19.5383096748 Hartrees.
 NAtoms=    4 NActive=    4 NUniq=    4 SFac= 7.50D-01 NAtFMM=   80 NAOKFM=F Big=F
 One-electron integrals computed using PRISM.
   1 Symmetry operations used in ECPInt.
 ECPInt:  NShTT=     136 NPrTT=     308 LenC2=     137 LenP2D=     305.
 LDataN:  DoStor=F MaxTD1= 3 Len=   28
 LDataN:  DoStor=T MaxTD1= 3 Len=   28
 NBasis=    32 RedAO= T  NBF=    24     8
 NBsUse=    32 1.00D-06 NBFU=    24     8
 Initial guess read from the read-write file:
 Initial guess orbital symmetries:
 Alpha Orbitals:
       Occupied  (A') (A') (A') (A') (A") (A') (A') (A') (A")
       Virtual   (A") (A') (A") (A') (A') (A') (A') (A') (A') (A")
                 (A') (A') (A") (A') (A") (A') (A") (A') (A') (A')
                 (A') (A') (A')
 Beta  Orbitals:
       Occupied  (A') (A') (A') (A') (A") (A') (A') (A')
       Virtual   (A") (A") (A') (A") (A') (A') (A') (A') (A') (A')
                 (A") (A') (A') (A") (A') (A") (A') (A') (A") (A')
                 (A') (A') (A') (A')
 <S**2> of initial guess= 0.7723
 Harris functional with IExCor=  402 diagonalized for initial guess.
 ExpMin= 8.85D-02 ExpMax= 2.58D+00 ExpMxC= 2.58D+00 IAcc=2 IRadAn=         4 AccDes= 0.00D+00
 HarFok:  IExCor= 402 AccDes= 0.00D+00 IRadAn=         4 IDoV=1
 ScaDFX=  1.000000  1.000000  1.000000  1.000000
 Requested convergence on RMS density matrix=1.00D-08 within 128 cycles.
 Requested convergence on MAX density matrix=1.00D-06.
 Requested convergence on             energy=1.00D-06.
 No special actions if energy rises.
 Keep R1 and R2 integrals in memory in canonical form, NReq=     1990320.
 Integral accuracy reduced to 1.0D-05 until final iterations.
 Initial convergence to 1.0D-05 achieved.  Increase integral accuracy.
 SCF Done:  E(UB+HF-LYP) =  -15.4778683152     A.U. after   17 cycles
             Convg  =    0.3099D-08             -V/T =  3.6141
             S**2   =   0.7730
 Annihilation of the first spin contaminant:
 S**2 before annihilation     0.7730,   after     0.7501
 QCSCF skips out because SCF is already converged.
 Range of M.O.s used for correlation:     1    32
 NBasis=    32 NAE=     9 NBE=     8 NFC=     0 NFV=     0
 NROrb=     32 NOA=     9 NOB=     8 NVA=    23 NVB=    24

 **** Warning!!: The smallest alpha delta epsilon is  0.84700062D-01

   2 Symmetry operations used in ECPInt.
 ECPInt:  NShTT=     136 NPrTT=     308 LenC2=     137 LenP2D=     305.
 LDataN:  DoStor=F MaxTD1= 4 Len=   56
 LDataN:  DoStor=T MaxTD1= 4 Len=   56
 Symmetrizing basis deriv contribution to polar:
 IMax=3 JMax=2 DiffMx= 0.00D+00
 G2DrvN: will do    5 centers at a time, making    1 passes doing MaxLOS=1.
 FoFDir/FoFCou used for L=0 through L=1.
 DoAtom=TTTT
          Differentiating once with respect to electric field.
                with respect to dipole field.
          Differentiating once with respect to nuclear coordinates.
          Store integrals in memory, NReq=     1080522.
          There are  15 degrees of freedom in the 1st order CPHF.
    12 vectors were produced by pass  0.
 AX will form  12 AO Fock derivatives at one time.
    12 vectors were produced by pass  1.
    12 vectors were produced by pass  2.
    12 vectors were produced by pass  3.
    12 vectors were produced by pass  4.
    12 vectors were produced by pass  5.
    12 vectors were produced by pass  6.
    11 vectors were produced by pass  7.
     4 vectors were produced by pass  8.
     2 vectors were produced by pass  9.
 Inv2:  IOpt= 1 Iter= 1 AM= 1.05D-15 Conv= 1.00D-12.
 Inverted reduced A of dimension  101 with in-core refinement.
 Isotropic polarizability for W=    0.000000      129.94 Bohr**3.
 End of Minotr Frequency-dependent properties file   721 does not exist.
   2 Symmetry operations used in ECPInt.
 ECPInt:  NShTT=     136 NPrTT=     308 LenC2=     137 LenP2D=     308.
 LDataN:  DoStor=F MaxTD1= 5 Len=  102
 LDataN:  DoStor=T MaxTD1= 5 Len=  102
 ***** Axes restored to original set *****
 -------------------------------------------------------------------
 Center     Atomic                   Forces (Hartrees/Bohr)
 Number     Number              X              Y              Z
 -------------------------------------------------------------------
    1         14          -0.000150265   -0.000045439    0.000000000
    2         14          -0.000082319    0.000260897    0.000000000
    3         14           0.000598132   -0.000027982    0.000000000
    4         14          -0.000365549   -0.000187477    0.000000000
 -------------------------------------------------------------------
 Cartesian Forces:  Max     0.000598132 RMS     0.000228547

 GradGradGradGradGradGradGradGradGradGradGradGradGradGradGradGradGradGrad
 Berny optimization.
 Internal  Forces:  Max     0.000401607 RMS     0.000203807
 Search for a local minimum.
 Step number   3 out of a maximum of 100
 All quantities printed in internal units (Hartrees-Bohrs-Radians)
 Second derivative matrix not updated -- analytic derivatives used.
 Trust test= 1.05D+00 RLast= 1.12D-01 DXMaxT set to 4.24D-01
 The second derivative matrix:
                          R1        R2        R3        R4        R5
           R1           0.04638
           R2          -0.00725   0.06414
           R3           0.00223  -0.00672   0.04706
           R4           0.01998  -0.00674   0.00846   0.04792
           R5           0.00866  -0.00728   0.01989   0.00220   0.04599
           A1           0.00341  -0.01838   0.00310   0.01090   0.01057
           A2           0.01066  -0.01838   0.01069   0.00305   0.00343
                          A1        A2
           A1           0.00931
           A2           0.00389   0.00929
     Eigenvalues ---    0.02594   0.03324   0.05597   0.05714   0.09781
     Eigenvalues --- 1000.000001000.00000
 RFO step:  Lambda=-6.97873999D-06.
 Quintic linear search produced a step of  0.02274.
 Iteration  1 RMS(Cart)=  0.00374178 RMS(Int)=  0.00000589
 Iteration  2 RMS(Cart)=  0.00000352 RMS(Int)=  0.00000338
 Iteration  3 RMS(Cart)=  0.00000000 RMS(Int)=  0.00000338
 Variable       Old X    -DE/DX   Delta X   Delta X   Delta X     New X
                                 (Linear)    (Quad)   (Total)
    R1        4.54915  -0.00019  -0.00004  -0.00598  -0.00602   4.54313
    R2        4.71296   0.00005   0.00166  -0.00159   0.00007   4.71303
    R3        4.54068  -0.00001   0.00076   0.00170   0.00246   4.54314
    R4        4.53430   0.00030   0.00158   0.00710   0.00869   4.54299
    R5        4.55210  -0.00040   0.00061  -0.00961  -0.00901   4.54309
    A1        2.05058  -0.00002   0.00003   0.00027   0.00031   2.05089
    A2        2.05183  -0.00005  -0.00051  -0.00037  -0.00087   2.05096
         Item               Value     Threshold  Converged?
 Maximum Force            0.000402     0.000450     YES
 RMS     Force            0.000204     0.000300     YES
 Maximum Displacement     0.006920     0.001800     NO 
 RMS     Displacement     0.003742     0.001200     NO 
 Predicted change in Energy=-3.695696D-06
 GradGradGradGradGradGradGradGradGradGradGradGradGradGradGradGradGradGrad

                          Input orientation:                          
 ---------------------------------------------------------------------
 Center     Atomic     Atomic              Coordinates (Angstroms)
 Number     Number      Type              X           Y           Z
 ---------------------------------------------------------------------
    1         14             0        0.028475    1.246714    0.000000
    2         14             0       -2.054849    0.046902    0.000000
    3         14             0       -0.028492   -1.246665    0.000000
    4         14             0        2.054866   -0.046951    0.000000
 ---------------------------------------------------------------------
                    Distance matrix (angstroms):
                    1          2          3          4
     1  Si   0.000000
     2  Si   2.404119   0.000000
     3  Si   2.494029   2.404046   0.000000
     4  Si   2.404128   4.110787   2.404099   0.000000
 Stoichiometry    Si4(1-,2)
 Framework group  CS[SG(Si4)]
 Deg. of freedom     5
 Full point group                 CS
 Largest Abelian subgroup         CS      NOp   2
 Largest concise Abelian subgroup C1      NOp   1
                         Standard orientation:                         
 ---------------------------------------------------------------------
 Center     Atomic     Atomic              Coordinates (Angstroms)
 Number     Number      Type              X           Y           Z
 ---------------------------------------------------------------------
    1         14             0       -0.000018   -1.247039    0.000000
    2         14             0       -2.055384    0.000060    0.000000
    3         14             0        0.000000    1.246990    0.000000
    4         14             0        2.055402   -0.000012    0.000000
 ---------------------------------------------------------------------
 Rotational constants (GHZ):      5.8082349      2.1379487      1.5627261
 Standard basis: LANL2DZ (5D, 7F)
 There are    24 symmetry adapted basis functions of A'  symmetry.
 There are     8 symmetry adapted basis functions of A"  symmetry.
 Integral buffers will be    131072 words long.
 Raffenetti 2 integral format.
 Two-electron integral symmetry is turned on.
    32 basis functions,    48 primitive gaussians,    32 cartesian basis functions
     9 alpha electrons        8 beta electrons
       nuclear repulsion energy        19.5418440373 Hartrees.
 NAtoms=    4 NActive=    4 NUniq=    4 SFac= 7.50D-01 NAtFMM=   80 NAOKFM=F Big=F
 One-electron integrals computed using PRISM.
   1 Symmetry operations used in ECPInt.
 ECPInt:  NShTT=     136 NPrTT=     308 LenC2=     137 LenP2D=     305.
 LDataN:  DoStor=F MaxTD1= 3 Len=   28
 LDataN:  DoStor=T MaxTD1= 3 Len=   28
 NBasis=    32 RedAO= T  NBF=    24     8
 NBsUse=    32 1.00D-06 NBFU=    24     8
 Initial guess read from the read-write file:
 Initial guess orbital symmetries:
 Alpha Orbitals:
       Occupied  (A') (A') (A') (A') (A") (A') (A') (A') (A")
       Virtual   (A") (A') (A") (A') (A') (A') (A') (A') (A') (A")
                 (A') (A') (A") (A') (A") (A') (A') (A") (A') (A')
                 (A') (A') (A')
 Beta  Orbitals:
       Occupied  (A') (A') (A') (A') (A") (A') (A') (A')
       Virtual   (A") (A") (A') (A") (A') (A') (A') (A') (A') (A')
                 (A") (A') (A') (A') (A") (A") (A') (A') (A") (A')
                 (A') (A') (A') (A')
 <S**2> of initial guess= 0.7730
 Requested convergence on RMS density matrix=1.00D-08 within 128 cycles.
 Requested convergence on MAX density matrix=1.00D-06.
 Requested convergence on             energy=1.00D-06.
 No special actions if energy rises.
 Keep R1 and R2 integrals in memory in canonical form, NReq=     1990320.
 SCF Done:  E(UB+HF-LYP) =  -15.4778720125     A.U. after   12 cycles
             Convg  =    0.1601D-08             -V/T =  3.6138
             S**2   =   0.7730
 Annihilation of the first spin contaminant:
 S**2 before annihilation     0.7730,   after     0.7501
 QCSCF skips out because SCF is already converged.
 Range of M.O.s used for correlation:     1    32
 NBasis=    32 NAE=     9 NBE=     8 NFC=     0 NFV=     0
 NROrb=     32 NOA=     9 NOB=     8 NVA=    23 NVB=    24

 **** Warning!!: The smallest alpha delta epsilon is  0.84643116D-01

   2 Symmetry operations used in ECPInt.
 ECPInt:  NShTT=     136 NPrTT=     308 LenC2=     137 LenP2D=     305.
 LDataN:  DoStor=F MaxTD1= 4 Len=   56
 LDataN:  DoStor=T MaxTD1= 4 Len=   56
 Symmetrizing basis deriv contribution to polar:
 IMax=3 JMax=2 DiffMx= 0.00D+00
 G2DrvN: will do    5 centers at a time, making    1 passes doing MaxLOS=1.
 FoFDir/FoFCou used for L=0 through L=1.
 DoAtom=TTTT
          Differentiating once with respect to electric field.
                with respect to dipole field.
          Differentiating once with respect to nuclear coordinates.
          Store integrals in memory, NReq=     1080522.
          There are  15 degrees of freedom in the 1st order CPHF.
    12 vectors were produced by pass  0.
 AX will form  12 AO Fock derivatives at one time.
    12 vectors were produced by pass  1.
    12 vectors were produced by pass  2.
    12 vectors were produced by pass  3.
    12 vectors were produced by pass  4.
    12 vectors were produced by pass  5.
    12 vectors were produced by pass  6.
    10 vectors were produced by pass  7.
     3 vectors were produced by pass  8.
     2 vectors were produced by pass  9.
 Inv2:  IOpt= 1 Iter= 1 AM= 1.16D-15 Conv= 1.00D-12.
 Inverted reduced A of dimension   99 with in-core refinement.
 Isotropic polarizability for W=    0.000000      129.91 Bohr**3.
 End of Minotr Frequency-dependent properties file   721 does not exist.
   2 Symmetry operations used in ECPInt.
 ECPInt:  NShTT=     136 NPrTT=     308 LenC2=     137 LenP2D=     308.
 LDataN:  DoStor=F MaxTD1= 5 Len=  102
 LDataN:  DoStor=T MaxTD1= 5 Len=  102
 ***** Axes restored to original set *****
 -------------------------------------------------------------------
 Center     Atomic                   Forces (Hartrees/Bohr)
 Number     Number              X              Y              Z
 -------------------------------------------------------------------
    1         14           0.000001699    0.000003300    0.000000000
    2         14          -0.000006131    0.000002483    0.000000000
    3         14           0.000003829   -0.000006676    0.000000000
    4         14           0.000000602    0.000000894    0.000000000
 -------------------------------------------------------------------
 Cartesian Forces:  Max     0.000006676 RMS     0.000003135

 GradGradGradGradGradGradGradGradGradGradGradGradGradGradGradGradGradGrad
 Berny optimization.
 Internal  Forces:  Max     0.000005572 RMS     0.000002520
 Search for a local minimum.
 Step number   4 out of a maximum of 100
 All quantities printed in internal units (Hartrees-Bohrs-Radians)
 Second derivative matrix not updated -- analytic derivatives used.
 Trust test= 1.00D+00 RLast= 1.41D-02 DXMaxT set to 4.24D-01
 The second derivative matrix:
                          R1        R2        R3        R4        R5
           R1           0.04695
           R2          -0.00701   0.06417
           R3           0.00223  -0.00701   0.04694
           R4           0.01997  -0.00701   0.00856   0.04696
           R5           0.00856  -0.00702   0.01997   0.00223   0.04695
           A1           0.00325  -0.01839   0.00325   0.01074   0.01074
           A2           0.01074  -0.01839   0.01074   0.00325   0.00325
                          A1        A2
           A1           0.00932
           A2           0.00389   0.00932
     Eigenvalues ---    0.02609   0.03331   0.05614   0.05711   0.09798
     Eigenvalues --- 1000.000001000.00000
 RFO step:  Lambda= 0.00000000D+00.
 Quintic linear search produced a step of  0.00421.
 Iteration  1 RMS(Cart)=  0.00004247 RMS(Int)=  0.00000001
 Iteration  2 RMS(Cart)=  0.00000000 RMS(Int)=  0.00000001
 Variable       Old X    -DE/DX   Delta X   Delta X   Delta X     New X
                                 (Linear)    (Quad)   (Total)
    R1        4.54313   0.00000  -0.00003   0.00002  -0.00001   4.54312
    R2        4.71303   0.00000   0.00000   0.00005   0.00005   4.71309
    R3        4.54314   0.00000   0.00001  -0.00003  -0.00002   4.54312
    R4        4.54299   0.00001   0.00004   0.00009   0.00013   4.54312
    R5        4.54309   0.00000  -0.00004   0.00007   0.00003   4.54312
    A1        2.05089   0.00000   0.00000   0.00003   0.00003   2.05092
    A2        2.05096   0.00000   0.00000  -0.00004  -0.00004   2.05092
         Item               Value     Threshold  Converged?
 Maximum Force            0.000006     0.000450     YES
 RMS     Force            0.000003     0.000300     YES
 Maximum Displacement     0.000073     0.001800     YES
 RMS     Displacement     0.000042     0.001200     YES
 Predicted change in Energy=-4.777928D-10
 Optimization completed.
    -- Stationary point found.
                           ----------------------------
                           !   Optimized Parameters   !
                           ! (Angstroms and Degrees)  !
 --------------------------                            --------------------------
 ! Name  Definition              Value          Derivative Info.                !
 --------------------------------------------------------------------------------
 ! R1    R(1,2)                  2.4041         -DE/DX =    0.0                 !
 ! R2    R(1,3)                  2.494          -DE/DX =    0.0                 !
 ! R3    R(1,4)                  2.4041         -DE/DX =    0.0                 !
 ! R4    R(2,3)                  2.404          -DE/DX =    0.0                 !
 ! R5    R(3,4)                  2.4041         -DE/DX =    0.0                 !
 ! A1    A(2,1,4)              117.5073         -DE/DX =    0.0                 !
 ! A2    A(2,3,4)              117.5113         -DE/DX =    0.0                 !
 --------------------------------------------------------------------------------
 GradGradGradGradGradGradGradGradGradGradGradGradGradGradGradGradGradGrad

                          Input orientation:                          
 ---------------------------------------------------------------------
 Center     Atomic     Atomic              Coordinates (Angstroms)
 Number     Number      Type              X           Y           Z
 ---------------------------------------------------------------------
    1         14             0        0.028475    1.246714    0.000000
    2         14             0       -2.054849    0.046902    0.000000
    3         14             0       -0.028492   -1.246665    0.000000
    4         14             0        2.054866   -0.046951    0.000000
 ---------------------------------------------------------------------
                    Distance matrix (angstroms):
                    1          2          3          4
     1  Si   0.000000
     2  Si   2.404119   0.000000
     3  Si   2.494029   2.404046   0.000000
     4  Si   2.404128   4.110787   2.404099   0.000000
 Stoichiometry    Si4(1-,2)
 Framework group  CS[SG(Si4)]
 Deg. of freedom     5
 Full point group                 CS
 Largest Abelian subgroup         CS      NOp   2
 Largest concise Abelian subgroup C1      NOp   1
                         Standard orientation:                         
 ---------------------------------------------------------------------
 Center     Atomic     Atomic              Coordinates (Angstroms)
 Number     Number      Type              X           Y           Z
 ---------------------------------------------------------------------
    1         14             0       -0.000018   -1.247039    0.000000
    2         14             0       -2.055384    0.000060    0.000000
    3         14             0        0.000000    1.246990    0.000000
    4         14             0        2.055402   -0.000012    0.000000
 ---------------------------------------------------------------------
 Rotational constants (GHZ):      5.8082349      2.1379487      1.5627261

 **********************************************************************

            Population analysis using the SCF density.

 **********************************************************************

 Orbital symmetries:
 Alpha Orbitals:
       Occupied  (A') (A') (A') (A') (A") (A') (A') (A') (A")
       Virtual   (A") (A') (A") (A') (A') (A') (A') (A') (A') (A")
                 (A') (A') (A") (A') (A") (A') (A') (A") (A') (A')
                 (A') (A') (A')
 Beta  Orbitals:
       Occupied  (A') (A') (A') (A') (A") (A') (A') (A')
       Virtual   (A") (A") (A') (A") (A') (A') (A') (A') (A') (A')
                 (A") (A') (A') (A') (A") (A") (A') (A') (A") (A')
                 (A') (A') (A') (A')
 The electronic state is 2-A".
 Alpha  occ. eigenvalues --   -0.44015  -0.31490  -0.23609  -0.16341  -0.09744
 Alpha  occ. eigenvalues --   -0.08683  -0.06594  -0.05168  -0.01300
 Alpha virt. eigenvalues --    0.07164   0.08217   0.10689   0.16515   0.17067
 Alpha virt. eigenvalues --    0.21052   0.22529   0.45242   0.46373   0.47833
 Alpha virt. eigenvalues --    0.48965   0.49313   0.49505   0.49641   0.50307
 Alpha virt. eigenvalues --    0.53066   0.53632   0.53634   0.59643   5.75440
 Alpha virt. eigenvalues --    8.21172   9.15691   9.25091
  Beta  occ. eigenvalues --   -0.43614  -0.29697  -0.23836  -0.14760  -0.08382
  Beta  occ. eigenvalues --   -0.08332  -0.06749  -0.04463
  Beta virt. eigenvalues --    0.05875   0.06633   0.08798   0.13583   0.16437
  Beta virt. eigenvalues --    0.17735   0.21505   0.22796   0.45339   0.46629
  Beta virt. eigenvalues --    0.48812   0.49226   0.49539   0.49582   0.50018
  Beta virt. eigenvalues --    0.51969   0.53494   0.53900   0.54762   0.59787
  Beta virt. eigenvalues --    5.75739   8.21632   9.15694   9.25164
          Condensed to atoms (all electrons):
              1          2          3          4
     1  Si   3.843414   0.204674  -0.014638   0.204677
     2  Si   0.204674   3.946686   0.204692  -0.094186
     3  Si  -0.014638   0.204692   3.843404   0.204679
     4  Si   0.204677  -0.094186   0.204679   3.946699
 Mulliken atomic charges:
              1
     1  Si  -0.238127
     2  Si  -0.261867
     3  Si  -0.238138
     4  Si  -0.261868
 Sum of Mulliken charges=  -1.00000
 Atomic charges with hydrogens summed into heavy atoms:
              1
     1  Si  -0.238127
     2  Si  -0.261867
     3  Si  -0.238138
     4  Si  -0.261868
 Sum of Mulliken charges=  -1.00000
          Atomic-Atomic Spin Densities.
              1          2          3          4
     1  Si  -0.106743  -0.004619  -0.010089  -0.004613
     2  Si  -0.004619   0.650957  -0.004612  -0.015684
     3  Si  -0.010089  -0.004612  -0.106749  -0.004620
     4  Si  -0.004613  -0.015684  -0.004620   0.651012
 Mulliken atomic spin densities:
              1
     1  Si  -0.126066
     2  Si   0.626042
     3  Si  -0.126071
     4  Si   0.626095
 Sum of Mulliken spin densities=   1.00000
 APT atomic charges:
              1
     1  Si  -0.203235
     2  Si  -0.296752
     3  Si  -0.203264
     4  Si  -0.296749
 Sum of APT charges=  -1.00000
 APT Atomic charges with hydrogens summed into heavy atoms:
              1
     1  Si  -0.203235
     2  Si  -0.296752
     3  Si  -0.203264
     4  Si  -0.296749
 Sum of APT charges=  -1.00000
 Electronic spatial extent (au):  <R**2>=   310.1952
 Charge=    -1.0000 electrons
 Dipole moment (field-independent basis, Debye):
    X=     0.0000    Y=     0.0000    Z=     0.0000  Tot=     0.0000
 Quadrupole moment (field-independent basis, Debye-Ang):
   XX=   -78.9901   YY=   -61.9464   ZZ=   -54.1985
   XY=     0.0002   XZ=     0.0000   YZ=     0.0000
 Traceless Quadrupole moment (field-independent basis, Debye-Ang):
   XX=   -13.9451   YY=     3.0986   ZZ=    10.8465
   XY=     0.0002   XZ=     0.0000   YZ=     0.0000
 Octapole moment (field-independent basis, Debye-Ang**2):
  XXX=    -0.0003  YYY=     0.0012  ZZZ=     0.0000  XYY=     0.0000
  XXY=    -0.0006  XXZ=     0.0000  XZZ=    -0.0003  YZZ=    -0.0002
  YYZ=     0.0000  XYZ=     0.0000
 Hexadecapole moment (field-independent basis, Debye-Ang**3):
 XXXX= -1040.6458 YYYY=  -408.2429 ZZZZ=  -119.7350 XXXY=     0.0080
 XXXZ=     0.0000 YYYX=     0.0042 YYYZ=     0.0000 ZZZX=     0.0000
 ZZZY=     0.0000 XXYY=  -197.7562 XXZZ=  -166.5556 YYZZ=   -80.1759
 XXYZ=     0.0000 YYXZ=     0.0000 ZZXY=     0.0019
 N-N= 1.954184403734D+01 E-N=-7.039431346817D+01  KE= 5.921647961185D+00
 Symmetry A'   KE= 4.922550095794D+00
 Symmetry A"   KE= 9.990978653912D-01
  Exact polarizability: 203.111  -0.001 135.586   0.000   0.000  51.044
 Approx polarizability: 571.298  -0.002 396.365   0.000   0.000  69.413
                          Isotropic Fermi Contact Couplings
        Atom                 a.u.       MegaHertz       Gauss      10(-4) cm-1
     1  Si(29)             0.00000       0.00011       0.00004       0.00004
     2  Si(29)             0.00000       0.00016       0.00006       0.00005
     3  Si(29)             0.00000       0.00011       0.00004       0.00004
     4  Si(29)             0.00000       0.00016       0.00006       0.00005
 --------------------------------------------------------
       Center         ----  Spin Dipole Couplings  ----
                      3XX-RR        3YY-RR        3ZZ-RR
 --------------------------------------------------------
     1   Atom        0.010957     -0.000185     -0.010771
     2   Atom       -0.030836     -0.029990      0.060826
     3   Atom        0.010958     -0.000187     -0.010772
     4   Atom       -0.030839     -0.029992      0.060831
 --------------------------------------------------------
                        XY            XZ            YZ
 --------------------------------------------------------
     1   Atom        0.000000      0.000000      0.000000
     2   Atom        0.000000      0.000000      0.000000
     3   Atom        0.000000      0.000000      0.000000
     4   Atom        0.000000      0.000000      0.000000
 --------------------------------------------------------


 ---------------------------------------------------------------------------------
              Anisotropic Spin Dipole Couplings in Principal Axis System
 ---------------------------------------------------------------------------------

       Atom             a.u.   MegaHertz   Gauss  10(-4) cm-1        Axes

              Baa    -0.0108     1.143     0.408     0.381  0.0000  0.0000  1.0000
     1 Si(29) Bbb    -0.0002     0.020     0.007     0.007  0.0000  1.0000  0.0000
              Bcc     0.0110    -1.162    -0.415    -0.388  1.0000  0.0000  0.0000
 
              Baa    -0.0308     3.271     1.167     1.091  1.0000  0.0002  0.0000
     2 Si(29) Bbb    -0.0300     3.181     1.135     1.061 -0.0002  1.0000  0.0000
              Bcc     0.0608    -6.453    -2.302    -2.152  0.0000  0.0000  1.0000
 
              Baa    -0.0108     1.143     0.408     0.381  0.0000  0.0000  1.0000
     3 Si(29) Bbb    -0.0002     0.020     0.007     0.007  0.0000  1.0000  0.0000
              Bcc     0.0110    -1.162    -0.415    -0.388  1.0000  0.0000  0.0000
 
              Baa    -0.0308     3.272     1.167     1.091  1.0000 -0.0002  0.0000
     4 Si(29) Bbb    -0.0300     3.182     1.135     1.061  0.0002  1.0000  0.0000
              Bcc     0.0608    -6.453    -2.303    -2.153  0.0000  0.0000  1.0000
 

 ---------------------------------------------------------------------------------

 Rotating derivatives to standard orientation.
 Full mass-weighted force constant matrix:
 Low frequencies ---    0.0001    0.0001    0.0002    2.7814    4.8270    5.7962
 Low frequencies ---  143.3462  183.0183  250.8349
 Diagonal vibrational polarizability:
        0.0258443       0.1601463       3.8584426
 Harmonic frequencies (cm**-1), IR intensities (KM/Mole), Raman scattering
 activities (A**4/AMU), depolarization ratios for plane and unpolarized
 incident light, reduced masses (AMU), force constants (mDyne/A),
 and normal coordinates:
                     1                      2                      3
                    A"                     A'                     A'
 Frequencies --   143.3462               183.0183               250.8348
 Red. masses --    27.9769                27.9769                27.9769
 Frc consts  --     0.3387                 0.5521                 1.0371
 IR Inten    --     2.9461                 0.1993                 0.0000
 Atom AN      X      Y      Z        X      Y      Z        X      Y      Z
   1  14     0.00   0.00   0.50     0.00  -0.50   0.00     0.60   0.00   0.00
   2  14     0.00   0.00  -0.50     0.00   0.50   0.00     0.00   0.37   0.00
   3  14     0.00   0.00   0.50     0.00  -0.50   0.00    -0.60   0.00   0.00
   4  14     0.00   0.00  -0.50     0.00   0.50   0.00     0.00  -0.37   0.00
                     4                      5                      6
                    A'                     A'                     A'
 Frequencies --   319.5446               393.7454               408.6456
 Red. masses --    27.9769                27.9769                27.9769
 Frc consts  --     1.6831                 2.5555                 2.7526
 IR Inten    --     0.0000                 0.1489                 0.0000
 Atom AN      X      Y      Z        X      Y      Z        X      Y      Z
   1  14     0.00  -0.35   0.00     0.50   0.00   0.00     0.00   0.61   0.00
   2  14     0.61   0.00   0.00    -0.50   0.00   0.00     0.35   0.00   0.00
   3  14     0.00   0.35   0.00     0.50   0.00   0.00     0.00  -0.61   0.00
   4  14    -0.61   0.00   0.00    -0.50   0.00   0.00    -0.35   0.00   0.00

 -------------------
 - Thermochemistry -
 -------------------
 Temperature   298.150 Kelvin.  Pressure   1.00000 Atm.
 Atom  1 has atomic number 14 and mass  27.97693
 Atom  2 has atomic number 14 and mass  27.97693
 Atom  3 has atomic number 14 and mass  27.97693
 Atom  4 has atomic number 14 and mass  27.97693
 Molecular mass:   111.90771 amu.
 Principal axes and moments of inertia in atomic units:
                           1         2         3
     EIGENVALUES --   310.72111 844.146151154.86726
           X            1.00000   0.00002   0.00000
           Y           -0.00002   1.00000   0.00000
           Z            0.00000   0.00000   1.00000
 This molecule is an asymmetric top.
 Rotational symmetry number  1.
 Rotational temperatures (Kelvin)      0.27875     0.10261     0.07500
 Rotational constants (GHZ):           5.80823     2.13795     1.56273
 Zero-point vibrational energy      10163.1 (Joules/Mol)
                                    2.42904 (Kcal/Mol)
 Warning -- explicit consideration of   6 degrees of freedom as
           vibrations may cause significant error
 Vibrational temperatures:    206.24   263.32   360.89   459.75   566.51
          (Kelvin)            587.95
 
 Zero-point correction=                           0.003871 (Hartree/Particle)
 Thermal correction to Energy=                    0.009444
 Thermal correction to Enthalpy=                  0.010389
 Thermal correction to Gibbs Free Energy=        -0.026980
 Sum of electronic and zero-point Energies=            -15.474001
 Sum of electronic and thermal Energies=               -15.468428
 Sum of electronic and thermal Enthalpies=             -15.467483
 Sum of electronic and thermal Free Energies=          -15.504852
 
                     E (Thermal)             CV                S
                      KCal/Mol        Cal/Mol-Kelvin    Cal/Mol-Kelvin
 Total                    5.926             16.067             78.648
 Electronic               0.000              0.000              1.377
 Translational            0.889              2.981             40.053
 Rotational               0.889              2.981             27.207
 Vibrational              4.149             10.105             10.011
 Vibration  1             0.616              1.910              2.759
 Vibration  2             0.631              1.863              2.297
 Vibration  3             0.663              1.761              1.725
 Vibration  4             0.705              1.636              1.312
 Vibration  5             0.761              1.484              0.986
 Vibration  6             0.773              1.451              0.931
                       Q            Log10(Q)             Ln(Q)
 Total Bot       0.256937D+13         12.409827         28.574683
 Total V=0       0.154996D+15         14.190320         32.674420
 Vib (Bot)       0.140135D+00         -0.853455         -1.965152
 Vib (Bot)  1    0.141720D+01          0.151431          0.348683
 Vib (Bot)  2    0.109628D+01          0.039923          0.091926
 Vib (Bot)  3    0.777780D+00         -0.109143         -0.251311
 Vib (Bot)  4    0.588443D+00         -0.230296         -0.530276
 Vib (Bot)  5    0.454732D+00         -0.342245         -0.788048
 Vib (Bot)  6    0.433386D+00         -0.363125         -0.836126
 Vib (V=0)       0.845354D+01          0.927038          2.134585
 Vib (V=0)  1    0.200282D+01          0.301641          0.694554
 Vib (V=0)  2    0.170492D+01          0.231705          0.533520
 Vib (V=0)  3    0.142463D+01          0.153702          0.353913
 Vib (V=0)  4    0.127218D+01          0.104549          0.240733
 Vib (V=0)  5    0.117586D+01          0.070354          0.161996
 Vib (V=0)  6    0.116168D+01          0.065087          0.149869
 Electronic      0.200000D+01          0.301030          0.693147
 Translational   0.465313D+08          7.667745         17.655636
 Rotational      0.197018D+06          5.294507         12.191052
 ***** Axes restored to original set *****
 -------------------------------------------------------------------
 Center     Atomic                   Forces (Hartrees/Bohr)
 Number     Number              X              Y              Z
 -------------------------------------------------------------------
    1         14           0.000001699    0.000003300    0.000000000
    2         14          -0.000006131    0.000002483    0.000000000
    3         14           0.000003829   -0.000006676    0.000000000
    4         14           0.000000602    0.000000894    0.000000000
 -------------------------------------------------------------------
 Cartesian Forces:  Max     0.000006676 RMS     0.000003135
 1\1\GINC-NODE35\Freq\UB3LYP\LANL2DZ\Si4(1-,2)\TAM\06-Apr-2011\0\\# b3l
 yp/LANL2DZ opt=(calcall,noeigentest,maxcycle=500) scfcyc=500 scf=xqc\\
 si4-n\\-1,2\Si,0.0284746448,1.246713593,0.\Si,-2.0548490856,0.04690182
 09,0.\Si,-0.0284915899,-1.2466647058,0.\Si,2.0548660407,-0.0469507181,
 0.\\Version=AM64L-G03RevE.01\State=2-A"\HF=-15.477872\S2=0.772981\S2-1
 =0.\S2A=0.750075\RMSD=1.601e-09\RMSF=3.135e-06\ZeroPoint=0.0038709\The
 rmal=0.0094444\Dipole=-0.0000024,-0.0000069,0.\DipoleDeriv=-0.2173418,
 -0.0016067,0.,-0.0016026,-0.2877407,0.,0.,0.,-0.104622,-0.2826479,0.00
 16222,0.,0.0015976,-0.2122233,0.,0.,0.,-0.3953862,-0.2173651,-0.001619
 9,0.,-0.0016098,-0.2878187,0.,0.,0.,-0.1046077,-0.2826452,0.0016045,0.
 ,0.0016148,-0.2122173,0.,0.,0.,-0.3953842\Polar=203.0759287,-1.5412639
 ,135.6210888,0.,0.,51.0436818\PG=CS [SG(Si4)]\NImag=0\\0.06535920,0.00
 053417,0.08869674,0.,0.,0.00545686,-0.04169164,-0.01410403,0.,0.103607
 50,-0.01402987,-0.00820561,0.,-0.00196569,0.01790173,0.,0.,-0.00543878
 ,0.,0.,0.00545052,0.01666768,-0.00200131,0.,-0.04035218,0.01550671,0.,
 0.06538118,-0.00200125,-0.07093199,0.,0.01558038,-0.00956196,0.,0.0005
 2542,0.08869801,0.,0.,0.00542103,0.,0.,-0.00543821,0.,0.,0.00545633,-0
 .04033523,0.01557118,0.,-0.02156368,0.00048885,0.,-0.04169668,-0.01410
 455,0.,0.10359559,0.01549695,-0.00955914,0.,0.00048934,-0.00013415,0.,
 -0.01403082,-0.00820406,0.,-0.00195548,0.01789735,0.,0.,-0.00543911,0.
 ,0.,0.00542647,0.,0.,-0.00543914,0.,0.,0.00545178\\-0.00000170,-0.0000
 0330,0.,0.00000613,-0.00000248,0.,-0.00000383,0.00000668,0.,-0.0000006
 0,-0.00000089,0.\\\@


 THE DIFFERENCE BETWEEN A NOOSE AND A HALO IS ONLY 12 INCHES.
 Job cpu time:  0 days  0 hours  3 minutes  8.9 seconds.
 File lengths (MBytes):  RWF=     13 Int=      0 D2E=      0 Chk=      9 Scr=      1
 Normal termination of Gaussian 03 at Wed Apr  6 16:49:41 2011.
 Initial command:
 /usr/local/chem/g03E01/l1.exe /temp0/tam/Gau-13172.inp -scrdir=/temp0/tam/
 Entering Link 1 = /usr/local/chem/g03E01/l1.exe PID=     13402.
  
 Copyright (c) 1988,1990,1992,1993,1995,1998,2003,2004,2007, Gaussian, Inc.
                  All Rights Reserved.
  
 This is the Gaussian(R) 03 program.  It is based on the
 the Gaussian(R) 98 system (copyright 1998, Gaussian, Inc.),
 the Gaussian(R) 94 system (copyright 1995, Gaussian, Inc.),
 the Gaussian 92(TM) system (copyright 1992, Gaussian, Inc.),
 the Gaussian 90(TM) system (copyright 1990, Gaussian, Inc.),
 the Gaussian 88(TM) system (copyright 1988, Gaussian, Inc.),
 the Gaussian 86(TM) system (copyright 1986, Carnegie Mellon
 University), and the Gaussian 82(TM) system (copyright 1983,
 Carnegie Mellon University). Gaussian is a federally registered
 trademark of Gaussian, Inc.
  
 This software contains proprietary and confidential information,
 including trade secrets, belonging to Gaussian, Inc.
  
 This software is provided under written license and may be
 used, copied, transmitted, or stored only in accord with that
 written license.
  
 The following legend is applicable only to US Government
 contracts under FAR:
  
                    RESTRICTED RIGHTS LEGEND
  
 Use, reproduction and disclosure by the US Government is
 subject to restrictions as set forth in subparagraphs (a)
 and (c) of the Commercial Computer Software - Restricted
 Rights clause in FAR 52.227-19.
  
 Gaussian, Inc.
 340 Quinnipiac St., Bldg. 40, Wallingford CT 06492
  
  
 ---------------------------------------------------------------
 Warning -- This program may not be used in any manner that
 competes with the business of Gaussian, Inc. or will provide
 assistance to any competitor of Gaussian, Inc.  The licensee
 of this program is prohibited from giving any competitor of
 Gaussian, Inc. access to this program.  By using this program,
 the user acknowledges that Gaussian, Inc. is engaged in the
 business of creating and licensing software in the field of
 computational chemistry and represents and warrants to the
 licensee that it is not a competitor of Gaussian, Inc. and that
 it will not use this program in any manner prohibited above.
 ---------------------------------------------------------------
  

 Cite this work as:
 Gaussian 03, Revision E.01,
 M. J. Frisch, G. W. Trucks, H. B. Schlegel, G. E. Scuseria, 
 M. A. Robb, J. R. Cheeseman, J. A. Montgomery, Jr., T. Vreven, 
 K. N. Kudin, J. C. Burant, J. M. Millam, S. S. Iyengar, J. Tomasi, 
 V. Barone, B. Mennucci, M. Cossi, G. Scalmani, N. Rega, 
 G. A. Petersson, H. Nakatsuji, M. Hada, M. Ehara, K. Toyota, 
 R. Fukuda, J. Hasegawa, M. Ishida, T. Nakajima, Y. Honda, O. Kitao, 
 H. Nakai, M. Klene, X. Li, J. E. Knox, H. P. Hratchian, J. B. Cross, 
 V. Bakken, C. Adamo, J. Jaramillo, R. Gomperts, R. E. Stratmann, 
 O. Yazyev, A. J. Austin, R. Cammi, C. Pomelli, J. W. Ochterski, 
 P. Y. Ayala, K. Morokuma, G. A. Voth, P. Salvador, J. J. Dannenberg, 
 V. G. Zakrzewski, S. Dapprich, A. D. Daniels, M. C. Strain, 
 O. Farkas, D. K. Malick, A. D. Rabuck, K. Raghavachari, 
 J. B. Foresman, J. V. Ortiz, Q. Cui, A. G. Baboul, S. Clifford, 
 J. Cioslowski, B. B. Stefanov, G. Liu, A. Liashenko, P. Piskorz, 
 I. Komaromi, R. L. Martin, D. J. Fox, T. Keith, M. A. Al-Laham, 
 C. Y. Peng, A. Nanayakkara, M. Challacombe, P. M. W. Gill, 
 B. Johnson, W. Chen, M. W. Wong, C. Gonzalez, and J. A. Pople, 
 Gaussian, Inc., Wallingford CT, 2004.
 
 ******************************************
 Gaussian 03:  AM64L-G03RevE.01 11-Sep-2007
                 6-Apr-2011 
 ******************************************
 %NprocShared=4
 Will use up to    4 processors via shared memory.
 %mem=3750MB
 %chk=S9L-ne-d-01
 ----------------------------------------------------------------------
 # b3lyp/6-311G(d) opt=(readfc,noeigentest,maxcycle=500) freq scfcyc=50
 0 optcyc=500 geom=allcheck guess=read scf=xqc
 ----------------------------------------------------------------------
 1/6=500,10=3,11=1,14=-1,18=20,26=3,29=7,38=1/1,3;
 2/9=110,40=1/2;
 3/5=4,6=6,7=1,11=2,16=1,25=1,30=1,74=-5/1,2,3;
 4/5=1/1;
 5/5=2,7=500,8=3,13=1,38=6/2,8;
 6/7=2,8=2,9=2,10=2,28=1/1;
 7//1,2,3,16;
 1/6=500,11=1,14=-1,18=20/3(3);
 2/9=110/2;
 6/7=2,8=2,9=2,10=2,19=2,28=1/1;
 99//99;
 2/9=110/2;
 3/5=4,6=6,7=1,11=2,16=1,25=1,30=1,74=-5/1,2,3;
 4/5=5,16=3/1;
 5/5=2,7=500,8=3,13=1,38=5/2,8;
 7//1,2,3,16;
 1/6=500,11=1,14=-1,18=20/3(-5);
 2/9=110/2;
 6/7=2,8=2,9=2,10=2,19=2,28=1/1;
 99/9=1/99;
 -----
 si4-n
 -----
 Redundant internal coordinates taken from checkpoint file:
 S9L-ne-d-01.chk
 Charge = -1 Multiplicity = 2
 Si,0,0.0284746448,1.246713593,0.
 Si,0,-2.0548490856,0.0469018209,0.
 Si,0,-0.0284915899,-1.2466647058,0.
 Si,0,2.0548660407,-0.0469507181,0.
 Recover connectivity data from disk.

 GradGradGradGradGradGradGradGradGradGradGradGradGradGradGradGradGradGrad
 Berny optimization.
 Initialization pass.
 Force constant matrix read from checkpoint file:
 S9L-ne-d-01.chk
                           ----------------------------
                           !    Initial Parameters    !
                           ! (Angstroms and Degrees)  !
 --------------------------                            --------------------------
 ! Name  Definition              Value          Derivative Info.                !
 --------------------------------------------------------------------------------
 ! R1    R(1,2)                  2.4041         D2E/DX2 =    0.0469             !
 ! R2    R(1,3)                  2.494          D2E/DX2 =    0.0642             !
 ! R3    R(1,4)                  2.4041         D2E/DX2 =    0.0469             !
 ! R4    R(2,3)                  2.404          D2E/DX2 =    0.047              !
 ! R5    R(3,4)                  2.4041         D2E/DX2 =    0.047              !
 ! A1    A(2,1,4)              117.5073         D2E/DX2 =    0.0093             !
 ! A2    A(2,3,4)              117.5113         D2E/DX2 =    0.0093             !
 --------------------------------------------------------------------------------
 Trust Radius=3.00D-01 FncErr=1.00D-07 GrdErr=1.00D-06
 Number of steps in this run= 100 maximum allowed number of steps= 100.
 GradGradGradGradGradGradGradGradGradGradGradGradGradGradGradGradGradGrad

                          Input orientation:                          
 ---------------------------------------------------------------------
 Center     Atomic     Atomic              Coordinates (Angstroms)
 Number     Number      Type              X           Y           Z
 ---------------------------------------------------------------------
    1         14             0        0.028475    1.246714    0.000000
    2         14             0       -2.054849    0.046902    0.000000
    3         14             0       -0.028492   -1.246665    0.000000
    4         14             0        2.054866   -0.046951    0.000000
 ---------------------------------------------------------------------
                    Distance matrix (angstroms):
                    1          2          3          4
     1  Si   0.000000
     2  Si   2.404119   0.000000
     3  Si   2.494029   2.404046   0.000000
     4  Si   2.404128   4.110787   2.404099   0.000000
 Stoichiometry    Si4(1-,2)
 Framework group  CS[SG(Si4)]
 Deg. of freedom     5
 Full point group                 CS
 Largest Abelian subgroup         CS      NOp   2
 Largest concise Abelian subgroup C1      NOp   1
                         Standard orientation:                         
 ---------------------------------------------------------------------
 Center     Atomic     Atomic              Coordinates (Angstroms)
 Number     Number      Type              X           Y           Z
 ---------------------------------------------------------------------
    1         14             0       -0.000018   -1.247039    0.000000
    2         14             0       -2.055384    0.000060    0.000000
    3         14             0        0.000000    1.246990    0.000000
    4         14             0        2.055402   -0.000012    0.000000
 ---------------------------------------------------------------------
 Rotational constants (GHZ):      5.8082349      2.1379487      1.5627261
 Standard basis: 6-311G(d) (5D, 7F)
 There are    76 symmetry adapted basis functions of A'  symmetry.
 There are    28 symmetry adapted basis functions of A"  symmetry.
 Integral buffers will be    131072 words long.
 Raffenetti 2 integral format.
 Two-electron integral symmetry is turned on.
   104 basis functions,   184 primitive gaussians,   108 cartesian basis functions
    29 alpha electrons       28 beta electrons
       nuclear repulsion energy       239.3875894574 Hartrees.
 NAtoms=    4 NActive=    4 NUniq=    4 SFac= 7.50D-01 NAtFMM=   80 NAOKFM=F Big=F
 One-electron integrals computed using PRISM.
 NBasis=   104 RedAO= T  NBF=    76    28
 NBsUse=   104 1.00D-06 NBFU=    76    28
 Initial guess read from the checkpoint file:
 S9L-ne-d-01.chk
 Initial guess orbital symmetries:
 Alpha Orbitals:
       Occupied  (A') (A') (A') (A') (A") (A') (A') (A') (A") (A")
                 (A') (A") (A') (A') (A') (A') (A') (A') (A") (A')
                 (A') (A") (A') (A") (A') (A') (A") (A') (A')
       Virtual   (A') (A') (A') (A') (A') (A') (A') (A') (A') (A')
                 (A') (A') (A') (A') (A') (A') (A') (A') (A') (A')
                 (A') (A') (A') (A') (A') (A') (A') (A') (A') (A')
[...]
 Alpha virt. eigenvalues --   11.48850  11.48971  11.51100  11.52970  11.58243
 Alpha virt. eigenvalues --   11.65256  11.66693 140.81232 141.03141 141.03991
 Alpha virt. eigenvalues --  141.07068
  Beta  occ. eigenvalues --  -65.93646 -65.93646 -65.93184 -65.93184  -5.10825
  Beta  occ. eigenvalues --   -5.10820  -5.10160  -5.10157  -3.46864  -3.46860
  Beta  occ. eigenvalues --   -3.46552  -3.46499  -3.46374  -3.46369  -3.46044
  Beta  occ. eigenvalues --   -3.46042  -3.45786  -3.45783  -3.45764  -3.45764
  Beta  occ. eigenvalues --   -0.43412  -0.30094  -0.23970  -0.15813  -0.08697
  Beta  occ. eigenvalues --   -0.07926  -0.07269  -0.05351
  Beta virt. eigenvalues --    0.05087   0.06884   0.08351   0.11333   0.11918
  Beta virt. eigenvalues --    0.12224   0.12687   0.14587   0.15056   0.15297
  Beta virt. eigenvalues --    0.16103   0.17078   0.17242   0.17848   0.19021
  Beta virt. eigenvalues --    0.19944   0.20229   0.21149   0.21279   0.21287
  Beta virt. eigenvalues --    0.22447   0.24625   0.24686   0.25051   0.35132
  Beta virt. eigenvalues --    0.35700   0.39038   0.41410   0.41482   0.43274
  Beta virt. eigenvalues --    0.43551   0.44634   0.45594   0.46606   0.46662
  Beta virt. eigenvalues --    0.50751   0.57214   0.62802   0.62952   0.64530
  Beta virt. eigenvalues --    0.65876   0.66013   0.67819   0.69695   0.70127
  Beta virt. eigenvalues --    0.72914   0.77357   0.78453   0.84299   0.84332
  Beta virt. eigenvalues --    0.88000   0.88130   0.90081   0.91620   0.95526
  Beta virt. eigenvalues --    1.10610   1.12506   1.12637   1.15273   1.15419
  Beta virt. eigenvalues --    1.37073   1.40427   1.41224   1.43144   1.43760
  Beta virt. eigenvalues --    1.44629   1.49889   1.52239   1.54707   1.58448
  Beta virt. eigenvalues --    1.58597   1.61302   5.39351   5.59669   5.60878
  Beta virt. eigenvalues --    5.63430  11.45682  11.45688  11.46221  11.46910
  Beta virt. eigenvalues --   11.47424  11.49111  11.49184  11.51184  11.53069
  Beta virt. eigenvalues --   11.58222  11.65300  11.66715 140.81306 141.03114
  Beta virt. eigenvalues --  141.04156 141.07131
          Condensed to atoms (all electrons):
              1          2          3          4
     1  Si  13.740370   0.139700   0.189504   0.139712
     2  Si   0.139700  14.047450   0.139712  -0.036148
     3  Si   0.189504   0.139712  13.740370   0.139700
     4  Si   0.139712  -0.036148   0.139700  14.047450
 Mulliken atomic charges:
              1
     1  Si  -0.209286
     2  Si  -0.290714
     3  Si  -0.209286
     4  Si  -0.290714
 Sum of Mulliken charges=  -1.00000
 Atomic charges with hydrogens summed into heavy atoms:
              1
     1  Si  -0.209286
     2  Si  -0.290714
     3  Si  -0.209286
     4  Si  -0.290714
 Sum of Mulliken charges=  -1.00000
          Atomic-Atomic Spin Densities.
              1          2          3          4
     1  Si  -0.058791  -0.030931   0.003529  -0.030939
     2  Si  -0.030931   0.733612  -0.030939  -0.054609
     3  Si   0.003529  -0.030939  -0.058791  -0.030931
     4  Si  -0.030939  -0.054609  -0.030931   0.733612
 Mulliken atomic spin densities:
              1
     1  Si  -0.117132
     2  Si   0.617132
     3  Si  -0.117132
     4  Si   0.617133
 Sum of Mulliken spin densities=   1.00000
 APT atomic charges:
              1
     1  Si  -0.191981
     2  Si  -0.308019
     3  Si  -0.191981
     4  Si  -0.308019
 Sum of APT charges=  -1.00000
 APT Atomic charges with hydrogens summed into heavy atoms:
              1
     1  Si  -0.191981
     2  Si  -0.308019
     3  Si  -0.191981
     4  Si  -0.308019
 Sum of APT charges=  -1.00000
 Electronic spatial extent (au):  <R**2>=   703.9197
 Charge=    -1.0000 electrons
 Dipole moment (field-independent basis, Debye):
    X=     0.0000    Y=     0.0000    Z=     0.0000  Tot=     0.0000
 Quadrupole moment (field-independent basis, Debye-Ang):
   XX=   -71.8681   YY=   -80.2573   ZZ=   -61.1782
   XY=    -7.6186   XZ=     0.0000   YZ=     0.0000
 Traceless Quadrupole moment (field-independent basis, Debye-Ang):
   XX=    -0.7669   YY=    -9.1561   ZZ=     9.9230
   XY=    -7.6186   XZ=     0.0000   YZ=     0.0000
 Octapole moment (field-independent basis, Debye-Ang**2):
  XXX=     0.0000  YYY=     0.0000  ZZZ=     0.0000  XYY=     0.0000
  XXY=     0.0000  XXZ=     0.0000  XZZ=     0.0000  YZZ=     0.0000
  YYZ=     0.0000  XYZ=     0.0000
 Hexadecapole moment (field-independent basis, Debye-Ang**3):
 XXXX=  -578.6273 YYYY=  -916.7524 ZZZZ=  -145.7095 XXXY=  -129.7722
 XXXZ=     0.0000 YYYX=  -177.2621 YYYZ=     0.0000 ZZZX=     0.0000
 ZZZY=     0.0000 XXYY=  -269.2642 XXZZ=  -118.2003 YYZZ=  -168.7272
 XXYZ=     0.0000 YYXZ=     0.0000 ZZXY=   -45.8801
 N-N= 2.470918495060D+02 E-N=-3.263918195366D+03  KE= 1.156078763192D+03
 Symmetry A'   KE= 1.055824848736D+03
 Symmetry A"   KE= 1.002539144561D+02
  Exact polarizability: 194.557  42.951 241.855   0.000   0.000 115.685
 Approx polarizability: 448.454  91.341 549.051   0.000   0.000 178.381
                          Isotropic Fermi Contact Couplings
        Atom                 a.u.       MegaHertz       Gauss      10(-4) cm-1
     1  Si(29)            -0.01927      17.12553       6.11081       5.71246
     2  Si(29)             0.00092      -0.82116      -0.29301      -0.27391
     3  Si(29)            -0.01927      17.12554       6.11082       5.71246
     4  Si(29)             0.00092      -0.82116      -0.29301      -0.27391
 --------------------------------------------------------
       Center         ----  Spin Dipole Couplings  ----
                      3XX-RR        3YY-RR        3ZZ-RR
 --------------------------------------------------------
     1   Atom        0.052218      0.045806     -0.098024
     2   Atom       -0.472942     -0.483065      0.956007
     3   Atom        0.052218      0.045806     -0.098024
     4   Atom       -0.472942     -0.483065      0.956007
 --------------------------------------------------------
                        XY            XZ            YZ
 --------------------------------------------------------
     1   Atom       -0.005821      0.000000      0.000000
     2   Atom       -0.009186      0.000000      0.000000
     3   Atom       -0.005821      0.000000      0.000000
     4   Atom       -0.009186      0.000000      0.000000
 --------------------------------------------------------


 ---------------------------------------------------------------------------------
              Anisotropic Spin Dipole Couplings in Principal Axis System
 ---------------------------------------------------------------------------------

       Atom             a.u.   MegaHertz   Gauss  10(-4) cm-1        Axes

              Baa    -0.0980    10.399     3.711     3.469  0.0000  0.0000  1.0000
     1 Si(29) Bbb     0.0424    -4.494    -1.604    -1.499  0.5087  0.8609  0.0000
              Bcc     0.0557    -5.904    -2.107    -1.969  0.8609 -0.5087  0.0000
 
              Baa    -0.4885    51.821    18.491    17.286  0.5086  0.8610  0.0000
     2 Si(29) Bbb    -0.4675    49.596    17.697    16.543  0.8610 -0.5086  0.0000
              Bcc     0.9560  -101.417   -36.188   -33.829  0.0000  0.0000  1.0000
 
              Baa    -0.0980    10.399     3.711     3.469  0.0000  0.0000  1.0000
     3 Si(29) Bbb     0.0424    -4.494    -1.604    -1.499  0.5087  0.8609  0.0000
              Bcc     0.0557    -5.904    -2.107    -1.969  0.8609 -0.5087  0.0000
 
              Baa    -0.4885    51.821    18.491    17.286  0.5086  0.8610  0.0000
     4 Si(29) Bbb    -0.4675    49.596    17.697    16.543  0.8610 -0.5086  0.0000
              Bcc     0.9560  -101.417   -36.188   -33.829  0.0000  0.0000  1.0000
 

 ---------------------------------------------------------------------------------

 Full mass-weighted force constant matrix:
 Low frequencies ---   -0.0030   -0.0029   -0.0022    5.2330    5.9986    6.6894
 Low frequencies ---  146.7039  230.4503  317.0127
 Diagonal vibrational polarizability:
        0.2594861       0.2835027       2.0588597
 Harmonic frequencies (cm**-1), IR intensities (KM/Mole), Raman scattering
 activities (A**4/AMU), depolarization ratios for plane and unpolarized
 incident light, reduced masses (AMU), force constants (mDyne/A),
 and normal coordinates:
                     1                      2                      3
                    A"                     A'                     A'
 Frequencies --   146.7039               230.4503               317.0127
 Red. masses --    27.9769                27.9769                27.9769
 Frc consts  --     0.3548                 0.8754                 1.6565
 IR Inten    --     1.6466                 0.4855                 0.0000
 Atom AN      X      Y      Z        X      Y      Z        X      Y      Z
   1  14     0.00   0.00   0.50    -0.43   0.25   0.00     0.31   0.53   0.00
   2  14     0.00   0.00  -0.50     0.43  -0.25   0.00    -0.31   0.18   0.00
   3  14     0.00   0.00   0.50    -0.43   0.25   0.00    -0.31  -0.53   0.00
   4  14     0.00   0.00  -0.50     0.43  -0.25   0.00     0.31  -0.18   0.00
                     4                      5                      6
                    A'                     A'                     A'
 Frequencies --   351.6669               442.0520               462.9834
 Red. masses --    27.9769                27.9769                27.9769
 Frc consts  --     2.0385                 3.2210                 3.5333
 IR Inten    --     0.0000                 2.1565                 0.0000
 Atom AN      X      Y      Z        X      Y      Z        X      Y      Z
   1  14     0.28  -0.16   0.00     0.25   0.43   0.00     0.54  -0.32   0.00
   2  14     0.32   0.54   0.00    -0.25  -0.43   0.00    -0.16  -0.28   0.00
   3  14    -0.28   0.16   0.00     0.25   0.43   0.00    -0.54   0.32   0.00
   4  14    -0.32  -0.54   0.00    -0.25  -0.43   0.00     0.16   0.28   0.00

 -------------------
 - Thermochemistry -
 -------------------
 Temperature   298.150 Kelvin.  Pressure   1.00000 Atm.
 Atom  1 has atomic number 14 and mass  27.97693
 Atom  2 has atomic number 14 and mass  27.97693
 Atom  3 has atomic number 14 and mass  27.97693
 Atom  4 has atomic number 14 and mass  27.97693
 Molecular mass:   111.90771 amu.
 Principal axes and moments of inertia in atomic units:
                           1         2         3
     EIGENVALUES --   282.05895 807.709641089.76859
           X            0.50875   0.86092   0.00000
           Y            0.86092  -0.50875   0.00000
           Z            0.00000   0.00000   1.00000
 This molecule is an asymmetric top.
 Rotational symmetry number  1.
 Rotational temperatures (Kelvin)      0.30708     0.10723     0.07948
 Rotational constants (GHZ):           6.39845     2.23439     1.65608
 Zero-point vibrational energy      11668.8 (Joules/Mol)
                                    2.78891 (Kcal/Mol)
 Warning -- explicit consideration of   6 degrees of freedom as
           vibrations may cause significant error
 Vibrational temperatures:    211.07   331.57   456.11   505.97   636.01
          (Kelvin)            666.13
 
 Zero-point correction=                           0.004444 (Hartree/Particle)
 Thermal correction to Energy=                    0.009723
 Thermal correction to Enthalpy=                  0.010667
 Thermal correction to Gibbs Free Energy=        -0.025962
 Sum of electronic and zero-point Energies=          -1158.049262
 Sum of electronic and thermal Energies=             -1158.043983
 Sum of electronic and thermal Enthalpies=           -1158.043039
 Sum of electronic and thermal Free Energies=        -1158.079668
 
                     E (Thermal)             CV                S
                      KCal/Mol        Cal/Mol-Kelvin    Cal/Mol-Kelvin
 Total                    6.101             15.586             77.092
 Electronic               0.000              0.000              1.377
 Translational            0.889              2.981             40.053
 Rotational               0.889              2.981             27.009
 Vibrational              4.324              9.624              8.652
 Vibration  1             0.617              1.906              2.715
 Vibration  2             0.652              1.794              1.875
 Vibration  3             0.704              1.641              1.325
 Vibration  4             0.728              1.572              1.159
 Vibration  5             0.802              1.378              0.820
 Vibration  6             0.821              1.332              0.757
                       Q            Log10(Q)             Ln(Q)
 Total Bot       0.874066D+12         11.941544         27.496422
 Total V=0       0.967889D+14         13.985826         32.203553
 Vib (Bot)       0.526572D-01         -1.278542         -2.943951
 Vib (Bot)  1    0.138347D+01          0.140968          0.324592
 Vib (Bot)  2    0.854499D+00         -0.068288         -0.157240
 Vib (Bot)  3    0.594036D+00         -0.226187         -0.520815
 Vib (Bot)  4    0.524075D+00         -0.280607         -0.646121
 Vib (Bot)  5    0.390426D+00         -0.408462         -0.940518
 Vib (Bot)  6    0.366466D+00         -0.435966         -1.003849
 Vib (V=0)       0.583095D+01          0.765739          1.763180
 Vib (V=0)  1    0.197105D+01          0.294697          0.678565
 Vib (V=0)  2    0.149003D+01          0.173196          0.398799
 Vib (V=0)  3    0.127645D+01          0.106005          0.244085
 Vib (V=0)  4    0.122433D+01          0.087899          0.202394
 Vib (V=0)  5    0.113438D+01          0.054757          0.126082
 Vib (V=0)  6    0.111992D+01          0.049186          0.113255
 Electronic      0.200000D+01          0.301030          0.693147
 Translational   0.465313D+08          7.667745         17.655636
 Rotational      0.178366D+06          5.251311         12.091591
 ***** Axes restored to original set *****
 -------------------------------------------------------------------
 Center     Atomic                   Forces (Hartrees/Bohr)
 Number     Number              X              Y              Z
 -------------------------------------------------------------------
    1         14           0.000000636   -0.000000119    0.000000000
    2         14           0.000020742   -0.000004653    0.000000000
    3         14          -0.000000616    0.000000107    0.000000000
    4         14          -0.000020762    0.000004665    0.000000000
 -------------------------------------------------------------------
 Cartesian Forces:  Max     0.000020762 RMS     0.000008687

 GradGradGradGradGradGradGradGradGradGradGradGradGradGradGradGradGradGrad
 Berny optimization.
 Internal  Forces:  Max     0.000012719 RMS     0.000009799
 Search for a local minimum.
 Step number   1 out of a maximum of   2
 All quantities printed in internal units (Hartrees-Bohrs-Radians)
 Second derivative matrix not updated -- analytic derivatives used.
 The second derivative matrix:
                          R1        R2        R3        R4        R5
           R1           0.06204
           R2          -0.00669   0.08034
           R3           0.00054  -0.00677   0.06202
           R4           0.01921  -0.00677   0.01094   0.06202
           R5           0.01090  -0.00669   0.01921   0.00054   0.06204
           A1           0.00174  -0.02295   0.00178   0.01420   0.01419
           A2           0.01419  -0.02295   0.01420   0.00178   0.00174
                          A1        A2
           A1           0.01294
           A2           0.00341   0.01294
     Eigenvalues ---    0.04196   0.05320   0.06978   0.07388   0.11552
     Eigenvalues --- 1000.000001000.00000
 Angle between quadratic step and forces=  10.48 degrees.
 Linear search not attempted -- first point.
 Iteration  1 RMS(Cart)=  0.00007999 RMS(Int)=  0.00000000
 Iteration  2 RMS(Cart)=  0.00000000 RMS(Int)=  0.00000000
 Variable       Old X    -DE/DX   Delta X   Delta X   Delta X     New X
                                 (Linear)    (Quad)   (Total)
    R1        4.41319  -0.00001   0.00000  -0.00009  -0.00009   4.41310
    R2        4.49040   0.00001   0.00000   0.00005   0.00005   4.49045
    R3        4.41319  -0.00001   0.00000  -0.00014  -0.00014   4.41305
    R4        4.41318  -0.00001   0.00000  -0.00014  -0.00014   4.41305
    R5        4.41319  -0.00001   0.00000  -0.00009  -0.00009   4.41310
    A1        2.07413  -0.00001   0.00000  -0.00004  -0.00004   2.07409
    A2        2.07413  -0.00001   0.00000  -0.00004  -0.00004   2.07409
         Item               Value     Threshold  Converged?
 Maximum Force            0.000013     0.000450     YES
 RMS     Force            0.000010     0.000300     YES
 Maximum Displacement     0.000145     0.001800     YES
 RMS     Displacement     0.000080     0.001200     YES
 Predicted change in Energy=-3.089312D-09
 Optimization completed.
    -- Stationary point found.
                           ----------------------------
                           !   Optimized Parameters   !
                           ! (Angstroms and Degrees)  !
 --------------------------                            --------------------------
 ! Name  Definition              Value          Derivative Info.                !
 --------------------------------------------------------------------------------
 ! R1    R(1,2)                  2.3354         -DE/DX =    0.0                 !
 ! R2    R(1,3)                  2.3762         -DE/DX =    0.0                 !
 ! R3    R(1,4)                  2.3354         -DE/DX =    0.0                 !
 ! R4    R(2,3)                  2.3354         -DE/DX =    0.0                 !
 ! R5    R(3,4)                  2.3354         -DE/DX =    0.0                 !
 ! A1    A(2,1,4)              118.839          -DE/DX =    0.0                 !
 ! A2    A(2,3,4)              118.8391         -DE/DX =    0.0                 !
 --------------------------------------------------------------------------------
 GradGradGradGradGradGradGradGradGradGradGradGradGradGradGradGradGradGrad

 1\1\GINC-NODE35\Freq\UB3LYP\6-311+G(d)\Si4(1-,2)\TAM\06-Apr-2011\0\\#N
  Geom=AllCheck Guess=Read SCRF=Check GenChk UB3LYP/6-311+G(d) Freq\\si
 4-n\\-1,2\Si,0.0271287241,1.1877986669,0.\Si,-2.0100205663,0.045907714
 1,0.\Si,-0.0271287708,-1.1877985638,0.\Si,2.0100206148,-0.0459078271,0
 .\\Version=AM64L-G03RevE.01\State=2-A"\HF=-1158.0537059\S2=0.768499\S2
 -1=0.\S2A=0.750099\RMSD=2.999e-10\RMSF=8.687e-06\ZeroPoint=0.0044444\T
 hermal=0.009723\Dipole=0.,0.,0.\DipoleDeriv=-0.1257087,-0.0041359,0.,-
 0.0041927,-0.3089218,0.,0.,0.,-0.1413116,-0.3742912,0.0041359,0.,0.004
 1926,-0.1910781,0.,0.,0.,-0.3586883,-0.1257091,-0.0041359,0.,-0.004192
 7,-0.308922,0.,0.,0.,-0.1413117,-0.374291,0.0041359,0.,0.0041927,-0.19
 10781,0.,0.,0.,-0.3586884\Polar=267.1861978,-2.2372802,169.2254996,0.0
 000003,-0.0000004,115.6852895\PG=CS [SG(Si4)]\NImag=0\\0.09114838,0.00
 070332,0.11749973,0.,0.,0.00571396,-0.05265227,-0.01864069,0.,0.127151
 11,-0.02244444,-0.01312284,0.,-0.00222640,0.02792341,0.,0.,-0.00569439
 ,0.,0.,0.00571277,0.01225865,-0.00238646,0.,-0.05075481,0.02412762,0.,
 0.09114844,-0.00238646,-0.08934853,0.,0.02032386,-0.01502837,0.,0.0007
 0329,0.11749974,0.,0.,0.00567922,0.,0.,-0.00569878,0.,0.,0.00571396,-0
 .05075476,0.02032383,0.,-0.02374404,0.00054323,0.,-0.05265228,-0.01864
 069,0.,0.12715107,0.02412759,-0.01502837,0.,0.00054323,0.00022781,0.,-
 0.02244445,-0.01312284,0.,-0.00222637,0.02792339,0.,0.,-0.00569879,0.,
 0.,0.00568041,0.,0.,-0.00569439,0.,0.,0.00571277\\-0.00000064,0.000000
 12,0.,-0.00002074,0.00000465,0.,0.00000062,-0.00000011,0.,0.00002076,-
 0.00000466,0.\\\@


 THE HURRIEDER I GO, THE BEHINDER I GET.
 Job cpu time:  0 days  0 hours  3 minutes 38.0 seconds.
 File lengths (MBytes):  RWF=     30 Int=      0 D2E=      0 Chk=      9 Scr=      1
 Normal termination of Gaussian 03 at Wed Apr  6 16:55:17 2011.
