 Entering Gaussian System, Link 0=g03
 Initial command:
 /usr/local/chem/g03E01/l1.exe /temp0/tam/Gau-17664.inp -scrdir=/temp0/tam/
 Entering Link 1 = /usr/local/chem/g03E01/l1.exe PID=     17665.
  
 Copyright (c) 1988,1990,1992,1993,1995,1998,2003,2004,2007, Gaussian, Inc.
                  All Rights Reserved.
  
 This is the Gaussian(R) 03 program.  It is based on the
 the Gaussian(R) 98 system (copyright 1998, Gaussian, Inc.),
 the Gaussian(R) 94 system (copyright 1995, Gaussian, Inc.),
 the Gaussian 92(TM) system (copyright 1992, Gaussian, Inc.),
 the Gaussian 90(TM) system (copyright 1990, Gaussian, Inc.),
 the Gaussian 88(TM) system (copyright 1988, Gaussian, Inc.),
 the Gaussian 86(TM) system (copyright 1986, Carnegie Mellon
 University), and the Gaussian 82(TM) system (copyright 1983,
 Carnegie Mellon University). Gaussian is a federally registered
 trademark of Gaussian, Inc.
  
 This software contains proprietary and confidential information,
 including trade secrets, belonging to Gaussian, Inc.
  
 This software is provided under written license and may be
 used, copied, transmitted, or stored only in accord with that
 written license.
  
 The following legend is applicable only to US Government
 contracts under FAR:
  
                    RESTRICTED RIGHTS LEGEND
  
 Use, reproduction and disclosure by the US Government is
 subject to restrictions as set forth in subparagraphs (a)
 and (c) of the Commercial Computer Software - Restricted
 Rights clause in FAR 52.227-19.
  
 Gaussian, Inc.
 340 Quinnipiac St., Bldg. 40, Wallingford CT 06492
  
  
 ---------------------------------------------------------------
 Warning -- This program may not be used in any manner that
 competes with the business of Gaussian, Inc. or will provide
 assistance to any competitor of Gaussian, Inc.  The licensee
 of this program is prohibited from giving any competitor of
 Gaussian, Inc. access to this program.  By using this program,
 the user acknowledges that Gaussian, Inc. is engaged in the
 business of creating and licensing software in the field of
 computational chemistry and represents and warrants to the
 licensee that it is not a competitor of Gaussian, Inc. and that
 it will not use this program in any manner prohibited above.
 ---------------------------------------------------------------
  

 Cite this work as:
 Gaussian 03, Revision E.01,
 M. J. Frisch, G. W. Trucks, H. B. Schlegel, G. E. Scuseria, 
 M. A. Robb, J. R. Cheeseman, J. A. Montgomery, Jr., T. Vreven, 
 K. N. Kudin, J. C. Burant, J. M. Millam, S. S. Iyengar, J. Tomasi, 
 V. Barone, B. Mennucci, M. Cossi, G. Scalmani, N. Rega, 
 G. A. Petersson, H. Nakatsuji, M. Hada, M. Ehara, K. Toyota, 
 R. Fukuda, J. Hasegawa, M. Ishida, T. Nakajima, Y. Honda, O. Kitao, 
 H. Nakai, M. Klene, X. Li, J. E. Knox, H. P. Hratchian, J. B. Cross, 
 V. Bakken, C. Adamo, J. Jaramillo, R. Gomperts, R. E. Stratmann, 
 O. Yazyev, A. J. Austin, R. Cammi, C. Pomelli, J. W. Ochterski, 
 P. Y. Ayala, K. Morokuma, G. A. Voth, P. Salvador, J. J. Dannenberg, 
 V. G. Zakrzewski, S. Dapprich, A. D. Daniels, M. C. Strain, 
 O. Farkas, D. K. Malick, A. D. Rabuck, K. Raghavachari, 
 J. B. Foresman, J. V. Ortiz, Q. Cui, A. G. Baboul, S. Clifford, 
 J. Cioslowski, B. B. Stefanov, G. Liu, A. Liashenko, P. Piskorz, 
 I. Komaromi, R. L. Martin, D. J. Fox, T. Keith, M. A. Al-Laham, 
 C. Y. Peng, A. Nanayakkara, M. Challacombe, P. M. W. Gill, 
 B. Johnson, W. Chen, M. W. Wong, C. Gonzalez, and J. A. Pople, 
 Gaussian, Inc., Wallingford CT, 2004.
 
 ******************************************
 Gaussian 03:  AM64L-G03RevE.01 11-Sep-2007
                 4-Apr-2011 
 ******************************************
 %NprocShared=4
 Will use up to    4 processors via shared memory.
 %mem=3750MB
 %chk=S9L-ne-d-01
 ----------------------------------------------------------------------
 # b3lyp/LANL2DZ opt=(calcall,noeigentest,maxcycle=500) scfcyc=500 scf=
 xqc
 ----------------------------------------------------------------------
 1/6=500,10=4,11=1,14=-1,18=20,26=3,38=1/1,3;
 2/9=110,17=6,18=5,40=1/2;
 3/5=6,6=3,11=2,16=1,25=1,30=1,74=-5/1,2,3;
 4//1;
 5/5=2,7=500,8=3,13=1,38=5/2,8;
 8/6=4,10=90,11=11/1;
 11/6=1,8=1,9=11,15=111,16=1/1,2,10;
 10/6=1/2;
 6/7=2,8=2,9=2,10=2,18=1,28=1/1;
 7/10=1,25=1/1,2,3,16;
 1/6=500,10=4,11=1,14=-1,18=20/3(3);
 2/9=110/2;
 7/8=1,9=1,25=1,44=-1/16;
 99//99;
 2/9=110/2;
 3/5=6,6=3,11=2,16=1,25=1,30=1,74=-5/1,2,3;
 4/5=5,16=3/1;
 5/5=2,7=500,8=3,13=1,38=5/2,8;
 8/6=4,10=90,11=11/1;
 11/6=1,8=1,9=11,15=111,16=1/1,2,10;
 10/6=1/2;
 7/10=1,25=1/1,2,3,16;
 1/6=500,10=4,11=1,14=-1,18=20/3(-8);
 2/9=110/2;
 6/7=2,8=2,9=2,10=2,18=1,19=2,28=1/1;
 7/8=1,9=1,25=1,44=-1/16;
 99//99;
 -----
 si4-n
 -----
 Symbolic Z-matrix:
 Charge =  0 Multiplicity = 1
 Si                    0.        0.       -1.01534 
 Si                    0.        2.0378    0.22424 
 Si                    0.        0.        1.32868 
 Si                    0.       -2.0378    0.22424 
 

 GradGradGradGradGradGradGradGradGradGradGradGradGradGradGradGradGradGrad
 Berny optimization.
 Initialization pass.
                           ----------------------------
                           !    Initial Parameters    !
                           ! (Angstroms and Degrees)  !
 --------------------------                            --------------------------
 ! Name  Definition              Value          Derivative Info.                !
 --------------------------------------------------------------------------------
 ! R1    R(1,2)                  2.3852         calculate D2E/DX2 analytically  !
 ! R2    R(1,3)                  2.344          calculate D2E/DX2 analytically  !
 ! R3    R(1,4)                  2.3852         calculate D2E/DX2 analytically  !
 ! R4    R(2,3)                  2.3178         calculate D2E/DX2 analytically  !
 ! R5    R(3,4)                  2.3178         calculate D2E/DX2 analytically  !
 ! A1    A(2,1,4)              117.3762         calculate D2E/DX2 analytically  !
 ! A2    A(2,3,4)              123.087          calculate D2E/DX2 analytically  !
 --------------------------------------------------------------------------------
 Trust Radius=3.00D-01 FncErr=1.00D-07 GrdErr=1.00D-06
 Number of steps in this run= 100 maximum allowed number of steps= 100.
 GradGradGradGradGradGradGradGradGradGradGradGradGradGradGradGradGradGrad

                          Input orientation:                          
 ---------------------------------------------------------------------
 Center     Atomic     Atomic              Coordinates (Angstroms)
 Number     Number      Type              X           Y           Z
 ---------------------------------------------------------------------
    1         14             0        0.000000    0.000000   -1.015339
    2         14             0        0.000000    2.037801    0.224244
    3         14             0        0.000000    0.000000    1.328677
    4         14             0        0.000000   -2.037801    0.224244
 ---------------------------------------------------------------------
                    Distance matrix (angstroms):
                    1          2          3          4
     1  Si   0.000000
     2  Si   2.385204   0.000000
     3  Si   2.344016   2.317845   0.000000
     4  Si   2.385204   4.075602   2.317845   0.000000
 Stoichiometry    Si4
 Framework group  C2V[C2(SiSi),SGV(Si2)]
 Deg. of freedom     3
 Full point group                 C2V
 Largest Abelian subgroup         C2V     NOp   4
 Largest concise Abelian subgroup C2      NOp   2
                         Standard orientation:                         
 ---------------------------------------------------------------------
 Center     Atomic     Atomic              Coordinates (Angstroms)
 Number     Number      Type              X           Y           Z
 ---------------------------------------------------------------------
    1         14             0        0.000000    0.000000    1.205796
    2         14             0        0.000000    2.037801   -0.033788
    3         14             0        0.000000    0.000000   -1.138221
    4         14             0        0.000000   -2.037801   -0.033788
 ---------------------------------------------------------------------
 Rotational constants (GHZ):      6.5645466      2.1750219      1.6337228
 Standard basis: LANL2DZ (5D, 7F)
 There are    14 symmetry adapted basis functions of A1  symmetry.
 There are     2 symmetry adapted basis functions of A2  symmetry.
 There are     6 symmetry adapted basis functions of B1  symmetry.
 There are    10 symmetry adapted basis functions of B2  symmetry.
 Integral buffers will be    131072 words long.
 Raffenetti 2 integral format.
 Two-electron integral symmetry is turned on.
    32 basis functions,    48 primitive gaussians,    32 cartesian basis functions
     8 alpha electrons        8 beta electrons
       nuclear repulsion energy        20.0947967184 Hartrees.
 NAtoms=    4 NActive=    4 NUniq=    3 SFac= 1.33D+00 NAtFMM=   80 NAOKFM=F Big=F
 One-electron integrals computed using PRISM.
   4 Symmetry operations used in ECPInt.
 ECPInt:  NShTT=     136 NPrTT=     308 LenC2=     137 LenP2D=     305.
 LDataN:  DoStor=F MaxTD1= 3 Len=   28
 LDataN:  DoStor=T MaxTD1= 3 Len=   28
 NBasis=    32 RedAO= T  NBF=    14     2     6    10
 NBsUse=    32 1.00D-06 NBFU=    14     2     6    10
 Harris functional with IExCor=  402 diagonalized for initial guess.
 ExpMin= 8.85D-02 ExpMax= 2.58D+00 ExpMxC= 2.58D+00 IAcc=2 IRadAn=         4 AccDes= 0.00D+00
 HarFok:  IExCor= 402 AccDes= 0.00D+00 IRadAn=         4 IDoV=1
 ScaDFX=  1.000000  1.000000  1.000000  1.000000
 Initial guess orbital symmetries:
       Occupied  (A1) (B2) (A1) (A1) (B2) (B1) (A1) (B2)
       Virtual   (A2) (B1) (A1) (B1) (A1) (A1) (B2) (B2) (A1) (B2)
                 (A1) (B1) (A1) (B2) (A2) (B1) (B2) (A1) (B1) (B2)
                 (A1) (B2) (A1) (A1)
 The electronic state of the initial guess is 1-A1.
 Requested convergence on RMS density matrix=1.00D-08 within 128 cycles.
 Requested convergence on MAX density matrix=1.00D-06.
 Requested convergence on             energy=1.00D-06.
 No special actions if energy rises.
 Keep R1 integrals in memory in canonical form, NReq=     1850728.
 Integral accuracy reduced to 1.0D-05 until final iterations.
 EnCoef did     2 forward-backward iterations
 Initial convergence to 1.0D-05 achieved.  Increase integral accuracy.
 SCF Done:  E(RB+HF-LYP) =  -15.3894776704     A.U. after   13 cycles
             Convg  =    0.2995D-08             -V/T =  3.6357
             S**2   =   0.0000
 QCSCF skips out because SCF is already converged.
 Range of M.O.s used for correlation:     1    32
 NBasis=    32 NAE=     8 NBE=     8 NFC=     0 NFV=     0
 NROrb=     32 NOA=     8 NOB=     8 NVA=    24 NVB=    24

 **** Warning!!: The smallest alpha delta epsilon is  0.77654417D-01

   4 Symmetry operations used in ECPInt.
 ECPInt:  NShTT=     136 NPrTT=     308 LenC2=     137 LenP2D=     305.
 LDataN:  DoStor=F MaxTD1= 4 Len=   56
 LDataN:  DoStor=T MaxTD1= 4 Len=   56
 Symmetrizing basis deriv contribution to polar:
 IMax=3 JMax=2 DiffMx= 0.00D+00
 G2DrvN: will do    5 centers at a time, making    1 passes doing MaxLOS=1.
 FoFDir/FoFCou used for L=0 through L=1.
 DoAtom=TTTT
          Differentiating once with respect to electric field.
                with respect to dipole field.
          Differentiating once with respect to nuclear coordinates.
          Store integrals in memory, NReq=      940963.
          There are  12 degrees of freedom in the 1st order CPHF.
    12 vectors were produced by pass  0.
 AX will form  12 AO Fock derivatives at one time.
    12 vectors were produced by pass  1.
    12 vectors were produced by pass  2.
    12 vectors were produced by pass  3.
    12 vectors were produced by pass  4.
    12 vectors were produced by pass  5.
     5 vectors were produced by pass  6.
     3 vectors were produced by pass  7.
 Inv2:  IOpt= 1 Iter= 1 AM= 1.06D-15 Conv= 1.00D-12.
 Inverted reduced A of dimension   80 with in-core refinement.
 Isotropic polarizability for W=    0.000000      117.34 Bohr**3.
 End of Minotr Frequency-dependent properties file   721 does not exist.

 **********************************************************************

            Population analysis using the SCF density.

 **********************************************************************

 Orbital symmetries:
       Occupied  (A1) (B2) (A1) (A1) (B1) (B2) (B2) (A1)
       Virtual   (A2) (B1) (A1) (B1) (A1) (A1) (B2) (B2) (A1) (B2)
                 (B1) (A1) (B2) (A2) (B1) (A1) (A1) (B2) (B1) (B2)
                 (A1) (B2) (A1) (A1)
 The electronic state is 1-A1.
 Alpha  occ. eigenvalues --   -0.65409  -0.51653  -0.41105  -0.35302  -0.28062
 Alpha  occ. eigenvalues --   -0.27316  -0.24227  -0.23025
 Alpha virt. eigenvalues --   -0.15259  -0.09583  -0.09009  -0.05892  -0.01313
 Alpha virt. eigenvalues --    0.01875   0.05113   0.06788   0.27516   0.29027
 Alpha virt. eigenvalues --    0.30239   0.31421   0.31522   0.32495   0.33880
 Alpha virt. eigenvalues --    0.35064   0.36666   0.37035   0.37084   0.43530
 Alpha virt. eigenvalues --    5.68934   8.23059   9.12959   9.22779
          Condensed to atoms (all electrons):
              1          2          3          4
     1  Si   3.986281   0.124407  -0.113406   0.124407
     2  Si   0.124407   3.666842   0.130363  -0.054195
     3  Si  -0.113406   0.130363   3.996161   0.130363
     4  Si   0.124407  -0.054195   0.130363   3.666842
 Mulliken atomic charges:
              1
     1  Si  -0.121688
     2  Si   0.132584
     3  Si  -0.143480
     4  Si   0.132584
 Sum of Mulliken charges=   0.00000
 Atomic charges with hydrogens summed into heavy atoms:
              1
     1  Si  -0.121688
     2  Si   0.132584
     3  Si  -0.143480
     4  Si   0.132584
 Sum of Mulliken charges=   0.00000
 APT atomic charges:
              1
     1  Si  -0.232271
     2  Si   0.270899
     3  Si  -0.309528
     4  Si   0.270899
 Sum of APT charges=   0.00000
 APT Atomic charges with hydrogens summed into heavy atoms:
              1
     1  Si  -0.232271
     2  Si   0.270899
     3  Si  -0.309528
     4  Si   0.270899
 Sum of APT charges=   0.00000
 Electronic spatial extent (au):  <R**2>=   270.9509
 Charge=     0.0000 electrons
 Dipole moment (field-independent basis, Debye):
    X=     0.0000    Y=     0.0000    Z=    -0.0905  Tot=     0.0905
 Quadrupole moment (field-independent basis, Debye-Ang):
   XX=   -44.8087   YY=   -51.7751   ZZ=   -55.4176
   XY=     0.0000   XZ=     0.0000   YZ=     0.0000
 Traceless Quadrupole moment (field-independent basis, Debye-Ang):
   XX=     5.8584   YY=    -1.1080   ZZ=    -4.7504
   XY=     0.0000   XZ=     0.0000   YZ=     0.0000
 Octapole moment (field-independent basis, Debye-Ang**2):
  XXX=     0.0000  YYY=     0.0000  ZZZ=    -1.3775  XYY=     0.0000
  XXY=     0.0000  XXZ=     0.1503  XZZ=     0.0000  YZZ=     0.0000
  YYZ=     0.0667  XYZ=     0.0000
 Hexadecapole moment (field-independent basis, Debye-Ang**3):
 XXXX=   -88.8739 YYYY=  -781.1821 ZZZZ=  -343.6446 XXXY=     0.0000
 XXXZ=     0.0000 YYYX=     0.0000 YYYZ=     0.0000 ZZZX=     0.0000
 ZZZY=     0.0000 XXYY=  -118.9902 XXZZ=   -66.1824 YYZZ=  -167.5750
 XXYZ=     0.0000 YYXZ=     0.0000 ZZXY=     0.0000
 N-N= 2.009479671844D+01 E-N=-6.829849675493D+01  KE= 5.838751417571D+00
 Symmetry A1   KE= 2.750940748554D+00
 Symmetry A2   KE= 1.609644472398D-64
 Symmetry B1   KE= 6.469571495050D-01
 Symmetry B2   KE= 2.440853519512D+00
  Exact polarizability:  53.833   0.000 177.373   0.000   0.000 120.815
 Approx polarizability:  83.007   0.000 508.264   0.000   0.000 339.678
   4 Symmetry operations used in ECPInt.
 ECPInt:  NShTT=     136 NPrTT=     308 LenC2=     137 LenP2D=     308.
 LDataN:  DoStor=F MaxTD1= 5 Len=  102
 LDataN:  DoStor=T MaxTD1= 5 Len=  102
 ***** Axes restored to original set *****
 -------------------------------------------------------------------
 Center     Atomic                   Forces (Hartrees/Bohr)
 Number     Number              X              Y              Z
 -------------------------------------------------------------------
    1         14           0.000000000    0.000000000   -0.034470386
    2         14           0.000000000    0.004154117   -0.001953046
    3         14           0.000000000    0.000000000    0.038376477
    4         14           0.000000000   -0.004154117   -0.001953046
 -------------------------------------------------------------------
 Cartesian Forces:  Max     0.038376477 RMS     0.015008619

 GradGradGradGradGradGradGradGradGradGradGradGradGradGradGradGradGradGrad
 Berny optimization.
 Internal  Forces:  Max     0.030436416 RMS     0.012434530
 Search for a local minimum.
 Step number   1 out of a maximum of 100
 All quantities printed in internal units (Hartrees-Bohrs-Radians)
 Second derivative matrix not updated -- analytic derivatives used.
 The second derivative matrix:
                          R1        R2        R3        R4        R5
           R1           0.06286
           R2          -0.00289   0.08772
           R3          -0.01721  -0.00289   0.06286
           R4           0.01569  -0.00619   0.01988   0.08302
           R5           0.01988  -0.00619   0.01569  -0.01862   0.08302
           A1           0.00394  -0.02390   0.00394   0.01345   0.01345
           A2           0.00812  -0.02397   0.00812   0.00253   0.00253
                          A1        A2
           A1           0.01174
           A2           0.00507   0.01020
     Eigenvalues ---    0.02368   0.07928   0.08175   0.10243   0.11428
     Eigenvalues --- 1000.000001000.00000
 RFO step:  Lambda=-1.07284872D-02.
 Linear search not attempted -- first point.
 Maximum step size (   0.300) exceeded in Quadratic search.
    -- Step size scaled by   0.897
 Iteration  1 RMS(Cart)=  0.06307219 RMS(Int)=  0.02215810
 Iteration  2 RMS(Cart)=  0.01702945 RMS(Int)=  0.00110986
 Iteration  3 RMS(Cart)=  0.00006771 RMS(Int)=  0.00110663
 Iteration  4 RMS(Cart)=  0.00000000 RMS(Int)=  0.00110663
 Variable       Old X    -DE/DX   Delta X   Delta X   Delta X     New X
                                 (Linear)    (Quad)   (Total)
    R1        4.50738   0.00187   0.00000   0.00600   0.00531   4.51269
    R2        4.42955   0.03044   0.00000   0.26044   0.26057   4.69012
    R3        4.50738   0.00187   0.00000   0.00600   0.00531   4.51269
    R4        4.38009   0.00470   0.00000   0.08194   0.08258   4.46267
    R5        4.38009   0.00470   0.00000   0.08194   0.08258   4.46267
    A1        2.04860  -0.00552   0.00000  -0.02320  -0.02483   2.02377
    A2        2.14827  -0.00862   0.00000  -0.09016  -0.08813   2.06014
         Item               Value     Threshold  Converged?
 Maximum Force            0.030436     0.000450     NO 
 RMS     Force            0.012435     0.000300     NO 
 Maximum Displacement     0.170202     0.001800     NO 
 RMS     Displacement     0.077053     0.001200     NO 
 Predicted change in Energy=-5.789962D-03
 GradGradGradGradGradGradGradGradGradGradGradGradGradGradGradGradGradGrad

                          Input orientation:                          
 ---------------------------------------------------------------------
 Center     Atomic     Atomic              Coordinates (Angstroms)
 Number     Number      Type              X           Y           Z
 ---------------------------------------------------------------------
    1         14             0        0.000000    0.000000   -1.063159
    2         14             0        0.000000    2.024636    0.203120
    3         14             0        0.000000    0.000000    1.418744
    4         14             0        0.000000   -2.024636    0.203120
 ---------------------------------------------------------------------
                    Distance matrix (angstroms):
                    1          2          3          4
     1  Si   0.000000
     2  Si   2.388014   0.000000
     3  Si   2.481903   2.361544   0.000000
     4  Si   2.388014   4.049271   2.361544   0.000000
 Stoichiometry    Si4
 Framework group  C2V[C2(SiSi),SGV(Si2)]
 Deg. of freedom     3
 Full point group                 C2V
 Largest Abelian subgroup         C2V     NOp   4
 Largest concise Abelian subgroup C2      NOp   2
                         Standard orientation:                         
 ---------------------------------------------------------------------
 Center     Atomic     Atomic              Coordinates (Angstroms)
 Number     Number      Type              X           Y           Z
 ---------------------------------------------------------------------
    1         14             0        0.000000    0.000000    1.253615
    2         14             0        0.000000    2.024636   -0.012664
    3         14             0        0.000000    0.000000   -1.228288
    4         14             0        0.000000   -2.024636   -0.012664
 ---------------------------------------------------------------------
 Rotational constants (GHZ):      5.8639084      2.2034005      1.6015921
 Standard basis: LANL2DZ (5D, 7F)
 There are    14 symmetry adapted basis functions of A1  symmetry.
 There are     2 symmetry adapted basis functions of A2  symmetry.
 There are     6 symmetry adapted basis functions of B1  symmetry.
 There are    10 symmetry adapted basis functions of B2  symmetry.
 Integral buffers will be    131072 words long.
 Raffenetti 2 integral format.
 Two-electron integral symmetry is turned on.
    32 basis functions,    48 primitive gaussians,    32 cartesian basis functions
     8 alpha electrons        8 beta electrons
       nuclear repulsion energy        19.7640843080 Hartrees.
 NAtoms=    4 NActive=    4 NUniq=    3 SFac= 1.33D+00 NAtFMM=   80 NAOKFM=F Big=F
 One-electron integrals computed using PRISM.
   4 Symmetry operations used in ECPInt.
 ECPInt:  NShTT=     136 NPrTT=     308 LenC2=     137 LenP2D=     307.
 LDataN:  DoStor=F MaxTD1= 3 Len=   28
 LDataN:  DoStor=T MaxTD1= 3 Len=   28
 NBasis=    32 RedAO= T  NBF=    14     2     6    10
 NBsUse=    32 1.00D-06 NBFU=    14     2     6    10
 Initial guess read from the read-write file:
 Initial guess orbital symmetries:
       Occupied  (A1) (B2) (A1) (A1) (B1) (B2) (B2) (A1)
       Virtual   (A2) (B1) (A1) (B1) (A1) (A1) (B2) (B2) (A1) (B2)
                 (B1) (A1) (B2) (A2) (B1) (A1) (A1) (B2) (B1) (B2)
                 (A1) (B2) (A1) (A1)
 Harris functional with IExCor=  402 diagonalized for initial guess.
 ExpMin= 8.85D-02 ExpMax= 2.58D+00 ExpMxC= 2.58D+00 IAcc=2 IRadAn=         4 AccDes= 0.00D+00
 HarFok:  IExCor= 402 AccDes= 0.00D+00 IRadAn=         4 IDoV=1
 ScaDFX=  1.000000  1.000000  1.000000  1.000000
 Requested convergence on RMS density matrix=1.00D-08 within 128 cycles.
 Requested convergence on MAX density matrix=1.00D-06.
 Requested convergence on             energy=1.00D-06.
 No special actions if energy rises.
 Keep R1 integrals in memory in canonical form, NReq=     1850728.
 Integral accuracy reduced to 1.0D-05 until final iterations.
 Initial convergence to 1.0D-05 achieved.  Increase integral accuracy.
 SCF Done:  E(RB+HF-LYP) =  -15.3956712571     A.U. after   13 cycles
             Convg  =    0.9497D-08             -V/T =  3.6671
             S**2   =   0.0000
 QCSCF skips out because SCF is already converged.
 Range of M.O.s used for correlation:     1    32
 NBasis=    32 NAE=     8 NBE=     8 NFC=     0 NFV=     0
 NROrb=     32 NOA=     8 NOB=     8 NVA=    24 NVB=    24

 **** Warning!!: The smallest alpha delta epsilon is  0.85182950D-01

   4 Symmetry operations used in ECPInt.
 ECPInt:  NShTT=     136 NPrTT=     308 LenC2=     137 LenP2D=     307.
 LDataN:  DoStor=F MaxTD1= 4 Len=   56
 LDataN:  DoStor=T MaxTD1= 4 Len=   56
 Symmetrizing basis deriv contribution to polar:
 IMax=3 JMax=2 DiffMx= 0.00D+00
 G2DrvN: will do    5 centers at a time, making    1 passes doing MaxLOS=1.
 FoFDir/FoFCou used for L=0 through L=1.
 DoAtom=TTTT
          Differentiating once with respect to electric field.
                with respect to dipole field.
          Differentiating once with respect to nuclear coordinates.
          Store integrals in memory, NReq=      940963.
          There are  12 degrees of freedom in the 1st order CPHF.
    12 vectors were produced by pass  0.
 AX will form  12 AO Fock derivatives at one time.
    12 vectors were produced by pass  1.
    12 vectors were produced by pass  2.
    12 vectors were produced by pass  3.
    12 vectors were produced by pass  4.
    12 vectors were produced by pass  5.
     6 vectors were produced by pass  6.
     2 vectors were produced by pass  7.
 Inv2:  IOpt= 1 Iter= 1 AM= 8.18D-16 Conv= 1.00D-12.
 Inverted reduced A of dimension   80 with in-core refinement.
 Isotropic polarizability for W=    0.000000      119.46 Bohr**3.
 End of Minotr Frequency-dependent properties file   721 does not exist.
   4 Symmetry operations used in ECPInt.
 ECPInt:  NShTT=     136 NPrTT=     308 LenC2=     137 LenP2D=     308.
 LDataN:  DoStor=F MaxTD1= 5 Len=  102
 LDataN:  DoStor=T MaxTD1= 5 Len=  102
 ***** Axes restored to original set *****
 -------------------------------------------------------------------
 Center     Atomic                   Forces (Hartrees/Bohr)
 Number     Number              X              Y              Z
 -------------------------------------------------------------------
    1         14           0.000000000    0.000000000   -0.011104382
    2         14           0.000000000    0.001876625   -0.000785762
    3         14           0.000000000    0.000000000    0.012675907
    4         14           0.000000000   -0.001876625   -0.000785762
 -------------------------------------------------------------------
 Cartesian Forces:  Max     0.012675907 RMS     0.004935114

 GradGradGradGradGradGradGradGradGradGradGradGradGradGradGradGradGradGrad
 Berny optimization.
 Internal  Forces:  Max     0.009632348 RMS     0.003991296
 Search for a local minimum.
 Step number   2 out of a maximum of 100
 All quantities printed in internal units (Hartrees-Bohrs-Radians)
 Second derivative matrix not updated -- analytic derivatives used.
 Trust test= 1.07D+00 RLast= 3.00D-01 DXMaxT set to 4.24D-01
 The second derivative matrix:
                          R1        R2        R3        R4        R5
           R1           0.06400
           R2          -0.00620   0.06477
           R3          -0.01447  -0.00620   0.06400
           R4           0.01587  -0.00730   0.01787   0.07133
           R5           0.01787  -0.00730   0.01587  -0.01495   0.07133
           A1           0.00439  -0.01881   0.00439   0.01208   0.01208
           A2           0.01026  -0.01873   0.01026   0.00399   0.00399
                          A1        A2
           A1           0.00983
           A2           0.00447   0.00924
     Eigenvalues ---    0.02407   0.06115   0.07799   0.08676   0.10454
     Eigenvalues --- 1000.000001000.00000
 RFO step:  Lambda=-5.25101608D-05.
 Quintic linear search produced a step of  0.61653.
 Iteration  1 RMS(Cart)=  0.05083954 RMS(Int)=  0.00153925
 Iteration  2 RMS(Cart)=  0.00083188 RMS(Int)=  0.00125726
 Iteration  3 RMS(Cart)=  0.00000023 RMS(Int)=  0.00125726
 Variable       Old X    -DE/DX   Delta X   Delta X   Delta X     New X
                                 (Linear)    (Quad)   (Total)
    R1        4.51269   0.00080   0.00327  -0.00973  -0.00722   4.50547
    R2        4.69012   0.00963   0.16065  -0.00472   0.15607   4.84619
    R3        4.51269   0.00080   0.00327  -0.00973  -0.00722   4.50547
    R4        4.46267   0.00198   0.05091   0.02163   0.07323   4.53590
    R5        4.46267   0.00198   0.05091   0.02163   0.07323   4.53590
    A1        2.02377  -0.00166  -0.01531   0.01416  -0.00294   2.02083
    A2        2.06014  -0.00262  -0.05434  -0.00857  -0.06052   1.99962
         Item               Value     Threshold  Converged?
 Maximum Force            0.009632     0.000450     NO 
 RMS     Force            0.003991     0.000300     NO 
 Maximum Displacement     0.116160     0.001800     NO 
 RMS     Displacement     0.050960     0.001200     NO 
 Predicted change in Energy=-8.678442D-04
 GradGradGradGradGradGradGradGradGradGradGradGradGradGradGradGradGradGrad

                          Input orientation:                          
 ---------------------------------------------------------------------
 Center     Atomic     Atomic              Coordinates (Angstroms)
 Number     Number      Type              X           Y           Z
 ---------------------------------------------------------------------
    1         14             0        0.000000    0.000000   -1.084278
    2         14             0        0.000000    2.019534    0.182946
    3         14             0        0.000000    0.000000    1.480213
    4         14             0        0.000000   -2.019534    0.182946
 ---------------------------------------------------------------------
                    Distance matrix (angstroms):
                    1          2          3          4
     1  Si   0.000000
     2  Si   2.384193   0.000000
     3  Si   2.564492   2.400296   0.000000
     4  Si   2.384193   4.039068   2.400296   0.000000
 Stoichiometry    Si4
 Framework group  C2V[C2(SiSi),SGV(Si2)]
 Deg. of freedom     3
 Full point group                 C2V
 Largest Abelian subgroup         C2V     NOp   4
 Largest concise Abelian subgroup C2      NOp   2
                         Standard orientation:                         
 ---------------------------------------------------------------------
 Center     Atomic     Atomic              Coordinates (Angstroms)
 Number     Number      Type              X           Y           Z
 ---------------------------------------------------------------------
    1         14             0        0.000000    0.000000   -1.274735
    2         14             0        0.000000    2.019534   -0.007511
    3         14             0        0.000000    0.000000    1.289757
    4         14             0        0.000000   -2.019534   -0.007511
 ---------------------------------------------------------------------
 Rotational constants (GHZ):      5.4930660      2.2145462      1.5782642
 Standard basis: LANL2DZ (5D, 7F)
 There are    14 symmetry adapted basis functions of A1  symmetry.
 There are     2 symmetry adapted basis functions of A2  symmetry.
 There are     6 symmetry adapted basis functions of B1  symmetry.
 There are    10 symmetry adapted basis functions of B2  symmetry.
 Integral buffers will be    131072 words long.
 Raffenetti 2 integral format.
 Two-electron integral symmetry is turned on.
    32 basis functions,    48 primitive gaussians,    32 cartesian basis functions
     8 alpha electrons        8 beta electrons
       nuclear repulsion energy        19.5551009154 Hartrees.
 NAtoms=    4 NActive=    4 NUniq=    3 SFac= 1.33D+00 NAtFMM=   80 NAOKFM=F Big=F
 One-electron integrals computed using PRISM.
   4 Symmetry operations used in ECPInt.
 ECPInt:  NShTT=     136 NPrTT=     308 LenC2=     137 LenP2D=     307.
 LDataN:  DoStor=F MaxTD1= 3 Len=   28
 LDataN:  DoStor=T MaxTD1= 3 Len=   28
 NBasis=    32 RedAO= T  NBF=    14     2     6    10
 NBsUse=    32 1.00D-06 NBFU=    14     2     6    10
 Initial guess read from the read-write file:
 Initial guess orbital symmetries:
       Occupied  (A1) (B2) (A1) (A1) (B2) (B1) (A1) (B2)
       Virtual   (A2) (B1) (A1) (B1) (A1) (A1) (B2) (B2) (A1) (B2)
                 (B1) (B2) (A1) (A2) (A1) (B1) (A1) (B2) (B1) (B2)
                 (A1) (B2) (A1) (A1)
 Harris functional with IExCor=  402 diagonalized for initial guess.
 ExpMin= 8.85D-02 ExpMax= 2.58D+00 ExpMxC= 2.58D+00 IAcc=2 IRadAn=         4 AccDes= 0.00D+00
 HarFok:  IExCor= 402 AccDes= 0.00D+00 IRadAn=         4 IDoV=1
 ScaDFX=  1.000000  1.000000  1.000000  1.000000
 Requested convergence on RMS density matrix=1.00D-08 within 128 cycles.
 Requested convergence on MAX density matrix=1.00D-06.
 Requested convergence on             energy=1.00D-06.
 No special actions if energy rises.
 Keep R1 integrals in memory in canonical form, NReq=     1850728.
 Integral accuracy reduced to 1.0D-05 until final iterations.
 Initial convergence to 1.0D-05 achieved.  Increase integral accuracy.
 SCF Done:  E(RB+HF-LYP) =  -15.3966001172     A.U. after   14 cycles
             Convg  =    0.5266D-08             -V/T =  3.6855
             S**2   =   0.0000
 QCSCF skips out because SCF is already converged.
 Range of M.O.s used for correlation:     1    32
 NBasis=    32 NAE=     8 NBE=     8 NFC=     0 NFV=     0
 NROrb=     32 NOA=     8 NOB=     8 NVA=    24 NVB=    24

 **** Warning!!: The smallest alpha delta epsilon is  0.82838246D-01

   4 Symmetry operations used in ECPInt.
 ECPInt:  NShTT=     136 NPrTT=     308 LenC2=     137 LenP2D=     307.
 LDataN:  DoStor=F MaxTD1= 4 Len=   56
 LDataN:  DoStor=T MaxTD1= 4 Len=   56
 Symmetrizing basis deriv contribution to polar:
 IMax=3 JMax=2 DiffMx= 0.00D+00
 G2DrvN: will do    5 centers at a time, making    1 passes doing MaxLOS=1.
 FoFDir/FoFCou used for L=0 through L=1.
 DoAtom=TTTT
          Differentiating once with respect to electric field.
                with respect to dipole field.
          Differentiating once with respect to nuclear coordinates.
          Store integrals in memory, NReq=      940963.
          There are  12 degrees of freedom in the 1st order CPHF.
    12 vectors were produced by pass  0.
 AX will form  12 AO Fock derivatives at one time.
    12 vectors were produced by pass  1.
    12 vectors were produced by pass  2.
    12 vectors were produced by pass  3.
    12 vectors were produced by pass  4.
    12 vectors were produced by pass  5.
     6 vectors were produced by pass  6.
     2 vectors were produced by pass  7.
 Inv2:  IOpt= 1 Iter= 1 AM= 1.05D-15 Conv= 1.00D-12.
 Inverted reduced A of dimension   80 with in-core refinement.
 Isotropic polarizability for W=    0.000000      120.89 Bohr**3.
 End of Minotr Frequency-dependent properties file   721 does not exist.
   4 Symmetry operations used in ECPInt.
 ECPInt:  NShTT=     136 NPrTT=     308 LenC2=     137 LenP2D=     308.
 LDataN:  DoStor=F MaxTD1= 5 Len=  102
 LDataN:  DoStor=T MaxTD1= 5 Len=  102
 ***** Axes restored to original set *****
 -------------------------------------------------------------------
 Center     Atomic                   Forces (Hartrees/Bohr)
 Number     Number              X              Y              Z
 -------------------------------------------------------------------
    1         14           0.000000000    0.000000000   -0.000767795
    2         14           0.000000000    0.000302765    0.000469702
    3         14           0.000000000    0.000000000   -0.000171608
    4         14           0.000000000   -0.000302765    0.000469702
 -------------------------------------------------------------------
 Cartesian Forces:  Max     0.000767795 RMS     0.000321912

 GradGradGradGradGradGradGradGradGradGradGradGradGradGradGradGradGradGrad
 Berny optimization.
 Internal  Forces:  Max     0.000529247 RMS     0.000329538
 Search for a local minimum.
 Step number   3 out of a maximum of 100
 All quantities printed in internal units (Hartrees-Bohrs-Radians)
 Second derivative matrix not updated -- analytic derivatives used.
 Trust test= 1.07D+00 RLast= 1.97D-01 DXMaxT set to 5.91D-01
 The second derivative matrix:
                          R1        R2        R3        R4        R5
           R1           0.06607
           R2          -0.00808   0.05575
           R3          -0.01285  -0.00808   0.06607
           R4           0.01595  -0.00750   0.01656   0.06187
           R5           0.01656  -0.00750   0.01595  -0.01258   0.06187
           A1           0.00456  -0.01677   0.00456   0.01068   0.01068
           A2           0.01169  -0.01682   0.01169   0.00475   0.00475
                          A1        A2
           A1           0.00873
           A2           0.00435   0.00907
     Eigenvalues ---    0.02322   0.05140   0.07437   0.07900   0.10144
     Eigenvalues --- 1000.000001000.00000
 RFO step:  Lambda=-2.81513893D-05.
 Quintic linear search produced a step of -0.01679.
 Iteration  1 RMS(Cart)=  0.01073817 RMS(Int)=  0.00005237
 Iteration  2 RMS(Cart)=  0.00004245 RMS(Int)=  0.00001562
 Iteration  3 RMS(Cart)=  0.00000000 RMS(Int)=  0.00001562
 Variable       Old X    -DE/DX   Delta X   Delta X   Delta X     New X
                                 (Linear)    (Quad)   (Total)
    R1        4.50547   0.00053   0.00012   0.01708   0.01721   4.52268
    R2        4.84619   0.00012  -0.00262   0.00605   0.00344   4.84963
    R3        4.50547   0.00053   0.00012   0.01708   0.01721   4.52268
    R4        4.53590  -0.00018  -0.00123  -0.01182  -0.01306   4.52284
    R5        4.53590  -0.00018  -0.00123  -0.01182  -0.01306   4.52284
    A1        2.02083  -0.00023   0.00005  -0.01097  -0.01088   2.00994
    A2        1.99962   0.00026   0.00102   0.00921   0.01021   2.00983
         Item               Value     Threshold  Converged?
 Maximum Force            0.000529     0.000450     NO 
 RMS     Force            0.000330     0.000300     NO 
 Maximum Displacement     0.015838     0.001800     NO 
 RMS     Displacement     0.010740     0.001200     NO 
 Predicted change in Energy=-1.415655D-05
 GradGradGradGradGradGradGradGradGradGradGradGradGradGradGradGradGradGrad

                          Input orientation:                          
 ---------------------------------------------------------------------
 Center     Atomic     Atomic              Coordinates (Angstroms)
 Number     Number      Type              X           Y           Z
 ---------------------------------------------------------------------
    1         14             0        0.000000    0.000000   -1.092660
    2         14             0        0.000000    2.020296    0.190417
    3         14             0        0.000000    0.000000    1.473652
    4         14             0        0.000000   -2.020296    0.190417
 ---------------------------------------------------------------------
                    Distance matrix (angstroms):
                    1          2          3          4
     1  Si   0.000000
     2  Si   2.393299   0.000000
     3  Si   2.566311   2.393384   0.000000
     4  Si   2.393299   4.040592   2.393384   0.000000
 Stoichiometry    Si4
 Framework group  C2V[C2(SiSi),SGV(Si2)]
 Deg. of freedom     3
 Full point group                 C2V
 Largest Abelian subgroup         C2V     NOp   4
 Largest concise Abelian subgroup C2      NOp   2
                         Standard orientation:                         
 ---------------------------------------------------------------------
 Center     Atomic     Atomic              Coordinates (Angstroms)
 Number     Number      Type              X           Y           Z
 ---------------------------------------------------------------------
    1         14             0        0.000000    0.000000   -1.283116
    2         14             0        0.000000    2.020296   -0.000040
    3         14             0        0.000000    0.000000    1.283195
    4         14             0        0.000000   -2.020296   -0.000040
 ---------------------------------------------------------------------
 Rotational constants (GHZ):      5.4856548      2.2128764      1.5768042
 Standard basis: LANL2DZ (5D, 7F)
 There are    14 symmetry adapted basis functions of A1  symmetry.
 There are     2 symmetry adapted basis functions of A2  symmetry.
 There are     6 symmetry adapted basis functions of B1  symmetry.
 There are    10 symmetry adapted basis functions of B2  symmetry.
 Integral buffers will be    131072 words long.
 Raffenetti 2 integral format.
 Two-electron integral symmetry is turned on.
    32 basis functions,    48 primitive gaussians,    32 cartesian basis functions
     8 alpha electrons        8 beta electrons
       nuclear repulsion energy        19.5453182918 Hartrees.
 NAtoms=    4 NActive=    4 NUniq=    3 SFac= 1.33D+00 NAtFMM=   80 NAOKFM=F Big=F
 One-electron integrals computed using PRISM.
   4 Symmetry operations used in ECPInt.
 ECPInt:  NShTT=     136 NPrTT=     308 LenC2=     137 LenP2D=     307.
 LDataN:  DoStor=F MaxTD1= 3 Len=   28
 LDataN:  DoStor=T MaxTD1= 3 Len=   28
 NBasis=    32 RedAO= T  NBF=    14     2     6    10
 NBsUse=    32 1.00D-06 NBFU=    14     2     6    10
 Initial guess read from the read-write file:
 Initial guess orbital symmetries:
       Occupied  (A1) (B2) (A1) (A1) (B2) (B1) (A1) (B2)
       Virtual   (A2) (B1) (A1) (B1) (A1) (A1) (B2) (B2) (B2) (A1)
                 (B1) (A1) (B2) (A2) (A1) (B1) (B2) (A1) (B1) (B2)
                 (A1) (B2) (A1) (A1)
 Requested convergence on RMS density matrix=1.00D-08 within 128 cycles.
 Requested convergence on MAX density matrix=1.00D-06.
 Requested convergence on             energy=1.00D-06.
 No special actions if energy rises.
 Keep R1 integrals in memory in canonical form, NReq=     1850728.
 SCF Done:  E(RB+HF-LYP) =  -15.3966144071     A.U. after    9 cycles
             Convg  =    0.4270D-08             -V/T =  3.6864
             S**2   =   0.0000
 QCSCF skips out because SCF is already converged.
 Range of M.O.s used for correlation:     1    32
 NBasis=    32 NAE=     8 NBE=     8 NFC=     0 NFV=     0
 NROrb=     32 NOA=     8 NOB=     8 NVA=    24 NVB=    24

 **** Warning!!: The smallest alpha delta epsilon is  0.82839637D-01

   4 Symmetry operations used in ECPInt.
 ECPInt:  NShTT=     136 NPrTT=     308 LenC2=     137 LenP2D=     307.
 LDataN:  DoStor=F MaxTD1= 4 Len=   56
 LDataN:  DoStor=T MaxTD1= 4 Len=   56
 Symmetrizing basis deriv contribution to polar:
 IMax=3 JMax=2 DiffMx= 0.00D+00
 G2DrvN: will do    5 centers at a time, making    1 passes doing MaxLOS=1.
 FoFDir/FoFCou used for L=0 through L=1.
 DoAtom=TTTT
          Differentiating once with respect to electric field.
                with respect to dipole field.
          Differentiating once with respect to nuclear coordinates.
          Store integrals in memory, NReq=      940963.
          There are  12 degrees of freedom in the 1st order CPHF.
    12 vectors were produced by pass  0.
 AX will form  12 AO Fock derivatives at one time.
    12 vectors were produced by pass  1.
    12 vectors were produced by pass  2.
    12 vectors were produced by pass  3.
    12 vectors were produced by pass  4.
    12 vectors were produced by pass  5.
     6 vectors were produced by pass  6.
     2 vectors were produced by pass  7.
 Inv2:  IOpt= 1 Iter= 1 AM= 9.93D-16 Conv= 1.00D-12.
 Inverted reduced A of dimension   80 with in-core refinement.
 Isotropic polarizability for W=    0.000000      120.96 Bohr**3.
 End of Minotr Frequency-dependent properties file   721 does not exist.
   4 Symmetry operations used in ECPInt.
 ECPInt:  NShTT=     136 NPrTT=     308 LenC2=     137 LenP2D=     308.
 LDataN:  DoStor=F MaxTD1= 5 Len=  102
 LDataN:  DoStor=T MaxTD1= 5 Len=  102
 ***** Axes restored to original set *****
 -------------------------------------------------------------------
 Center     Atomic                   Forces (Hartrees/Bohr)
 Number     Number              X              Y              Z
 -------------------------------------------------------------------
    1         14           0.000000000    0.000000000   -0.000007412
    2         14           0.000000000    0.000029029    0.000002459
    3         14           0.000000000    0.000000000    0.000002494
    4         14           0.000000000   -0.000029029    0.000002459
 -------------------------------------------------------------------
 Cartesian Forces:  Max     0.000029029 RMS     0.000012106

 GradGradGradGradGradGradGradGradGradGradGradGradGradGradGradGradGradGrad
 Berny optimization.
 Internal  Forces:  Max     0.000018043 RMS     0.000013430
 Search for a local minimum.
 Step number   4 out of a maximum of 100
 All quantities printed in internal units (Hartrees-Bohrs-Radians)
 Second derivative matrix not updated -- analytic derivatives used.
 Trust test= 1.01D+00 RLast= 3.42D-02 DXMaxT set to 5.91D-01
 The second derivative matrix:
                          R1        R2        R3        R4        R5
           R1           0.06366
           R2          -0.00780   0.05556
           R3          -0.01267  -0.00780   0.06366
           R4           0.01593  -0.00779   0.01651   0.06363
           R5           0.01651  -0.00779   0.01593  -0.01267   0.06363
           A1           0.00467  -0.01674   0.00467   0.01112   0.01112
           A2           0.01113  -0.01674   0.01113   0.00467   0.00467
                          A1        A2
           A1           0.00885
           A2           0.00436   0.00885
     Eigenvalues ---    0.02303   0.05114   0.07573   0.07689   0.10105
     Eigenvalues --- 1000.000001000.00000
 RFO step:  Lambda=-1.13719883D-08.
 Quintic linear search produced a step of  0.00843.
 Iteration  1 RMS(Cart)=  0.00013218 RMS(Int)=  0.00000008
 Iteration  2 RMS(Cart)=  0.00000000 RMS(Int)=  0.00000008
 Variable       Old X    -DE/DX   Delta X   Delta X   Delta X     New X
                                 (Linear)    (Quad)   (Total)
    R1        4.52268   0.00002   0.00015   0.00011   0.00026   4.52294
    R2        4.84963  -0.00001   0.00003  -0.00007  -0.00004   4.84959
    R3        4.52268   0.00002   0.00015   0.00011   0.00026   4.52294
    R4        4.52284   0.00001  -0.00011   0.00021   0.00010   4.52294
    R5        4.52284   0.00001  -0.00011   0.00021   0.00010   4.52294
    A1        2.00994   0.00001  -0.00009   0.00010   0.00000   2.00995
    A2        2.00983   0.00001   0.00009   0.00003   0.00012   2.00995
         Item               Value     Threshold  Converged?
 Maximum Force            0.000018     0.000450     YES
 RMS     Force            0.000013     0.000300     YES
 Maximum Displacement     0.000222     0.001800     YES
 RMS     Displacement     0.000132     0.001200     YES
 Predicted change in Energy=-6.786619D-09
 Optimization completed.
    -- Stationary point found.
                           ----------------------------
                           !   Optimized Parameters   !
                           ! (Angstroms and Degrees)  !
 --------------------------                            --------------------------
 ! Name  Definition              Value          Derivative Info.                !
 --------------------------------------------------------------------------------
 ! R1    R(1,2)                  2.3933         -DE/DX =    0.0                 !
 ! R2    R(1,3)                  2.5663         -DE/DX =    0.0                 !
 ! R3    R(1,4)                  2.3933         -DE/DX =    0.0                 !
 ! R4    R(2,3)                  2.3934         -DE/DX =    0.0                 !
 ! R5    R(3,4)                  2.3934         -DE/DX =    0.0                 !
 ! A1    A(2,1,4)              115.1613         -DE/DX =    0.0                 !
 ! A2    A(2,3,4)              115.1549         -DE/DX =    0.0                 !
 --------------------------------------------------------------------------------
 GradGradGradGradGradGradGradGradGradGradGradGradGradGradGradGradGradGrad

                          Input orientation:                          
 ---------------------------------------------------------------------
 Center     Atomic     Atomic              Coordinates (Angstroms)
 Number     Number      Type              X           Y           Z
 ---------------------------------------------------------------------
    1         14             0        0.000000    0.000000   -1.092660
    2         14             0        0.000000    2.020296    0.190417
    3         14             0        0.000000    0.000000    1.473652
    4         14             0        0.000000   -2.020296    0.190417
 ---------------------------------------------------------------------
                    Distance matrix (angstroms):
                    1          2          3          4
     1  Si   0.000000
     2  Si   2.393299   0.000000
     3  Si   2.566311   2.393384   0.000000
     4  Si   2.393299   4.040592   2.393384   0.000000
 Stoichiometry    Si4
 Framework group  C2V[C2(SiSi),SGV(Si2)]
 Deg. of freedom     3
 Full point group                 C2V
 Largest Abelian subgroup         C2V     NOp   4
 Largest concise Abelian subgroup C2      NOp   2
                         Standard orientation:                         
 ---------------------------------------------------------------------
 Center     Atomic     Atomic              Coordinates (Angstroms)
 Number     Number      Type              X           Y           Z
 ---------------------------------------------------------------------
    1         14             0        0.000000    0.000000   -1.283116
    2         14             0        0.000000    2.020296   -0.000040
    3         14             0        0.000000    0.000000    1.283195
    4         14             0        0.000000   -2.020296   -0.000040
 ---------------------------------------------------------------------
 Rotational constants (GHZ):      5.4856548      2.2128764      1.5768042

 **********************************************************************

            Population analysis using the SCF density.

 **********************************************************************

 Orbital symmetries:
       Occupied  (A1) (B2) (A1) (A1) (B2) (B1) (A1) (B2)
       Virtual   (A2) (B1) (A1) (B1) (A1) (A1) (B2) (B2) (B2) (A1)
                 (B1) (A1) (B2) (A2) (A1) (B1) (B2) (A1) (B1) (B2)
                 (A1) (B2) (A1) (A1)
 The electronic state is 1-A1.
 Alpha  occ. eigenvalues --   -0.63136  -0.50446  -0.42625  -0.34365  -0.27685
 Alpha  occ. eigenvalues --   -0.27116  -0.24098  -0.23141
 Alpha virt. eigenvalues --   -0.14857  -0.10992  -0.09813  -0.05667  -0.01019
 Alpha virt. eigenvalues --    0.00439   0.03784   0.05484   0.29091   0.29115
 Alpha virt. eigenvalues --    0.30667   0.32136   0.32689   0.32783   0.33074
 Alpha virt. eigenvalues --    0.33359   0.35843   0.35995   0.37109   0.43012
 Alpha virt. eigenvalues --    5.53839   8.01895   8.92566   9.19925
          Condensed to atoms (all electrons):
              1          2          3          4
     1  Si   3.890999   0.133696  -0.040874   0.133696
     2  Si   0.133696   3.673877   0.133687  -0.058761
     3  Si  -0.040874   0.133687   3.890986   0.133687
     4  Si   0.133696  -0.058761   0.133687   3.673877
 Mulliken atomic charges:
              1
     1  Si  -0.117517
     2  Si   0.117501
     3  Si  -0.117485
     4  Si   0.117501
 Sum of Mulliken charges=   0.00000
 Atomic charges with hydrogens summed into heavy atoms:
              1
     1  Si  -0.117517
     2  Si   0.117501
     3  Si  -0.117485
     4  Si   0.117501
 Sum of Mulliken charges=   0.00000
 APT atomic charges:
              1
     1  Si  -0.205004
     2  Si   0.204960
     3  Si  -0.204916
     4  Si   0.204960
 Sum of APT charges=   0.00000
 APT Atomic charges with hydrogens summed into heavy atoms:
              1
     1  Si  -0.205004
     2  Si   0.204960
     3  Si  -0.204916
     4  Si   0.204960
 Sum of APT charges=   0.00000
 Electronic spatial extent (au):  <R**2>=   278.3286
 Charge=     0.0000 electrons
 Dipole moment (field-independent basis, Debye):
    X=     0.0000    Y=     0.0000    Z=     0.0000  Tot=     0.0000
 Quadrupole moment (field-independent basis, Debye-Ang):
   XX=   -45.4870   YY=   -54.7253   ZZ=   -54.0439
   XY=     0.0000   XZ=     0.0000   YZ=     0.0000
 Traceless Quadrupole moment (field-independent basis, Debye-Ang):
   XX=     5.9317   YY=    -3.3066   ZZ=    -2.6251
   XY=     0.0000   XZ=     0.0000   YZ=     0.0000
 Octapole moment (field-independent basis, Debye-Ang**2):
  XXX=     0.0000  YYY=     0.0000  ZZZ=    -0.0012  XYY=     0.0000
  XXY=     0.0000  XXZ=     0.0003  XZZ=     0.0000  YZZ=     0.0000
  YYZ=     0.0004  XYZ=     0.0000
 Hexadecapole moment (field-independent basis, Debye-Ang**3):
 XXXX=   -91.5407 YYYY=  -805.3798 ZZZZ=  -378.4081 XXXY=     0.0000
 XXXZ=     0.0000 YYYX=     0.0000 YYYZ=     0.0000 ZZZX=     0.0000
 ZZZY=     0.0000 XXYY=  -120.8506 XXZZ=   -72.4473 YYZZ=  -173.1905
 XXYZ=     0.0000 YYXZ=     0.0000 ZZXY=     0.0000
 N-N= 1.954531829181D+01 E-N=-6.720166038577D+01  KE= 5.731368810335D+00
 Symmetry A1   KE= 2.682856026708D+00
 Symmetry A2   KE= 6.102350754550D-64
 Symmetry B1   KE= 6.351132894392D-01
 Symmetry B2   KE= 2.413399494188D+00
  Exact polarizability:  53.968   0.000 178.216   0.000   0.000 130.709
 Approx polarizability:  82.487   0.000 508.097   0.000   0.000 407.423
 Rotating derivatives to standard orientation.
 Full mass-weighted force constant matrix:
 Low frequencies ---   -2.9981   -0.0001    0.0000    0.0001    4.6901    6.1681
 Low frequencies ---  109.3690  176.2456  309.9251
 Diagonal vibrational polarizability:
        3.9796994       9.3573907       0.0249503
 Harmonic frequencies (cm**-1), IR intensities (KM/Mole), Raman scattering
 activities (A**4/AMU), depolarization ratios for plane and unpolarized
 incident light, reduced masses (AMU), force constants (mDyne/A),
 and normal coordinates:
                     1                      2                      3
                    B1                     A1                     A1
 Frequencies --   109.3690               176.2456               309.9251
 Red. masses --    27.9769                27.9769                27.9769
 Frc consts  --     0.1972                 0.5120                 1.5833
 IR Inten    --     1.7689                 0.0288                 0.0000
 Atom AN      X      Y      Z        X      Y      Z        X      Y      Z
   1  14     0.50   0.00   0.00     0.00   0.00  -0.50     0.00   0.00   0.47
   2  14    -0.50   0.00   0.00     0.00   0.00   0.50     0.00   0.53   0.00
   3  14     0.50   0.00   0.00     0.00   0.00  -0.50     0.00   0.00  -0.47
   4  14    -0.50   0.00   0.00     0.00   0.00   0.50     0.00  -0.53   0.00
                     4                      5                      6
                    B2                     A1                     B2
 Frequencies --   381.1189               401.1905               451.5250
 Red. masses --    27.9769                27.9769                27.9769
 Frc consts  --     2.3943                 2.6531                 3.3606
 IR Inten    --     0.0000                 0.0000                70.8900
 Atom AN      X      Y      Z        X      Y      Z        X      Y      Z
   1  14     0.00   0.60   0.00     0.00   0.00   0.53     0.00   0.50   0.00
   2  14     0.00   0.00  -0.38     0.00  -0.47   0.00     0.00  -0.50   0.00
   3  14     0.00  -0.60   0.00     0.00   0.00  -0.53     0.00   0.50   0.00
   4  14     0.00   0.00   0.38     0.00   0.47   0.00     0.00  -0.50   0.00

 -------------------
 - Thermochemistry -
 -------------------
 Temperature   298.150 Kelvin.  Pressure   1.00000 Atm.
 Atom  1 has atomic number 14 and mass  27.97693
 Atom  2 has atomic number 14 and mass  27.97693
 Atom  3 has atomic number 14 and mass  27.97693
 Atom  4 has atomic number 14 and mass  27.97693
 Molecular mass:   111.90771 amu.
 Principal axes and moments of inertia in atomic units:
                           1         2         3
     EIGENVALUES --   328.99285 815.563501144.55635
           X            0.00000   0.00000   1.00000
           Y            1.00000   0.00000   0.00000
           Z            0.00000   1.00000   0.00000
 This molecule is an asymmetric top.
 Rotational symmetry number  2.
 Rotational temperatures (Kelvin)      0.26327     0.10620     0.07567
 Rotational constants (GHZ):           5.48565     2.21288     1.57680
 Zero-point vibrational energy      10942.1 (Joules/Mol)
                                    2.61522 (Kcal/Mol)
 Warning -- explicit consideration of   6 degrees of freedom as
           vibrations may cause significant error
 Vibrational temperatures:    157.36   253.58   445.91   548.34   577.22
          (Kelvin)            649.64
 
 Zero-point correction=                           0.004168 (Hartree/Particle)
 Thermal correction to Energy=                    0.009623
 Thermal correction to Enthalpy=                  0.010567
 Thermal correction to Gibbs Free Energy=        -0.025397
 Sum of electronic and zero-point Energies=            -15.392447
 Sum of electronic and thermal Energies=               -15.386992
 Sum of electronic and thermal Enthalpies=             -15.386047
 Sum of electronic and thermal Free Energies=          -15.422011
 
                     E (Thermal)             CV                S
                      KCal/Mol        Cal/Mol-Kelvin    Cal/Mol-Kelvin
 Total                    6.038             15.765             75.691
 Electronic               0.000              0.000              0.000
 Translational            0.889              2.981             40.053
 Rotational               0.889              2.981             25.843
 Vibrational              4.261              9.804              9.795
 Vibration  1             0.606              1.942              3.280
 Vibration  2             0.628              1.872              2.368
 Vibration  3             0.699              1.655              1.363
 Vibration  4             0.751              1.510              1.035
 Vibration  5             0.767              1.468              0.958
 Vibration  6             0.810              1.358              0.791
                       Q            Log10(Q)             Ln(Q)
 Total Bot       0.480353D+12         11.681561         26.897787
 Total V=0       0.396761D+14         13.598529         31.311770
 Vib (Bot)       0.104078D+00         -0.982642         -2.262616
 Vib (Bot)  1    0.187292D+01          0.272519          0.627498
 Vib (Bot)  2    0.114107D+01          0.057312          0.131966
 Vib (Bot)  3    0.610151D+00         -0.214563         -0.494049
 Vib (Bot)  4    0.474036D+00         -0.324189         -0.746472
 Vib (Bot)  5    0.443881D+00         -0.352733         -0.812198
 Vib (Bot)  6    0.379325D+00         -0.420988         -0.969361
 Vib (V=0)       0.859660D+01          0.934327          2.151367
 Vib (V=0)  1    0.243851D+01          0.387125          0.891387
 Vib (V=0)  2    0.174581D+01          0.241997          0.557218
 Vib (V=0)  3    0.128885D+01          0.110202          0.253750
 Vib (V=0)  4    0.118899D+01          0.075179          0.173106
 Vib (V=0)  5    0.116860D+01          0.067667          0.155809
 Vib (V=0)  6    0.112760D+01          0.052157          0.120096
 Electronic      0.100000D+01          0.000000          0.000000
 Translational   0.465313D+08          7.667745         17.655636
 Rotational      0.991875D+05          4.996457         11.504768
 ***** Axes restored to original set *****
 -------------------------------------------------------------------
 Center     Atomic                   Forces (Hartrees/Bohr)
 Number     Number              X              Y              Z
 -------------------------------------------------------------------
    1         14           0.000000000    0.000000000   -0.000007412
    2         14           0.000000000    0.000029029    0.000002459
    3         14           0.000000000    0.000000000    0.000002494
    4         14           0.000000000   -0.000029029    0.000002459
 -------------------------------------------------------------------
 Cartesian Forces:  Max     0.000029029 RMS     0.000012106
 1\1\GINC-NODE32\Freq\RB3LYP\LANL2DZ\Si4\TAM\04-Apr-2011\0\\# b3lyp/LAN
 L2DZ opt=(calcall,noeigentest,maxcycle=500) scfcyc=500 scf=xqc\\si4-n\
 \0,1\Si,0.,0.,-1.0926596031\Si,0.,2.0202960218,0.1904169399\Si,0.,0.,1
 .4736517232\Si,0.,-2.0202960218,0.1904169399\\Version=AM64L-G03RevE.01
 \State=1-A1\HF=-15.3966144\RMSD=4.270e-09\RMSF=1.211e-05\ZeroPoint=0.0
 041676\Thermal=0.0096227\Dipole=0.,0.,-0.0000042\DipoleDeriv=0.1126619
 ,0.,0.,0.,-0.7132237,0.,0.,0.,-0.0144508,-0.1126541,0.,0.,0.,0.71316,-
 0.000017,0.,0.0000129,0.0143742,0.1126463,0.,0.,0.,-0.7130964,0.,0.,0.
 ,-0.0142975,-0.1126541,0.,0.,0.,0.71316,0.000017,0.,-0.0000129,0.01437
 42\Polar=53.9684317,0.,178.2164436,0.,0.,130.7088311\PG=C02V [C2(Si1Si
 1),SGV(Si2)]\NImag=0\\0.00318558,0.,0.10875444,0.,0.,0.07813897,-0.003
 16575,0.,0.,0.00317771,0.,-0.05397295,-0.01707838,0.,0.12009945,0.,-0.
 03481401,-0.00822235,0.,0.00000905,0.03033790,0.00314592,0.,0.,-0.0031
 6638,0.,0.,0.00318683,0.,-0.00080853,0.,0.,-0.05395279,0.03480479,0.,0
 .10871411,0.,0.,-0.06169427,0.,0.01706950,-0.00822129,0.,0.,0.07813686
 ,-0.00316575,0.,0.,0.00315442,0.,0.,-0.00316638,0.,0.,0.00317771,0.,-0
 .05397295,0.01707838,0.,-0.01217370,0.00000017,0.,-0.05395279,-0.01706
 950,0.,0.12009945,0.,0.03481401,-0.00822235,0.,-0.00000017,-0.01389426
 ,0.,-0.03480479,-0.00822129,0.,-0.00000905,0.03033790\\0.,0.,0.0000074
 1,0.,-0.00002903,-0.00000246,0.,0.,-0.00000249,0.,0.00002903,-0.000002
 46\\\@


 I LOVE THOSE WHO LONG FOR THE IMPOSSIBLE.

                                 -- GOETHE
 Job cpu time:  0 days  0 hours  2 minutes 42.3 seconds.
 File lengths (MBytes):  RWF=     13 Int=      0 D2E=      0 Chk=      6 Scr=      1
 Normal termination of Gaussian 03 at Mon Apr  4 15:54:59 2011.
 Initial command:
 /usr/local/chem/g03E01/l1.exe /temp0/tam/Gau-17664.inp -scrdir=/temp0/tam/
 Entering Link 1 = /usr/local/chem/g03E01/l1.exe PID=     17894.
  
 Copyright (c) 1988,1990,1992,1993,1995,1998,2003,2004,2007, Gaussian, Inc.
                  All Rights Reserved.
  
 This is the Gaussian(R) 03 program.  It is based on the
 the Gaussian(R) 98 system (copyright 1998, Gaussian, Inc.),
 the Gaussian(R) 94 system (copyright 1995, Gaussian, Inc.),
 the Gaussian 92(TM) system (copyright 1992, Gaussian, Inc.),
 the Gaussian 90(TM) system (copyright 1990, Gaussian, Inc.),
 the Gaussian 88(TM) system (copyright 1988, Gaussian, Inc.),
 the Gaussian 86(TM) system (copyright 1986, Carnegie Mellon
 University), and the Gaussian 82(TM) system (copyright 1983,
 Carnegie Mellon University). Gaussian is a federally registered
 trademark of Gaussian, Inc.
  
 This software contains proprietary and confidential information,
 including trade secrets, belonging to Gaussian, Inc.
  
 This software is provided under written license and may be
 used, copied, transmitted, or stored only in accord with that
 written license.
  
 The following legend is applicable only to US Government
 contracts under FAR:
  
                    RESTRICTED RIGHTS LEGEND
  
 Use, reproduction and disclosure by the US Government is
 subject to restrictions as set forth in subparagraphs (a)
 and (c) of the Commercial Computer Software - Restricted
 Rights clause in FAR 52.227-19.
  
 Gaussian, Inc.
 340 Quinnipiac St., Bldg. 40, Wallingford CT 06492
  
  
 ---------------------------------------------------------------
 Warning -- This program may not be used in any manner that
 competes with the business of Gaussian, Inc. or will provide
 assistance to any competitor of Gaussian, Inc.  The licensee
 of this program is prohibited from giving any competitor of
 Gaussian, Inc. access to this program.  By using this program,
 the user acknowledges that Gaussian, Inc. is engaged in the
 business of creating and licensing software in the field of
 computational chemistry and represents and warrants to the
 licensee that it is not a competitor of Gaussian, Inc. and that
 it will not use this program in any manner prohibited above.
 ---------------------------------------------------------------
  

 Cite this work as:
 Gaussian 03, Revision E.01,
 M. J. Frisch, G. W. Trucks, H. B. Schlegel, G. E. Scuseria, 
 M. A. Robb, J. R. Cheeseman, J. A. Montgomery, Jr., T. Vreven, 
 K. N. Kudin, J. C. Burant, J. M. Millam, S. S. Iyengar, J. Tomasi, 
 V. Barone, B. Mennucci, M. Cossi, G. Scalmani, N. Rega, 
 G. A. Petersson, H. Nakatsuji, M. Hada, M. Ehara, K. Toyota, 
 R. Fukuda, J. Hasegawa, M. Ishida, T. Nakajima, Y. Honda, O. Kitao, 
 H. Nakai, M. Klene, X. Li, J. E. Knox, H. P. Hratchian, J. B. Cross, 
 V. Bakken, C. Adamo, J. Jaramillo, R. Gomperts, R. E. Stratmann, 
 O. Yazyev, A. J. Austin, R. Cammi, C. Pomelli, J. W. Ochterski, 
 P. Y. Ayala, K. Morokuma, G. A. Voth, P. Salvador, J. J. Dannenberg, 
 V. G. Zakrzewski, S. Dapprich, A. D. Daniels, M. C. Strain, 
 O. Farkas, D. K. Malick, A. D. Rabuck, K. Raghavachari, 
 J. B. Foresman, J. V. Ortiz, Q. Cui, A. G. Baboul, S. Clifford, 
 J. Cioslowski, B. B. Stefanov, G. Liu, A. Liashenko, P. Piskorz, 
 I. Komaromi, R. L. Martin, D. J. Fox, T. Keith, M. A. Al-Laham, 
 C. Y. Peng, A. Nanayakkara, M. Challacombe, P. M. W. Gill, 
 B. Johnson, W. Chen, M. W. Wong, C. Gonzalez, and J. A. Pople, 
 Gaussian, Inc., Wallingford CT, 2004.
 
 ******************************************
 Gaussian 03:  AM64L-G03RevE.01 11-Sep-2007
                 4-Apr-2011 
 ******************************************
 %NprocShared=4
 Will use up to    4 processors via shared memory.
 %mem=3750MB
 %chk=S9L-ne-d-01
 ----------------------------------------------------------------------
 # b3lyp/6-311G(d) opt=(readfc,noeigentest,maxcycle=500) freq scfcyc=50
 0 optcyc=500 geom=allcheck guess=read scf=xqc
 ----------------------------------------------------------------------
 1/6=500,10=3,11=1,14=-1,18=20,26=3,29=7,38=1/1,3;
 2/9=110,40=1/2;
 3/5=4,6=6,7=1,11=2,16=1,25=1,30=1,74=-5/1,2,3;
 4/5=1/1;
 5/5=2,7=500,8=3,13=1,38=6/2,8;
 6/7=2,8=2,9=2,10=2,28=1/1;
 7//1,2,3,16;
 1/6=500,11=1,14=-1,18=20/3(3);
 2/9=110/2;
 6/7=2,8=2,9=2,10=2,19=2,28=1/1;
 99//99;
 2/9=110/2;
 3/5=4,6=6,7=1,11=2,16=1,25=1,30=1,74=-5/1,2,3;
 4/5=5,16=3/1;
 5/5=2,7=500,8=3,13=1,38=5/2,8;
 7//1,2,3,16;
 1/6=500,11=1,14=-1,18=20/3(-5);
 2/9=110/2;
 6/7=2,8=2,9=2,10=2,19=2,28=1/1;
 99/9=1/99;
 -----
 si4-n
 -----
 Redundant internal coordinates taken from checkpoint file:
 S9L-ne-d-01.chk
 Charge =  0 Multiplicity = 1
 Si,0,0.,0.,-1.0926596031
 Si,0,0.,2.0202960218,0.1904169399
 Si,0,0.,0.,1.4736517232
 Si,0,0.,-2.0202960218,0.1904169399
 Recover connectivity data from disk.

 GradGradGradGradGradGradGradGradGradGradGradGradGradGradGradGradGradGrad
 Berny optimization.
 Initialization pass.
 Force constant matrix read from checkpoint file:
 S9L-ne-d-01.chk
                           ----------------------------
                           !    Initial Parameters    !
                           ! (Angstroms and Degrees)  !
 --------------------------                            --------------------------
 ! Name  Definition              Value          Derivative Info.                !
 --------------------------------------------------------------------------------
 ! R1    R(1,2)                  2.3933         D2E/DX2 =    0.0637             !
 ! R2    R(1,3)                  2.5663         D2E/DX2 =    0.0556             !
 ! R3    R(1,4)                  2.3933         D2E/DX2 =    0.0637             !
 ! R4    R(2,3)                  2.3934         D2E/DX2 =    0.0636             !
 ! R5    R(3,4)                  2.3934         D2E/DX2 =    0.0636             !
 ! A1    A(2,1,4)              115.1613         D2E/DX2 =    0.0088             !
 ! A2    A(2,3,4)              115.1549         D2E/DX2 =    0.0089             !
 --------------------------------------------------------------------------------
 Trust Radius=3.00D-01 FncErr=1.00D-07 GrdErr=1.00D-06
 Number of steps in this run= 100 maximum allowed number of steps= 100.
 GradGradGradGradGradGradGradGradGradGradGradGradGradGradGradGradGradGrad

                          Input orientation:                          
 ---------------------------------------------------------------------
 Center     Atomic     Atomic              Coordinates (Angstroms)
 Number     Number      Type              X           Y           Z
 ---------------------------------------------------------------------
    1         14             0        0.000000    0.000000   -1.092660
    2         14             0        0.000000    2.020296    0.190417
    3         14             0        0.000000    0.000000    1.473652
    4         14             0        0.000000   -2.020296    0.190417
 ---------------------------------------------------------------------
                    Distance matrix (angstroms):
                    1          2          3          4
     1  Si   0.000000
     2  Si   2.393299   0.000000
     3  Si   2.566311   2.393384   0.000000
     4  Si   2.393299   4.040592   2.393384   0.000000
 Stoichiometry    Si4
 Framework group  C2V[C2(SiSi),SGV(Si2)]
 Deg. of freedom     3
 Full point group                 C2V
 Largest Abelian subgroup         C2V     NOp   4
 Largest concise Abelian subgroup C2      NOp   2
                         Standard orientation:                         
 ---------------------------------------------------------------------
 Center     Atomic     Atomic              Coordinates (Angstroms)
 Number     Number      Type              X           Y           Z
 ---------------------------------------------------------------------
    1         14             0        0.000000    0.000000   -1.283116
    2         14             0        0.000000    2.020296   -0.000040
    3         14             0        0.000000    0.000000    1.283195
    4         14             0        0.000000   -2.020296   -0.000040
 ---------------------------------------------------------------------
 Rotational constants (GHZ):      5.4856548      2.2128764      1.5768042
 Standard basis: 6-311G(d) (5D, 7F)
 There are    45 symmetry adapted basis functions of A1  symmetry.
 There are     9 symmetry adapted basis functions of A2  symmetry.
 There are    19 symmetry adapted basis functions of B1  symmetry.
 There are    31 symmetry adapted basis functions of B2  symmetry.
 Integral buffers will be    131072 words long.
 Raffenetti 2 integral format.
 Two-electron integral symmetry is turned on.
   104 basis functions,   184 primitive gaussians,   108 cartesian basis functions
    28 alpha electrons       28 beta electrons
       nuclear repulsion energy       239.4301490747 Hartrees.
 NAtoms=    4 NActive=    4 NUniq=    3 SFac= 1.33D+00 NAtFMM=   80 NAOKFM=F Big=F
 One-electron integrals computed using PRISM.
 NBasis=   104 RedAO= T  NBF=    45     9    19    31
 NBsUse=   104 1.00D-06 NBFU=    45     9    19    31
 Initial guess read from the checkpoint file:
 S9L-ne-d-01.chk
 Initial guess orbital symmetries:
       Occupied  (A1) (B2) (A1) (A1) (B2) (B1) (A1) (B2) (A2) (B1)
                 (A1) (B1) (A1) (A1) (B2) (B2) (B2) (A1) (B1) (A1)
                 (B2) (A2) (A1) (B1) (B2) (A1) (B1) (B2)
       Virtual   (A1) (B2) (A1) (A1) (A1) (A1) (A1) (A1) (A1) (A1)
                 (A1) (A1) (A1) (A1) (A1) (A1) (A1) (A1) (A1) (A1)
                 (A1) (A1) (A1) (A1) (A1) (A1) (A1) (A1) (A1) (A1)
                 (A1) (A1) (A1) (A1) (A1) (A2) (A2) (A2) (A2) (A2)
                 (A2) (A2) (B1) (B1) (B1) (B1) (B1) (B1) (B1) (B1)
                 (B1) (B1) (B1) (B1) (B1) (B2) (B2) (B2) (B2) (B2)
                 (B2) (B2) (B2) (B2) (B2) (B2) (B2) (B2) (B2) (B2)
                 (B2) (B2) (B2) (B2) (B2) (B2)
 Requested convergence on RMS density matrix=1.00D-08 within 128 cycles.
 Requested convergence on MAX density matrix=1.00D-06.
 Requested convergence on             energy=1.00D-06.
 No special actions if energy rises.
 Keep R1 integrals in memory in canonical form, NReq=    19167287.
 SCF Done:  E(RB+HF-LYP) =  -1157.96955584     A.U. after   16 cycles
             Convg  =    0.4323D-08             -V/T =  2.0019
             S**2   =   0.0000
 QCSCF skips out because SCF is already converged.

 **********************************************************************

            Population analysis using the SCF density.

 **********************************************************************

 Orbital symmetries:
       Occupied  (B2) (A1) (A1) (A1) (B2) (A1) (A1) (A1) (B1) (A2)
                 (B2) (A1) (B2) (A1) (B1) (B1) (A1) (A1) (B2) (B2)
                 (A1) (B2) (A1) (A1) (B2) (B1) (A1) (B2)
       Virtual   (A2) (B1) (A1) (B1) (A1) (A1) (B2) (B2) (A1) (B2)
                 (B2) (B1) (A1) (A2) (B1) (A1) (A1) (B2) (B1) (A1)
                 (B2) (A1) (B2) (A1) (A2) (B1) (A2) (A1) (A1) (B2)
                 (B2) (B1) (A1) (B2) (B1) (A1) (B1) (A2) (A2) (A1)
                 (A1) (B2) (A1) (B2) (B1) (A2) (B1) (B2) (B1) (A1)
                 (B2) (A1) (A1) (B2) (A1) (B2) (A1) (A1) (B2) (A1)
                 (B1) (B2) (A1) (A2) (B1) (B2) (B1) (A1) (A1) (B2)
                 (B2) (A1) (A1) (A1) (B2) (A1)
 The electronic state is 1-A1.
 Alpha  occ. eigenvalues --  -66.13186 -66.13185 -66.11171 -66.11171  -5.29942
 Alpha  occ. eigenvalues --   -5.29937  -5.28184  -5.28182  -3.66012  -3.66012
 Alpha  occ. eigenvalues --   -3.65690  -3.65690  -3.65358  -3.65358  -3.64209
 Alpha  occ. eigenvalues --   -3.64207  -3.63903  -3.63882  -3.63724  -3.63723
 Alpha  occ. eigenvalues --   -0.59458  -0.48198  -0.41590  -0.34082  -0.25643
 Alpha  occ. eigenvalues --   -0.25308  -0.23539  -0.22360
 Alpha virt. eigenvalues --   -0.13664  -0.09688  -0.09286  -0.04621  -0.01119
 Alpha virt. eigenvalues --    0.00491   0.01781   0.04469   0.10528   0.12844
 Alpha virt. eigenvalues --    0.13800   0.14006   0.16659   0.17819   0.18465
 Alpha virt. eigenvalues --    0.18488   0.19826   0.19999   0.21963   0.24404
 Alpha virt. eigenvalues --    0.27709   0.39592   0.40823   0.41216   0.45934
 Alpha virt. eigenvalues --    0.46868   0.47930   0.49682   0.50772   0.52871
 Alpha virt. eigenvalues --    0.55553   0.56966   0.61071   0.62855   0.68499
 Alpha virt. eigenvalues --    0.68637   0.69894   0.70015   0.73929   0.82818
 Alpha virt. eigenvalues --    0.87725   0.90467   0.90965   0.91025   1.08410
 Alpha virt. eigenvalues --    1.12559   1.14939   1.16512   1.17551   1.19038
 Alpha virt. eigenvalues --    1.24305   1.26337   1.30068   1.30595   1.31131
 Alpha virt. eigenvalues --    1.37451   5.04501   5.30307   5.31228   5.36868
 Alpha virt. eigenvalues --   11.18156  11.18761  11.18899  11.19218  11.22320
 Alpha virt. eigenvalues --   11.22746  11.23452  11.24402  11.28308  11.33159
 Alpha virt. eigenvalues --   11.37839  11.39717 140.42643 140.71335 140.72049
 Alpha virt. eigenvalues --  140.78630
          Condensed to atoms (all electrons):
              1          2          3          4
     1  Si  13.624253   0.234755   0.040610   0.234755
     2  Si   0.234755  13.450738   0.234737  -0.054587
     3  Si   0.040610   0.234737  13.624254   0.234737
     4  Si   0.234755  -0.054587   0.234737  13.450738
 Mulliken atomic charges:
              1
     1  Si  -0.134374
     2  Si   0.134356
     3  Si  -0.134339
     4  Si   0.134356
 Sum of Mulliken charges=   0.00000
 Atomic charges with hydrogens summed into heavy atoms:
              1
     1  Si  -0.134374
     2  Si   0.134356
     3  Si  -0.134339
     4  Si   0.134356
 Sum of Mulliken charges=   0.00000
 Electronic spatial extent (au):  <R**2>=   694.4749
 Charge=     0.0000 electrons
 Dipole moment (field-independent basis, Debye):
    X=     0.0000    Y=     0.0000    Z=     0.0000  Tot=     0.0000
 Quadrupole moment (field-independent basis, Debye-Ang):
   XX=   -50.0399   YY=   -57.2637   ZZ=   -56.4204
   XY=     0.0000   XZ=     0.0000   YZ=     0.0000
 Traceless Quadrupole moment (field-independent basis, Debye-Ang):
   XX=     4.5348   YY=    -2.6891   ZZ=    -1.8457
   XY=     0.0000   XZ=     0.0000   YZ=     0.0000
 Octapole moment (field-independent basis, Debye-Ang**2):
  XXX=     0.0000  YYY=     0.0000  ZZZ=    -0.0012  XYY=     0.0000
  XXY=     0.0000  XXZ=     0.0002  XZZ=     0.0000  YZZ=     0.0000
  YYZ=     0.0003  XYZ=     0.0000
 Hexadecapole moment (field-independent basis, Debye-Ang**3):
 XXXX=   -91.9488 YYYY=  -848.8850 ZZZZ=  -393.0531 XXXY=     0.0000
 XXXZ=     0.0000 YYYX=     0.0000 YYYZ=     0.0000 ZZZX=     0.0000
 ZZZY=     0.0000 XXYY=  -132.2339 XXZZ=   -76.0256 YYZZ=  -189.3770
 XXYZ=     0.0000 YYXZ=     0.0000 ZZXY=     0.0000
 N-N= 2.394301490747D+02 E-N=-3.238206433426D+03  KE= 1.155827881261D+03
 Symmetry A1   KE= 7.403744036365D+02
 Symmetry A2   KE= 2.442602729452D+01
 Symmetry B1   KE= 7.494836985881D+01
 Symmetry B2   KE= 3.160790804715D+02
 ***** Axes restored to original set *****
 -------------------------------------------------------------------
 Center     Atomic                   Forces (Hartrees/Bohr)
 Number     Number              X              Y              Z
 -------------------------------------------------------------------
    1         14           0.000000000    0.000000000    0.022213573
    2         14           0.000000000   -0.014218566    0.000003283
    3         14           0.000000000    0.000000000   -0.022220140
    4         14           0.000000000    0.014218566    0.000003283
 -------------------------------------------------------------------
 Cartesian Forces:  Max     0.022220140 RMS     0.010768444

 GradGradGradGradGradGradGradGradGradGradGradGradGradGradGradGradGradGrad
 Berny optimization.
 Internal  Forces:  Max     0.012701590 RMS     0.008067416
 Search for a local minimum.
 Step number   1 out of a maximum of 100
 All quantities printed in internal units (Hartrees-Bohrs-Radians)
 Second derivative matrix not updated -- first step.
 The second derivative matrix:
                          R1        R2        R3        R4        R5
           R1           0.06366
           R2          -0.00780   0.05556
           R3          -0.01267  -0.00780   0.06366
           R4           0.01593  -0.00779   0.01651   0.06363
           R5           0.01651  -0.00779   0.01593  -0.01267   0.06363
           A1           0.00467  -0.01674   0.00467   0.01112   0.01112
           A2           0.01113  -0.01674   0.01113   0.00467   0.00467
                          A1        A2
           A1           0.00885
           A2           0.00436   0.00885
     Eigenvalues ---    0.02303   0.05114   0.07573   0.07689   0.10105
     Eigenvalues --- 1000.000001000.00000
 RFO step:  Lambda=-7.30454743D-03.
 Linear search not attempted -- first point.
 Maximum step size (   0.300) exceeded in Quadratic search.
    -- Step size scaled by   0.864
 Iteration  1 RMS(Cart)=  0.06243120 RMS(Int)=  0.00432283
 Iteration  2 RMS(Cart)=  0.00313104 RMS(Int)=  0.00024994
 Iteration  3 RMS(Cart)=  0.00000219 RMS(Int)=  0.00024992
 Iteration  4 RMS(Cart)=  0.00000000 RMS(Int)=  0.00024992
 Variable       Old X    -DE/DX   Delta X   Delta X   Delta X     New X
                                 (Linear)    (Quad)   (Total)
    R1        4.52268  -0.00855   0.00000  -0.10422  -0.10428   4.41840
    R2        4.84963  -0.01270   0.00000  -0.21236  -0.21213   4.63750
    R3        4.52268  -0.00855   0.00000  -0.10422  -0.10428   4.41840
    R4        4.52284  -0.00855   0.00000  -0.10439  -0.10445   4.41839
    R5        4.52284  -0.00855   0.00000  -0.10439  -0.10445   4.41839
    A1        2.00994   0.00092   0.00000   0.02627   0.02670   2.03664
    A2        2.00983   0.00093   0.00000   0.02638   0.02682   2.03665
         Item               Value     Threshold  Converged?
 Maximum Force            0.012702     0.000450     NO 
 RMS     Force            0.008067     0.000300     NO 
 Maximum Displacement     0.106144     0.001800     NO 
 RMS     Displacement     0.064296     0.001200     NO 
 Predicted change in Energy=-3.913802D-03
 GradGradGradGradGradGradGradGradGradGradGradGradGradGradGradGradGradGrad

                          Input orientation:                          
 ---------------------------------------------------------------------
 Center     Atomic     Atomic              Coordinates (Angstroms)
 Number     Number      Type              X           Y           Z
 ---------------------------------------------------------------------
[...]
                 (B1) (A1) (A1) (B2) (B1) (B2) (A1) (A2) (B1) (A2)
                 (A1) (A1) (B2) (A1) (A1) (B2) (B1) (B2) (B2) (A1)
                 (B1) (A1) (A2) (B1) (A2) (A1) (A1) (B2) (A1) (B2)
                 (B1) (A2) (B1) (B2) (B1) (A1) (B2) (A1) (A1) (B2)
                 (A1) (B2) (A1) (B2) (A1) (A1) (B1) (A2) (B2) (A1)
                 (B2) (B1) (B1) (A1) (A1) (B2) (B2) (A1) (A1) (B2)
                 (A1) (A1)
 Requested convergence on RMS density matrix=1.00D-08 within 128 cycles.
 Requested convergence on MAX density matrix=1.00D-06.
 Requested convergence on             energy=1.00D-06.
 No special actions if energy rises.
 Keep R1 integrals in memory in canonical form, NReq=    31936961.
 SCF Done:  E(RB+HF-LYP) =  -1157.97640173     A.U. after    1 cycles
             Convg  =    0.3528D-09             -V/T =  2.0017
             S**2   =   0.0000
 QCSCF skips out because SCF is already converged.
 Range of M.O.s used for correlation:     1   120
 NBasis=   120 NAE=    28 NBE=    28 NFC=     0 NFV=     0
 NROrb=    120 NOA=    28 NOB=    28 NVA=    92 NVB=    92

 **** Warning!!: The largest alpha MO coefficient is  0.17532539D+02


 **** Warning!!: The smallest alpha delta epsilon is  0.89075018D-01

 Symmetrizing basis deriv contribution to polar:
 IMax=3 JMax=2 DiffMx= 0.00D+00
 G2DrvN: will do    5 centers at a time, making    1 passes doing MaxLOS=2.
 FoFDir/FoFCou used for L=0 through L=2.
 DoAtom=TTTT
          Differentiating once with respect to electric field.
                with respect to dipole field.
          Differentiating once with respect to nuclear coordinates.
          Store integrals in memory, NReq=    30857312.
          There are  12 degrees of freedom in the 1st order CPHF.
    12 vectors were produced by pass  0.
 AX will form  12 AO Fock derivatives at one time.
    12 vectors were produced by pass  1.
    12 vectors were produced by pass  2.
    12 vectors were produced by pass  3.
    12 vectors were produced by pass  4.
    12 vectors were produced by pass  5.
    11 vectors were produced by pass  6.
     5 vectors were produced by pass  7.
     2 vectors were produced by pass  8.
     1 vectors were produced by pass  9.
 Inv2:  IOpt= 1 Iter= 1 AM= 1.33D-15 Conv= 1.00D-12.
 Inverted reduced A of dimension   91 with in-core refinement.
 Isotropic polarizability for W=    0.000000      136.06 Bohr**3.
 End of Minotr Frequency-dependent properties file   721 does not exist.

 **********************************************************************

            Population analysis using the SCF density.

 **********************************************************************

 Orbital symmetries:
       Occupied  (B2) (A1) (A1) (A1) (B2) (A1) (A1) (A1) (B1) (A2)
                 (B2) (A1) (B2) (A1) (B1) (B1) (A1) (A1) (B2) (B2)
                 (A1) (B2) (A1) (A1) (B1) (B2) (A1) (B2)
       Virtual   (A2) (B1) (A1) (B1) (A1) (A1) (B2) (A1) (B1) (B2)
                 (A1) (B2) (A2) (A1) (B1) (A1) (B2) (B2) (A1) (B1)
                 (A1) (B2) (B2) (A1) (B2) (A1) (B2) (B1) (A1) (A2)
                 (B1) (A1) (A1) (B2) (B1) (B2) (A1) (A2) (B1) (A2)
                 (A1) (A1) (B2) (A1) (A1) (B2) (B1) (B2) (B2) (A1)
                 (B1) (A1) (A2) (B1) (A2) (A1) (A1) (B2) (A1) (B2)
                 (B1) (A2) (B1) (B2) (B1) (A1) (B2) (A1) (A1) (B2)
                 (A1) (B2) (A1) (B2) (A1) (A1) (B1) (A2) (B2) (A1)
                 (B2) (B1) (B1) (A1) (A1) (B2) (B2) (A1) (A1) (B2)
                 (A1) (A1)
 The electronic state is 1-A1.
 Alpha  occ. eigenvalues --  -66.13092 -66.13092 -66.10630 -66.10630  -5.29949
 Alpha  occ. eigenvalues --   -5.29945  -5.27852  -5.27849  -3.66021  -3.66021
 Alpha  occ. eigenvalues --   -3.65668  -3.65668  -3.65375  -3.65375  -3.63868
 Alpha  occ. eigenvalues --   -3.63865  -3.63560  -3.63520  -3.63393  -3.63390
 Alpha  occ. eigenvalues --   -0.61409  -0.49188  -0.41393  -0.34085  -0.26436
 Alpha  occ. eigenvalues --   -0.26007  -0.23635  -0.22894
 Alpha virt. eigenvalues --   -0.13986  -0.09334  -0.08750  -0.04457  -0.01296
 Alpha virt. eigenvalues --   -0.00774   0.00870   0.01211   0.02983   0.03124
 Alpha virt. eigenvalues --    0.03908   0.05216   0.05803   0.06450   0.06646
 Alpha virt. eigenvalues --    0.07265   0.07618   0.07790   0.08732   0.09121
 Alpha virt. eigenvalues --    0.10255   0.11615   0.12629   0.13103   0.21392
 Alpha virt. eigenvalues --    0.21483   0.24146   0.26391   0.27506   0.28959
 Alpha virt. eigenvalues --    0.29155   0.29207   0.30471   0.30963   0.31797
 Alpha virt. eigenvalues --    0.36368   0.41193   0.44367   0.45550   0.46783
 Alpha virt. eigenvalues --    0.47472   0.48347   0.50582   0.52771   0.52956
 Alpha virt. eigenvalues --    0.56421   0.57386   0.60514   0.65012   0.66325
 Alpha virt. eigenvalues --    0.69738   0.71044   0.71558   0.73436   0.76866
 Alpha virt. eigenvalues --    0.91530   0.94364   0.95705   0.97697   0.98176
 Alpha virt. eigenvalues --    1.19100   1.22005   1.23951   1.25574   1.25967
 Alpha virt. eigenvalues --    1.27678   1.32428   1.34754   1.38458   1.40595
 Alpha virt. eigenvalues --    1.41051   1.44315   5.20999   5.41477   5.41572
 Alpha virt. eigenvalues --    5.46164  11.27041  11.27182  11.27269  11.27604
 Alpha virt. eigenvalues --   11.29848  11.30027  11.31068  11.32719  11.34716
 Alpha virt. eigenvalues --   11.41048  11.46532  11.49239 140.62698 140.84451
 Alpha virt. eigenvalues --  140.84889 140.89998
          Condensed to atoms (all electrons):
              1          2          3          4
     1  Si  13.584608   0.179027   0.177086   0.179027
     2  Si   0.179027  13.524473   0.179026  -0.002271
     3  Si   0.177086   0.179026  13.584605   0.179026
     4  Si   0.179027  -0.002271   0.179026  13.524473
 Mulliken atomic charges:
              1
     1  Si  -0.119748
     2  Si   0.119746
     3  Si  -0.119744
     4  Si   0.119746
 Sum of Mulliken charges=   0.00000
 Atomic charges with hydrogens summed into heavy atoms:
              1
     1  Si  -0.119748
     2  Si   0.119746
     3  Si  -0.119744
     4  Si   0.119746
 Sum of Mulliken charges=   0.00000
 APT atomic charges:
              1
     1  Si  -0.232506
     2  Si   0.232497
     3  Si  -0.232488
     4  Si   0.232497
 Sum of APT charges=   0.00000
 APT Atomic charges with hydrogens summed into heavy atoms:
              1
     1  Si  -0.232506
     2  Si   0.232497
     3  Si  -0.232488
     4  Si   0.232497
 Sum of APT charges=   0.00000
 Electronic spatial extent (au):  <R**2>=   663.5946
 Charge=     0.0000 electrons
 Dipole moment (field-independent basis, Debye):
    X=     0.0000    Y=     0.0000    Z=     0.0000  Tot=     0.0000
 Quadrupole moment (field-independent basis, Debye-Ang):
   XX=   -49.8004   YY=   -56.9663   ZZ=   -57.0218
   XY=     0.0000   XZ=     0.0000   YZ=     0.0000
 Traceless Quadrupole moment (field-independent basis, Debye-Ang):
   XX=     4.7958   YY=    -2.3702   ZZ=    -2.4256
   XY=     0.0000   XZ=     0.0000   YZ=     0.0000
 Octapole moment (field-independent basis, Debye-Ang**2):
  XXX=     0.0000  YYY=     0.0000  ZZZ=    -0.0003  XYY=     0.0000
  XXY=     0.0000  XXZ=     0.0000  XZZ=     0.0000  YZZ=     0.0000
  YYZ=     0.0000  XYZ=     0.0000
 Hexadecapole moment (field-independent basis, Debye-Ang**3):
 XXXX=   -91.7456 YYYY=  -825.6936 ZZZZ=  -372.5454 XXXY=     0.0000
 XXXZ=     0.0000 YYYX=     0.0000 YYYZ=     0.0000 ZZZX=     0.0000
 ZZZY=     0.0000 XXYY=  -130.6706 XXZZ=   -73.0729 YYZZ=  -184.0802
 XXYZ=     0.0000 YYXZ=     0.0000 ZZXY=     0.0000
 N-N= 2.470450989034D+02 E-N=-3.253592725543D+03  KE= 1.156018008158D+03
 Symmetry A1   KE= 7.404138304936D+02
 Symmetry A2   KE= 2.442126627899D+01
 Symmetry B1   KE= 7.497363263910D+01
 Symmetry B2   KE= 3.162092787460D+02
  Exact polarizability:  81.498   0.000 188.648   0.000   0.000 138.043
 Approx polarizability: 139.349   0.000 483.318   0.000   0.000 354.600
 Full mass-weighted force constant matrix:
 Low frequencies ---  -11.5221   -8.3401   -7.9741   -0.0029    0.0019    0.0020
 Low frequencies ---  101.2125  231.1520  343.2268
 Diagonal vibrational polarizability:
        7.7838310       8.7376059       0.6393916
 Harmonic frequencies (cm**-1), IR intensities (KM/Mole), Raman scattering
 activities (A**4/AMU), depolarization ratios for plane and unpolarized
 incident light, reduced masses (AMU), force constants (mDyne/A),
 and normal coordinates:
                     1                      2                      3
                    B1                     A1                     A1
 Frequencies --   101.2125               231.1520               343.2268
 Red. masses --    27.9769                27.9769                27.9769
 Frc consts  --     0.1689                 0.8807                 1.9418
 IR Inten    --     2.9630                 1.2695                 0.0000
 Atom AN      X      Y      Z        X      Y      Z        X      Y      Z
   1  14     0.50   0.00   0.00     0.00   0.00  -0.50     0.00   0.00   0.43
   2  14    -0.50   0.00   0.00     0.00   0.00   0.50     0.00   0.56   0.00
   3  14     0.50   0.00   0.00     0.00   0.00  -0.50     0.00   0.00  -0.43
   4  14    -0.50   0.00   0.00     0.00   0.00   0.50     0.00  -0.56   0.00
                     4                      5                      6
                    B2                     A1                     B2
 Frequencies --   421.7650               456.0240               489.9970
 Red. masses --    27.9769                27.9769                27.9769
 Frc consts  --     2.9322                 3.4279                 3.9576
 IR Inten    --     0.0000                 0.0000                77.9554
 Atom AN      X      Y      Z        X      Y      Z        X      Y      Z
   1  14     0.00   0.60   0.00     0.00   0.00   0.56     0.00   0.50   0.00
   2  14     0.00   0.00  -0.37     0.00  -0.43   0.00     0.00  -0.50   0.00
   3  14     0.00  -0.60   0.00     0.00   0.00  -0.56     0.00   0.50   0.00
   4  14     0.00   0.00   0.37     0.00   0.43   0.00     0.00  -0.50   0.00

 -------------------
 - Thermochemistry -
 -------------------
 Temperature   298.150 Kelvin.  Pressure   1.00000 Atm.
 Atom  1 has atomic number 14 and mass  27.97693
 Atom  2 has atomic number 14 and mass  27.97693
 Atom  3 has atomic number 14 and mass  27.97693
 Atom  4 has atomic number 14 and mass  27.97693
 Molecular mass:   111.90771 amu.
 Principal axes and moments of inertia in atomic units:
                           1         2         3
     EIGENVALUES --   294.60804 788.142871082.75091
           X            0.00000   0.00000   1.00000
           Y            1.00000   0.00000   0.00000
           Z            0.00000   1.00000   0.00000
 This molecule is an asymmetric top.
 Rotational symmetry number  2.
 Rotational temperatures (Kelvin)      0.29400     0.10990     0.07999
 Rotational constants (GHZ):           6.12591     2.28987     1.66681
 Zero-point vibrational energy      12222.1 (Joules/Mol)
                                    2.92115 (Kcal/Mol)
 Warning -- explicit consideration of   6 degrees of freedom as
           vibrations may cause significant error
 Vibrational temperatures:    145.62   332.58   493.83   606.83   656.12
          (Kelvin)            705.00
 
 Zero-point correction=                           0.004655 (Hartree/Particle)
 Thermal correction to Energy=                    0.009881
 Thermal correction to Enthalpy=                  0.010826
 Thermal correction to Gibbs Free Energy=        -0.024592
 Sum of electronic and zero-point Energies=          -1157.971747
 Sum of electronic and thermal Energies=             -1157.966520
 Sum of electronic and thermal Enthalpies=           -1157.965576
 Sum of electronic and thermal Free Energies=        -1158.000994
 
                     E (Thermal)             CV                S
                      KCal/Mol        Cal/Mol-Kelvin    Cal/Mol-Kelvin
 Total                    6.201             15.335             74.543
 Electronic               0.000              0.000              0.000
 Translational            0.889              2.981             40.053
 Rotational               0.889              2.981             25.644
 Vibrational              4.423              9.373              8.845
 Vibration  1             0.604              1.948              3.431
 Vibration  2             0.653              1.793              1.870
 Vibration  3             0.722              1.589              1.197
 Vibration  4             0.784              1.423              0.886
 Vibration  5             0.814              1.348              0.778
 Vibration  6             0.846              1.272              0.684
                       Q            Log10(Q)             Ln(Q)
 Total Bot       0.204914D+12         11.311572         26.045857
 Total V=0       0.283655D+14         13.452790         30.976195
 Vib (Bot)       0.490706D-01         -1.309179         -3.014496
 Vib (Bot)  1    0.202721D+01          0.306900          0.706662
 Vib (Bot)  2    0.851643D+00         -0.069742         -0.160588
 Vib (Bot)  3    0.539891D+00         -0.267694         -0.616387
 Vib (Bot)  4    0.415758D+00         -0.381159         -0.877651
 Vib (Bot)  5    0.374204D+00         -0.426891         -0.982953
 Vib (Bot)  6    0.338383D+00         -0.470592         -1.083578
 Vib (V=0)       0.679266D+01          0.832040          1.915842
 Vib (V=0)  1    0.258796D+01          0.412958          0.950872
 Vib (V=0)  2    0.148757D+01          0.172478          0.397144
 Vib (V=0)  3    0.123586D+01          0.091968          0.211763
 Vib (V=0)  4    0.115027D+01          0.060801          0.139999
 Vib (V=0)  5    0.112452D+01          0.050968          0.117359
 Vib (V=0)  6    0.110374D+01          0.042867          0.098705
 Electronic      0.100000D+01          0.000000          0.000000
 Translational   0.465313D+08          7.667745         17.655636
 Rotational      0.897440D+05          4.953005         11.404716
 ***** Axes restored to original set *****
 -------------------------------------------------------------------
 Center     Atomic                   Forces (Hartrees/Bohr)
 Number     Number              X              Y              Z
 -------------------------------------------------------------------
    1         14           0.000000000    0.000000000   -0.000203128
    2         14           0.000000000    0.000193357    0.000000887
    3         14           0.000000000    0.000000000    0.000201353
    4         14           0.000000000   -0.000193357    0.000000887
 -------------------------------------------------------------------
 Cartesian Forces:  Max     0.000203128 RMS     0.000114229

 GradGradGradGradGradGradGradGradGradGradGradGradGradGradGradGradGradGrad
 Berny optimization.
 Internal  Forces:  Max     0.000112911 RMS     0.000091248
 Search for a local minimum.
 Step number   1 out of a maximum of   2
 All quantities printed in internal units (Hartrees-Bohrs-Radians)
 Second derivative matrix not updated -- analytic derivatives used.
 The second derivative matrix:
                          R1        R2        R3        R4        R5
           R1           0.07834
           R2          -0.00709   0.06975
           R3          -0.01241  -0.00709   0.07834
           R4           0.01528  -0.00709   0.01871   0.07834
           R5           0.01871  -0.00709   0.01528  -0.01241   0.07834
           A1           0.00289  -0.02056   0.00289   0.01477   0.01477
           A2           0.01477  -0.02056   0.01477   0.00290   0.00290
                          A1        A2
           A1           0.01235
           A2           0.00352   0.01235
     Eigenvalues ---    0.04077   0.06798   0.08731   0.09418   0.11757
     Eigenvalues --- 1000.000001000.00000
 Angle between quadratic step and forces=  13.82 degrees.
 Linear search not attempted -- first point.
 Iteration  1 RMS(Cart)=  0.00068685 RMS(Int)=  0.00000002
 Iteration  2 RMS(Cart)=  0.00000001 RMS(Int)=  0.00000001
 Variable       Old X    -DE/DX   Delta X   Delta X   Delta X     New X
                                 (Linear)    (Quad)   (Total)
    R1        4.39894   0.00011   0.00000   0.00128   0.00128   4.40022
    R2        4.58920   0.00009   0.00000   0.00171   0.00171   4.59092
    R3        4.39894   0.00011   0.00000   0.00128   0.00128   4.40022
    R4        4.39897   0.00011   0.00000   0.00125   0.00125   4.40022
    R5        4.39897   0.00011   0.00000   0.00125   0.00125   4.40022
    A1        2.04410   0.00001   0.00000  -0.00012  -0.00012   2.04398
    A2        2.04407   0.00001   0.00000  -0.00009  -0.00009   2.04398
         Item               Value     Threshold  Converged?
 Maximum Force            0.000113     0.000450     YES
 RMS     Force            0.000091     0.000300     YES
 Maximum Displacement     0.000957     0.001800     YES
 RMS     Displacement     0.000687     0.001200     YES
 Predicted change in Energy=-3.584420D-07
 Optimization completed.
    -- Stationary point found.
                           ----------------------------
                           !   Optimized Parameters   !
                           ! (Angstroms and Degrees)  !
 --------------------------                            --------------------------
 ! Name  Definition              Value          Derivative Info.                !
 --------------------------------------------------------------------------------
 ! R1    R(1,2)                  2.3278         -DE/DX =    0.0001              !
 ! R2    R(1,3)                  2.4285         -DE/DX =    0.0001              !
 ! R3    R(1,4)                  2.3278         -DE/DX =    0.0001              !
 ! R4    R(2,3)                  2.3278         -DE/DX =    0.0001              !
 ! R5    R(3,4)                  2.3278         -DE/DX =    0.0001              !
 ! A1    A(2,1,4)              117.1181         -DE/DX =    0.0                 !
 ! A2    A(2,3,4)              117.1167         -DE/DX =    0.0                 !
 --------------------------------------------------------------------------------
 GradGradGradGradGradGradGradGradGradGradGradGradGradGradGradGradGradGrad

 1\1\GINC-NODE32\Freq\RB3LYP\6-311+G(d)\Si4\TAM\04-Apr-2011\0\\#N Geom=
 AllCheck Guess=Read SCRF=Check GenChk RB3LYP/6-311+G(d) Freq\\si4-n\\0
 ,1\Si,0.,0.,-1.0237860484\Si,0.,1.9860427502,0.1904482\Si,0.,0.,1.4047
 156485\Si,0.,-1.9860427502,0.1904482\\Version=AM64L-G03RevE.01\State=1
 -A1\HF=-1157.9764017\RMSD=3.528e-10\RMSF=1.142e-04\ZeroPoint=0.0046552
 \Thermal=0.0098815\Dipole=0.,0.,-0.000006\DipoleDeriv=0.1458037,0.,0.,
 0.,-0.7478682,0.,0.,0.,-0.0954525,-0.1458004,0.,0.,0.,0.7478551,-0.000
 0014,0.,0.0000026,0.0954352,0.1457971,0.,0.,0.,-0.747842,0.,0.,0.,-0.0
 954181,-0.1458004,0.,0.,0.,0.7478551,0.0000014,0.,-0.0000026,0.0954353
 \Polar=81.4981182,0.,188.6482613,0.,0.,138.0431016\PG=C02V [C2(Si1Si1)
 ,SGV(Si2)]\NImag=0\\0.00264085,0.,0.13215947,0.,0.,0.10626529,-0.00271
 128,0.,0.,0.00267462,0.,-0.06355296,-0.02312323,0.,0.14387768,0.,-0.04
 188968,-0.01414268,0.,0.00000234,0.03967280,0.00278172,0.,0.,-0.002711
 59,0.,0.,0.00264147,0.,-0.00505355,0.,0.,-0.06354784,0.04188736,0.,0.1
 3214923,0.,0.,-0.07797994,0.,0.02312088,-0.01414235,0.,0.,0.10626465,-
 0.00271128,0.,0.,0.00274826,0.,0.,-0.00271159,0.,0.,0.00267462,0.,-0.0
 6355296,0.02312323,0.,-0.01677688,0.,0.,-0.06354784,-0.02312088,0.,0.1
 4387768,0.,0.04188968,-0.01414267,0.,0.,-0.01138777,0.,-0.04188736,-0.
 01414235,0.,-0.00000234,0.03967280\\0.,0.,0.00020313,0.,-0.00019336,-0
 .00000089,0.,0.,-0.00020135,0.,0.00019336,-0.00000089\\\@


 SOME PEOPLE TRY TO PULL THE WOOL OVER YOUR EYES
 USING THE WRONG YARN.
 Job cpu time:  0 days  0 hours  2 minutes  2.5 seconds.
 File lengths (MBytes):  RWF=     22 Int=      0 D2E=      0 Chk=      7 Scr=      1
 Normal termination of Gaussian 03 at Mon Apr  4 15:59:12 2011.
