 Entering Gaussian System, Link 0=g03
 Initial command:
 /usr/local/chem/g03E01/l1.exe /temp0/tam/Gau-20952.inp -scrdir=/temp0/tam/
 Entering Link 1 = /usr/local/chem/g03E01/l1.exe PID=     20953.
  
 Copyright (c) 1988,1990,1992,1993,1995,1998,2003,2004,2007, Gaussian, Inc.
                  All Rights Reserved.
  
 This is the Gaussian(R) 03 program.  It is based on the
 the Gaussian(R) 98 system (copyright 1998, Gaussian, Inc.),
 the Gaussian(R) 94 system (copyright 1995, Gaussian, Inc.),
 the Gaussian 92(TM) system (copyright 1992, Gaussian, Inc.),
 the Gaussian 90(TM) system (copyright 1990, Gaussian, Inc.),
 the Gaussian 88(TM) system (copyright 1988, Gaussian, Inc.),
 the Gaussian 86(TM) system (copyright 1986, Carnegie Mellon
 University), and the Gaussian 82(TM) system (copyright 1983,
 Carnegie Mellon University). Gaussian is a federally registered
 trademark of Gaussian, Inc.
  
 This software contains proprietary and confidential information,
 including trade secrets, belonging to Gaussian, Inc.
  
 This software is provided under written license and may be
 used, copied, transmitted, or stored only in accord with that
 written license.
  
 The following legend is applicable only to US Government
 contracts under FAR:
  
                    RESTRICTED RIGHTS LEGEND
  
 Use, reproduction and disclosure by the US Government is
 subject to restrictions as set forth in subparagraphs (a)
 and (c) of the Commercial Computer Software - Restricted
 Rights clause in FAR 52.227-19.
  
 Gaussian, Inc.
 340 Quinnipiac St., Bldg. 40, Wallingford CT 06492
  
  
 ---------------------------------------------------------------
 Warning -- This program may not be used in any manner that
 competes with the business of Gaussian, Inc. or will provide
 assistance to any competitor of Gaussian, Inc.  The licensee
 of this program is prohibited from giving any competitor of
 Gaussian, Inc. access to this program.  By using this program,
 the user acknowledges that Gaussian, Inc. is engaged in the
 business of creating and licensing software in the field of
 computational chemistry and represents and warrants to the
 licensee that it is not a competitor of Gaussian, Inc. and that
 it will not use this program in any manner prohibited above.
 ---------------------------------------------------------------
  

 Cite this work as:
 Gaussian 03, Revision E.01,
 M. J. Frisch, G. W. Trucks, H. B. Schlegel, G. E. Scuseria, 
 M. A. Robb, J. R. Cheeseman, J. A. Montgomery, Jr., T. Vreven, 
 K. N. Kudin, J. C. Burant, J. M. Millam, S. S. Iyengar, J. Tomasi, 
 V. Barone, B. Mennucci, M. Cossi, G. Scalmani, N. Rega, 
 G. A. Petersson, H. Nakatsuji, M. Hada, M. Ehara, K. Toyota, 
 R. Fukuda, J. Hasegawa, M. Ishida, T. Nakajima, Y. Honda, O. Kitao, 
 H. Nakai, M. Klene, X. Li, J. E. Knox, H. P. Hratchian, J. B. Cross, 
 V. Bakken, C. Adamo, J. Jaramillo, R. Gomperts, R. E. Stratmann, 
 O. Yazyev, A. J. Austin, R. Cammi, C. Pomelli, J. W. Ochterski, 
 P. Y. Ayala, K. Morokuma, G. A. Voth, P. Salvador, J. J. Dannenberg, 
 V. G. Zakrzewski, S. Dapprich, A. D. Daniels, M. C. Strain, 
 O. Farkas, D. K. Malick, A. D. Rabuck, K. Raghavachari, 
 J. B. Foresman, J. V. Ortiz, Q. Cui, A. G. Baboul, S. Clifford, 
 J. Cioslowski, B. B. Stefanov, G. Liu, A. Liashenko, P. Piskorz, 
 I. Komaromi, R. L. Martin, D. J. Fox, T. Keith, M. A. Al-Laham, 
 C. Y. Peng, A. Nanayakkara, M. Challacombe, P. M. W. Gill, 
 B. Johnson, W. Chen, M. W. Wong, C. Gonzalez, and J. A. Pople, 
 Gaussian, Inc., Wallingford CT, 2004.
 
 ******************************************
 Gaussian 03:  AM64L-G03RevE.01 11-Sep-2007
                 4-Apr-2011 
 ******************************************
 %NprocShared=4
 Will use up to    4 processors via shared memory.
 %mem=3750MB
 %chk=S9L-ne-d-01
 ----------------------------------------------------------------------
 # b3lyp/LANL2DZ opt=(calcall,noeigentest,maxcycle=500) scfcyc=500 scf=
 xqc
 ----------------------------------------------------------------------
 1/6=500,10=4,11=1,14=-1,18=20,26=3,38=1/1,3;
 2/9=110,17=6,18=5,40=1/2;
 3/5=6,6=3,11=2,16=1,25=1,30=1,74=-5/1,2,3;
 4//1;
 5/5=2,7=500,8=3,13=1,38=5/2,8;
 8/6=4,10=90,11=11/1;
 11/6=1,8=1,9=11,15=111,16=1/1,2,10;
 10/6=1/2;
 6/7=2,8=2,9=2,10=2,18=1,28=1/1;
 7/10=1,25=1/1,2,3,16;
 1/6=500,10=4,11=1,14=-1,18=20/3(3);
 2/9=110/2;
 7/8=1,9=1,25=1,44=-1/16;
 99//99;
 2/9=110/2;
 3/5=6,6=3,11=2,16=1,25=1,30=1,74=-5/1,2,3;
 4/5=5,16=3/1;
 5/5=2,7=500,8=3,13=1,38=5/2,8;
 8/6=4,10=90,11=11/1;
 11/6=1,8=1,9=11,15=111,16=1/1,2,10;
 10/6=1/2;
 7/10=1,25=1/1,2,3,16;
 1/6=500,10=4,11=1,14=-1,18=20/3(-8);
 2/9=110/2;
 6/7=2,8=2,9=2,10=2,18=1,19=2,28=1/1;
 7/8=1,9=1,25=1,44=-1/16;
 99//99;
 -----
 si5-n
 -----
 Symbolic Z-matrix:
 Charge =  0 Multiplicity = 1
 Si                    0.        1.60937  -0.81771 
 Si                    0.       -1.60937  -0.81771 
 Si                    0.        0.        1.69455 
 Si                    1.5155    0.       -0.02957 
 Si                   -1.5155    0.       -0.02957 
 

 GradGradGradGradGradGradGradGradGradGradGradGradGradGradGradGradGradGrad
 Berny optimization.
 Initialization pass.
                           ----------------------------
                           !    Initial Parameters    !
                           ! (Angstroms and Degrees)  !
 --------------------------                            --------------------------
 ! Name  Definition              Value          Derivative Info.                !
 --------------------------------------------------------------------------------
 ! R1    R(1,4)                  2.3469         calculate D2E/DX2 analytically  !
 ! R2    R(1,5)                  2.3469         calculate D2E/DX2 analytically  !
 ! R3    R(2,4)                  2.3469         calculate D2E/DX2 analytically  !
 ! R4    R(2,5)                  2.3469         calculate D2E/DX2 analytically  !
 ! R5    R(3,4)                  2.2955         calculate D2E/DX2 analytically  !
 ! R6    R(3,5)                  2.2955         calculate D2E/DX2 analytically  !
 ! A1    A(4,1,5)               80.4426         calculate D2E/DX2 analytically  !
 ! A2    A(4,2,5)               80.4426         calculate D2E/DX2 analytically  !
 ! A3    A(4,3,5)               82.631          calculate D2E/DX2 analytically  !
 ! A4    A(1,4,2)               86.5879         calculate D2E/DX2 analytically  !
 ! A5    A(1,4,3)               79.9742         calculate D2E/DX2 analytically  !
 ! A6    A(2,4,3)               79.9742         calculate D2E/DX2 analytically  !
 ! A7    A(1,5,2)               86.5879         calculate D2E/DX2 analytically  !
 ! A8    A(1,5,3)               79.9742         calculate D2E/DX2 analytically  !
 ! A9    A(2,5,3)               79.9742         calculate D2E/DX2 analytically  !
 ! D1    D(5,1,4,2)             37.1761         calculate D2E/DX2 analytically  !
 ! D2    D(5,1,4,3)            -43.2358         calculate D2E/DX2 analytically  !
 ! D3    D(4,1,5,2)            -37.1761         calculate D2E/DX2 analytically  !
 ! D4    D(4,1,5,3)             43.2358         calculate D2E/DX2 analytically  !
 ! D5    D(5,2,4,1)            -37.1761         calculate D2E/DX2 analytically  !
 ! D6    D(5,2,4,3)             43.2358         calculate D2E/DX2 analytically  !
 ! D7    D(4,2,5,1)             37.1761         calculate D2E/DX2 analytically  !
 ! D8    D(4,2,5,3)            -43.2358         calculate D2E/DX2 analytically  !
 ! D9    D(5,3,4,1)             44.1369         calculate D2E/DX2 analytically  !
 ! D10   D(5,3,4,2)            -44.1369         calculate D2E/DX2 analytically  !
 ! D11   D(4,3,5,1)            -44.1369         calculate D2E/DX2 analytically  !
 ! D12   D(4,3,5,2)             44.1369         calculate D2E/DX2 analytically  !
 --------------------------------------------------------------------------------
 Trust Radius=3.00D-01 FncErr=1.00D-07 GrdErr=1.00D-06
 Number of steps in this run= 100 maximum allowed number of steps= 100.
 GradGradGradGradGradGradGradGradGradGradGradGradGradGradGradGradGradGrad

                          Input orientation:                          
 ---------------------------------------------------------------------
 Center     Atomic     Atomic              Coordinates (Angstroms)
 Number     Number      Type              X           Y           Z
 ---------------------------------------------------------------------
    1         14             0        0.000000    1.609374   -0.817708
    2         14             0        0.000000   -1.609374   -0.817708
    3         14             0        0.000000    0.000000    1.694548
    4         14             0        1.515497    0.000000   -0.029565
    5         14             0       -1.515497    0.000000   -0.029565
 ---------------------------------------------------------------------
                    Distance matrix (angstroms):
                    1          2          3          4          5
     1  Si   0.000000
     2  Si   3.218748   0.000000
     3  Si   2.983541   2.983541   0.000000
     4  Si   2.346910   2.346910   2.295495   0.000000
     5  Si   2.346910   2.346910   2.295495   3.030994   0.000000
 Stoichiometry    Si5
 Framework group  C2V[C2(Si),SGV(Si2),SGV'(Si2)]
 Deg. of freedom     4
 Full point group                 C2V
 Largest Abelian subgroup         C2V     NOp   4
 Largest concise Abelian subgroup C2V     NOp   4
                         Standard orientation:                         
 ---------------------------------------------------------------------
 Center     Atomic     Atomic              Coordinates (Angstroms)
 Number     Number      Type              X           Y           Z
 ---------------------------------------------------------------------
    1         14             0        0.000000    1.609374   -0.817708
    2         14             0        0.000000   -1.609374   -0.817708
    3         14             0        0.000000    0.000000    1.694548
    4         14             0        1.515497    0.000000   -0.029565
    5         14             0       -1.515497    0.000000   -0.029565
 ---------------------------------------------------------------------
 Rotational constants (GHZ):      2.0518108      1.9236190      1.8482521
 Standard basis: LANL2DZ (5D, 7F)
 There are    16 symmetry adapted basis functions of A1  symmetry.
 There are     4 symmetry adapted basis functions of A2  symmetry.
 There are    10 symmetry adapted basis functions of B1  symmetry.
 There are    10 symmetry adapted basis functions of B2  symmetry.
 Integral buffers will be    131072 words long.
 Raffenetti 2 integral format.
 Two-electron integral symmetry is turned on.
    40 basis functions,    60 primitive gaussians,    40 cartesian basis functions
    10 alpha electrons       10 beta electrons
       nuclear repulsion energy        32.9071157986 Hartrees.
 NAtoms=    5 NActive=    5 NUniq=    3 SFac= 2.08D+00 NAtFMM=   80 NAOKFM=F Big=F
 One-electron integrals computed using PRISM.
   4 Symmetry operations used in ECPInt.
 ECPInt:  NShTT=     210 NPrTT=     475 LenC2=     211 LenP2D=     475.
 LDataN:  DoStor=F MaxTD1= 3 Len=   28
 LDataN:  DoStor=T MaxTD1= 3 Len=   28
 NBasis=    40 RedAO= T  NBF=    16     4    10    10
 NBsUse=    40 1.00D-06 NBFU=    16     4    10    10
 Harris functional with IExCor=  402 diagonalized for initial guess.
 ExpMin= 8.85D-02 ExpMax= 2.58D+00 ExpMxC= 2.58D+00 IAcc=2 IRadAn=         4 AccDes= 0.00D+00
 HarFok:  IExCor= 402 AccDes= 0.00D+00 IRadAn=         4 IDoV=1
 ScaDFX=  1.000000  1.000000  1.000000  1.000000
 Initial guess orbital symmetries:
       Occupied  (A1) (B1) (B2) (A1) (A1) (A2) (B1) (A1) (B2) (A1)
       Virtual   (B1) (B2) (A1) (B2) (B1) (B2) (A1) (B1) (A2) (A1)
                 (B1) (A1) (B2) (A2) (B1) (A1) (A1) (B2) (B1) (B2)
                 (A1) (B2) (A1) (B1) (A2) (A1) (B2) (A1) (B1) (A1)
 The electronic state of the initial guess is 1-A1.
 Requested convergence on RMS density matrix=1.00D-08 within 128 cycles.
 Requested convergence on MAX density matrix=1.00D-06.
 Requested convergence on             energy=1.00D-06.
 No special actions if energy rises.
 Keep R1 integrals in memory in canonical form, NReq=     2058041.
 Integral accuracy reduced to 1.0D-05 until final iterations.
 Initial convergence to 1.0D-05 achieved.  Increase integral accuracy.
 SCF Done:  E(RB+HF-LYP) =  -19.2447363402     A.U. after   13 cycles
             Convg  =    0.7356D-08             -V/T =  3.6089
             S**2   =   0.0000
 QCSCF skips out because SCF is already converged.
 Range of M.O.s used for correlation:     1    40
 NBasis=    40 NAE=    10 NBE=    10 NFC=     0 NFV=     0
 NROrb=     40 NOA=    10 NOB=    10 NVA=    30 NVB=    30

 **** Warning!!: The smallest alpha delta epsilon is  0.92689862D-01

   4 Symmetry operations used in ECPInt.
 ECPInt:  NShTT=     210 NPrTT=     475 LenC2=     211 LenP2D=     475.
 LDataN:  DoStor=F MaxTD1= 4 Len=   56
 LDataN:  DoStor=T MaxTD1= 4 Len=   56
 Symmetrizing basis deriv contribution to polar:
 IMax=3 JMax=2 DiffMx= 0.00D+00
 G2DrvN: will do    6 centers at a time, making    1 passes doing MaxLOS=1.
 FoFDir/FoFCou used for L=0 through L=1.
 DoAtom=TTTTT
          Differentiating once with respect to electric field.
                with respect to dipole field.
          Differentiating once with respect to nuclear coordinates.
          Store integrals in memory, NReq=     1138224.
          There are  12 degrees of freedom in the 1st order CPHF.
    12 vectors were produced by pass  0.
 AX will form  12 AO Fock derivatives at one time.
    12 vectors were produced by pass  1.
    12 vectors were produced by pass  2.
    12 vectors were produced by pass  3.
    12 vectors were produced by pass  4.
    12 vectors were produced by pass  5.
     9 vectors were produced by pass  6.
     3 vectors were produced by pass  7.
     2 vectors were produced by pass  8.
 Inv2:  IOpt= 1 Iter= 1 AM= 1.19D-15 Conv= 1.00D-12.
 Inverted reduced A of dimension   86 with in-core refinement.
 Isotropic polarizability for W=    0.000000      155.90 Bohr**3.
 End of Minotr Frequency-dependent properties file   721 does not exist.

 **********************************************************************

            Population analysis using the SCF density.

 **********************************************************************

 Orbital symmetries:
       Occupied  (A1) (B1) (B2) (A1) (A1) (A2) (B1) (A1) (B2) (A1)
       Virtual   (B1) (B2) (A1) (B2) (B1) (B2) (A1) (B1) (A2) (A1)
                 (B1) (A2) (B1) (B2) (A1) (A1) (A1) (B2) (B2) (B1)
                 (B2) (A1) (A1) (A2) (B1) (A1) (B2) (A1) (B1) (A1)
 The electronic state is 1-A1.
 Alpha  occ. eigenvalues --   -0.69395  -0.50013  -0.49450  -0.47681  -0.30938
 Alpha  occ. eigenvalues --   -0.29042  -0.28124  -0.27941  -0.24714  -0.23919
 Alpha virt. eigenvalues --   -0.14650  -0.12805  -0.10948  -0.07424  -0.01557
 Alpha virt. eigenvalues --   -0.00738  -0.00033   0.02368   0.02677   0.08121
 Alpha virt. eigenvalues --    0.26729   0.26878   0.28014   0.28019   0.28350
 Alpha virt. eigenvalues --    0.30905   0.33175   0.33761   0.35503   0.35984
 Alpha virt. eigenvalues --    0.36708   0.36958   0.40609   0.40750   0.40859
 Alpha virt. eigenvalues --    6.33329   9.70321   9.94608  11.21332  12.78316
          Condensed to atoms (all electrons):
              1          2          3          4          5
     1  Si   3.819879  -0.033916  -0.055027   0.105431   0.105431
     2  Si  -0.033916   3.819879  -0.055027   0.105431   0.105431
     3  Si  -0.055027  -0.055027   3.924147   0.076390   0.076390
     4  Si   0.105431   0.105431   0.076390   3.897705  -0.110191
     5  Si   0.105431   0.105431   0.076390  -0.110191   3.897705
 Mulliken atomic charges:
              1
     1  Si   0.058201
     2  Si   0.058201
     3  Si   0.033128
     4  Si  -0.074765
     5  Si  -0.074765
 Sum of Mulliken charges=   0.00000
 Atomic charges with hydrogens summed into heavy atoms:
              1
     1  Si   0.058201
     2  Si   0.058201
     3  Si   0.033128
     4  Si  -0.074765
     5  Si  -0.074765
 Sum of Mulliken charges=   0.00000
 APT atomic charges:
              1
     1  Si   0.086859
     2  Si   0.086859
     3  Si   0.033227
     4  Si  -0.103472
     5  Si  -0.103472
 Sum of APT charges=   0.00000
 APT Atomic charges with hydrogens summed into heavy atoms:
              1
     1  Si   0.086859
     2  Si   0.086859
     3  Si   0.033227
     4  Si  -0.103472
     5  Si  -0.103472
 Sum of APT charges=   0.00000
 Electronic spatial extent (au):  <R**2>=   339.6534
 Charge=     0.0000 electrons
 Dipole moment (field-independent basis, Debye):
    X=     0.0000    Y=     0.0000    Z=    -0.2063  Tot=     0.2063
 Quadrupole moment (field-independent basis, Debye-Ang):
   XX=   -60.0797   YY=   -62.7493   ZZ=   -65.3412
   XY=     0.0000   XZ=     0.0000   YZ=     0.0000
 Traceless Quadrupole moment (field-independent basis, Debye-Ang):
   XX=     2.6437   YY=    -0.0259   ZZ=    -2.6178
   XY=     0.0000   XZ=     0.0000   YZ=     0.0000
 Octapole moment (field-independent basis, Debye-Ang**2):
  XXX=     0.0000  YYY=     0.0000  ZZZ=   -10.2639  XYY=     0.0000
  XXY=     0.0000  XXZ=     0.4358  XZZ=     0.0000  YZZ=     0.0000
  YYZ=     8.0378  XYZ=     0.0000
 Hexadecapole moment (field-independent basis, Debye-Ang**3):
 XXXX=  -438.8982 YYYY=  -522.0619 ZZZZ=  -469.9876 XXXY=     0.0000
 XXXZ=     0.0000 YYYX=     0.0000 YYYZ=     0.0000 ZZZX=     0.0000
 ZZZY=     0.0000 XXYY=  -157.3862 XXZZ=  -148.0751 YYZZ=  -163.3631
 XXYZ=     0.0000 YYXZ=     0.0000 ZZXY=     0.0000
 N-N= 3.290711579858D+01 E-N=-1.008049776214D+02  KE= 7.376636315600D+00
 Symmetry A1   KE= 3.442896940377D+00
 Symmetry A2   KE= 8.914241065208D-01
 Symmetry B1   KE= 1.585274660771D+00
 Symmetry B2   KE= 1.457040607931D+00
  Exact polarizability: 155.322   0.000 162.685   0.000   0.000 149.692
 Approx polarizability: 553.826   0.000 538.642   0.000   0.000 437.497
   4 Symmetry operations used in ECPInt.
 ECPInt:  NShTT=     210 NPrTT=     475 LenC2=     211 LenP2D=     475.
 LDataN:  DoStor=F MaxTD1= 5 Len=  102
 LDataN:  DoStor=T MaxTD1= 5 Len=  102
 ***** Axes restored to original set *****
 -------------------------------------------------------------------
 Center     Atomic                   Forces (Hartrees/Bohr)
 Number     Number              X              Y              Z
 -------------------------------------------------------------------
    1         14           0.000000000    0.017886044   -0.018202280
    2         14           0.000000000   -0.017886044   -0.018202280
    3         14           0.000000000    0.000000000    0.048070985
    4         14           0.019965187    0.000000000   -0.005833212
    5         14          -0.019965187    0.000000000   -0.005833212
 -------------------------------------------------------------------
 Cartesian Forces:  Max     0.048070985 RMS     0.017279191

 GradGradGradGradGradGradGradGradGradGradGradGradGradGradGradGradGradGrad
 Berny optimization.
 Internal  Forces:  Max     0.025699116 RMS     0.010381936
 Search for a local minimum.
 Step number   1 out of a maximum of 100
 All quantities printed in internal units (Hartrees-Bohrs-Radians)
 Second derivative matrix not updated -- analytic derivatives used.
     Eigenvalues ---    0.04316   0.05269   0.05877   0.06391   0.08081
     Eigenvalues ---    0.09143   0.11263   0.11533   0.131401000.00000
     Eigenvalues --- 1000.000001000.000001000.000001000.000001000.00000
     Eigenvalues --- 1000.000001000.000001000.000001000.000001000.00000
     Eigenvalues --- 1000.000001000.000001000.000001000.000001000.00000
     Eigenvalues --- 1000.000001000.00000
 RFO step:  Lambda=-2.09436339D-02.
 Linear search not attempted -- first point.
 Maximum step size (   0.300) exceeded in Quadratic search.
    -- Step size scaled by   0.758
 Iteration  1 RMS(Cart)=  0.05645547 RMS(Int)=  0.00145223
 Iteration  2 RMS(Cart)=  0.00139001 RMS(Int)=  0.00059059
 Iteration  3 RMS(Cart)=  0.00000130 RMS(Int)=  0.00059059
 Iteration  4 RMS(Cart)=  0.00000000 RMS(Int)=  0.00059059
 Variable       Old X    -DE/DX   Delta X   Delta X   Delta X     New X
                                 (Linear)    (Quad)   (Total)
    R1        4.43502   0.01190   0.00000   0.07978   0.07972   4.51474
    R2        4.43502   0.01190   0.00000   0.07978   0.07972   4.51474
    R3        4.43502   0.01190   0.00000   0.07978   0.07972   4.51474
    R4        4.43502   0.01190   0.00000   0.07978   0.07972   4.51474
    R5        4.33786   0.02570   0.00000   0.12826   0.12838   4.46624
    R6        4.33786   0.02570   0.00000   0.12826   0.12838   4.46624
    A1        1.40399  -0.00770   0.00000  -0.03617  -0.03700   1.36699
    A2        1.40399  -0.00770   0.00000  -0.03617  -0.03700   1.36699
    A3        1.44218  -0.01370   0.00000  -0.05795  -0.05744   1.38475
    A4        1.51124   0.00156   0.00000  -0.00679  -0.00816   1.50309
    A5        1.39581   0.01032   0.00000   0.05416   0.05440   1.45022
    A6        1.39581   0.01032   0.00000   0.05416   0.05440   1.45022
    A7        1.51124   0.00156   0.00000  -0.00679  -0.00816   1.50309
    A8        1.39581   0.01032   0.00000   0.05416   0.05440   1.45022
    A9        1.39581   0.01032   0.00000   0.05416   0.05440   1.45022
    D1        0.64885   0.00824   0.00000   0.05734   0.05694   0.70579
    D2       -0.75461  -0.00166   0.00000   0.00282   0.00307  -0.75154
    D3       -0.64885  -0.00824   0.00000  -0.05734  -0.05694  -0.70579
    D4        0.75461   0.00166   0.00000  -0.00282  -0.00307   0.75154
    D5       -0.64885  -0.00824   0.00000  -0.05734  -0.05694  -0.70579
    D6        0.75461   0.00166   0.00000  -0.00282  -0.00307   0.75154
    D7        0.64885   0.00824   0.00000   0.05734   0.05694   0.70579
    D8       -0.75461  -0.00166   0.00000   0.00282   0.00307  -0.75154
    D9        0.77034  -0.00097   0.00000  -0.01279  -0.01193   0.75840
   D10       -0.77034   0.00097   0.00000   0.01279   0.01193  -0.75840
   D11       -0.77034   0.00097   0.00000   0.01279   0.01193  -0.75840
   D12        0.77034  -0.00097   0.00000  -0.01279  -0.01193   0.75840
         Item               Value     Threshold  Converged?
 Maximum Force            0.025699     0.000450     NO 
 RMS     Force            0.010382     0.000300     NO 
 Maximum Displacement     0.211612     0.001800     NO 
 RMS     Displacement     0.057243     0.001200     NO 
 Predicted change in Energy=-1.079957D-02
 GradGradGradGradGradGradGradGradGradGradGradGradGradGradGradGradGradGrad

                          Input orientation:                          
 ---------------------------------------------------------------------
 Center     Atomic     Atomic              Coordinates (Angstroms)
 Number     Number      Type              X           Y           Z
 ---------------------------------------------------------------------
    1         14             0        0.000000    1.631198   -0.890581
    2         14             0        0.000000   -1.631198   -0.890581
    3         14             0        0.000000    0.000000    1.806528
    4         14             0        1.508732    0.000000   -0.012683
    5         14             0       -1.508732    0.000000   -0.012683
 ---------------------------------------------------------------------
                    Distance matrix (angstroms):
                    1          2          3          4          5
     1  Si   0.000000
     2  Si   3.262397   0.000000
     3  Si   3.152016   3.152016   0.000000
     4  Si   2.389097   2.389097   2.363430   0.000000
     5  Si   2.389097   2.389097   2.363430   3.017464   0.000000
 Stoichiometry    Si5
 Framework group  C2V[C2(Si),SGV(Si2),SGV'(Si2)]
 Deg. of freedom     4
 Full point group                 C2V
 Largest Abelian subgroup         C2V     NOp   4
 Largest concise Abelian subgroup C2V     NOp   4
                         Standard orientation:                         
 ---------------------------------------------------------------------
 Center     Atomic     Atomic              Coordinates (Angstroms)
 Number     Number      Type              X           Y           Z
 ---------------------------------------------------------------------
    1         14             0        0.000000    1.631198   -0.890581
    2         14             0        0.000000   -1.631198   -0.890581
    3         14             0        0.000000    0.000000    1.806528
    4         14             0        1.508732    0.000000   -0.012683
    5         14             0       -1.508732    0.000000   -0.012683
 ---------------------------------------------------------------------
 Rotational constants (GHZ):      1.9211691      1.8294347      1.7759123
 Standard basis: LANL2DZ (5D, 7F)
 There are    16 symmetry adapted basis functions of A1  symmetry.
 There are     4 symmetry adapted basis functions of A2  symmetry.
 There are    10 symmetry adapted basis functions of B1  symmetry.
 There are    10 symmetry adapted basis functions of B2  symmetry.
 Integral buffers will be    131072 words long.
 Raffenetti 2 integral format.
 Two-electron integral symmetry is turned on.
    40 basis functions,    60 primitive gaussians,    40 cartesian basis functions
    10 alpha electrons       10 beta electrons
       nuclear repulsion energy        32.1142166589 Hartrees.
 NAtoms=    5 NActive=    5 NUniq=    3 SFac= 2.08D+00 NAtFMM=   80 NAOKFM=F Big=F
 One-electron integrals computed using PRISM.
   4 Symmetry operations used in ECPInt.
 ECPInt:  NShTT=     210 NPrTT=     475 LenC2=     211 LenP2D=     474.
 LDataN:  DoStor=F MaxTD1= 3 Len=   28
 LDataN:  DoStor=T MaxTD1= 3 Len=   28
 NBasis=    40 RedAO= T  NBF=    16     4    10    10
 NBsUse=    40 1.00D-06 NBFU=    16     4    10    10
 Initial guess read from the read-write file:
 Initial guess orbital symmetries:
       Occupied  (A1) (B1) (B2) (A1) (A1) (A2) (B1) (A1) (B2) (A1)
       Virtual   (B1) (B2) (A1) (B2) (B1) (B2) (A1) (B1) (A2) (A1)
                 (B1) (A2) (B1) (B2) (A1) (A1) (A1) (B2) (B2) (B1)
                 (B2) (A1) (A1) (A2) (B1) (A1) (B2) (A1) (B1) (A1)
 Harris functional with IExCor=  402 diagonalized for initial guess.
 ExpMin= 8.85D-02 ExpMax= 2.58D+00 ExpMxC= 2.58D+00 IAcc=2 IRadAn=         4 AccDes= 0.00D+00
 HarFok:  IExCor= 402 AccDes= 0.00D+00 IRadAn=         4 IDoV=1
 ScaDFX=  1.000000  1.000000  1.000000  1.000000
 Requested convergence on RMS density matrix=1.00D-08 within 128 cycles.
 Requested convergence on MAX density matrix=1.00D-06.
 Requested convergence on             energy=1.00D-06.
 No special actions if energy rises.
 Keep R1 integrals in memory in canonical form, NReq=     2058048.
 Integral accuracy reduced to 1.0D-05 until final iterations.
 Initial convergence to 1.0D-05 achieved.  Increase integral accuracy.
 SCF Done:  E(RB+HF-LYP) =  -19.2558588405     A.U. after   14 cycles
             Convg  =    0.2321D-08             -V/T =  3.6553
             S**2   =   0.0000
 QCSCF skips out because SCF is already converged.
 Range of M.O.s used for correlation:     1    40
 NBasis=    40 NAE=    10 NBE=    10 NFC=     0 NFV=     0
 NROrb=     40 NOA=    10 NOB=    10 NVA=    30 NVB=    30
   4 Symmetry operations used in ECPInt.
 ECPInt:  NShTT=     210 NPrTT=     475 LenC2=     211 LenP2D=     474.
 LDataN:  DoStor=F MaxTD1= 4 Len=   56
 LDataN:  DoStor=T MaxTD1= 4 Len=   56
 Symmetrizing basis deriv contribution to polar:
 IMax=3 JMax=2 DiffMx= 0.00D+00
 G2DrvN: will do    6 centers at a time, making    1 passes doing MaxLOS=1.
 FoFDir/FoFCou used for L=0 through L=1.
 DoAtom=TTTTT
          Differentiating once with respect to electric field.
                with respect to dipole field.
          Differentiating once with respect to nuclear coordinates.
          Store integrals in memory, NReq=     1138224.
          There are  12 degrees of freedom in the 1st order CPHF.
    12 vectors were produced by pass  0.
 AX will form  12 AO Fock derivatives at one time.
    12 vectors were produced by pass  1.
    12 vectors were produced by pass  2.
    12 vectors were produced by pass  3.
    12 vectors were produced by pass  4.
    12 vectors were produced by pass  5.
    10 vectors were produced by pass  6.
     3 vectors were produced by pass  7.
     2 vectors were produced by pass  8.
 Inv2:  IOpt= 1 Iter= 1 AM= 9.33D-16 Conv= 1.00D-12.
 Inverted reduced A of dimension   87 with in-core refinement.
 Isotropic polarizability for W=    0.000000      160.44 Bohr**3.
 End of Minotr Frequency-dependent properties file   721 does not exist.
   4 Symmetry operations used in ECPInt.
 ECPInt:  NShTT=     210 NPrTT=     475 LenC2=     211 LenP2D=     475.
 LDataN:  DoStor=F MaxTD1= 5 Len=  102
 LDataN:  DoStor=T MaxTD1= 5 Len=  102
 ***** Axes restored to original set *****
 -------------------------------------------------------------------
 Center     Atomic                   Forces (Hartrees/Bohr)
 Number     Number              X              Y              Z
 -------------------------------------------------------------------
    1         14           0.000000000    0.007496752   -0.007948516
    2         14           0.000000000   -0.007496752   -0.007948516
    3         14           0.000000000    0.000000000    0.020219817
    4         14           0.008731006    0.000000000   -0.002161393
    5         14          -0.008731006    0.000000000   -0.002161393
 -------------------------------------------------------------------
 Cartesian Forces:  Max     0.020219817 RMS     0.007345772

 GradGradGradGradGradGradGradGradGradGradGradGradGradGradGradGradGradGrad
 Berny optimization.
 Internal  Forces:  Max     0.010900117 RMS     0.004348198
 Search for a local minimum.
 Step number   2 out of a maximum of 100
 All quantities printed in internal units (Hartrees-Bohrs-Radians)
 Second derivative matrix not updated -- analytic derivatives used.
 Trust test= 1.03D+00 RLast= 3.00D-01 DXMaxT set to 4.24D-01
     Eigenvalues ---    0.04362   0.04716   0.04737   0.05015   0.05690
     Eigenvalues ---    0.08092   0.09485   0.09662   0.117121000.00000
     Eigenvalues --- 1000.000001000.000001000.000001000.000001000.00000
     Eigenvalues --- 1000.000001000.000001000.000001000.000001000.00000
     Eigenvalues --- 1000.000001000.000001000.000001000.000001000.00000
     Eigenvalues --- 1000.000001000.00000
 RFO step:  Lambda=-9.37310363D-05.
 Quintic linear search produced a step of  0.89313.
 Iteration  1 RMS(Cart)=  0.05198545 RMS(Int)=  0.00162310
 Iteration  2 RMS(Cart)=  0.00135627 RMS(Int)=  0.00105019
 Iteration  3 RMS(Cart)=  0.00000176 RMS(Int)=  0.00105019
 Iteration  4 RMS(Cart)=  0.00000000 RMS(Int)=  0.00105019
 Variable       Old X    -DE/DX   Delta X   Delta X   Delta X     New X
                                 (Linear)    (Quad)   (Total)
    R1        4.51474   0.00523   0.07120   0.01029   0.08149   4.59623
    R2        4.51474   0.00523   0.07120   0.01029   0.08149   4.59623
    R3        4.51474   0.00523   0.07120   0.01029   0.08149   4.59623
    R4        4.51474   0.00523   0.07120   0.01029   0.08149   4.59623
    R5        4.46624   0.01090   0.11466  -0.00582   0.10884   4.57508
    R6        4.46624   0.01090   0.11466  -0.00582   0.10884   4.57508
    A1        1.36699  -0.00307  -0.03304   0.00499  -0.02947   1.33752
    A2        1.36699  -0.00307  -0.03304   0.00499  -0.02947   1.33752
    A3        1.38475  -0.00525  -0.05130   0.01103  -0.03991   1.34483
    A4        1.50309   0.00023  -0.00728  -0.01085  -0.02080   1.48229
    A5        1.45022   0.00414   0.04859  -0.00211   0.04703   1.49725
    A6        1.45022   0.00414   0.04859  -0.00211   0.04703   1.49725
    A7        1.50309   0.00023  -0.00728  -0.01085  -0.02080   1.48229
    A8        1.45022   0.00414   0.04859  -0.00211   0.04703   1.49725
    A9        1.45022   0.00414   0.04859  -0.00211   0.04703   1.49725
    D1        0.70579   0.00341   0.05086   0.00678   0.05656   0.76235
    D2       -0.75154  -0.00051   0.00274   0.00756   0.01057  -0.74097
    D3       -0.70579  -0.00341  -0.05086  -0.00678  -0.05656  -0.76235
    D4        0.75154   0.00051  -0.00274  -0.00756  -0.01057   0.74097
    D5       -0.70579  -0.00341  -0.05086  -0.00678  -0.05656  -0.76235
    D6        0.75154   0.00051  -0.00274  -0.00756  -0.01057   0.74097
    D7        0.70579   0.00341   0.05086   0.00678   0.05656   0.76235
    D8       -0.75154  -0.00051   0.00274   0.00756   0.01057  -0.74097
    D9        0.75840  -0.00036  -0.01066  -0.00526  -0.01477   0.74363
   D10       -0.75840   0.00036   0.01066   0.00526   0.01477  -0.74363
   D11       -0.75840   0.00036   0.01066   0.00526   0.01477  -0.74363
   D12        0.75840  -0.00036  -0.01066  -0.00526  -0.01477   0.74363
         Item               Value     Threshold  Converged?
 Maximum Force            0.010900     0.000450     NO 
 RMS     Force            0.004348     0.000300     NO 
 Maximum Displacement     0.184381     0.001800     NO 
 RMS     Displacement     0.052744     0.001200     NO 
 Predicted change in Energy=-2.660169D-03
 GradGradGradGradGradGradGradGradGradGradGradGradGradGradGradGradGradGrad

                          Input orientation:                          
 ---------------------------------------------------------------------
 Center     Atomic     Atomic              Coordinates (Angstroms)
 Number     Number      Type              X           Y           Z
 ---------------------------------------------------------------------
    1         14             0        0.000000    1.642068   -0.962134
    2         14             0        0.000000   -1.642068   -0.962134
    3         14             0        0.000000    0.000000    1.904098
    4         14             0        1.508007    0.000000    0.010085
    5         14             0       -1.508007    0.000000    0.010085
 ---------------------------------------------------------------------
                    Distance matrix (angstroms):
                    1          2          3          4          5
     1  Si   0.000000
     2  Si   3.284136   0.000000
     3  Si   3.303283   3.303283   0.000000
     4  Si   2.432218   2.432218   2.421027   0.000000
     5  Si   2.432218   2.432218   2.421027   3.016013   0.000000
 Stoichiometry    Si5
 Framework group  C2V[C2(Si),SGV(Si2),SGV'(Si2)]
 Deg. of freedom     4
 Full point group                 C2V
 Largest Abelian subgroup         C2V     NOp   4
 Largest concise Abelian subgroup C2V     NOp   4
                         Standard orientation:                         
 ---------------------------------------------------------------------
 Center     Atomic     Atomic              Coordinates (Angstroms)
 Number     Number      Type              X           Y           Z
 ---------------------------------------------------------------------
    1         14             0        0.000000    1.642068   -0.962134
    2         14             0        0.000000   -1.642068   -0.962134
    3         14             0        0.000000    0.000000    1.904098
    4         14             0        1.508007    0.000000    0.010085
    5         14             0       -1.508007    0.000000    0.010085
 ---------------------------------------------------------------------
 Rotational constants (GHZ):      1.8171449      1.8018430      1.6618381
 Standard basis: LANL2DZ (5D, 7F)
 There are    16 symmetry adapted basis functions of A1  symmetry.
 There are     4 symmetry adapted basis functions of A2  symmetry.
 There are    10 symmetry adapted basis functions of B1  symmetry.
 There are    10 symmetry adapted basis functions of B2  symmetry.
 Integral buffers will be    131072 words long.
 Raffenetti 2 integral format.
 Two-electron integral symmetry is turned on.
    40 basis functions,    60 primitive gaussians,    40 cartesian basis functions
    10 alpha electrons       10 beta electrons
       nuclear repulsion energy        31.4305991639 Hartrees.
 NAtoms=    5 NActive=    5 NUniq=    3 SFac= 2.08D+00 NAtFMM=   80 NAOKFM=F Big=F
 One-electron integrals computed using PRISM.
   4 Symmetry operations used in ECPInt.
 ECPInt:  NShTT=     210 NPrTT=     475 LenC2=     211 LenP2D=     472.
 LDataN:  DoStor=F MaxTD1= 3 Len=   28
 LDataN:  DoStor=T MaxTD1= 3 Len=   28
 NBasis=    40 RedAO= T  NBF=    16     4    10    10
 NBsUse=    40 1.00D-06 NBFU=    16     4    10    10
 Initial guess read from the read-write file:
 Initial guess orbital symmetries:
       Occupied  (A1) (B2) (B1) (A1) (A1) (A2) (B1) (A1) (B2) (A1)
       Virtual   (B1) (B2) (A1) (B2) (B1) (B2) (A1) (B1) (A2) (A1)
                 (B1) (A2) (B2) (A1) (B1) (A1) (A1) (B2) (B1) (B2)
                 (B2) (A1) (A1) (A2) (B1) (A1) (B2) (A1) (B1) (A1)
 Harris functional with IExCor=  402 diagonalized for initial guess.
 ExpMin= 8.85D-02 ExpMax= 2.58D+00 ExpMxC= 2.58D+00 IAcc=2 IRadAn=         4 AccDes= 0.00D+00
 HarFok:  IExCor= 402 AccDes= 0.00D+00 IRadAn=         4 IDoV=1
 ScaDFX=  1.000000  1.000000  1.000000  1.000000
 Requested convergence on RMS density matrix=1.00D-08 within 128 cycles.
 Requested convergence on MAX density matrix=1.00D-06.
 Requested convergence on             energy=1.00D-06.
 No special actions if energy rises.
 Keep R1 integrals in memory in canonical form, NReq=     2058034.
 Integral accuracy reduced to 1.0D-05 until final iterations.
 Initial convergence to 1.0D-05 achieved.  Increase integral accuracy.
 SCF Done:  E(RB+HF-LYP) =  -19.2587098127     A.U. after   14 cycles
             Convg  =    0.2713D-08             -V/T =  3.6936
             S**2   =   0.0000
 QCSCF skips out because SCF is already converged.
 Range of M.O.s used for correlation:     1    40
 NBasis=    40 NAE=    10 NBE=    10 NFC=     0 NFV=     0
 NROrb=     40 NOA=    10 NOB=    10 NVA=    30 NVB=    30
   4 Symmetry operations used in ECPInt.
 ECPInt:  NShTT=     210 NPrTT=     475 LenC2=     211 LenP2D=     472.
 LDataN:  DoStor=F MaxTD1= 4 Len=   56
 LDataN:  DoStor=T MaxTD1= 4 Len=   56
 Symmetrizing basis deriv contribution to polar:
 IMax=3 JMax=2 DiffMx= 0.00D+00
 G2DrvN: will do    6 centers at a time, making    1 passes doing MaxLOS=1.
 FoFDir/FoFCou used for L=0 through L=1.
 DoAtom=TTTTT
          Differentiating once with respect to electric field.
                with respect to dipole field.
          Differentiating once with respect to nuclear coordinates.
          Store integrals in memory, NReq=     1138224.
          There are  12 degrees of freedom in the 1st order CPHF.
    12 vectors were produced by pass  0.
 AX will form  12 AO Fock derivatives at one time.
    12 vectors were produced by pass  1.
    12 vectors were produced by pass  2.
    12 vectors were produced by pass  3.
    12 vectors were produced by pass  4.
    12 vectors were produced by pass  5.
    11 vectors were produced by pass  6.
     3 vectors were produced by pass  7.
     3 vectors were produced by pass  8.
 Inv2:  IOpt= 1 Iter= 1 AM= 1.73D-15 Conv= 1.00D-12.
 Inverted reduced A of dimension   89 with in-core refinement.
 Isotropic polarizability for W=    0.000000      164.38 Bohr**3.
 End of Minotr Frequency-dependent properties file   721 does not exist.
   4 Symmetry operations used in ECPInt.
 ECPInt:  NShTT=     210 NPrTT=     475 LenC2=     211 LenP2D=     475.
 LDataN:  DoStor=F MaxTD1= 5 Len=  102
 LDataN:  DoStor=T MaxTD1= 5 Len=  102
 ***** Axes restored to original set *****
 -------------------------------------------------------------------
 Center     Atomic                   Forces (Hartrees/Bohr)
 Number     Number              X              Y              Z
 -------------------------------------------------------------------
    1         14           0.000000000    0.000095763    0.000798267
    2         14           0.000000000   -0.000095763    0.000798267
    3         14           0.000000000    0.000000000    0.001144575
    4         14           0.000241173    0.000000000   -0.001370554
    5         14          -0.000241173    0.000000000   -0.001370554
 -------------------------------------------------------------------
 Cartesian Forces:  Max     0.001370554 RMS     0.000657065

 GradGradGradGradGradGradGradGradGradGradGradGradGradGradGradGradGradGrad
 Berny optimization.
 Internal  Forces:  Max     0.000684785 RMS     0.000367304
 Search for a local minimum.
 Step number   3 out of a maximum of 100
 All quantities printed in internal units (Hartrees-Bohrs-Radians)
 Second derivative matrix not updated -- analytic derivatives used.
 Trust test= 1.07D+00 RLast= 2.78D-01 DXMaxT set to 6.00D-01
     Eigenvalues ---    0.03743   0.03797   0.04028   0.04139   0.04247
     Eigenvalues ---    0.06944   0.08082   0.08368   0.108981000.00000
     Eigenvalues --- 1000.000001000.000001000.000001000.000001000.00000
     Eigenvalues --- 1000.000001000.000001000.000001000.000001000.00000
     Eigenvalues --- 1000.000001000.000001000.000001000.000001000.00000
     Eigenvalues --- 1000.000001000.00000
 RFO step:  Lambda=-8.33521622D-05.
 Quintic linear search produced a step of -0.02219.
 Iteration  1 RMS(Cart)=  0.00815310 RMS(Int)=  0.00007224
 Iteration  2 RMS(Cart)=  0.00005415 RMS(Int)=  0.00002175
 Iteration  3 RMS(Cart)=  0.00000000 RMS(Int)=  0.00002175
 Variable       Old X    -DE/DX   Delta X   Delta X   Delta X     New X
                                 (Linear)    (Quad)   (Total)
    R1        4.59623  -0.00017  -0.00181  -0.00373  -0.00553   4.59069
    R2        4.59623  -0.00017  -0.00181  -0.00373  -0.00553   4.59069
    R3        4.59623  -0.00017  -0.00181  -0.00373  -0.00553   4.59069
    R4        4.59623  -0.00017  -0.00181  -0.00373  -0.00553   4.59069
    R5        4.57508   0.00068  -0.00241   0.01782   0.01540   4.59048
    R6        4.57508   0.00068  -0.00241   0.01782   0.01540   4.59048
    A1        1.33752   0.00012   0.00065   0.00193   0.00255   1.34007
    A2        1.33752   0.00012   0.00065   0.00193   0.00255   1.34007
    A3        1.34483  -0.00018   0.00089  -0.00555  -0.00469   1.34014
    A4        1.48229   0.00042   0.00046   0.00947   0.00990   1.49219
    A5        1.49725  -0.00023  -0.00104  -0.00398  -0.00502   1.49223
    A6        1.49725  -0.00023  -0.00104  -0.00398  -0.00502   1.49223
    A7        1.48229   0.00042   0.00046   0.00947   0.00990   1.49219
    A8        1.49725  -0.00023  -0.00104  -0.00398  -0.00502   1.49223
    A9        1.49725  -0.00023  -0.00104  -0.00398  -0.00502   1.49223
    D1        0.76235  -0.00057  -0.00125  -0.01204  -0.01332   0.74903
    D2       -0.74097  -0.00033  -0.00023  -0.00772  -0.00796  -0.74893
    D3       -0.76235   0.00057   0.00125   0.01204   0.01332  -0.74903
    D4        0.74097   0.00033   0.00023   0.00772   0.00796   0.74893
    D5       -0.76235   0.00057   0.00125   0.01204   0.01332  -0.74903
    D6        0.74097   0.00033   0.00023   0.00772   0.00796   0.74893
    D7        0.76235  -0.00057  -0.00125  -0.01204  -0.01332   0.74903
    D8       -0.74097  -0.00033  -0.00023  -0.00772  -0.00796  -0.74893
    D9        0.74363   0.00023   0.00033   0.00503   0.00533   0.74896
   D10       -0.74363  -0.00023  -0.00033  -0.00503  -0.00533  -0.74896
   D11       -0.74363  -0.00023  -0.00033  -0.00503  -0.00533  -0.74896
   D12        0.74363   0.00023   0.00033   0.00503   0.00533   0.74896
         Item               Value     Threshold  Converged?
 Maximum Force            0.000685     0.000450     NO 
 RMS     Force            0.000367     0.000300     NO 
 Maximum Displacement     0.019050     0.001800     NO 
 RMS     Displacement     0.008129     0.001200     NO 
 Predicted change in Energy=-4.225916D-05
 GradGradGradGradGradGradGradGradGradGradGradGradGradGradGradGradGradGrad

                          Input orientation:                          
 ---------------------------------------------------------------------
 Center     Atomic     Atomic              Coordinates (Angstroms)
 Number     Number      Type              X           Y           Z
 ---------------------------------------------------------------------
    1         14             0        0.000000    1.648943   -0.952053
    2         14             0        0.000000   -1.648943   -0.952053
    3         14             0        0.000000    0.000000    1.903992
    4         14             0        1.508617    0.000000    0.000057
    5         14             0       -1.508617    0.000000    0.000057
 ---------------------------------------------------------------------
                    Distance matrix (angstroms):
                    1          2          3          4          5
     1  Si   0.000000
     2  Si   3.297885   0.000000
     3  Si   3.297879   3.297879   0.000000
     4  Si   2.429291   2.429291   2.429176   0.000000
     5  Si   2.429291   2.429291   2.429176   3.017235   0.000000
 Stoichiometry    Si5
 Framework group  C2V[C2(Si),SGV(Si2),SGV'(Si2)]
 Deg. of freedom     4
 Full point group                 C2V
 Largest Abelian subgroup         C2V     NOp   4
 Largest concise Abelian subgroup C2V     NOp   4
                         Standard orientation:                         
 ---------------------------------------------------------------------
 Center     Atomic     Atomic              Coordinates (Angstroms)
 Number     Number      Type              X           Y           Z
 ---------------------------------------------------------------------
    1         14             0        0.000000    1.648943   -0.952053
    2         14             0        0.000000   -1.648943   -0.952053
    3         14             0        0.000000    0.000000    1.903992
    4         14             0        1.508617    0.000000    0.000057
    5         14             0       -1.508617    0.000000    0.000057
 ---------------------------------------------------------------------
 Rotational constants (GHZ):      1.8082489      1.8082440      1.6609139
 Standard basis: LANL2DZ (5D, 7F)
 There are    16 symmetry adapted basis functions of A1  symmetry.
 There are     4 symmetry adapted basis functions of A2  symmetry.
 There are    10 symmetry adapted basis functions of B1  symmetry.
 There are    10 symmetry adapted basis functions of B2  symmetry.
 Integral buffers will be    131072 words long.
 Raffenetti 2 integral format.
 Two-electron integral symmetry is turned on.
    40 basis functions,    60 primitive gaussians,    40 cartesian basis functions
    10 alpha electrons       10 beta electrons
       nuclear repulsion energy        31.4204259753 Hartrees.
 NAtoms=    5 NActive=    5 NUniq=    3 SFac= 2.08D+00 NAtFMM=   80 NAOKFM=F Big=F
 One-electron integrals computed using PRISM.
   4 Symmetry operations used in ECPInt.
 ECPInt:  NShTT=     210 NPrTT=     475 LenC2=     211 LenP2D=     472.
 LDataN:  DoStor=F MaxTD1= 3 Len=   28
 LDataN:  DoStor=T MaxTD1= 3 Len=   28
 NBasis=    40 RedAO= T  NBF=    16     4    10    10
 NBsUse=    40 1.00D-06 NBFU=    16     4    10    10
 Initial guess read from the read-write file:
 Initial guess orbital symmetries:
       Occupied  (A1) (A1) (B2) (B1) (A1) (B1) (A2) (A1) (B2) (A1)
       Virtual   (A1) (B1) (B2) (B2) (B1) (A1) (B2) (A2) (B1) (A1)
                 (B2) (A1) (B1) (B1) (A2) (A1) (B2) (A1) (B1) (B2)
                 (A1) (B2) (A1) (A2) (B1) (A1) (A1) (B2) (B1) (A1)
 Requested convergence on RMS density matrix=1.00D-08 within 128 cycles.
 Requested convergence on MAX density matrix=1.00D-06.
 Requested convergence on             energy=1.00D-06.
 No special actions if energy rises.
 Keep R1 integrals in memory in canonical form, NReq=     2058034.
 SCF Done:  E(RB+HF-LYP) =  -19.2587523427     A.U. after    9 cycles
             Convg  =    0.7048D-08             -V/T =  3.6942
             S**2   =   0.0000
 QCSCF skips out because SCF is already converged.
 Range of M.O.s used for correlation:     1    40
 NBasis=    40 NAE=    10 NBE=    10 NFC=     0 NFV=     0
 NROrb=     40 NOA=    10 NOB=    10 NVA=    30 NVB=    30
   4 Symmetry operations used in ECPInt.
 ECPInt:  NShTT=     210 NPrTT=     475 LenC2=     211 LenP2D=     472.
 LDataN:  DoStor=F MaxTD1= 4 Len=   56
 LDataN:  DoStor=T MaxTD1= 4 Len=   56
 Symmetrizing basis deriv contribution to polar:
 IMax=3 JMax=2 DiffMx= 0.00D+00
 G2DrvN: will do    6 centers at a time, making    1 passes doing MaxLOS=1.
 FoFDir/FoFCou used for L=0 through L=1.
 DoAtom=TTTTT
          Differentiating once with respect to electric field.
                with respect to dipole field.
          Differentiating once with respect to nuclear coordinates.
          Store integrals in memory, NReq=     1138224.
          There are  12 degrees of freedom in the 1st order CPHF.
    12 vectors were produced by pass  0.
 AX will form  12 AO Fock derivatives at one time.
    12 vectors were produced by pass  1.
    12 vectors were produced by pass  2.
    12 vectors were produced by pass  3.
    12 vectors were produced by pass  4.
    12 vectors were produced by pass  5.
    12 vectors were produced by pass  6.
     3 vectors were produced by pass  7.
     3 vectors were produced by pass  8.
 Inv2:  IOpt= 1 Iter= 1 AM= 9.52D-16 Conv= 1.00D-12.
 Inverted reduced A of dimension   90 with in-core refinement.
 Isotropic polarizability for W=    0.000000      164.44 Bohr**3.
 End of Minotr Frequency-dependent properties file   721 does not exist.
   4 Symmetry operations used in ECPInt.
 ECPInt:  NShTT=     210 NPrTT=     475 LenC2=     211 LenP2D=     475.
 LDataN:  DoStor=F MaxTD1= 5 Len=  102
 LDataN:  DoStor=T MaxTD1= 5 Len=  102
 ***** Axes restored to original set *****
 -------------------------------------------------------------------
 Center     Atomic                   Forces (Hartrees/Bohr)
 Number     Number              X              Y              Z
 -------------------------------------------------------------------
    1         14           0.000000000    0.000007834   -0.000002215
    2         14           0.000000000   -0.000007834   -0.000002215
    3         14           0.000000000    0.000000000    0.000001636
    4         14           0.000017233    0.000000000    0.000001396
    5         14          -0.000017233    0.000000000    0.000001396
 -------------------------------------------------------------------
 Cartesian Forces:  Max     0.000017233 RMS     0.000006991

 GradGradGradGradGradGradGradGradGradGradGradGradGradGradGradGradGradGrad
 Berny optimization.
 Internal  Forces:  Max     0.000007040 RMS     0.000003984
 Search for a local minimum.
 Step number   4 out of a maximum of 100
 All quantities printed in internal units (Hartrees-Bohrs-Radians)
 Second derivative matrix not updated -- analytic derivatives used.
 Trust test= 1.01D+00 RLast= 4.48D-02 DXMaxT set to 6.00D-01
     Eigenvalues ---    0.03763   0.03876   0.03878   0.04186   0.04187
     Eigenvalues ---    0.06922   0.08205   0.08208   0.108871000.00000
     Eigenvalues --- 1000.000001000.000001000.000001000.000001000.00000
     Eigenvalues --- 1000.000001000.000001000.000001000.000001000.00000
     Eigenvalues --- 1000.000001000.000001000.000001000.000001000.00000
     Eigenvalues --- 1000.000001000.00000
 RFO step:  Lambda= 0.00000000D+00.
 Quintic linear search produced a step of  0.00118.
 Iteration  1 RMS(Cart)=  0.00004084 RMS(Int)=  0.00000004
 Iteration  2 RMS(Cart)=  0.00000000 RMS(Int)=  0.00000004
 Variable       Old X    -DE/DX   Delta X   Delta X   Delta X     New X
                                 (Linear)    (Quad)   (Total)
    R1        4.59069   0.00001  -0.00001   0.00010   0.00010   4.59079
    R2        4.59069   0.00001  -0.00001   0.00010   0.00010   4.59079
    R3        4.59069   0.00001  -0.00001   0.00010   0.00010   4.59079
    R4        4.59069   0.00001  -0.00001   0.00010   0.00010   4.59079
    R5        4.59048   0.00000   0.00002   0.00004   0.00006   4.59053
    R6        4.59048   0.00000   0.00002   0.00004   0.00006   4.59053
    A1        1.34007   0.00000   0.00000   0.00004   0.00004   1.34011
    A2        1.34007   0.00000   0.00000   0.00004   0.00004   1.34011
    A3        1.34014   0.00001  -0.00001   0.00006   0.00005   1.34019
    A4        1.49219   0.00000   0.00001  -0.00002  -0.00001   1.49218
    A5        1.49223   0.00000  -0.00001  -0.00004  -0.00004   1.49218
    A6        1.49223   0.00000  -0.00001  -0.00004  -0.00004   1.49218
    A7        1.49219   0.00000   0.00001  -0.00002  -0.00001   1.49218
    A8        1.49223   0.00000  -0.00001  -0.00004  -0.00004   1.49218
    A9        1.49223   0.00000  -0.00001  -0.00004  -0.00004   1.49218
    D1        0.74903   0.00000  -0.00002  -0.00002  -0.00003   0.74900
    D2       -0.74893   0.00000  -0.00001   0.00002   0.00001  -0.74892
    D3       -0.74903   0.00000   0.00002   0.00002   0.00003  -0.74900
    D4        0.74893   0.00000   0.00001  -0.00002  -0.00001   0.74892
    D5       -0.74903   0.00000   0.00002   0.00002   0.00003  -0.74900
    D6        0.74893   0.00000   0.00001  -0.00002  -0.00001   0.74892
    D7        0.74903   0.00000  -0.00002  -0.00002  -0.00003   0.74900
    D8       -0.74893   0.00000  -0.00001   0.00002   0.00001  -0.74892
    D9        0.74896   0.00000   0.00001  -0.00001   0.00000   0.74896
   D10       -0.74896   0.00000  -0.00001   0.00001   0.00000  -0.74896
   D11       -0.74896   0.00000  -0.00001   0.00001   0.00000  -0.74896
   D12        0.74896   0.00000   0.00001  -0.00001   0.00000   0.74896
         Item               Value     Threshold  Converged?
 Maximum Force            0.000007     0.000450     YES
 RMS     Force            0.000004     0.000300     YES
 Maximum Displacement     0.000134     0.001800     YES
 RMS     Displacement     0.000041     0.001200     YES
 Predicted change in Energy=-2.548445D-09
 Optimization completed.
    -- Stationary point found.
                           ----------------------------
                           !   Optimized Parameters   !
                           ! (Angstroms and Degrees)  !
 --------------------------                            --------------------------
 ! Name  Definition              Value          Derivative Info.                !
 --------------------------------------------------------------------------------
 ! R1    R(1,4)                  2.4293         -DE/DX =    0.0                 !
 ! R2    R(1,5)                  2.4293         -DE/DX =    0.0                 !
 ! R3    R(2,4)                  2.4293         -DE/DX =    0.0                 !
 ! R4    R(2,5)                  2.4293         -DE/DX =    0.0                 !
 ! R5    R(3,4)                  2.4292         -DE/DX =    0.0                 !
 ! R6    R(3,5)                  2.4292         -DE/DX =    0.0                 !
 ! A1    A(4,1,5)               76.7801         -DE/DX =    0.0                 !
 ! A2    A(4,2,5)               76.7801         -DE/DX =    0.0                 !
 ! A3    A(4,3,5)               76.7844         -DE/DX =    0.0                 !
 ! A4    A(1,4,2)               85.496          -DE/DX =    0.0                 !
 ! A5    A(1,4,3)               85.4984         -DE/DX =    0.0                 !
 ! A6    A(2,4,3)               85.4984         -DE/DX =    0.0                 !
 ! A7    A(1,5,2)               85.496          -DE/DX =    0.0                 !
 ! A8    A(1,5,3)               85.4984         -DE/DX =    0.0                 !
 ! A9    A(2,5,3)               85.4984         -DE/DX =    0.0                 !
 ! D1    D(5,1,4,2)             42.9162         -DE/DX =    0.0                 !
 ! D2    D(5,1,4,3)            -42.9105         -DE/DX =    0.0                 !
 ! D3    D(4,1,5,2)            -42.9162         -DE/DX =    0.0                 !
 ! D4    D(4,1,5,3)             42.9105         -DE/DX =    0.0                 !
 ! D5    D(5,2,4,1)            -42.9162         -DE/DX =    0.0                 !
 ! D6    D(5,2,4,3)             42.9105         -DE/DX =    0.0                 !
 ! D7    D(4,2,5,1)             42.9162         -DE/DX =    0.0                 !
 ! D8    D(4,2,5,3)            -42.9105         -DE/DX =    0.0                 !
 ! D9    D(5,3,4,1)             42.9121         -DE/DX =    0.0                 !
 ! D10   D(5,3,4,2)            -42.9121         -DE/DX =    0.0                 !
 ! D11   D(4,3,5,1)            -42.9121         -DE/DX =    0.0                 !
 ! D12   D(4,3,5,2)             42.9121         -DE/DX =    0.0                 !
 --------------------------------------------------------------------------------
 GradGradGradGradGradGradGradGradGradGradGradGradGradGradGradGradGradGrad

                          Input orientation:                          
 ---------------------------------------------------------------------
 Center     Atomic     Atomic              Coordinates (Angstroms)
 Number     Number      Type              X           Y           Z
 ---------------------------------------------------------------------
    1         14             0        0.000000    1.648943   -0.952053
    2         14             0        0.000000   -1.648943   -0.952053
    3         14             0        0.000000    0.000000    1.903992
    4         14             0        1.508617    0.000000    0.000057
    5         14             0       -1.508617    0.000000    0.000057
 ---------------------------------------------------------------------
                    Distance matrix (angstroms):
                    1          2          3          4          5
     1  Si   0.000000
     2  Si   3.297885   0.000000
     3  Si   3.297879   3.297879   0.000000
     4  Si   2.429291   2.429291   2.429176   0.000000
     5  Si   2.429291   2.429291   2.429176   3.017235   0.000000
 Stoichiometry    Si5
 Framework group  C2V[C2(Si),SGV(Si2),SGV'(Si2)]
 Deg. of freedom     4
 Full point group                 C2V
 Largest Abelian subgroup         C2V     NOp   4
 Largest concise Abelian subgroup C2V     NOp   4
                         Standard orientation:                         
 ---------------------------------------------------------------------
 Center     Atomic     Atomic              Coordinates (Angstroms)
 Number     Number      Type              X           Y           Z
 ---------------------------------------------------------------------
    1         14             0        0.000000    1.648943   -0.952053
    2         14             0        0.000000   -1.648943   -0.952053
    3         14             0        0.000000    0.000000    1.903992
    4         14             0        1.508617    0.000000    0.000057
    5         14             0       -1.508617    0.000000    0.000057
 ---------------------------------------------------------------------
 Rotational constants (GHZ):      1.8082489      1.8082440      1.6609139

 **********************************************************************

            Population analysis using the SCF density.

 **********************************************************************

 Orbital symmetries:
       Occupied  (A1) (A1) (B2) (B1) (A1) (B1) (A2) (A1) (B2) (A1)
       Virtual   (B1) (A1) (B2) (B2) (B1) (B2) (A1) (A2) (B1) (A1)
                 (A1) (B2) (B1) (B1) (A2) (A1) (B2) (A1) (B1) (B2)
                 (B2) (A1) (A1) (A2) (B1) (A1) (B2) (A1) (B1) (A1)
 The electronic state is 1-A1.
 Alpha  occ. eigenvalues --   -0.65640  -0.48057  -0.48056  -0.47545  -0.32171
 Alpha  occ. eigenvalues --   -0.27248  -0.27247  -0.26589  -0.24601  -0.24600
 Alpha virt. eigenvalues --   -0.13017  -0.12949  -0.12948  -0.09556  -0.02731
 Alpha virt. eigenvalues --   -0.00215  -0.00214   0.01006   0.01008   0.05971
 Alpha virt. eigenvalues --    0.28314   0.28315   0.28788   0.29029   0.29030
 Alpha virt. eigenvalues --    0.33759   0.33812   0.33813   0.35076   0.35764
 Alpha virt. eigenvalues --    0.36213   0.36214   0.37497   0.39327   0.39328
 Alpha virt. eigenvalues --    5.67029   9.25457   9.25474  10.71684  12.41522
          Condensed to atoms (all electrons):
              1          2          3          4          5
     1  Si   3.738930  -0.026611  -0.026610   0.116993   0.116993
     2  Si  -0.026611   3.738930  -0.026610   0.116993   0.116993
     3  Si  -0.026610  -0.026610   3.738956   0.116972   0.116972
     4  Si   0.116993   0.116993   0.116972   3.857452  -0.087947
     5  Si   0.116993   0.116993   0.116972  -0.087947   3.857452
 Mulliken atomic charges:
              1
     1  Si   0.080304
     2  Si   0.080304
     3  Si   0.080320
     4  Si  -0.120464
     5  Si  -0.120464
 Sum of Mulliken charges=   0.00000
 Atomic charges with hydrogens summed into heavy atoms:
              1
     1  Si   0.080304
     2  Si   0.080304
     3  Si   0.080320
     4  Si  -0.120464
     5  Si  -0.120464
 Sum of Mulliken charges=   0.00000
 APT atomic charges:
              1
     1  Si   0.130945
     2  Si   0.130945
     3  Si   0.130908
     4  Si  -0.196399
     5  Si  -0.196399
 Sum of APT charges=   0.00000
 APT Atomic charges with hydrogens summed into heavy atoms:
              1
     1  Si   0.130945
     2  Si   0.130945
     3  Si   0.130908
     4  Si  -0.196399
     5  Si  -0.196399
 Sum of APT charges=   0.00000
 Electronic spatial extent (au):  <R**2>=   361.6279
 Charge=     0.0000 electrons
 Dipole moment (field-independent basis, Debye):
    X=     0.0000    Y=     0.0000    Z=     0.0001  Tot=     0.0001
 Quadrupole moment (field-independent basis, Debye-Ang):
   XX=   -64.0139   YY=   -62.9874   ZZ=   -62.9877
   XY=     0.0000   XZ=     0.0000   YZ=     0.0000
 Traceless Quadrupole moment (field-independent basis, Debye-Ang):
   XX=    -0.6842   YY=     0.3423   ZZ=     0.3419
   XY=     0.0000   XZ=     0.0000   YZ=     0.0000
 Octapole moment (field-independent basis, Debye-Ang**2):
  XXX=     0.0000  YYY=     0.0000  ZZZ=    -8.1164  XYY=     0.0000
  XXY=     0.0000  XXZ=     0.0008  XZZ=     0.0000  YZZ=     0.0000
  YYZ=     8.1155  XYZ=     0.0000
 Hexadecapole moment (field-independent basis, Debye-Ang**3):
 XXXX=  -466.5423 YYYY=  -543.4465 ZZZZ=  -543.4517 XXXY=     0.0000
 XXXZ=     0.0000 YYYX=     0.0000 YYYZ=     0.0000 ZZZX=     0.0000
 ZZZY=     0.0000 XXYY=  -165.8750 XXZZ=  -165.8727 YYZZ=  -181.1488
 XXYZ=     0.0000 YYXZ=     0.0000 ZZXY=     0.0000
 N-N= 3.142042597526D+01 E-N=-9.787309694855D+01  KE= 7.148263556887D+00
 Symmetry A1   KE= 3.352294021129D+00
 Symmetry A2   KE= 8.618625639613D-01
 Symmetry B1   KE= 1.516365071420D+00
 Symmetry B2   KE= 1.417741900377D+00
  Exact polarizability: 158.561   0.000 167.389   0.000   0.000 167.381
 Approx polarizability: 543.906   0.000 546.519   0.000   0.000 546.509
 Rotating derivatives to standard orientation.
 Full mass-weighted force constant matrix:
 Low frequencies ---   -5.1666   -3.5010    0.0000    0.0001    0.0001    0.4924
 Low frequencies ---  180.2974  180.3535  242.7239
 Diagonal vibrational polarizability:
        0.4766315       2.6537182       2.6517718
 Harmonic frequencies (cm**-1), IR intensities (KM/Mole), Raman scattering
 activities (A**4/AMU), depolarization ratios for plane and unpolarized
 incident light, reduced masses (AMU), force constants (mDyne/A),
 and normal coordinates:
                     1                      2                      3
                    A1                     B2                     A1
 Frequencies --   180.2974               180.3535               242.7239
 Red. masses --    27.9769                27.9769                27.9769
 Frc consts  --     0.5358                 0.5362                 0.9711
 IR Inten    --     0.2859                 0.2872                 0.0000
 Atom AN      X      Y      Z        X      Y      Z        X      Y      Z
   1  14     0.00   0.41   0.45     0.00   0.02  -0.41     0.00  -0.39   0.23
   2  14     0.00  -0.41   0.45     0.00   0.02   0.41     0.00   0.39   0.23
   3  14     0.00   0.00  -0.25     0.00  -0.68   0.00     0.00   0.00  -0.45
   4  14     0.00   0.00  -0.32     0.00   0.32   0.00     0.44   0.00   0.00
   5  14     0.00   0.00  -0.32     0.00   0.32   0.00    -0.44   0.00   0.00
                     4                      5                      6
                    A2                     B1                     B1
 Frequencies --   263.0902               263.1672               289.3887
 Red. masses --    27.9769                27.9769                27.9769
 Frc consts  --     1.1409                 1.1416                 1.3804
 IR Inten    --     0.0000                 0.0000                 1.4832
 Atom AN      X      Y      Z        X      Y      Z        X      Y      Z
   1  14     0.48   0.00   0.00    -0.28   0.00   0.00     0.36   0.00   0.00
   2  14    -0.48   0.00   0.00    -0.28   0.00   0.00     0.36   0.00   0.00
   3  14     0.00   0.00   0.00     0.55   0.00   0.00     0.37   0.00   0.00
   4  14     0.00   0.52   0.00     0.00   0.00   0.52    -0.55   0.00   0.00
   5  14     0.00  -0.52   0.00     0.00   0.00  -0.52    -0.55   0.00   0.00
                     7                      8                      9
                    B2                     A1                     A1
 Frequencies --   374.9683               375.0316               400.5294
 Red. masses --    27.9769                27.9769                27.9769
 Frc consts  --     2.3176                 2.3184                 2.6444
 IR Inten    --    12.6235                12.6220                 0.0000
 Atom AN      X      Y      Z        X      Y      Z        X      Y      Z
   1  14     0.00   0.47  -0.29     0.00  -0.29   0.13     0.00   0.31  -0.18
   2  14     0.00   0.47   0.29     0.00   0.29   0.13     0.00  -0.31  -0.18
   3  14     0.00  -0.04   0.00     0.00   0.00   0.63     0.00   0.00   0.36
   4  14     0.00  -0.44   0.00     0.00   0.00  -0.44     0.55   0.00   0.00
   5  14     0.00  -0.44   0.00     0.00   0.00  -0.44    -0.55   0.00   0.00

 -------------------
 - Thermochemistry -
 -------------------
 Temperature   298.150 Kelvin.  Pressure   1.00000 Atm.
 Atom  1 has atomic number 14 and mass  27.97693
 Atom  2 has atomic number 14 and mass  27.97693
 Atom  3 has atomic number 14 and mass  27.97693
 Atom  4 has atomic number 14 and mass  27.97693
 Atom  5 has atomic number 14 and mass  27.97693
 Molecular mass:   139.88464 amu.
 Principal axes and moments of inertia in atomic units:
                           1         2         3
     EIGENVALUES --   998.06020 998.062891086.59526
           X            0.00000   0.00000   1.00000
           Y            1.00000   0.00000   0.00000
           Z            0.00000   1.00000   0.00000
 This molecule is an asymmetric top.
 Rotational symmetry number  2.
 Warning -- assumption of classical behavior for rotation
           may cause significant error
 Rotational temperatures (Kelvin)      0.08678     0.08678     0.07971
 Rotational constants (GHZ):           1.80825     1.80824     1.66091
 Zero-point vibrational energy      15369.3 (Joules/Mol)
                                    3.67336 (Kcal/Mol)
 Warning -- explicit consideration of   9 degrees of freedom as
           vibrations may cause significant error
 Vibrational temperatures:    259.41   259.49   349.23   378.53   378.64
          (Kelvin)            416.37   539.50   539.59   576.27
 
 Zero-point correction=                           0.005854 (Hartree/Particle)
 Thermal correction to Energy=                    0.012716
 Thermal correction to Enthalpy=                  0.013660
 Thermal correction to Gibbs Free Energy=        -0.025341
 Sum of electronic and zero-point Energies=            -19.252898
 Sum of electronic and thermal Energies=               -19.246037
 Sum of electronic and thermal Enthalpies=             -19.245092
 Sum of electronic and thermal Free Energies=          -19.284094
 
                     E (Thermal)             CV                S
                      KCal/Mol        Cal/Mol-Kelvin    Cal/Mol-Kelvin
 Total                    7.979             21.159             82.085
 Electronic               0.000              0.000              0.000
 Translational            0.889              2.981             40.719
 Rotational               0.889              2.981             27.095
 Vibrational              6.202             15.198             14.272
 Vibration  1             0.629              1.866              2.325
 Vibration  2             0.629              1.866              2.325
 Vibration  3             0.659              1.775              1.783
 Vibration  4             0.670              1.740              1.641
 Vibration  5             0.670              1.740              1.641
 Vibration  6             0.686              1.693              1.478
 Vibration  7             0.746              1.523              1.059
 Vibration  8             0.746              1.523              1.059
 Vibration  9             0.766              1.469              0.961
                       Q            Log10(Q)             Ln(Q)
 Total Bot       0.453100D+12         11.656194         26.839378
 Total V=0       0.223244D+15         14.348780         33.039286
 Vib (Bot)       0.374176D-01         -1.426924         -3.285614
 Vib (Bot)  1    0.111388D+01          0.046839          0.107852
 Vib (Bot)  2    0.111351D+01          0.046696          0.107521
 Vib (Bot)  3    0.806827D+00         -0.093219         -0.214646
 Vib (Bot)  4    0.737143D+00         -0.132448         -0.304973
 Vib (Bot)  5    0.736899D+00         -0.132592         -0.305304
 Vib (Bot)  6    0.661038D+00         -0.179773         -0.413943
 Vib (Bot)  7    0.483878D+00         -0.315264         -0.725922
 Vib (Bot)  8    0.483775D+00         -0.315356         -0.726134
 Vib (Bot)  9    0.444829D+00         -0.351806         -0.810064
 Vib (V=0)       0.184358D+02          1.265662          2.914294
 Vib (V=0)  1    0.172096D+01          0.235770          0.542880
 Vib (V=0)  2    0.172062D+01          0.235685          0.542685
 Vib (V=0)  3    0.144919D+01          0.161127          0.371008
 Vib (V=0)  4    0.139072D+01          0.143239          0.329821
 Vib (V=0)  5    0.139052D+01          0.143176          0.329676
 Vib (V=0)  6    0.132884D+01          0.123472          0.284305
 Vib (V=0)  7    0.119580D+01          0.077659          0.178816
 Vib (V=0)  8    0.119573D+01          0.077633          0.178756
 Vib (V=0)  9    0.116923D+01          0.067901          0.156348
 Electronic      0.100000D+01          0.000000          0.000000
 Translational   0.650295D+08          7.813110         17.990351
 Rotational      0.186212D+06          5.270008         12.134641
 ***** Axes restored to original set *****
 -------------------------------------------------------------------
 Center     Atomic                   Forces (Hartrees/Bohr)
 Number     Number              X              Y              Z
 -------------------------------------------------------------------
    1         14           0.000000000    0.000007834   -0.000002215
    2         14           0.000000000   -0.000007834   -0.000002215
    3         14           0.000000000    0.000000000    0.000001636
    4         14           0.000017233    0.000000000    0.000001396
    5         14          -0.000017233    0.000000000    0.000001396
 -------------------------------------------------------------------
 Cartesian Forces:  Max     0.000017233 RMS     0.000006991
 1\1\GINC-NODE35\Freq\RB3LYP\LANL2DZ\Si5\TAM\04-Apr-2011\0\\# b3lyp/LAN
 L2DZ opt=(calcall,noeigentest,maxcycle=500) scfcyc=500 scf=xqc\\si5-n\
 \0,1\Si,0.,1.6489426857,-0.9520533644\Si,0.,-1.6489426857,-0.952053364
 4\Si,0.,0.,1.9039920582\Si,1.5086174147,0.,0.0000573363\Si,-1.50861741
 47,0.,0.0000573363\\Version=AM64L-G03RevE.01\State=1-A1\HF=-19.2587523
 \RMSD=7.048e-09\RMSF=6.991e-06\ZeroPoint=0.0058539\Thermal=0.0127157\D
 ipole=0.,0.,0.0000296\DipoleDeriv=0.0753838,0.,0.,0.,0.2816851,-0.2129
 88,0.,-0.2131156,0.0357667,0.0753838,0.,0.,0.,0.2816851,0.212988,0.,0.
 2131156,0.0357667,0.0752391,0.,0.,0.,-0.0871865,0.,0.,0.,0.4046708,-0.
 1130033,0.,0.0001704,0.,-0.2380918,0.,-0.0000356,0.,-0.2381021,-0.1130
 033,0.,-0.0001704,0.,-0.2380918,0.,0.0000356,0.,-0.2381021\Polar=158.5
 610008,0.0000001,167.3886062,0.,-0.0000002,167.3812396\PG=C02V [C2(Si1
 ),SGV(Si2),SGV'(Si2)]\NImag=0\\0.03407454,0.,0.07662482,0.,-0.03484628
 ,0.03639376,0.00069703,0.,0.,0.03407454,0.,-0.01221897,-0.00626008,0.,
 0.07662482,0.,0.00626008,-0.00046842,0.,0.03484628,0.03639376,0.000696
 01,0.,0.,0.00069601,0.,0.,0.03407139,0.,-0.00338464,0.01135346,0.,-0.0
 0338464,-0.01135346,0.,0.01626316,0.,-0.00117148,-0.00927429,0.,0.0011
 7148,-0.00927429,0.,0.,0.09679368,-0.01773379,0.01849972,-0.01069238,-
 0.01773379,-0.01849972,-0.01069238,-0.01773171,0.,0.02138691,0.0907073
 1,0.01825137,-0.03051061,0.01487645,-0.01825137,-0.03051061,-0.0148764
 5,0.,-0.00474694,0.,0.,0.05283014,-0.01053987,0.01487884,-0.01332552,-
 0.01053987,-0.01487884,-0.01332552,0.02109661,0.,-0.03912255,-0.000009
 52,0.,0.05284704,-0.01773379,-0.01849972,0.01069238,-0.01773379,0.0184
 9972,0.01069238,-0.01773171,0.,-0.02138691,-0.03750803,0.,-0.00000736,
 0.09070731,-0.01825137,-0.03051061,0.01487645,0.01825137,-0.03051061,-
 0.01487645,0.,-0.00474694,0.,0.,0.01293801,0.,0.,0.05283014,0.01053987
 ,0.01487884,-0.01332552,0.01053987,-0.01487884,-0.01332552,-0.02109661
 ,0.,-0.03912255,0.00000736,0.,0.01292656,0.00000952,0.,0.05284704\\0.,
 -0.00000783,0.00000221,0.,0.00000783,0.00000221,0.,0.,-0.00000164,-0.0
 0001723,0.,-0.00000140,0.00001723,0.,-0.00000140\\\@


 THE MOST INCOMPREHENSIBLE THING ABOUT THE WORLD
 IS THAT IT IS COMPREHENSIBLE. -- A. EINSTEIN
 Job cpu time:  0 days  0 hours  2 minutes 59.3 seconds.
 File lengths (MBytes):  RWF=     13 Int=      0 D2E=      0 Chk=      6 Scr=      1
 Normal termination of Gaussian 03 at Mon Apr  4 15:55:05 2011.
 Initial command:
 /usr/local/chem/g03E01/l1.exe /temp0/tam/Gau-20952.inp -scrdir=/temp0/tam/
 Entering Link 1 = /usr/local/chem/g03E01/l1.exe PID=     21184.
  
 Copyright (c) 1988,1990,1992,1993,1995,1998,2003,2004,2007, Gaussian, Inc.
                  All Rights Reserved.
  
 This is the Gaussian(R) 03 program.  It is based on the
 the Gaussian(R) 98 system (copyright 1998, Gaussian, Inc.),
 the Gaussian(R) 94 system (copyright 1995, Gaussian, Inc.),
 the Gaussian 92(TM) system (copyright 1992, Gaussian, Inc.),
 the Gaussian 90(TM) system (copyright 1990, Gaussian, Inc.),
 the Gaussian 88(TM) system (copyright 1988, Gaussian, Inc.),
 the Gaussian 86(TM) system (copyright 1986, Carnegie Mellon
 University), and the Gaussian 82(TM) system (copyright 1983,
 Carnegie Mellon University). Gaussian is a federally registered
 trademark of Gaussian, Inc.
  
 This software contains proprietary and confidential information,
 including trade secrets, belonging to Gaussian, Inc.
  
 This software is provided under written license and may be
 used, copied, transmitted, or stored only in accord with that
 written license.
  
 The following legend is applicable only to US Government
 contracts under FAR:
  
                    RESTRICTED RIGHTS LEGEND
  
 Use, reproduction and disclosure by the US Government is
 subject to restrictions as set forth in subparagraphs (a)
 and (c) of the Commercial Computer Software - Restricted
 Rights clause in FAR 52.227-19.
  
 Gaussian, Inc.
 340 Quinnipiac St., Bldg. 40, Wallingford CT 06492
  
  
 ---------------------------------------------------------------
 Warning -- This program may not be used in any manner that
 competes with the business of Gaussian, Inc. or will provide
 assistance to any competitor of Gaussian, Inc.  The licensee
 of this program is prohibited from giving any competitor of
 Gaussian, Inc. access to this program.  By using this program,
 the user acknowledges that Gaussian, Inc. is engaged in the
 business of creating and licensing software in the field of
 computational chemistry and represents and warrants to the
 licensee that it is not a competitor of Gaussian, Inc. and that
 it will not use this program in any manner prohibited above.
 ---------------------------------------------------------------
  

 Cite this work as:
 Gaussian 03, Revision E.01,
 M. J. Frisch, G. W. Trucks, H. B. Schlegel, G. E. Scuseria, 
 M. A. Robb, J. R. Cheeseman, J. A. Montgomery, Jr., T. Vreven, 
 K. N. Kudin, J. C. Burant, J. M. Millam, S. S. Iyengar, J. Tomasi, 
 V. Barone, B. Mennucci, M. Cossi, G. Scalmani, N. Rega, 
 G. A. Petersson, H. Nakatsuji, M. Hada, M. Ehara, K. Toyota, 
 R. Fukuda, J. Hasegawa, M. Ishida, T. Nakajima, Y. Honda, O. Kitao, 
 H. Nakai, M. Klene, X. Li, J. E. Knox, H. P. Hratchian, J. B. Cross, 
 V. Bakken, C. Adamo, J. Jaramillo, R. Gomperts, R. E. Stratmann, 
 O. Yazyev, A. J. Austin, R. Cammi, C. Pomelli, J. W. Ochterski, 
 P. Y. Ayala, K. Morokuma, G. A. Voth, P. Salvador, J. J. Dannenberg, 
 V. G. Zakrzewski, S. Dapprich, A. D. Daniels, M. C. Strain, 
 O. Farkas, D. K. Malick, A. D. Rabuck, K. Raghavachari, 
 J. B. Foresman, J. V. Ortiz, Q. Cui, A. G. Baboul, S. Clifford, 
 J. Cioslowski, B. B. Stefanov, G. Liu, A. Liashenko, P. Piskorz, 
 I. Komaromi, R. L. Martin, D. J. Fox, T. Keith, M. A. Al-Laham, 
 C. Y. Peng, A. Nanayakkara, M. Challacombe, P. M. W. Gill, 
 B. Johnson, W. Chen, M. W. Wong, C. Gonzalez, and J. A. Pople, 
 Gaussian, Inc., Wallingford CT, 2004.
 
 ******************************************
 Gaussian 03:  AM64L-G03RevE.01 11-Sep-2007
                 4-Apr-2011 
 ******************************************
 %NprocShared=4
 Will use up to    4 processors via shared memory.
 %mem=3750MB
 %chk=S9L-ne-d-01
 ----------------------------------------------------------------------
 # b3lyp/6-31G(d) opt=(readfc,noeigentest,maxcycle=500) freq scfcyc=500
  optcyc=500 geom=allcheck guess=read scf=xqc
 ----------------------------------------------------------------------
 1/6=500,10=3,11=1,14=-1,18=20,26=3,29=7,38=1/1,3;
 2/9=110,40=1/2;
 3/5=1,6=6,7=1,11=2,16=1,25=1,30=1,74=-5/1,2,3;
 4/5=1/1;
 5/5=2,7=500,8=3,13=1,38=6/2,8;
 6/7=2,8=2,9=2,10=2,28=1/1;
 7//1,2,3,16;
 1/6=500,11=1,14=-1,18=20/3(3);
 2/9=110/2;
 6/7=2,8=2,9=2,10=2,19=2,28=1/1;
 99//99;
 2/9=110/2;
 3/5=1,6=6,7=1,11=2,16=1,25=1,30=1,74=-5/1,2,3;
 4/5=5,16=3/1;
 5/5=2,7=500,8=3,13=1,38=5/2,8;
 7//1,2,3,16;
 1/6=500,11=1,14=-1,18=20/3(-5);
 2/9=110/2;
 6/7=2,8=2,9=2,10=2,19=2,28=1/1;
 99/9=1/99;
 -----
 si5-n
 -----
 Redundant internal coordinates taken from checkpoint file:
 S9L-ne-d-01.chk
 Charge =  0 Multiplicity = 1
 Si,0,0.,1.6489426857,-0.9520533644
 Si,0,0.,-1.6489426857,-0.9520533644
 Si,0,0.,0.,1.9039920582
 Si,0,1.5086174147,0.,0.0000573363
 Si,0,-1.5086174147,0.,0.0000573363
 Recover connectivity data from disk.

 GradGradGradGradGradGradGradGradGradGradGradGradGradGradGradGradGradGrad
 Berny optimization.
 Initialization pass.
 Force constant matrix read from checkpoint file:
 S9L-ne-d-01.chk
                           ----------------------------
                           !    Initial Parameters    !
                           ! (Angstroms and Degrees)  !
 --------------------------                            --------------------------
 ! Name  Definition              Value          Derivative Info.                !
 --------------------------------------------------------------------------------
 ! R1    R(1,4)                  2.4293         D2E/DX2 =    0.0488             !
 ! R2    R(1,5)                  2.4293         D2E/DX2 =    0.0488             !
 ! R3    R(2,4)                  2.4293         D2E/DX2 =    0.0488             !
 ! R4    R(2,5)                  2.4293         D2E/DX2 =    0.0488             !
 ! R5    R(3,4)                  2.4292         D2E/DX2 =    0.0489             !
 ! R6    R(3,5)                  2.4292         D2E/DX2 =    0.0489             !
[...]
     3  Si   0.478820   0.478820  13.934599  -0.473811  -0.473811
     4  Si  -0.473198  -0.473198  -0.473811  14.706986   0.796335
     5  Si  -0.473198  -0.473198  -0.473811   0.796335  14.706986
 Mulliken atomic charges:
              1
     1  Si   0.055423
     2  Si   0.055423
     3  Si   0.055383
     4  Si  -0.083114
     5  Si  -0.083114
 Sum of Mulliken charges=   0.00000
 Atomic charges with hydrogens summed into heavy atoms:
              1
     1  Si   0.055423
     2  Si   0.055423
     3  Si   0.055383
     4  Si  -0.083114
     5  Si  -0.083114
 Sum of Mulliken charges=   0.00000
 APT atomic charges:
              1
     1  Si   0.100208
     2  Si   0.100208
     3  Si   0.099964
     4  Si  -0.150190
     5  Si  -0.150190
 Sum of APT charges=   0.00000
 APT Atomic charges with hydrogens summed into heavy atoms:
              1
     1  Si   0.100208
     2  Si   0.100208
     3  Si   0.099964
     4  Si  -0.150190
     5  Si  -0.150190
 Sum of APT charges=   0.00000
 Electronic spatial extent (au):  <R**2>=   853.2816
 Charge=     0.0000 electrons
 Dipole moment (field-independent basis, Debye):
    X=     0.0000    Y=     0.0000    Z=    -0.0002  Tot=     0.0002
 Quadrupole moment (field-independent basis, Debye-Ang):
   XX=   -64.5970   YY=   -67.0807   ZZ=   -67.0805
   XY=     0.0000   XZ=     0.0000   YZ=     0.0000
 Traceless Quadrupole moment (field-independent basis, Debye-Ang):
   XX=     1.6557   YY=    -0.8279   ZZ=    -0.8278
   XY=     0.0000   XZ=     0.0000   YZ=     0.0000
 Octapole moment (field-independent basis, Debye-Ang**2):
  XXX=     0.0000  YYY=     0.0000  ZZZ=    -6.3673  XYY=     0.0000
  XXY=     0.0000  XXZ=     0.0025  XZZ=     0.0000  YZZ=     0.0000
  YYZ=     6.3622  XYZ=     0.0000
 Hexadecapole moment (field-independent basis, Debye-Ang**3):
 XXXX=  -444.5794 YYYY=  -530.6154 ZZZZ=  -530.6294 XXXY=     0.0000
 XXXZ=     0.0000 YYYX=     0.0000 YYYZ=     0.0000 ZZZX=     0.0000
 ZZZY=     0.0000 XXYY=  -165.3885 XXZZ=  -165.3858 YYZZ=  -176.8698
 XXYZ=     0.0000 YYXZ=     0.0000 ZZXY=     0.0000
 N-N= 4.018610146888D+02 E-N=-4.253117983591D+03  KE= 1.445070472951D+03
 Symmetry A1   KE= 7.667884927425D+02
 Symmetry A2   KE= 5.127839940262D+01
 Symmetry B1   KE= 3.135697051641D+02
 Symmetry B2   KE= 3.134338756422D+02
  Exact polarizability: 158.680   0.000 170.945   0.000   0.000 170.942
 Approx polarizability: 469.643   0.000 484.161   0.000   0.000 484.190
 Full mass-weighted force constant matrix:
 Low frequencies ---  -10.0849   -6.3181   -5.6504    0.0016    0.0023    0.0028
 Low frequencies ---  169.7777  169.8469  228.0239
 Diagonal vibrational polarizability:
        0.8738652       1.1908831       1.1899351
 Harmonic frequencies (cm**-1), IR intensities (KM/Mole), Raman scattering
 activities (A**4/AMU), depolarization ratios for plane and unpolarized
 incident light, reduced masses (AMU), force constants (mDyne/A),
 and normal coordinates:
                     1                      2                      3
                    A1                     B2                     A1
 Frequencies --   169.7777               169.8468               228.0239
 Red. masses --    27.9769                27.9769                27.9769
 Frc consts  --     0.4751                 0.4755                 0.8571
 IR Inten    --     0.5730                 0.5738                 0.0000
 Atom AN      X      Y      Z        X      Y      Z        X      Y      Z
   1  14     0.00   0.42   0.44     0.00   0.04  -0.42     0.00  -0.39   0.22
   2  14     0.00  -0.42   0.44     0.00   0.04   0.42     0.00   0.39   0.22
   3  14     0.00   0.00  -0.28     0.00  -0.68   0.00     0.00   0.00  -0.45
   4  14     0.00   0.00  -0.30     0.00   0.30   0.00     0.45   0.00   0.00
   5  14     0.00   0.00  -0.30     0.00   0.30   0.00    -0.45   0.00   0.00
                     4                      5                      6
                    A2                     B1                     B1
 Frequencies --   337.3593               337.9028               375.4456
 Red. masses --    27.9769                27.9769                27.9769
 Frc consts  --     1.8760                 1.8821                 2.3235
 IR Inten    --     0.0000                 0.0011                 4.5759
 Atom AN      X      Y      Z        X      Y      Z        X      Y      Z
   1  14     0.49   0.00   0.00    -0.29   0.00   0.00     0.36   0.00   0.00
   2  14    -0.49   0.00   0.00    -0.29   0.00   0.00     0.36   0.00   0.00
   3  14     0.00   0.00   0.00     0.55   0.00   0.00     0.37   0.00   0.00
   4  14     0.00   0.51   0.00     0.01   0.00   0.51    -0.55   0.00   0.01
   5  14     0.00  -0.51   0.00     0.01   0.00  -0.51    -0.55   0.00  -0.01
                     7                      8                      9
                    B2                     A1                     A1
 Frequencies --   432.2959               432.3756               455.6842
 Red. masses --    27.9769                27.9769                27.9769
 Frc consts  --     3.0804                 3.0816                 3.4228
 IR Inten    --     4.5527                 4.5494                 0.0003
 Atom AN      X      Y      Z        X      Y      Z        X      Y      Z
   1  14     0.00   0.46  -0.28     0.00  -0.28   0.15     0.00   0.31  -0.18
   2  14     0.00   0.46   0.28     0.00   0.28   0.15     0.00  -0.31  -0.18
   3  14     0.00  -0.02   0.00     0.00   0.00   0.62     0.00   0.00   0.37
   4  14     0.00  -0.46   0.00     0.00   0.00  -0.46     0.55   0.00   0.00
   5  14     0.00  -0.46   0.00     0.00   0.00  -0.46    -0.55   0.00   0.00

 -------------------
 - Thermochemistry -
 -------------------
 Temperature   298.150 Kelvin.  Pressure   1.00000 Atm.
 Atom  1 has atomic number 14 and mass  27.97693
 Atom  2 has atomic number 14 and mass  27.97693
 Atom  3 has atomic number 14 and mass  27.97693
 Atom  4 has atomic number 14 and mass  27.97693
 Atom  5 has atomic number 14 and mass  27.97693
 Molecular mass:   139.88464 amu.
 Principal axes and moments of inertia in atomic units:
                           1         2         3
     EIGENVALUES --   921.90653 921.91546 975.89136
           X            0.00000   0.00000   1.00000
           Y            0.00000   1.00000   0.00000
           Z            1.00000   0.00000   0.00000
 This molecule is an asymmetric top.
 Rotational symmetry number  2.
 Warning -- assumption of classical behavior for rotation
           may cause significant error
 Rotational temperatures (Kelvin)      0.09395     0.09395     0.08875
 Rotational constants (GHZ):           1.95762     1.95760     1.84933
 Zero-point vibrational energy      17577.4 (Joules/Mol)
                                    4.20110 (Kcal/Mol)
 Warning -- explicit consideration of   9 degrees of freedom as
           vibrations may cause significant error
 Vibrational temperatures:    244.27   244.37   328.08   485.38   486.17
          (Kelvin)            540.18   621.98   622.09   655.63
 
 Zero-point correction=                           0.006695 (Hartree/Particle)
 Thermal correction to Energy=                    0.013167
 Thermal correction to Enthalpy=                  0.014111
 Thermal correction to Gibbs Free Energy=        -0.024044
 Sum of electronic and zero-point Energies=          -1447.485454
 Sum of electronic and thermal Energies=             -1447.478982
 Sum of electronic and thermal Enthalpies=           -1447.478038
 Sum of electronic and thermal Free Energies=        -1447.516193
 
                     E (Thermal)             CV                S
                      KCal/Mol        Cal/Mol-Kelvin    Cal/Mol-Kelvin
 Total                    8.262             20.390             80.304
 Electronic               0.000              0.000              0.000
 Translational            0.889              2.981             40.719
 Rotational               0.889              2.981             26.830
 Vibrational              6.485             14.429             12.755
 Vibration  1             0.625              1.880              2.438
 Vibration  2             0.625              1.880              2.437
 Vibration  3             0.651              1.798              1.894
 Vibration  4             0.718              1.601              1.225
 Vibration  5             0.718              1.600              1.222
 Vibration  6             0.746              1.522              1.057
 Vibration  7             0.793              1.400              0.851
 Vibration  8             0.793              1.400              0.851
 Vibration  9             0.814              1.348              0.779
                       Q            Log10(Q)             Ln(Q)
 Total Bot       0.114678D+12         11.059482         25.465398
 Total V=0       0.137691D+15         14.138906         32.556034
 Vib (Bot)       0.108185D-01         -1.965834         -4.526501
 Vib (Bot)  1    0.118709D+01          0.074482          0.171501
 Vib (Bot)  2    0.118658D+01          0.074295          0.171072
 Vib (Bot)  3    0.864506D+00         -0.063232         -0.145597
 Vib (Bot)  4    0.551323D+00         -0.258594         -0.595434
 Vib (Bot)  5    0.550249D+00         -0.259441         -0.597385
 Vib (Bot)  6    0.483104D+00         -0.315960         -0.727524
 Vib (Bot)  7    0.402331D+00         -0.395416         -0.910479
 Vib (Bot)  8    0.402232D+00         -0.395523         -0.910726
 Vib (Bot)  9    0.374588D+00         -0.426446         -0.981929
 Vib (V=0)       0.129894D+02          1.113590          2.564135
 Vib (V=0)  1    0.178809D+01          0.252389          0.581147
 Vib (V=0)  2    0.178762D+01          0.252275          0.580884
 Vib (V=0)  3    0.149868D+01          0.175710          0.404588
 Vib (V=0)  4    0.124428D+01          0.094919          0.218560
 Vib (V=0)  5    0.124349D+01          0.094641          0.217920
 Vib (V=0)  6    0.119526D+01          0.077463          0.178365
 Vib (V=0)  7    0.114177D+01          0.057579          0.132581
 Vib (V=0)  8    0.114171D+01          0.057556          0.132526
 Vib (V=0)  9    0.112475D+01          0.051057          0.117563
 Electronic      0.100000D+01          0.000000          0.000000
 Translational   0.650295D+08          7.813110         17.990351
 Rotational      0.163007D+06          5.212206         12.001548
 ***** Axes restored to original set *****
 -------------------------------------------------------------------
 Center     Atomic                   Forces (Hartrees/Bohr)
 Number     Number              X              Y              Z
 -------------------------------------------------------------------
    1         14           0.000000000   -0.000016190    0.000009290
    2         14           0.000000000    0.000016190    0.000009290
    3         14           0.000000000    0.000000000   -0.000018045
    4         14           0.000031676    0.000000000   -0.000000268
    5         14          -0.000031676    0.000000000   -0.000000268
 -------------------------------------------------------------------
 Cartesian Forces:  Max     0.000031676 RMS     0.000014211

 GradGradGradGradGradGradGradGradGradGradGradGradGradGradGradGradGradGrad
 Berny optimization.
 Internal  Forces:  Max     0.000025099 RMS     0.000013109
 Search for a local minimum.
 Step number   1 out of a maximum of   2
 All quantities printed in internal units (Hartrees-Bohrs-Radians)
 Second derivative matrix not updated -- analytic derivatives used.
     Eigenvalues ---    0.04034   0.04036   0.06081   0.06323   0.06344
     Eigenvalues ---    0.08475   0.09228   0.09230   0.093671000.00000
     Eigenvalues --- 1000.000001000.000001000.000001000.000001000.00000
     Eigenvalues --- 1000.000001000.000001000.000001000.000001000.00000
     Eigenvalues --- 1000.000001000.000001000.000001000.000001000.00000
     Eigenvalues --- 1000.000001000.00000
 Angle between quadratic step and forces=   2.86 degrees.
 Linear search not attempted -- first point.
 Iteration  1 RMS(Cart)=  0.00018594 RMS(Int)=  0.00000002
 Iteration  2 RMS(Cart)=  0.00000001 RMS(Int)=  0.00000001
 Variable       Old X    -DE/DX   Delta X   Delta X   Delta X     New X
                                 (Linear)    (Quad)   (Total)
    R1        4.40278   0.00000   0.00000  -0.00002  -0.00002   4.40276
    R2        4.40278   0.00000   0.00000  -0.00002  -0.00002   4.40276
    R3        4.40278   0.00000   0.00000  -0.00002  -0.00002   4.40276
    R4        4.40278   0.00000   0.00000  -0.00002  -0.00002   4.40276
    R5        4.40231   0.00000   0.00000  -0.00002  -0.00002   4.40229
    R6        4.40231   0.00000   0.00000  -0.00002  -0.00002   4.40229
    A1        1.36965   0.00003   0.00000   0.00028   0.00028   1.36993
    A2        1.36965   0.00003   0.00000   0.00028   0.00028   1.36993
    A3        1.36982   0.00002   0.00000   0.00028   0.00028   1.37010
    A4        1.47036  -0.00002   0.00000  -0.00021  -0.00021   1.47015
    A5        1.47047  -0.00002   0.00000  -0.00021  -0.00021   1.47026
    A6        1.47047  -0.00002   0.00000  -0.00021  -0.00021   1.47026
    A7        1.47036  -0.00002   0.00000  -0.00021  -0.00021   1.47015
    A8        1.47047  -0.00002   0.00000  -0.00021  -0.00021   1.47026
    A9        1.47047  -0.00002   0.00000  -0.00021  -0.00021   1.47026
    D1        0.73995  -0.00001   0.00000  -0.00009  -0.00009   0.73986
    D2       -0.73969   0.00001   0.00000   0.00009   0.00009  -0.73961
    D3       -0.73995   0.00001   0.00000   0.00009   0.00009  -0.73986
    D4        0.73969  -0.00001   0.00000  -0.00009  -0.00009   0.73961
    D5       -0.73995   0.00001   0.00000   0.00009   0.00009  -0.73986
    D6        0.73969  -0.00001   0.00000  -0.00009  -0.00009   0.73961
    D7        0.73995  -0.00001   0.00000  -0.00009  -0.00009   0.73986
    D8       -0.73969   0.00001   0.00000   0.00009   0.00009  -0.73961
    D9        0.73976  -0.00001   0.00000  -0.00009  -0.00009   0.73967
   D10       -0.73976   0.00001   0.00000   0.00009   0.00009  -0.73967
   D11       -0.73976   0.00001   0.00000   0.00009   0.00009  -0.73967
   D12        0.73976  -0.00001   0.00000  -0.00009  -0.00009   0.73967
         Item               Value     Threshold  Converged?
 Maximum Force            0.000025     0.000450     YES
 RMS     Force            0.000013     0.000300     YES
 Maximum Displacement     0.000466     0.001800     YES
 RMS     Displacement     0.000186     0.001200     YES
 Predicted change in Energy=-2.605856D-08
 Optimization completed.
    -- Stationary point found.
                           ----------------------------
                           !   Optimized Parameters   !
                           ! (Angstroms and Degrees)  !
 --------------------------                            --------------------------
 ! Name  Definition              Value          Derivative Info.                !
 --------------------------------------------------------------------------------
 ! R1    R(1,4)                  2.3299         -DE/DX =    0.0                 !
 ! R2    R(1,5)                  2.3299         -DE/DX =    0.0                 !
 ! R3    R(2,4)                  2.3299         -DE/DX =    0.0                 !
 ! R4    R(2,5)                  2.3299         -DE/DX =    0.0                 !
 ! R5    R(3,4)                  2.3296         -DE/DX =    0.0                 !
 ! R6    R(3,5)                  2.3296         -DE/DX =    0.0                 !
 ! A1    A(4,1,5)               78.4749         -DE/DX =    0.0                 !
 ! A2    A(4,2,5)               78.4749         -DE/DX =    0.0                 !
 ! A3    A(4,3,5)               78.4851         -DE/DX =    0.0                 !
 ! A4    A(1,4,2)               84.2453         -DE/DX =    0.0                 !
 ! A5    A(1,4,3)               84.2517         -DE/DX =    0.0                 !
 ! A6    A(2,4,3)               84.2517         -DE/DX =    0.0                 !
 ! A7    A(1,5,2)               84.2453         -DE/DX =    0.0                 !
 ! A8    A(1,5,3)               84.2517         -DE/DX =    0.0                 !
 ! A9    A(2,5,3)               84.2517         -DE/DX =    0.0                 !
 ! D1    D(5,1,4,2)             42.3958         -DE/DX =    0.0                 !
 ! D2    D(5,1,4,3)            -42.3813         -DE/DX =    0.0                 !
 ! D3    D(4,1,5,2)            -42.3958         -DE/DX =    0.0                 !
 ! D4    D(4,1,5,3)             42.3813         -DE/DX =    0.0                 !
 ! D5    D(5,2,4,1)            -42.3958         -DE/DX =    0.0                 !
 ! D6    D(5,2,4,3)             42.3813         -DE/DX =    0.0                 !
 ! D7    D(4,2,5,1)             42.3958         -DE/DX =    0.0                 !
 ! D8    D(4,2,5,3)            -42.3813         -DE/DX =    0.0                 !
 ! D9    D(5,3,4,1)             42.3851         -DE/DX =    0.0                 !
 ! D10   D(5,3,4,2)            -42.3851         -DE/DX =    0.0                 !
 ! D11   D(4,3,5,1)            -42.3851         -DE/DX =    0.0                 !
 ! D12   D(4,3,5,2)             42.3851         -DE/DX =    0.0                 !
 --------------------------------------------------------------------------------
 GradGradGradGradGradGradGradGradGradGradGradGradGradGradGradGradGradGrad

 1\1\GINC-NODE35\Freq\RB3LYP\6-311+G(d)\Si5\TAM\04-Apr-2011\0\\#N Geom=
 AllCheck Guess=Read SCRF=Check GenChk RB3LYP/6-311+G(d) Freq\\si5-n\\0
 ,1\Si,0.,1.5626793356,-0.9023120775\Si,0.,-1.5626793356,-0.9023120775\
 Si,0.,0.,1.804352678\Si,1.4737154181,0.,0.0001357396\Si,-1.4737154181,
 0.,0.0001357396\\Version=AM64L-G03RevE.01\State=1-A1\HF=-1447.492149\R
 MSD=1.385e-09\RMSF=1.421e-05\ZeroPoint=0.0066949\Thermal=0.0131665\Dip
 ole=0.,0.,-0.0000787\DipoleDeriv=0.132425,0.,0.,0.,0.1726514,-0.153473
 9,0.,-0.1533614,-0.004453,0.132425,0.,0.,0.,0.1726513,0.1534739,0.,0.1
 533614,-0.004453,0.1321634,0.,0.,0.,-0.0932272,0.,0.,0.,0.2609569,-0.1
 985067,0.,0.0001861,0.,-0.1260378,0.,-0.0000139,0.,-0.1260254,-0.19850
 67,0.,-0.0001861,0.,-0.1260377,0.,0.0000139,0.,-0.1260254\Polar=158.67
 96108,0.,170.9450514,-0.0000006,0.0000009,170.9415377\PG=C02V [C2(Si1)
 ,SGV(Si2),SGV'(Si2)]\NImag=0\\0.05755907,0.,0.09315959,0.,-0.04557559,
 0.04057596,0.00096880,0.,0.,0.05755907,0.,-0.00793063,-0.00620617,0.,0
 .09315959,0.,0.00620617,-0.00025254,0.,0.04557559,0.04057596,0.0009659
 5,0.,0.,0.00096595,0.,0.,0.05816066,0.,-0.00219761,0.00952683,0.,-0.00
 219761,-0.00952683,0.,0.01431153,0.,-0.00287628,-0.00604235,0.,0.00287
 628,-0.00604235,0.,0.,0.11957166,-0.02974691,0.02847605,-0.01645003,-0
 .02974691,-0.02847605,-0.01645003,-0.03004628,0.,0.03300223,0.12193744
 ,0.03009732,-0.04151567,0.02112747,-0.03009732,-0.04151567,-0.02112747
 ,0.,-0.00495816,0.,0.,0.07589440,-0.01738106,0.02112285,-0.01714053,-0
 .01738106,-0.02112285,-0.01714053,0.03489687,0.,-0.05374348,-0.0001184
 6,0.,0.07594416,-0.02974691,-0.02847605,0.01645003,-0.02974691,0.02847
 605,0.01645003,-0.03004628,0.,-0.03300223,-0.03239735,0.,-0.00001629,0
 .12193744,-0.03009732,-0.04151567,0.02112747,0.03009732,-0.04151567,-0
 .02112747,0.,-0.00495816,0.,0.,0.01209511,0.,0.,0.07589440,0.01738106,
 0.02112285,-0.01714053,0.01738106,-0.02112285,-0.01714053,-0.03489687,
 0.,-0.05374348,0.00001629,0.,0.01208038,0.00011846,0.,0.07594416\\0.,0
 .00001619,-0.00000929,0.,-0.00001619,-0.00000929,0.,0.,0.00001805,-0.0
 0003168,0.,0.00000027,0.00003168,0.,0.00000027\\\@


 THE ONLY EXISTING THINGS ARE ATOMS AND EMPTY SPACE;
 ALL ELSE IS MERE OPINION. -- DEMOCRITUS OF ABDERA D. 370 B.C.
 EXPERIMENTS ARE THE ONLY MEANS OF KNOWLEDGE AT OUR DISPOSAL
 THE REST IS POETRY, IMAGINATION. -- MAX PLANCK
 Job cpu time:  0 days  0 hours  3 minutes 23.8 seconds.
 File lengths (MBytes):  RWF=     28 Int=      0 D2E=      0 Chk=      7 Scr=      1
 Normal termination of Gaussian 03 at Mon Apr  4 16:02:56 2011.
