 Entering Gaussian System, Link 0=g03
 Initial command:
 /usr/local/chem/g03E01/l1.exe /temp0/tam/Gau-27849.inp -scrdir=/temp0/tam/
 Entering Link 1 = /usr/local/chem/g03E01/l1.exe PID=     27850.
  
 Copyright (c) 1988,1990,1992,1993,1995,1998,2003,2004,2007, Gaussian, Inc.
                  All Rights Reserved.
  
 This is the Gaussian(R) 03 program.  It is based on the
 the Gaussian(R) 98 system (copyright 1998, Gaussian, Inc.),
 the Gaussian(R) 94 system (copyright 1995, Gaussian, Inc.),
 the Gaussian 92(TM) system (copyright 1992, Gaussian, Inc.),
 the Gaussian 90(TM) system (copyright 1990, Gaussian, Inc.),
 the Gaussian 88(TM) system (copyright 1988, Gaussian, Inc.),
 the Gaussian 86(TM) system (copyright 1986, Carnegie Mellon
 University), and the Gaussian 82(TM) system (copyright 1983,
 Carnegie Mellon University). Gaussian is a federally registered
 trademark of Gaussian, Inc.
  
 This software contains proprietary and confidential information,
 including trade secrets, belonging to Gaussian, Inc.
  
 This software is provided under written license and may be
 used, copied, transmitted, or stored only in accord with that
 written license.
  
 The following legend is applicable only to US Government
 contracts under FAR:
  
                    RESTRICTED RIGHTS LEGEND
  
 Use, reproduction and disclosure by the US Government is
 subject to restrictions as set forth in subparagraphs (a)
 and (c) of the Commercial Computer Software - Restricted
 Rights clause in FAR 52.227-19.
  
 Gaussian, Inc.
 340 Quinnipiac St., Bldg. 40, Wallingford CT 06492
  
  
 ---------------------------------------------------------------
 Warning -- This program may not be used in any manner that
 competes with the business of Gaussian, Inc. or will provide
 assistance to any competitor of Gaussian, Inc.  The licensee
 of this program is prohibited from giving any competitor of
 Gaussian, Inc. access to this program.  By using this program,
 the user acknowledges that Gaussian, Inc. is engaged in the
 business of creating and licensing software in the field of
 computational chemistry and represents and warrants to the
 licensee that it is not a competitor of Gaussian, Inc. and that
 it will not use this program in any manner prohibited above.
 ---------------------------------------------------------------
  

 Cite this work as:
 Gaussian 03, Revision E.01,
 M. J. Frisch, G. W. Trucks, H. B. Schlegel, G. E. Scuseria, 
 M. A. Robb, J. R. Cheeseman, J. A. Montgomery, Jr., T. Vreven, 
 K. N. Kudin, J. C. Burant, J. M. Millam, S. S. Iyengar, J. Tomasi, 
 V. Barone, B. Mennucci, M. Cossi, G. Scalmani, N. Rega, 
 G. A. Petersson, H. Nakatsuji, M. Hada, M. Ehara, K. Toyota, 
 R. Fukuda, J. Hasegawa, M. Ishida, T. Nakajima, Y. Honda, O. Kitao, 
 H. Nakai, M. Klene, X. Li, J. E. Knox, H. P. Hratchian, J. B. Cross, 
 V. Bakken, C. Adamo, J. Jaramillo, R. Gomperts, R. E. Stratmann, 
 O. Yazyev, A. J. Austin, R. Cammi, C. Pomelli, J. W. Ochterski, 
 P. Y. Ayala, K. Morokuma, G. A. Voth, P. Salvador, J. J. Dannenberg, 
 V. G. Zakrzewski, S. Dapprich, A. D. Daniels, M. C. Strain, 
 O. Farkas, D. K. Malick, A. D. Rabuck, K. Raghavachari, 
 J. B. Foresman, J. V. Ortiz, Q. Cui, A. G. Baboul, S. Clifford, 
 J. Cioslowski, B. B. Stefanov, G. Liu, A. Liashenko, P. Piskorz, 
 I. Komaromi, R. L. Martin, D. J. Fox, T. Keith, M. A. Al-Laham, 
 C. Y. Peng, A. Nanayakkara, M. Challacombe, P. M. W. Gill, 
 B. Johnson, W. Chen, M. W. Wong, C. Gonzalez, and J. A. Pople, 
 Gaussian, Inc., Wallingford CT, 2004.
 
 ******************************************
 Gaussian 03:  AM64L-G03RevE.01 11-Sep-2007
                17-Jun-2011 
 ******************************************
 %NprocShared=4
 Will use up to    4 processors via shared memory.
 %mem=3750MB
 %chk=S9L-ne-d-01
 --------------------------------------
 # hf/6-311G(d) freq scfcyc=500 scf=xqc
 --------------------------------------
 1/10=4,30=1,38=1/1,3;
 2/17=6,18=5,40=1/2;
 3/5=4,6=6,7=1,11=9,16=1,25=1,30=1/1,2,3;
 4//1;
 5/5=2,7=500,8=3,13=1,38=5/2,8;
 8/6=4,10=90,11=11/1;
 10/13=10/2;
 11/6=2,8=1,9=11,15=111,16=1/1,2,10;
 10/6=1/2;
 6/7=2,8=2,9=2,10=2,18=1,28=1/1;
 7/8=1,10=1,25=1/1,2,3,16;
 1/10=4,30=1/3;
 99//99;
 -----
 si5-c
 -----
 Symbolic Z-matrix:
 Charge =  1 Multiplicity = 2
 Si                    0.        1.56268  -0.90231 
 Si                    0.       -1.56268  -0.90231 
 Si                    0.        0.        1.80435 
 Si                    1.47372   0.        0.00014 
 Si                   -1.47372   0.        0.00014 
 

 GradGradGradGradGradGradGradGradGradGradGradGradGradGradGradGradGradGrad
 Berny optimization.
 Initialization pass.
 Trust Radius=3.00D-01 FncErr=1.00D-07 GrdErr=1.00D-07
 Number of steps in this run=   2 maximum allowed number of steps=   2.
 GradGradGradGradGradGradGradGradGradGradGradGradGradGradGradGradGradGrad

                          Input orientation:                          
 ---------------------------------------------------------------------
 Center     Atomic     Atomic              Coordinates (Angstroms)
 Number     Number      Type              X           Y           Z
 ---------------------------------------------------------------------
    1         14             0        0.000000    1.562679   -0.902312
    2         14             0        0.000000   -1.562679   -0.902312
    3         14             0        0.000000    0.000000    1.804353
    4         14             0        1.473715    0.000000    0.000136
    5         14             0       -1.473715    0.000000    0.000136
 ---------------------------------------------------------------------
                    Distance matrix (angstroms):
                    1          2          3          4          5
     1  Si   0.000000
     2  Si   3.125358   0.000000
     3  Si   3.125380   3.125380   0.000000
     4  Si   2.329853   2.329853   2.329600   0.000000
     5  Si   2.329853   2.329853   2.329600   2.947430   0.000000
 Stoichiometry    Si5(1+,2)
 Framework group  C2V[C2(Si),SGV(Si2),SGV'(Si2)]
 Deg. of freedom     4
 Full point group                 C2V
 Largest Abelian subgroup         C2V     NOp   4
 Largest concise Abelian subgroup C2V     NOp   4
                         Standard orientation:                         
 ---------------------------------------------------------------------
 Center     Atomic     Atomic              Coordinates (Angstroms)
 Number     Number      Type              X           Y           Z
 ---------------------------------------------------------------------
    1         14             0        0.000000    1.562679   -0.902312
    2         14             0        0.000000   -1.562679   -0.902312
    3         14             0        0.000000    0.000000    1.804353
    4         14             0        1.473715    0.000000    0.000136
    5         14             0       -1.473715    0.000000    0.000136
 ---------------------------------------------------------------------
 Rotational constants (GHZ):      1.9576194      1.9575998      1.8493262
 Standard basis: 6-311G(d) (5D, 7F)
 There are    51 symmetry adapted basis functions of A1  symmetry.
 There are    15 symmetry adapted basis functions of A2  symmetry.
 There are    32 symmetry adapted basis functions of B1  symmetry.
 There are    32 symmetry adapted basis functions of B2  symmetry.
 Integral buffers will be    131072 words long.
 Raffenetti 2 integral format.
 Two-electron integral symmetry is turned on.
   130 basis functions,   230 primitive gaussians,   135 cartesian basis functions
    35 alpha electrons       34 beta electrons
       nuclear repulsion energy       401.8610711608 Hartrees.
 NAtoms=    5 NActive=    5 NUniq=    3 SFac= 2.08D+00 NAtFMM=   80 NAOKFM=F Big=F
 One-electron integrals computed using PRISM.
 NBasis=   130 RedAO= T  NBF=    51    15    32    32
 NBsUse=   130 1.00D-06 NBFU=    51    15    32    32
 Harris functional with IExCor=  205 diagonalized for initial guess.
 ExpMin= 6.54D-02 ExpMax= 6.94D+04 ExpMxC= 2.33D+03 IAcc=2 IRadAn=         4 AccDes= 0.00D+00
 HarFok:  IExCor= 205 AccDes= 0.00D+00 IRadAn=         4 IDoV=1
 ScaDFX=  1.000000  1.000000  1.000000  1.000000
 Initial guess orbital symmetries:
 Alpha Orbitals:
       Occupied  (A1) (B1) (A1) (B2) (A1) (A1) (B1) (A1) (B2) (A1)
                 (A1) (B1) (B2) (A1) (A2) (B1) (A1) (B2) (A1) (B1)
                 (B1) (A2) (B2) (A1) (B2) (A1) (B1) (A1) (B2) (A1)
                 (B1) (A2) (A1) (B2) (A1)
       Virtual   (B1) (A1) (B2) (B2) (B1) (A1) (B2) (A2) (B1) (A1)
                 (B1) (A2) (A1) (A1) (B2) (B2) (A1) (B1) (A1) (B2)
                 (A1) (B2) (B1) (A2) (B1) (A1) (A1) (B2) (A1) (A1)
                 (B2) (A2) (B1) (B1) (B1) (A2) (B2) (A1) (A1) (A2)
                 (B2) (B2) (A1) (B1) (B1) (A2) (A1) (A1) (B2) (B1)
                 (A1) (B2) (A1) (A2) (B1) (A1) (B2) (A1) (A2) (B1)
                 (B1) (B2) (A1) (B2) (A1) (A2) (B1) (B1) (B2) (A1)
                 (A1) (B1) (B2) (A1) (A1) (A1) (B2) (A1) (B2) (A1)
                 (B1) (A2) (B1) (B1) (A2) (B2) (A1) (B1) (A1) (B2)
                 (A1) (B2) (A1) (B1) (A1)
 Beta  Orbitals:
       Occupied  (A1) (B1) (A1) (B2) (A1) (A1) (B1) (A1) (B2) (A1)
                 (A1) (B1) (B2) (A1) (A2) (B1) (A1) (B2) (A1) (B1)
                 (B1) (A2) (B2) (A1) (B2) (A1) (B1) (A1) (B2) (A1)
                 (B1) (A2) (A1) (B2)
       Virtual   (A1) (B1) (A1) (B2) (B2) (B1) (A1) (B2) (A2) (B1)
                 (A1) (B1) (A2) (A1) (A1) (B2) (B2) (A1) (B1) (A1)
                 (B2) (A1) (B2) (B1) (A2) (B1) (A1) (A1) (B2) (A1)
                 (A1) (B2) (A2) (B1) (B1) (B1) (A2) (B2) (A1) (A1)
                 (A2) (B2) (B2) (A1) (B1) (B1) (A2) (A1) (A1) (B2)
                 (B1) (A1) (B2) (A1) (A2) (B1) (A1) (B2) (A1) (A2)
                 (B1) (B1) (B2) (A1) (B2) (A1) (A2) (B1) (B1) (B2)
                 (A1) (A1) (B1) (B2) (A1) (A1) (A1) (B2) (A1) (B2)
                 (A1) (B1) (A2) (B1) (B1) (A2) (B2) (A1) (B1) (A1)
                 (B2) (A1) (B2) (A1) (B1) (A1)
 The electronic state of the initial guess is 2-A1.
 <S**2> of initial guess= 0.7500
 Requested convergence on RMS density matrix=1.00D-08 within 128 cycles.
 Requested convergence on MAX density matrix=1.00D-06.
 Requested convergence on             energy=1.00D-06.
 No special actions if energy rises.
 Keep R1 and R2 integrals in memory in canonical form, NReq=    86442337.
 Rare condition: small coef for last iteration:  0.000D+00
 Rare condition: small coef for last iteration:  0.000D+00
 Rare condition: small coef for last iteration:  0.000D+00
 Rare condition: small coef for last iteration:  0.000D+00
 Restarting incremental Fock formation.
 Rare condition: small coef for last iteration:  0.000D+00
 Rare condition: small coef for last iteration:  0.000D+00
 Rare condition: small coef for last iteration:  0.000D+00
 Rare condition: small coef for last iteration:  0.000D+00
 Rare condition: small coef for last iteration:  0.000D+00
 Rare condition: small coef for last iteration:  0.000D+00
 Rare condition: small coef for last iteration:  0.000D+00
 Restarting incremental Fock formation.
 Rare condition: small coef for last iteration:  0.000D+00
 Rare condition: small coef for last iteration:  0.000D+00
 Rare condition: small coef for last iteration:  0.000D+00
 Rare condition: small coef for last iteration:  0.000D+00
 Rare condition: small coef for last iteration:  0.000D+00
 Rare condition: small coef for last iteration:  0.000D+00
 Rare condition: small coef for last iteration:  0.000D+00
 Rare condition: small coef for last iteration:  0.000D+00
 Rare condition: small coef for last iteration:  0.000D+00
 Rare condition: small coef for last iteration:  0.000D+00
 Restarting incremental Fock formation.
 Rare condition: small coef for last iteration:  0.000D+00
 Rare condition: small coef for last iteration:  0.000D+00
 Rare condition: small coef for last iteration:  0.000D+00
 Rare condition: small coef for last iteration:  0.000D+00
 Rare condition: small coef for last iteration:  0.000D+00
 Rare condition: small coef for last iteration:  0.000D+00
 Rare condition: small coef for last iteration:  0.000D+00
 Rare condition: small coef for last iteration:  0.000D+00
 Rare condition: small coef for last iteration:  0.000D+00
 Rare condition: small coef for last iteration:  0.000D+00
 Rare condition: small coef for last iteration:  0.000D+00
 Rare condition: small coef for last iteration:  0.000D+00
 Rare condition: small coef for last iteration:  0.000D+00
 Restarting incremental Fock formation.
 Rare condition: small coef for last iteration:  0.000D+00
 Rare condition: small coef for last iteration:  0.000D+00
 Rare condition: small coef for last iteration:  0.000D+00
 Rare condition: small coef for last iteration:  0.000D+00
 Rare condition: small coef for last iteration:  0.000D+00
 Rare condition: small coef for last iteration:  0.000D+00
 Restarting incremental Fock formation.
 Rare condition: small coef for last iteration:  0.000D+00
 Rare condition: small coef for last iteration:  0.000D+00
 Rare condition: small coef for last iteration:  0.000D+00
 Rare condition: small coef for last iteration:  0.000D+00
 Rare condition: small coef for last iteration:  0.000D+00
 Rare condition: small coef for last iteration:  0.000D+00
 Rare condition: small coef for last iteration:  0.000D+00
 Rare condition: small coef for last iteration:  0.000D+00
 Restarting incremental Fock formation.
 Rare condition: small coef for last iteration:  0.000D+00
 Rare condition: small coef for last iteration:  0.000D+00
 Rare condition: small coef for last iteration:  0.000D+00
 Rare condition: small coef for last iteration:  0.000D+00
 Matrix for removal  2 Erem= -1444.25974675043     Crem= 0.000D+00
 >>>>>>>>>> Convergence criterion not met.
 SCF Done:  E(UHF) =  -1444.26042051     A.U. after  129 cycles
             Convg  =    0.3349D-05             -V/T =  1.9999
             S**2   =   1.1094
 Annihilation of the first spin contaminant:
 S**2 before annihilation     1.1094,   after     0.8413
 Keep R1 and R2 integrals in memory in canonical form, NReq=    85705245.
 LinEq1:  Iter=  0 NonCon=   1 RMS=1.03D-04 Max=2.51D-03
 AX will form   1 AO Fock derivatives at one time.
 LinEq1:  Iter=  1 NonCon=   1 RMS=9.30D-05 Max=5.60D-03
 LinEq1:  Iter=  2 NonCon=   1 RMS=3.14D-05 Max=9.35D-04
 LinEq1:  Iter=  3 NonCon=   1 RMS=1.01D-05 Max=2.50D-04
 LinEq1:  Iter=  4 NonCon=   1 RMS=3.00D-06 Max=8.25D-05
 LinEq1:  Iter=  5 NonCon=   1 RMS=9.04D-07 Max=1.95D-05
 LinEq1:  Iter=  6 NonCon=   1 RMS=4.18D-07 Max=9.98D-06
 LinEq1:  Iter=  7 NonCon=   1 RMS=1.44D-07 Max=3.25D-06
 LinEq1:  Iter=  8 NonCon=   1 RMS=5.42D-08 Max=1.69D-06
 LinEq1:  Iter=  9 NonCon=   1 RMS=1.45D-08 Max=4.48D-07
 LinEq1:  Iter= 10 NonCon=   1 RMS=4.20D-09 Max=1.60D-07
 LinEq1:  Iter= 11 NonCon=   0 RMS=1.17D-09 Max=3.18D-08
 Linear equations converged to 8.117D-09 8.117D-08 after  11 iterations.
 Incorrect curvature in search direction -- initial direction reversed.
 Gradient too large for Newton-Raphson -- use scaled steepest descent instead.
 LinEq1:  Iter=  0 NonCon=   1 RMS=2.38D-04 Max=1.25D-02
 LinEq1:  Iter=  1 NonCon=   1 RMS=1.68D-04 Max=5.01D-03
 LinEq1:  Iter=  2 NonCon=   1 RMS=3.90D-05 Max=1.16D-03
 LinEq1:  Iter=  3 NonCon=   1 RMS=1.10D-05 Max=2.14D-04
 LinEq1:  Iter=  4 NonCon=   1 RMS=3.11D-06 Max=1.02D-04
 LinEq1:  Iter=  5 NonCon=   1 RMS=1.11D-06 Max=2.74D-05
 LinEq1:  Iter=  6 NonCon=   1 RMS=4.95D-07 Max=1.24D-05
 LinEq1:  Iter=  7 NonCon=   1 RMS=1.47D-07 Max=3.82D-06
 LinEq1:  Iter=  8 NonCon=   1 RMS=4.51D-08 Max=1.44D-06
 LinEq1:  Iter=  9 NonCon=   1 RMS=1.21D-08 Max=3.43D-07
 LinEq1:  Iter= 10 NonCon=   1 RMS=3.81D-09 Max=1.19D-07
 LinEq1:  Iter= 11 NonCon=   0 RMS=1.07D-09 Max=2.63D-08
 Linear equations converged to 8.117D-09 8.117D-08 after  11 iterations.
 LinEq1:  Iter=  0 NonCon=   1 RMS=1.95D-04 Max=7.98D-03
 LinEq1:  Iter=  1 NonCon=   1 RMS=1.17D-04 Max=2.93D-03
 LinEq1:  Iter=  2 NonCon=   1 RMS=2.49D-05 Max=7.06D-04
 LinEq1:  Iter=  3 NonCon=   1 RMS=6.78D-06 Max=1.98D-04
 LinEq1:  Iter=  4 NonCon=   1 RMS=2.27D-06 Max=4.82D-05
 LinEq1:  Iter=  5 NonCon=   1 RMS=6.09D-07 Max=2.00D-05
 LinEq1:  Iter=  6 NonCon=   1 RMS=2.54D-07 Max=5.96D-06
 LinEq1:  Iter=  7 NonCon=   1 RMS=9.40D-08 Max=3.12D-06
 LinEq1:  Iter=  8 NonCon=   1 RMS=2.90D-08 Max=7.61D-07
 LinEq1:  Iter=  9 NonCon=   1 RMS=1.01D-08 Max=2.64D-07
 LinEq1:  Iter= 10 NonCon=   0 RMS=2.49D-09 Max=5.74D-08
 Linear equations converged to 8.117D-09 8.117D-08 after  10 iterations.
 LinEq1:  Iter=  0 NonCon=   1 RMS=2.00D-06 Max=5.56D-05
 LinEq1:  Iter=  1 NonCon=   1 RMS=9.71D-07 Max=3.06D-05
 LinEq1:  Iter=  2 NonCon=   1 RMS=5.06D-07 Max=1.55D-05
 LinEq1:  Iter=  3 NonCon=   1 RMS=1.76D-07 Max=6.82D-06
 LinEq1:  Iter=  4 NonCon=   1 RMS=4.93D-08 Max=1.46D-06
 LinEq1:  Iter=  5 NonCon=   1 RMS=1.61D-08 Max=3.66D-07
 LinEq1:  Iter=  6 NonCon=   1 RMS=5.84D-09 Max=1.27D-07
 LinEq1:  Iter=  7 NonCon=   1 RMS=1.78D-09 Max=5.98D-08
 LinEq1:  Iter=  8 NonCon=   0 RMS=4.86D-10 Max=1.06D-08
 Linear equations converged to 1.903D-09 1.903D-08 after   8 iterations.
 LinEq1:  Iter=  0 NonCon=   1 RMS=5.87D-08 Max=1.24D-06
 LinEq1:  Iter=  1 NonCon=   1 RMS=2.45D-08 Max=5.37D-07
 LinEq1:  Iter=  2 NonCon=   1 RMS=1.03D-08 Max=2.24D-07
 LinEq1:  Iter=  3 NonCon=   1 RMS=3.61D-09 Max=9.45D-08
 LinEq1:  Iter=  4 NonCon=   1 RMS=1.20D-09 Max=2.75D-08
 LinEq1:  Iter=  5 NonCon=   1 RMS=4.17D-10 Max=1.04D-08
 LinEq1:  Iter=  6 NonCon=   1 RMS=1.86D-10 Max=6.50D-09
 LinEq1:  Iter=  7 NonCon=   1 RMS=9.25D-11 Max=2.95D-09
 LinEq1:  Iter=  8 NonCon=   0 RMS=4.38D-11 Max=1.25D-09
 Linear equations converged to 1.840D-10 1.840D-09 after   8 iterations.
 LinEq1:  Iter=  0 NonCon=   1 RMS=3.13D-09 Max=8.93D-08
 LinEq1:  Iter=  1 NonCon=   1 RMS=1.80D-09 Max=5.64D-08
 LinEq1:  Iter=  2 NonCon=   1 RMS=8.48D-10 Max=2.90D-08
 LinEq1:  Iter=  3 NonCon=   1 RMS=3.82D-10 Max=1.41D-08
 LinEq1:  Iter=  4 NonCon=   1 RMS=1.11D-10 Max=3.69D-09
 LinEq1:  Iter=  5 NonCon=   1 RMS=3.19D-11 Max=7.55D-10
 LinEq1:  Iter=  6 NonCon=   1 RMS=1.52D-11 Max=3.68D-10
 LinEq1:  Iter=  7 NonCon=   1 RMS=5.40D-12 Max=1.91D-10
 LinEq1:  Iter=  8 NonCon=   0 RMS=1.26D-12 Max=2.40D-11
 Linear equations converged to 1.157D-11 1.157D-10 after   8 iterations.
 LinEq1:  Iter=  0 NonCon=   1 RMS=3.14D-09 Max=8.59D-08
 LinEq1:  Iter=  1 NonCon=   1 RMS=1.81D-09 Max=5.89D-08
 LinEq1:  Iter=  2 NonCon=   1 RMS=8.69D-10 Max=3.01D-08
 LinEq1:  Iter=  3 NonCon=   1 RMS=3.85D-10 Max=1.41D-08
 LinEq1:  Iter=  4 NonCon=   1 RMS=1.08D-10 Max=3.57D-09
 LinEq1:  Iter=  5 NonCon=   1 RMS=3.18D-11 Max=8.46D-10
 LinEq1:  Iter=  6 NonCon=   1 RMS=1.54D-11 Max=3.57D-10
 LinEq1:  Iter=  7 NonCon=   1 RMS=5.25D-12 Max=1.79D-10
 LinEq1:  Iter=  8 NonCon=   0 RMS=1.25D-12 Max=2.08D-11
 Linear equations converged to 1.533D-11 1.533D-10 after   8 iterations.
 Search did not lower the energy significantly.
 No lower point found -- using Newton-Raphson step.
 SCF Done:  E(UHF) =  -1444.26246393     a.u. after    9 cycles
            Convg  =    0.2520D-06                   119 Fock formations.
              S**2 =  1.4739                  -V/T =  1.9999
 Annihilation of the first spin contaminant:
 S**2 before annihilation     1.4739,   after     1.1510
 Range of M.O.s used for correlation:     1   130
 NBasis=   130 NAE=    35 NBE=    34 NFC=     0 NFV=     0
 NROrb=    130 NOA=    35 NOB=    34 NVA=    95 NVB=    96
          Differentiating once with respect to electric field.
                with respect to dipole field.
          Electric field/nuclear overlap derivatives assumed to be zero.
          Store integrals in memory, NReq=    85103015.
          There are   3 degrees of freedom in the 1st order CPHF.
     3 vectors were produced by pass  0.
 AX will form   3 AO Fock derivatives at one time.
     3 vectors were produced by pass  1.
     3 vectors were produced by pass  2.
     3 vectors were produced by pass  3.
     3 vectors were produced by pass  4.
     3 vectors were produced by pass  5.
     3 vectors were produced by pass  6.
     3 vectors were produced by pass  7.
     3 vectors were produced by pass  8.
     3 vectors were produced by pass  9.
     3 vectors were produced by pass 10.
     3 vectors were produced by pass 11.
     3 vectors were produced by pass 12.
     3 vectors were produced by pass 13.
     3 vectors were produced by pass 14.
     1 vectors were produced by pass 15.
 Inv2:  IOpt= 1 Iter= 1 AM= 5.37D-14 Conv= 1.00D-12.
 Inverted reduced A of dimension   46 with in-core refinement.
 End of Minotr Frequency-dependent properties file   721 does not exist.
 Symmetrizing basis deriv contribution to polar:
 IMax=3 JMax=2 DiffMx= 0.00D+00
 G2DrvN: will do    6 centers at a time, making    1 passes doing MaxLOS=2.
 FoFDir/FoFCou used for L=0 through L=2.
 DoAtom=TTTTT
          Differentiating once with respect to electric field.
                with respect to dipole field.
          Differentiating once with respect to nuclear coordinates.
          Store integrals in memory, NReq=    85103120.
          There are  12 degrees of freedom in the 1st order CPHF.
    12 vectors were produced by pass  0.
 AX will form  12 AO Fock derivatives at one time.
    12 vectors were produced by pass  1.
    12 vectors were produced by pass  2.
    12 vectors were produced by pass  3.
    12 vectors were produced by pass  4.
    12 vectors were produced by pass  5.
    12 vectors were produced by pass  6.
    12 vectors were produced by pass  7.
    12 vectors were produced by pass  8.
    11 vectors were produced by pass  9.
     3 vectors were produced by pass 10.
     3 vectors were produced by pass 11.
     3 vectors were produced by pass 12.
 Inv2:  IOpt= 1 Iter= 1 AM= 1.60D-14 Conv= 1.00D-12.
 Inverted reduced A of dimension  128 with in-core refinement.
 Isotropic polarizability for W=    0.000000      161.00 Bohr**3.
 End of Minotr Frequency-dependent properties file   721 does not exist.

 **********************************************************************

            Population analysis using the SCF density.

 **********************************************************************

 Orbital symmetries:
 Alpha Orbitals:
       Occupied  (A1) (A1) (B2) (A1) (B1) (A1) (A1) (B2) (A1) (B1)
                 (A1) (B2) (A1) (B2) (B1) (A2) (B1) (A1) (B2) (A1)
                 (B1) (A1) (B1) (A2) (B2) (A1) (A1) (B1) (B2) (A1)
                 (B1) (A2) (A1) (A1) (B2)
       Virtual   (B2) (B1) (A1) (B2) (B1) (A1) (B2) (B1) (A2) (A1)
                 (A1) (B1) (A2) (A1) (B2) (A1) (B2) (B1) (B2) (A1)
                 (B1) (A1) (B2) (B1) (A2) (A1) (B2) (A1) (A1) (A1)
                 (B1) (B2) (A2) (B1) (B1) (A2) (A1) (A1) (B2) (A2)
                 (B2) (A1) (B2) (B1) (A2) (B1) (A1) (A1) (B2) (B1)
                 (A1) (A1) (B2) (B1) (A2) (B2) (A1) (A1) (B2) (B1)
                 (B1) (A2) (A1) (B2) (B1) (A2) (A1) (A1) (B1) (B2)
                 (A1) (A1) (B2) (B1) (A1) (B2) (A1) (A1) (B1) (A1)
                 (B2) (B1) (B2) (A2) (B1) (A2) (A1) (B1) (A1) (B2)
                 (A1) (A1) (B2) (B1) (A1)
 Beta  Orbitals:
       Occupied  (B2) (A1) (A1) (A1) (B1) (B2) (A1) (A1) (A1) (B1)
                 (A1) (B2) (A2) (B1) (A1) (B2) (B1) (A1) (B2) (A1)
                 (B1) (B2) (A2) (A1) (B1) (A1) (B2) (B1) (A1) (A1)
                 (A2) (B1) (B2) (A1)
       Virtual   (A1) (B1) (A1) (B2) (B2) (B1) (B2) (A1) (A2) (B1)
                 (A1) (A1) (A2) (B1) (B2) (A1) (A1) (B2) (B1) (B2)
                 (A1) (B1) (B2) (A1) (A2) (B1) (A1) (A1) (B2) (A1)
                 (B2) (B1) (A1) (B1) (A2) (A2) (B1) (A1) (B2) (A1)
                 (A2) (B2) (B2) (A1) (B1) (B1) (A2) (A1) (A1) (B2)
                 (B1) (A1) (B2) (A1) (A2) (B1) (A1) (B2) (A1) (B1)
                 (B2) (A2) (B1) (B2) (A1) (A2) (B1) (A1) (B2) (B1)
                 (A1) (A1) (B2) (A1) (B1) (A1) (A1) (B2) (A1) (B1)
                 (B2) (A1) (A2) (B1) (B2) (A2) (B1) (A1) (B1) (B2)
                 (A1) (A1) (B2) (A1) (B1) (A1)
 The electronic state is 2-A1.
 Alpha  occ. eigenvalues --  -69.00902 -69.00560 -69.00560 -68.97526 -68.97526
 Alpha  occ. eigenvalues --   -6.35356  -6.34952  -6.34950  -6.32203  -6.32200
 Alpha  occ. eigenvalues --   -4.46035  -4.46023  -4.45373  -4.45370  -4.45367
 Alpha  occ. eigenvalues --   -4.44975  -4.44975  -4.44461  -4.44460  -4.42654
 Alpha  occ. eigenvalues --   -4.42649  -4.42411  -4.42409  -4.42237  -4.42237
 Alpha  occ. eigenvalues --   -1.03352  -0.82214  -0.79020  -0.78851  -0.58473
 Alpha  occ. eigenvalues --   -0.52687  -0.51173  -0.51163  -0.49317  -0.47529
 Alpha virt. eigenvalues --   -0.19687  -0.18634  -0.16467  -0.13670  -0.07328
 Alpha virt. eigenvalues --   -0.05211  -0.04854  -0.04030  -0.02083   0.00063
 Alpha virt. eigenvalues --    0.05377   0.05799   0.06255   0.08226   0.09879
 Alpha virt. eigenvalues --    0.10494   0.10512   0.12273   0.16065   0.16297
 Alpha virt. eigenvalues --    0.19771   0.20225   0.21265   0.22915   0.23665
 Alpha virt. eigenvalues --    0.34903   0.36859   0.37699   0.40811   0.45814
 Alpha virt. eigenvalues --    0.46258   0.47066   0.49322   0.50329   0.51928
 Alpha virt. eigenvalues --    0.53432   0.56684   0.58479   0.59441   0.61280
 Alpha virt. eigenvalues --    0.69344   0.72031   0.72164   0.75373   0.78651
 Alpha virt. eigenvalues --    0.78969   0.80189   0.83345   0.83469   0.90419
 Alpha virt. eigenvalues --    0.93234   0.99231   1.00064   1.05818   1.06281
 Alpha virt. eigenvalues --    1.16820   1.16844   1.23282   1.26025   1.26578
 Alpha virt. eigenvalues --    1.28134   1.28421   1.29946   1.30799   1.39047
 Alpha virt. eigenvalues --    1.39987   1.40453   1.46631   1.46862   1.47484
 Alpha virt. eigenvalues --    5.52563   5.64996   5.65361   5.68655   5.85645
 Alpha virt. eigenvalues --   11.87980  11.88026  11.92277  11.93635  11.94142
 Alpha virt. eigenvalues --   11.94342  11.94805  11.94835  11.95001  11.98730
 Alpha virt. eigenvalues --   11.98955  12.07322  12.07673  12.07905  12.08233
 Alpha virt. eigenvalues --  143.28215 143.40899 143.41013 143.45264 143.63248
  Beta  occ. eigenvalues --  -69.00665 -69.00665 -68.99959 -68.97585 -68.97585
  Beta  occ. eigenvalues --   -6.35017  -6.35016  -6.34104  -6.32277  -6.32274
  Beta  occ. eigenvalues --   -4.45725  -4.45724  -4.45046  -4.45046  -4.44840
  Beta  occ. eigenvalues --   -4.44837  -4.44607  -4.44099  -4.44022  -4.42663
  Beta  occ. eigenvalues --   -4.42657  -4.42627  -4.42627  -4.42323  -4.42323
  Beta  occ. eigenvalues --   -1.02430  -0.79456  -0.79351  -0.75819  -0.55574
  Beta  occ. eigenvalues --   -0.52855  -0.50963  -0.50266  -0.50026
  Beta virt. eigenvalues --   -0.22482  -0.18356  -0.14667  -0.14606  -0.08062
  Beta virt. eigenvalues --   -0.06553  -0.04713  -0.04605  -0.03054  -0.00895
  Beta virt. eigenvalues --    0.01431   0.05416   0.05695   0.06149   0.08818
  Beta virt. eigenvalues --    0.10363   0.11511   0.12247   0.12292   0.17820
  Beta virt. eigenvalues --    0.18374   0.20521   0.20605   0.21759   0.23371
  Beta virt. eigenvalues --    0.24101   0.35348   0.38969   0.39343   0.41041
  Beta virt. eigenvalues --    0.46523   0.46574   0.47771   0.50328   0.50885
  Beta virt. eigenvalues --    0.52424   0.53466   0.56867   0.59725   0.61480
  Beta virt. eigenvalues --    0.63453   0.70700   0.72763   0.72853   0.75257
  Beta virt. eigenvalues --    0.79213   0.80245   0.81269   0.83670   0.84383
  Beta virt. eigenvalues --    0.90455   0.93316   0.98814   1.00523   1.05427
  Beta virt. eigenvalues --    1.06513   1.17827   1.18875   1.24071   1.27341
  Beta virt. eigenvalues --    1.27648   1.28250   1.28810   1.30317   1.30693
  Beta virt. eigenvalues --    1.39630   1.39852   1.40452   1.47040   1.47058
  Beta virt. eigenvalues --    1.47685   5.52883   5.65268   5.66148   5.68576
  Beta virt. eigenvalues --    5.85759  11.88421  11.88784  11.92304  11.93765
  Beta virt. eigenvalues --   11.94027  11.94387  11.94925  11.95180  11.95484
  Beta virt. eigenvalues --   11.98632  11.98834  12.07340  12.07683  12.07796
  Beta virt. eigenvalues --   12.08242 143.28363 143.40988 143.41355 143.45225
  Beta virt. eigenvalues --  143.63272
          Condensed to atoms (all electrons):
              1          2          3          4          5
     1  Si  13.335738  -0.035193  -0.034725   0.170722   0.170722
     2  Si  -0.035193  13.335738  -0.034725   0.170722   0.170722
     3  Si  -0.034725  -0.034725  13.458973   0.186646   0.186646
     4  Si   0.170722   0.170722   0.186646  13.535044  -0.051805
     5  Si   0.170722   0.170722   0.186646  -0.051805  13.535044
 Mulliken atomic charges:
              1
     1  Si   0.392736
     2  Si   0.392736
     3  Si   0.237186
     4  Si  -0.011329
     5  Si  -0.011329
 Sum of Mulliken charges=   1.00000
 Atomic charges with hydrogens summed into heavy atoms:
              1
     1  Si   0.392736
     2  Si   0.392736
     3  Si   0.237186
     4  Si  -0.011329
     5  Si  -0.011329
 Sum of Mulliken charges=   1.00000
          Atomic-Atomic Spin Densities.
              1          2          3          4          5
     1  Si  -0.063336   0.060114  -0.000608  -0.057262  -0.057262
     2  Si   0.060114  -0.063336  -0.000608  -0.057262  -0.057262
     3  Si  -0.000608  -0.000608   1.314243   0.042688   0.042688
     4  Si  -0.057262  -0.057262   0.042688  -0.020585   0.011573
     5  Si  -0.057262  -0.057262   0.042688   0.011573  -0.020585
 Mulliken atomic spin densities:
              1
     1  Si  -0.118354
     2  Si  -0.118354
     3  Si   1.398403
     4  Si  -0.080848
     5  Si  -0.080848
 Sum of Mulliken spin densities=   1.00000
 APT atomic charges:
              1
     1  Si   0.448452
     2  Si   0.448456
     3  Si   0.065986
     4  Si   0.018553
     5  Si   0.018550
 Sum of APT charges=   1.00000
 APT Atomic charges with hydrogens summed into heavy atoms:
              1
     1  Si   0.448452
     2  Si   0.448456
     3  Si   0.065986
     4  Si   0.018553
     5  Si   0.018550
 Sum of APT charges=   1.00000
 Electronic spatial extent (au):  <R**2>=   825.0167
 Charge=     1.0000 electrons
 Dipole moment (field-independent basis, Debye):
    X=     0.0000    Y=     0.0000    Z=     0.2474  Tot=     0.2474
 Quadrupole moment (field-independent basis, Debye-Ang):
   XX=   -56.7362   YY=   -53.4770   ZZ=   -50.5281
   XY=     0.0000   XZ=     0.0000   YZ=     0.0000
 Traceless Quadrupole moment (field-independent basis, Debye-Ang):
   XX=    -3.1558   YY=     0.1035   ZZ=     3.0523
   XY=     0.0000   XZ=     0.0000   YZ=     0.0000
 Octapole moment (field-independent basis, Debye-Ang**2):
  XXX=     0.0000  YYY=     0.0000  ZZZ=    10.3548  XYY=     0.0000
  XXY=     0.0000  XXZ=    -0.4316  XZZ=     0.0000  YZZ=     0.0000
  YYZ=    -1.0630  XYZ=     0.0000
 Hexadecapole moment (field-independent basis, Debye-Ang**3):
 XXXX=  -399.6286 YYYY=  -427.4208 ZZZZ=  -398.4967 XXXY=     0.0000
 XXXZ=     0.0000 YYYX=     0.0000 YYYZ=     0.0000 ZZZX=     0.0000
 ZZZY=     0.0000 XXYY=  -148.3162 XXZZ=  -146.4126 YYZZ=  -153.6143
 XXYZ=     0.0000 YYXZ=     0.0000 ZZXY=     0.0000
 N-N= 4.018610711608D+02 E-N=-4.237630341088D+03  KE= 1.444415300772D+03
 Symmetry A1   KE= 7.662814617322D+02
 Symmetry A2   KE= 5.107016068205D+01
 Symmetry B1   KE= 3.135494327547D+02
 Symmetry B2   KE= 3.135142456026D+02
  Exact polarizability: 155.401   0.000 171.688   0.000   0.000 155.925
 Approx polarizability: 220.908   0.000 169.048   0.000   0.000 167.849
                          Isotropic Fermi Contact Couplings
        Atom                 a.u.       MegaHertz       Gauss      10(-4) cm-1
     1  Si(29)             0.17607    -156.48105     -55.83633     -52.19646
     2  Si(29)             0.17607    -156.48105     -55.83633     -52.19646
     3  Si(29)             0.83206    -739.47054    -263.86146    -246.66082
     4  Si(29)            -0.03655      32.48575      11.59172      10.83608
     5  Si(29)            -0.03655      32.48575      11.59172      10.83608
 --------------------------------------------------------
       Center         ----  Spin Dipole Couplings  ----
                      3XX-RR        3YY-RR        3ZZ-RR
 --------------------------------------------------------
     1   Atom        0.230596      0.248239     -0.478835
     2   Atom        0.230596      0.248239     -0.478835
     3   Atom       -0.960662      0.524435      0.436227
     4   Atom        0.086394     -0.341719      0.255325
     5   Atom        0.086394     -0.341719      0.255325
 --------------------------------------------------------
                        XY            XZ            YZ
 --------------------------------------------------------
     1   Atom        0.000000      0.000000      0.992881
     2   Atom        0.000000      0.000000     -0.992881
     3   Atom        0.000000      0.000000      0.000000
     4   Atom        0.000000     -0.286441      0.000000
     5   Atom        0.000000      0.286441      0.000000
 --------------------------------------------------------


 ---------------------------------------------------------------------------------
              Anisotropic Spin Dipole Couplings in Principal Axis System
 ---------------------------------------------------------------------------------

       Atom             a.u.   MegaHertz   Gauss  10(-4) cm-1        Axes

              Baa    -1.1726   124.398    44.388    41.495  0.0000 -0.5728  0.8197
     1 Si(29) Bbb     0.2306   -24.463    -8.729    -8.160  1.0000  0.0000  0.0000
              Bcc     0.9420   -99.936   -35.660   -33.335  0.0000  0.8197  0.5728
 
              Baa    -1.1726   124.398    44.388    41.495  0.0000  0.5728  0.8197
     2 Si(29) Bbb     0.2306   -24.463    -8.729    -8.160  1.0000  0.0000  0.0000
              Bcc     0.9420   -99.936   -35.660   -33.335  0.0000  0.8197 -0.5728
 
              Baa    -0.9607   101.911    36.364    33.994  1.0000  0.0000  0.0000
     3 Si(29) Bbb     0.4362   -46.277   -16.513   -15.436  0.0000  0.0000  1.0000
              Bcc     0.5244   -55.634   -19.852   -18.558  0.0000  1.0000  0.0000
 
              Baa    -0.3417    36.251    12.935    12.092  0.0000  1.0000  0.0000
     4 Si(29) Bbb    -0.1278    13.555     4.837     4.521  0.8009  0.0000  0.5988
              Bcc     0.4695   -49.806   -17.772   -16.613 -0.5988  0.0000  0.8009
 
              Baa    -0.3417    36.251    12.935    12.092  0.0000  1.0000  0.0000
     5 Si(29) Bbb    -0.1278    13.555     4.837     4.521  0.8009  0.0000 -0.5988
              Bcc     0.4695   -49.806   -17.772   -16.613  0.5988  0.0000  0.8009
 

 ---------------------------------------------------------------------------------

 Full mass-weighted force constant matrix:
 Low frequencies ---  -62.0312  -52.0987  -31.4001   -0.0044   -0.0040   -0.0029
 Low frequencies ---   87.0745  133.2582  231.8309
 Diagonal vibrational polarizability:
        4.7749441       6.8719706       4.8535931
 Diagonal vibrational hyperpolarizability:
        0.0011513       0.2401728     134.4081671
 Harmonic frequencies (cm**-1), IR intensities (KM/Mole), Raman scattering
 activities (A**4/AMU), depolarization ratios for plane and unpolarized
 incident light, reduced masses (AMU), force constants (mDyne/A),
 and normal coordinates:
                     1                      2                      3
                    A1                     B2                     A1
 Frequencies --    87.0745               127.5077               231.8309
 Red. masses --    27.9769                27.9769                27.9769
 Frc consts  --     0.1250                 0.2680                 0.8859
 IR Inten    --     0.0004                 1.2393                 1.5499
 Raman Activ --   676.1317                 4.7731               213.4093
 Depolar (P) --     0.3429                 0.7500                 0.2504
 Depolar (U) --     0.5107                 0.8571                 0.4005
 Atom AN      X      Y      Z        X      Y      Z        X      Y      Z
   1  14     0.00   0.42   0.43     0.00  -0.03  -0.37     0.00  -0.39   0.23
   2  14     0.00  -0.42   0.43     0.00  -0.03   0.37     0.00   0.39   0.23
   3  14     0.00   0.00  -0.37     0.00  -0.67   0.00     0.00   0.00  -0.44
   4  14    -0.03   0.00  -0.25     0.00   0.37   0.00     0.44   0.00  -0.01
   5  14     0.03   0.00  -0.25     0.00   0.37   0.00    -0.44   0.00  -0.01
                     4                      5                      6
                    B1                     A2                     B1
 Frequencies --   312.3479               341.6027               368.4110
 Red. masses --    27.9769                27.9769                27.9769
 Frc consts  --     1.6082                 1.9235                 2.2373
 IR Inten    --     5.7453                 0.0000                16.0896
 Raman Activ --     7.9450                28.9651                 0.0064
 Depolar (P) --     0.7500                 0.7500                 0.7500
 Depolar (U) --     0.8571                 0.8571                 0.8571
 Atom AN      X      Y      Z        X      Y      Z        X      Y      Z
   1  14     0.39   0.00   0.00     0.49   0.00   0.00     0.25   0.00   0.00
   2  14     0.39   0.00   0.00    -0.49   0.00   0.00     0.25   0.00   0.00
   3  14    -0.40   0.00   0.00     0.00   0.00   0.00     0.54   0.00   0.00
   4  14    -0.19   0.00  -0.48     0.00   0.51   0.00    -0.51   0.00   0.18
   5  14    -0.19   0.00   0.48     0.00  -0.51   0.00    -0.51   0.00  -0.18
                     7                      8                      9
                    A1                     B2                     A1
 Frequencies --   386.7221               397.4904               475.2976
 Red. masses --    27.9769                27.9769                27.9769
 Frc consts  --     2.4652                 2.6044                 3.7238
 IR Inten    --    21.2522                28.3027                 2.1143
 Raman Activ --   642.4258                53.8305               124.7318
 Depolar (P) --     0.6009                 0.7500                 0.0009
 Depolar (U) --     0.7507                 0.8571                 0.0019
 Atom AN      X      Y      Z        X      Y      Z        X      Y      Z
   1  14     0.00  -0.08   0.12     0.00   0.46  -0.34     0.00   0.40  -0.21
   2  14     0.00   0.08   0.12     0.00   0.46   0.34     0.00  -0.40  -0.21
   3  14     0.00   0.00   0.68     0.00  -0.12   0.00     0.00   0.00   0.10
   4  14     0.19   0.00  -0.46     0.00  -0.41   0.00     0.51   0.00   0.16
   5  14    -0.19   0.00  -0.46     0.00  -0.41   0.00    -0.51   0.00   0.16

 -------------------
 - Thermochemistry -
 -------------------
 Temperature   298.150 Kelvin.  Pressure   1.00000 Atm.
 Atom  1 has atomic number 14 and mass  27.97693
 Atom  2 has atomic number 14 and mass  27.97693
 Atom  3 has atomic number 14 and mass  27.97693
 Atom  4 has atomic number 14 and mass  27.97693
 Atom  5 has atomic number 14 and mass  27.97693
 Molecular mass:   139.88464 amu.
 Principal axes and moments of inertia in atomic units:
                           1         2         3
     EIGENVALUES --   921.90607 921.91530 975.89124
           X            0.00000   0.00000   1.00000
           Y            0.00000   1.00000   0.00000
           Z            1.00000   0.00000   0.00000
 This molecule is an asymmetric top.
 Rotational symmetry number  2.
 Warning -- assumption of classical behavior for rotation
           may cause significant error
 Rotational temperatures (Kelvin)      0.09395     0.09395     0.08875
 Rotational constants (GHZ):           1.95762     1.95760     1.84933
 Zero-point vibrational energy      16318.8 (Joules/Mol)
                                    3.90028 (Kcal/Mol)
 Warning -- explicit consideration of   9 degrees of freedom as
           vibrations may cause significant error
 Vibrational temperatures:    125.28   183.45   333.55   449.40   491.49
          (Kelvin)            530.06   556.41   571.90   683.85
 
 Zero-point correction=                           0.006215 (Hartree/Particle)
 Thermal correction to Energy=                    0.012998
 Thermal correction to Enthalpy=                  0.013942
 Thermal correction to Gibbs Free Energy=        -0.025897
 Sum of electronic and zero-point Energies=          -1444.256248
 Sum of electronic and thermal Energies=             -1444.249466
 Sum of electronic and thermal Enthalpies=           -1444.248522
 Sum of electronic and thermal Free Energies=        -1444.288361
 
                     E (Thermal)             CV                S
                      KCal/Mol        Cal/Mol-Kelvin    Cal/Mol-Kelvin
 Total                    8.156             20.696             83.848
 Electronic               0.000              0.000              1.377
 Translational            0.889              2.981             40.719
 Rotational               0.889              2.981             26.830
 Vibrational              6.379             14.735             14.921
 Vibration  1             0.601              1.958              3.725
 Vibration  2             0.611              1.926              2.983
 Vibration  3             0.653              1.792              1.865
 Vibration  4             0.701              1.650              1.350
 Vibration  5             0.721              1.592              1.205
 Vibration  6             0.741              1.537              1.086
 Vibration  7             0.755              1.499              1.013
 Vibration  8             0.764              1.476              0.972
 Vibration  9             0.832              1.305              0.723
                       Q            Log10(Q)             Ln(Q)
 Total Bot       0.815832D+12         11.911601         27.427474
 Total V=0       0.589551D+15         14.770522         34.010383
 Vib (Bot)       0.384817D-01         -1.414746         -3.257572
 Vib (Bot)  1    0.236244D+01          0.373360          0.859694
 Vib (Bot)  2    0.159984D+01          0.204076          0.469902
 Vib (Bot)  3    0.848895D+00         -0.071146         -0.163819
 Vib (Bot)  4    0.604565D+00         -0.218557         -0.503246
 Vib (Bot)  5    0.543019D+00         -0.265185         -0.610611
 Vib (Bot)  6    0.494709D+00         -0.305650         -0.703785
 Vib (Bot)  7    0.465324D+00         -0.332244         -0.765021
 Vib (Bot)  8    0.449226D+00         -0.347535         -0.800228
 Vib (Bot)  9    0.353294D+00         -0.451864         -1.040456
 Vib (V=0)       0.278084D+02          1.444175          3.325337
 Vib (V=0)  1    0.291477D+01          0.464604          1.069791
 Vib (V=0)  2    0.217615D+01          0.337689          0.777557
 Vib (V=0)  3    0.148520D+01          0.171786          0.395551
 Vib (V=0)  4    0.128454D+01          0.108747          0.250398
 Vib (V=0)  5    0.123815D+01          0.092774          0.213621
 Vib (V=0)  6    0.120338D+01          0.080401          0.185130
 Vib (V=0)  7    0.118303D+01          0.072995          0.168077
 Vib (V=0)  8    0.117216D+01          0.068988          0.158852
 Vib (V=0)  9    0.111222D+01          0.046192          0.106360
 Electronic      0.200000D+01          0.301030          0.693147
 Translational   0.650295D+08          7.813110         17.990351
 Rotational      0.163007D+06          5.212206         12.001548
 ***** Axes restored to original set *****
 -------------------------------------------------------------------
 Center     Atomic                   Forces (Hartrees/Bohr)
 Number     Number              X              Y              Z
 -------------------------------------------------------------------
    1         14           0.000000000    0.012866446   -0.007703025
    2         14           0.000000000   -0.012866446   -0.007703025
    3         14           0.000000000    0.000000000   -0.017000457
    4         14           0.010452087    0.000000000    0.016203254
    5         14          -0.010452087    0.000000000    0.016203254
 -------------------------------------------------------------------
 Cartesian Forces:  Max     0.017000457 RMS     0.009941035
 ------------------------------------------------------------------------
           Internal Coordinate Forces (Hartree/Bohr or radian)
 Cent Atom N1     Length/X     N2     Alpha/Y      N3      Beta/Z       J
 ------------------------------------------------------------------------
   1  Si        0.000000(   1)      0.012866(   6)     -0.007703(  11)
   2  Si        0.000000(   2)     -0.012866(   7)     -0.007703(  12)
   3  Si        0.000000(   3)      0.000000(   8)     -0.017000(  13)
   4  Si        0.010452(   4)      0.000000(   9)      0.016203(  14)
   5  Si       -0.010452(   5)      0.000000(  10)      0.016203(  15)
 ------------------------------------------------------------------------
 Internal  Forces:  Max     0.017000457 RMS     0.009941035

 GradGradGradGradGradGradGradGradGradGradGradGradGradGradGradGradGradGrad
 Berny optimization.
 Search for a local minimum.
 Step number   1 out of a maximum of   2
 All quantities printed in internal units (Hartrees-Bohrs-Radians)
 Second derivative matrix not updated -- analytic derivatives used.
 The second derivative matrix:
                          X1        Y1        Z1        X2        Y2
           X1           0.05144
           Y1           0.00000   0.08454
           Z1           0.00000  -0.05245   0.03708
           X2          -0.00426   0.00000   0.00000   0.05144
           Y2           0.00000  -0.01363  -0.00143   0.00000   0.08454
           Z2           0.00000   0.00143  -0.00150   0.00000   0.05245
           X3           0.00267   0.00000   0.00000   0.00267   0.00000
           Y3           0.00000  -0.00893   0.01024   0.00000  -0.00893
           Z3           0.00000   0.00959   0.00109   0.00000  -0.00959
           X4          -0.02493   0.03634  -0.01696  -0.02493  -0.03634
           Y4           0.03184  -0.03099   0.02182  -0.03184  -0.03099
           Z4          -0.01420   0.02072  -0.01833  -0.01420  -0.02072
           X5          -0.02493  -0.03634   0.01696  -0.02493   0.03634
           Y5          -0.03184  -0.03099   0.02182   0.03184  -0.03099
           Z5           0.01420   0.02072  -0.01833   0.01420  -0.02072
                          Z2        X3        Y3        Z3        X4
           Z2           0.03708
           X3           0.00000   0.06161
           Y3          -0.01024   0.00000   0.01379
           Z3           0.00109   0.00000   0.00000   0.08681
           X4          -0.01696  -0.03347   0.00000   0.02211   0.12204
           Y4          -0.02182   0.00000   0.00204   0.00000   0.00000
           Z4          -0.01833   0.03303   0.00000  -0.04449   0.00359
           X5           0.01696  -0.03347   0.00000  -0.02211  -0.03871
           Y5          -0.02182   0.00000   0.00204   0.00000   0.00000
           Z5          -0.01833  -0.03303   0.00000  -0.04449   0.00823
                          Y4        Z4        X5        Y5        Z5
           Y4           0.06186
           Z4           0.00000   0.06761
           X5           0.00000  -0.00823   0.12204
           Y5          -0.00192   0.00000   0.00000   0.06186
           Z5           0.00000   0.01354  -0.00359   0.00000   0.06761
     Eigenvalues ---    0.00803   0.01721   0.05690   0.10329   0.12355
     Eigenvalues ---    0.14370   0.15834   0.16728   0.23918
 Quadratic step=3.223D-01 exceeds max=3.000D-01 adjusted using Lamda=-1.031D-03.
 Angle between NR and scaled steps=   3.26 degrees.
 Angle between quadratic step and forces=  45.22 degrees.
 Linear search not attempted -- first point.
 TrRot=  0.000000  0.000000  0.000001  0.000000  0.000000  0.000000
 Variable       Old X    -DE/DX   Delta X   Delta X   Delta X     New X
                                 (Linear)    (Quad)   (Total)
    X1        0.00000   0.00000   0.00000   0.00000   0.00000   0.00000
    Y1        2.95304   0.01287   0.00000   0.13166   0.13166   3.08469
    Z1       -1.70512  -0.00770   0.00000   0.06032   0.06032  -1.64481
    X2        0.00000   0.00000   0.00000   0.00000   0.00000   0.00000
    Y2       -2.95304  -0.01287   0.00000  -0.13166  -0.13166  -3.08469
    Z2       -1.70512  -0.00770   0.00000   0.06032   0.06032  -1.64481
    X3        0.00000   0.00000   0.00000   0.00000   0.00000   0.00000
    Y3        0.00000   0.00000   0.00000   0.00000   0.00000   0.00000
    Z3        3.40973  -0.01700   0.00000  -0.20343  -0.20343   3.20630
    X4        2.78492   0.01045   0.00000   0.04289   0.04289   2.82781
    Y4        0.00000   0.00000   0.00000   0.00000   0.00000   0.00000
    Z4        0.00026   0.01620   0.00000   0.04140   0.04140   0.04166
    X5       -2.78492  -0.01045   0.00000  -0.04289  -0.04289  -2.82781
    Y5        0.00000   0.00000   0.00000   0.00000   0.00000   0.00000
    Z5        0.00026   0.01620   0.00000   0.04140   0.04140   0.04166
         Item               Value     Threshold  Converged?
 Maximum Force            0.017000     0.000450     NO 
 RMS     Force            0.009941     0.000300     NO 
 Maximum Displacement     0.203430     0.001800     NO 
 RMS     Displacement     0.077646     0.001200     NO 
 Predicted change in Energy=-4.124243D-03
 GradGradGradGradGradGradGradGradGradGradGradGradGradGradGradGradGradGrad

 1\1\GINC-NODE39\Freq\UHF\6-311G(d)\Si5(1+,2)\TAM\17-Jun-2011\0\\# hf/6
 -311G(d) freq scfcyc=500 scf=xqc\\si5-c\\1,2\Si,0.,1.562679,-0.902312\
 Si,0.,-1.562679,-0.902312\Si,0.,0.,1.804353\Si,1.473715,0.,0.000136\Si
 ,-1.473715,0.,0.000136\\Version=AM64L-G03RevE.01\State=2-A1\HF=-1444.2
 624639\S2=1.473872\S2-1=0.\S2A=1.151016\RMSD=3.349e-06\RMSF=9.941e-03\
 ZeroPoint=0.0062155\Thermal=0.0129979\Dipole=0.,0.,0.0973383\DipoleDer
 iv=0.520022,0.0000075,0.,-0.0000013,0.6195534,-0.1174378,0.0000008,-0.
 2402211,0.2057795,0.5200222,-0.0000075,-0.0000012,-0.0000021,0.6195629
 ,0.1174408,-0.0000009,0.2402392,0.2057837,0.4121253,-0.0000057,-0.0000
 036,-0.0000014,0.2321473,-0.0000099,-0.0000004,0.0000154,-0.4463152,-0
 .2260856,0.0000022,-0.1847049,0.0000026,-0.2356269,0.0000089,-0.083597
 3,-0.0000172,0.5173709,-0.226087,-0.0000039,0.1847088,0.0000026,-0.235
 6365,-0.0000136,0.0835959,-0.0000242,0.5173743\Polar=155.4007845,-0.00
 00403,171.6882624,0.0000205,-0.0003564,155.9248587\PolarDeriv=0.000168
 6,12.223235,-0.0005012,-4.4655298,-0.0006317,-0.0003774,7.0287424,0.00
 06097,87.6855206,0.0001539,14.5427251,31.5251629,-2.6471578,-0.0005278
 ,56.3858693,-0.0001493,-12.1416422,-24.4354854,0.0000378,-12.2236274,0
 .0012932,-4.4654733,-0.0000293,0.0005099,-7.0288936,-0.0000912,-87.685
 9279,0.0001222,14.5416076,-31.5251676,-2.6473643,-0.0000452,56.3842843
 ,0.000207,12.142672,-24.4359403,-0.0001816,0.0001976,0.0008502,4.87463
 7,0.0006586,-0.0001239,0.0002284,0.0000899,0.0039622,0.0000716,-11.102
 8452,0.0014784,2.3798156,0.0002675,66.8015784,0.0002314,0.0003143,-21.
 5870467,25.3068213,0.000345,6.2043277,2.0281648,0.0005731,-12.9339031,
 -0.0002373,10.0331947,-0.0028394,-0.0002482,-8.990736,-0.0015943,1.457
 2696,0.0008068,-89.7833087,5.6224811,-0.0006994,35.2299513,-25.3069556
 ,-0.00012,-6.205238,2.0284031,0.0001514,12.9340631,0.0003055,-10.03381
 54,0.0032573,-0.0000133,-8.9900195,0.0011097,1.4574988,-0.0005241,-89.
 7836841,-5.6226014,-0.0002201,35.2300125\HyperPolar=-0.0009313,-0.0065
 021,0.0028247,-0.4332454,-48.296312,-0.0061899,2427.2409608,0.0049851,
 -0.0167793,-4564.7780521\PG=C02V [C2(Si1),SGV(Si2),SGV'(Si2)]\NImag=0\
 \0.05144248,-0.00000001,0.08454337,-0.00000012,-0.05244746,0.03707813,
 -0.00425744,0.00000015,0.00000005,0.05144248,0.00000015,-0.01363232,-0
 .00142578,-0.00000001,0.08454337,-0.00000005,0.00142578,-0.00150237,0.
 00000012,0.05244746,0.03707813,0.00266972,0.00000003,0.00000005,0.0026
 6951,0.00000016,0.00000015,0.06160845,-0.00000032,-0.00893315,0.010242
 20,0.00000007,-0.00893328,-0.01024259,0.00000016,0.01379157,0.00000003
 ,0.00958539,0.00108501,-0.00000026,-0.00958505,0.00108509,-0.00000029,
 -0.00000055,0.08680592,-0.02492738,0.03633781,-0.01696317,-0.02492758,
 -0.03633794,-0.01696327,-0.03347391,0.00000007,0.02211101,0.12203550,0
 .03184159,-0.03098910,0.02181567,-0.03184163,-0.03098881,-0.02181527,-
 0.00000016,0.00203730,0.00000038,0.00000001,0.06185747,-0.01419574,0.0
 2071808,-0.01833027,-0.01419562,-0.02071846,-0.01833067,0.03302573,0.0
 0000059,-0.04448835,0.00359057,-0.00000043,0.06760698,-0.02492758,-0.0
 3633794,0.01696327,-0.02492738,0.03633781,0.01696317,-0.03347397,0.000
 00024,-0.02211062,-0.03870620,-0.00000003,-0.00822506,0.12203550,-0.03
 184163,-0.03098881,0.02181527,0.03184159,-0.03098910,-0.02181567,-0.00
 000016,0.00203757,-0.00000093,-0.00000003,-0.00191693,0.00000075,0.000
 00001,0.06185747,0.01419562,0.02071846,-0.01833067,0.01419574,-0.02071
 808,-0.01833027,-0.03302580,0.00000057,-0.04448809,0.00822506,-0.00000
 075,0.01354252,-0.00359057,0.00000043,0.06760698\\0.,-0.01286645,0.007
 70303,0.,0.01286645,0.00770303,0.,0.,0.01700046,-0.01045209,0.,-0.0162
 0325,0.01045209,0.,-0.01620325\\\@


 WHEN HAVING A MEETING OF THE MINDS,
 MAKE SURE YOU HAVE THE EQUIPMENT FOR IT.
 Job cpu time:  0 days  0 hours  5 minutes 57.8 seconds.
 File lengths (MBytes):  RWF=     41 Int=      0 D2E=      0 Chk=      8 Scr=      1
 Normal termination of Gaussian 03 at Fri Jun 17 16:16:11 2011.
 Initial command:
 /usr/local/chem/g03E01/l1.exe /temp0/tam/Gau-27849.inp -scrdir=/temp0/tam/
 Entering Link 1 = /usr/local/chem/g03E01/l1.exe PID=     27922.
  
 Copyright (c) 1988,1990,1992,1993,1995,1998,2003,2004,2007, Gaussian, Inc.
                  All Rights Reserved.
  
 This is the Gaussian(R) 03 program.  It is based on the
 the Gaussian(R) 98 system (copyright 1998, Gaussian, Inc.),
 the Gaussian(R) 94 system (copyright 1995, Gaussian, Inc.),
 the Gaussian 92(TM) system (copyright 1992, Gaussian, Inc.),
 the Gaussian 90(TM) system (copyright 1990, Gaussian, Inc.),
 the Gaussian 88(TM) system (copyright 1988, Gaussian, Inc.),
 the Gaussian 86(TM) system (copyright 1986, Carnegie Mellon
 University), and the Gaussian 82(TM) system (copyright 1983,
 Carnegie Mellon University). Gaussian is a federally registered
 trademark of Gaussian, Inc.
  
 This software contains proprietary and confidential information,
 including trade secrets, belonging to Gaussian, Inc.
  
 This software is provided under written license and may be
 used, copied, transmitted, or stored only in accord with that
 written license.
  
 The following legend is applicable only to US Government
 contracts under FAR:
  
                    RESTRICTED RIGHTS LEGEND
  
 Use, reproduction and disclosure by the US Government is
 subject to restrictions as set forth in subparagraphs (a)
 and (c) of the Commercial Computer Software - Restricted
 Rights clause in FAR 52.227-19.
  
 Gaussian, Inc.
 340 Quinnipiac St., Bldg. 40, Wallingford CT 06492
  
  
 ---------------------------------------------------------------
 Warning -- This program may not be used in any manner that
 competes with the business of Gaussian, Inc. or will provide
 assistance to any competitor of Gaussian, Inc.  The licensee
 of this program is prohibited from giving any competitor of
 Gaussian, Inc. access to this program.  By using this program,
 the user acknowledges that Gaussian, Inc. is engaged in the
 business of creating and licensing software in the field of
 computational chemistry and represents and warrants to the
 licensee that it is not a competitor of Gaussian, Inc. and that
 it will not use this program in any manner prohibited above.
 ---------------------------------------------------------------
  

 Cite this work as:
 Gaussian 03, Revision E.01,
 M. J. Frisch, G. W. Trucks, H. B. Schlegel, G. E. Scuseria, 
 M. A. Robb, J. R. Cheeseman, J. A. Montgomery, Jr., T. Vreven, 
 K. N. Kudin, J. C. Burant, J. M. Millam, S. S. Iyengar, J. Tomasi, 
 V. Barone, B. Mennucci, M. Cossi, G. Scalmani, N. Rega, 
 G. A. Petersson, H. Nakatsuji, M. Hada, M. Ehara, K. Toyota, 
 R. Fukuda, J. Hasegawa, M. Ishida, T. Nakajima, Y. Honda, O. Kitao, 
 H. Nakai, M. Klene, X. Li, J. E. Knox, H. P. Hratchian, J. B. Cross, 
 V. Bakken, C. Adamo, J. Jaramillo, R. Gomperts, R. E. Stratmann, 
 O. Yazyev, A. J. Austin, R. Cammi, C. Pomelli, J. W. Ochterski, 
 P. Y. Ayala, K. Morokuma, G. A. Voth, P. Salvador, J. J. Dannenberg, 
 V. G. Zakrzewski, S. Dapprich, A. D. Daniels, M. C. Strain, 
 O. Farkas, D. K. Malick, A. D. Rabuck, K. Raghavachari, 
 J. B. Foresman, J. V. Ortiz, Q. Cui, A. G. Baboul, S. Clifford, 
 J. Cioslowski, B. B. Stefanov, G. Liu, A. Liashenko, P. Piskorz, 
 I. Komaromi, R. L. Martin, D. J. Fox, T. Keith, M. A. Al-Laham, 
 C. Y. Peng, A. Nanayakkara, M. Challacombe, P. M. W. Gill, 
 B. Johnson, W. Chen, M. W. Wong, C. Gonzalez, and J. A. Pople, 
 Gaussian, Inc., Wallingford CT, 2004.
 
 ******************************************
 Gaussian 03:  AM64L-G03RevE.01 11-Sep-2007
                17-Jun-2011 
 ******************************************
 %NprocShared=4
 Will use up to    4 processors via shared memory.
 %mem=3750MB
 %chk=S9L-ne-d-01
 ----------------------------------------------------------------------
 # b3lyp/6-311+G(d) opt=(readfc,noeigentest,maxcycle=500) freq scfcyc=5
 00 optcyc=500 scf=xqc geom=allcheck guess=read
 ----------------------------------------------------------------------
 1/6=500,10=3,11=1,14=-1,18=20,26=3,29=7,38=1/1,3;
 2/9=110,40=1/2;
 3/5=4,6=6,7=11,11=2,16=1,25=1,30=1,74=-5/1,2,3;
 4/5=1/1;
 5/5=2,7=500,8=3,13=1,38=6/2,8;
 6/7=2,8=2,9=2,10=2,28=1/1;
 7//1,2,3,16;
 1/6=500,11=1,14=-1,18=20/3(3);
 2/9=110/2;
 6/7=2,8=2,9=2,10=2,19=2,28=1/1;
 99//99;
 2/9=110/2;
 3/5=4,6=6,7=11,11=2,16=1,25=1,30=1,74=-5/1,2,3;
 4/5=5,16=3/1;
 5/5=2,7=500,8=3,13=1,38=5/2,8;
 7//1,2,3,16;
 1/6=500,11=1,14=-1,18=20/3(-5);
 2/9=110/2;
 6/7=2,8=2,9=2,10=2,19=2,28=1/1;
 99/9=1/99;
 -----
 si5-c
 -----
 No Z-matrix found on checkpoint file.
 Cartesian coordinates read from the checkpoint file:
 S9L-ne-d-01.chk
 Charge =  1 Multiplicity = 2
  Si                                                0.000000000000      1.562679000000     -0.902312000000
  Si                                                0.000000000000     -1.562679000000     -0.902312000000
  Si                                                0.000000000000      0.000000000000      1.804353000000
  Si                                                1.473715000000      0.000000000000      0.000136000000
  Si                                               -1.473715000000      0.000000000000      0.000136000000
 Recover connectivity data from disk.

 GradGradGradGradGradGradGradGradGradGradGradGradGradGradGradGradGradGrad
 Berny optimization.
 Initialization pass.
 No redundant coordinates on chk file, so ReadFC converted to ReadCartesianFC.
 Cartesian force constants read from checkpoint file:
 S9L-ne-d-01.chk
                           ----------------------------
                           !    Initial Parameters    !
                           ! (Angstroms and Degrees)  !
 --------------------------                            --------------------------
 ! Name  Definition              Value          Derivative Info.                !
 --------------------------------------------------------------------------------
 ! R1    R(1,4)                  2.3299         D2E/DX2 =    0.067              !
 ! R2    R(1,5)                  2.3299         D2E/DX2 =    0.067              !
 ! R3    R(2,4)                  2.3299         D2E/DX2 =    0.067              !
 ! R4    R(2,5)                  2.3299         D2E/DX2 =    0.067              !
 ! R5    R(3,4)                  2.3296         D2E/DX2 =    0.0564             !
 ! R6    R(3,5)                  2.3296         D2E/DX2 =    0.0564             !
 ! A1    A(4,1,5)               78.4749         D2E/DX2 =    0.0161             !
 ! A2    A(4,2,5)               78.4749         D2E/DX2 =    0.0161             !
 ! A3    A(4,3,5)               78.4851         D2E/DX2 =    0.016              !
 ! A4    A(1,4,2)               84.2453         D2E/DX2 =    0.0111             !
 ! A5    A(1,4,3)               84.2517         D2E/DX2 =    0.0134             !
 ! A6    A(2,4,3)               84.2517         D2E/DX2 =    0.0134             !
 ! A7    A(1,5,2)               84.2453         D2E/DX2 =    0.0111             !
 ! A8    A(1,5,3)               84.2517         D2E/DX2 =    0.0134             !
 ! A9    A(2,5,3)               84.2517         D2E/DX2 =    0.0134             !
 ! D1    D(5,1,4,2)             42.3959         D2E/DX2 =    0.0056             !
 ! D2    D(5,1,4,3)            -42.3813         D2E/DX2 =    0.0061             !
 ! D3    D(4,1,5,2)            -42.3959         D2E/DX2 =    0.0056             !
 ! D4    D(4,1,5,3)             42.3813         D2E/DX2 =    0.0061             !
 ! D5    D(5,2,4,1)            -42.3959         D2E/DX2 =    0.0056             !
 ! D6    D(5,2,4,3)             42.3813         D2E/DX2 =    0.0061             !
 ! D7    D(4,2,5,1)             42.3959         D2E/DX2 =    0.0056             !
 ! D8    D(4,2,5,3)            -42.3813         D2E/DX2 =    0.0061             !
 ! D9    D(5,3,4,1)             42.3851         D2E/DX2 =    0.0047             !
 ! D10   D(5,3,4,2)            -42.3851         D2E/DX2 =    0.0047             !
 ! D11   D(4,3,5,1)            -42.3851         D2E/DX2 =    0.0047             !
 ! D12   D(4,3,5,2)             42.3851         D2E/DX2 =    0.0047             !
 --------------------------------------------------------------------------------
 Trust Radius=3.00D-01 FncErr=1.00D-07 GrdErr=1.00D-06
 Number of steps in this run= 100 maximum allowed number of steps= 100.
 GradGradGradGradGradGradGradGradGradGradGradGradGradGradGradGradGradGrad

                          Input orientation:                          
 ---------------------------------------------------------------------
 Center     Atomic     Atomic              Coordinates (Angstroms)
 Number     Number      Type              X           Y           Z
 ---------------------------------------------------------------------
    1         14             0        0.000000    1.562679   -0.902312
    2         14             0        0.000000   -1.562679   -0.902312
    3         14             0        0.000000    0.000000    1.804353
    4         14             0        1.473715    0.000000    0.000136
    5         14             0       -1.473715    0.000000    0.000136
 ---------------------------------------------------------------------
                    Distance matrix (angstroms):
                    1          2          3          4          5
     1  Si   0.000000
     2  Si   3.125358   0.000000
     3  Si   3.125380   3.125380   0.000000
     4  Si   2.329853   2.329853   2.329600   0.000000
     5  Si   2.329853   2.329853   2.329600   2.947430   0.000000
 Stoichiometry    Si5(1+,2)
 Framework group  C2V[C2(Si),SGV(Si2),SGV'(Si2)]
 Deg. of freedom     4
 Full point group                 C2V
 Largest Abelian subgroup         C2V     NOp   4
 Largest concise Abelian subgroup C2V     NOp   4
                         Standard orientation:                         
 ---------------------------------------------------------------------
 Center     Atomic     Atomic              Coordinates (Angstroms)
 Number     Number      Type              X           Y           Z
 ---------------------------------------------------------------------
    1         14             0        0.000000    1.562679   -0.902312
    2         14             0        0.000000   -1.562679   -0.902312
    3         14             0        0.000000    0.000000    1.804353
    4         14             0        1.473715    0.000000    0.000136
    5         14             0       -1.473715    0.000000    0.000136
 ---------------------------------------------------------------------
 Rotational constants (GHZ):      1.9576194      1.9575998      1.8493262
 Standard basis: 6-311+G(d) (5D, 7F)
 There are    59 symmetry adapted basis functions of A1  symmetry.
 There are    17 symmetry adapted basis functions of A2  symmetry.
 There are    37 symmetry adapted basis functions of B1  symmetry.
 There are    37 symmetry adapted basis functions of B2  symmetry.
 Integral buffers will be    131072 words long.
 Raffenetti 2 integral format.
 Two-electron integral symmetry is turned on.
   150 basis functions,   250 primitive gaussians,   155 cartesian basis functions
    35 alpha electrons       34 beta electrons
       nuclear repulsion energy       401.8610711608 Hartrees.
 NAtoms=    5 NActive=    5 NUniq=    3 SFac= 2.08D+00 NAtFMM=   80 NAOKFM=F Big=F
 One-electron integrals computed using PRISM.
 NBasis=   150 RedAO= T  NBF=    59    17    37    37
 NBsUse=   150 1.00D-06 NBFU=    59    17    37    37
 Initial guess read from the checkpoint file:
 S9L-ne-d-01.chk
 Initial guess orbital symmetries:
 Alpha Orbitals:
       Occupied  (A1) (A1) (B2) (A1) (B1) (A1) (A1) (B2) (A1) (B1)
                 (A1) (B2) (A1) (B2) (B1) (A2) (B1) (A1) (B2) (A1)
                 (B1) (A1) (B1) (A2) (B2) (A1) (A1) (B1) (B2) (A1)
                 (B1) (A2) (A1) (A1) (B2)
       Virtual   (B2) (B1) (A1) (B2) (B1) (A1) (B2) (B1) (A2) (A1)
                 (A1) (B1) (A2) (A1) (B2) (A1) (B2) (B1) (B2) (A1)
                 (B1) (A1) (B2) (B1) (A2) (A1) (B2) (A1) (A1) (A1)
                 (B1) (B2) (A2) (B1) (B1) (A2) (A1) (A1) (B2) (A2)
                 (B2) (A1) (B2) (B1) (A2) (B1) (A1) (A1) (B2) (B1)
                 (A1) (A1) (B2) (B1) (A2) (B2) (A1) (A1) (B2) (B1)
                 (B1) (A2) (A1) (B2) (B1) (A2) (A1) (A1) (B1) (B2)
                 (A1) (A1) (B2) (B1) (A1) (B2) (A1) (A1) (B1) (A1)
                 (B2) (B1) (B2) (A2) (B1) (A2) (A1) (B1) (A1) (B2)
                 (A1) (A1) (B2) (B1) (A1) (A1) (A1) (A1) (A1) (A1)
                 (A1) (A1) (A1) (A2) (A2) (B1) (B1) (B1) (B1) (B1)
                 (B2) (B2) (B2) (B2) (B2)
 Beta  Orbitals:
       Occupied  (B2) (A1) (A1) (A1) (B1) (B2) (A1) (A1) (A1) (B1)
                 (A1) (B2) (A2) (B1) (A1) (B2) (B1) (A1) (B2) (A1)
                 (B1) (B2) (A2) (A1) (B1) (A1) (B2) (B1) (A1) (A1)
                 (A2) (B1) (B2) (A1)
       Virtual   (A1) (B1) (A1) (B2) (B2) (B1) (B2) (A1) (A2) (B1)
                 (A1) (A1) (A2) (B1) (B2) (A1) (A1) (B2) (B1) (B2)
                 (A1) (B1) (B2) (A1) (A2) (B1) (A1) (A1) (B2) (A1)
                 (B2) (B1) (A1) (B1) (A2) (A2) (B1) (A1) (B2) (A1)
                 (A2) (B2) (B2) (A1) (B1) (B1) (A2) (A1) (A1) (B2)
                 (B1) (A1) (B2) (A1) (A2) (B1) (A1) (B2) (A1) (B1)
                 (B2) (A2) (B1) (B2) (A1) (A2) (B1) (A1) (B2) (B1)
                 (A1) (A1) (B2) (A1) (B1) (A1) (A1) (B2) (A1) (B1)
                 (B2) (A1) (A2) (B1) (B2) (A2) (B1) (A1) (B1) (B2)
                 (A1) (A1) (B2) (A1) (B1) (A1) (A1) (A1) (A1) (A1)
                 (A1) (A1) (A1) (A1) (A2) (A2) (B1) (B1) (B1) (B1)
                 (B1) (B2) (B2) (B2) (B2) (B2)
 <S**2> of initial guess= 1.4739
 Requested convergence on RMS density matrix=1.00D-08 within 128 cycles.
 Requested convergence on MAX density matrix=1.00D-06.
 Requested convergence on             energy=1.00D-06.
 No special actions if energy rises.
 Keep R1 and R2 integrals in memory in canonical form, NReq=   149042462.
 SCF Done:  E(UB+HF-LYP) =  -1447.19206135     A.U. after   17 cycles
             Convg  =    0.8962D-08             -V/T =  2.0016
             S**2   =   0.7678
 Annihilation of the first spin contaminant:
 S**2 before annihilation     0.7678,   after     0.7501
 QCSCF skips out because SCF is already converged.

 **********************************************************************

            Population analysis using the SCF density.

 **********************************************************************

 Orbital symmetries:
 Alpha Orbitals:
       Occupied  (A1) (A1) (B2) (A1) (B1) (A1) (A1) (B2) (A1) (B1)
                 (A1) (B2) (A1) (B2) (B1) (A1) (B2) (B1) (A2) (A1)
                 (B1) (A1) (B1) (B2) (A2) (A1) (A1) (B2) (B1) (A1)
                 (B1) (A2) (A1) (A1) (B2)
       Virtual   (B2) (A1) (B1) (B2) (B1) (A1) (B2) (B1) (A2) (A1)
                 (A1) (B1) (A2) (B2) (A1) (A1) (A1) (B2) (B1) (B2)
                 (B1) (A1) (B2) (B1) (A2) (A1) (A1) (B2) (B1) (A1)
                 (B1) (A2) (A1) (A1) (B2) (A1) (B1) (B2) (B2) (A1)
                 (B2) (B1) (A1) (B1) (A2) (A1) (B2) (A1) (B1) (A2)
                 (A1) (A1) (B2) (B1) (A2) (B1) (B2) (A2) (A1) (B2)
                 (A1) (A1) (B2) (B1) (A2) (B1) (A1) (A1) (B2) (B1)
                 (A1) (A1) (B2) (B1) (A2) (A1) (B2) (A1) (B2) (B1)
                 (B1) (A2) (A1) (B2) (A1) (B1) (A2) (A1) (B2) (B1)
                 (A1) (B2) (A1) (B1) (A1) (A1) (B2) (A1) (B1) (A2)
                 (B1) (B2) (A1) (B2) (B1) (A2) (A1) (A1) (B2) (B1)
                 (A1) (B2) (A1) (B1) (A1)
 Beta  Orbitals:
       Occupied  (A1) (A1) (B2) (A1) (B1) (A1) (A1) (B2) (A1) (B1)
                 (B2) (A1) (B1) (A1) (B2) (A1) (B2) (B1) (A2) (A1)
                 (B1) (A1) (B1) (B2) (A2) (A1) (B2) (B1) (A1) (A1)
                 (A2) (A1) (B1) (B2)
       Virtual   (A1) (B1) (B2) (A1) (B2) (B1) (B2) (A1) (A2) (B1)
                 (A1) (A1) (B1) (A2) (B2) (A1) (A1) (A1) (B2) (B1)
                 (B2) (B1) (A1) (B2) (B1) (A2) (A1) (B2) (A1) (B1)
                 (A1) (A2) (B1) (A1) (B2) (A1) (B1) (B2) (A1) (B2)
                 (B2) (A1) (B1) (A1) (B1) (A2) (B2) (A1) (A1) (A2)
                 (B1) (A1) (B2) (A1) (A2) (B1) (B1) (A1) (B2) (A2)
                 (A1) (B2) (B2) (A1) (A2) (B1) (B1) (A1) (A1) (B2)
                 (B1) (A1) (B2) (A1) (A2) (B1) (B2) (A1) (A1) (B2)
                 (B1) (A2) (B1) (A1) (B2) (A1) (B1) (A2) (B2) (A1)
                 (B1) (A1) (B2) (A1) (B1) (A1) (B2) (A1) (A1) (B1)
                 (A2) (B1) (B2) (A1) (B2) (B1) (A2) (A1) (A1) (B2)
                 (B1) (A1) (B2) (A1) (B1) (A1)
 The electronic state is 2-A1.
 Alpha  occ. eigenvalues --  -66.32901 -66.32358 -66.32358 -66.29509 -66.29509
 Alpha  occ. eigenvalues --   -5.49618  -5.49143  -5.49141  -5.46695  -5.46691
 Alpha  occ. eigenvalues --   -3.85588  -3.85469  -3.85281  -3.85280  -3.85132
 Alpha  occ. eigenvalues --   -3.84778  -3.84777  -3.84628  -3.84628  -3.82630
 Alpha  occ. eigenvalues --   -3.82626  -3.82427  -3.82427  -3.82285  -3.82285
 Alpha  occ. eigenvalues --   -0.83304  -0.65625  -0.65517  -0.64795  -0.49459
 Alpha  occ. eigenvalues --   -0.44383  -0.44240  -0.44196  -0.43252  -0.41476
 Alpha virt. eigenvalues --   -0.29067  -0.28778  -0.28754  -0.25107  -0.18242
 Alpha virt. eigenvalues --   -0.16405  -0.16314  -0.15478  -0.14732  -0.12710
 Alpha virt. eigenvalues --   -0.10012  -0.07870  -0.07817  -0.07144  -0.07123
 Alpha virt. eigenvalues --   -0.06873  -0.06400  -0.06113  -0.05857  -0.02124
 Alpha virt. eigenvalues --   -0.01573  -0.01420  -0.01338  -0.00481  -0.00368
 Alpha virt. eigenvalues --    0.00179   0.00270   0.00358   0.02486   0.02544
 Alpha virt. eigenvalues --    0.06541   0.06582   0.08920   0.09806   0.10112
 Alpha virt. eigenvalues --    0.12745   0.12754   0.12941   0.15529   0.17263
 Alpha virt. eigenvalues --    0.17704   0.18240   0.18525   0.19478   0.19534
 Alpha virt. eigenvalues --    0.22609   0.22616   0.23952   0.29827   0.30054
 Alpha virt. eigenvalues --    0.31737   0.34934   0.35351   0.35595   0.36236
 Alpha virt. eigenvalues --    0.36585   0.38895   0.39233   0.39280   0.48594
 Alpha virt. eigenvalues --    0.49548   0.53659   0.53889   0.55200   0.55419
 Alpha virt. eigenvalues --    0.56245   0.59705   0.60089   0.60333   0.70074
 Alpha virt. eigenvalues --    0.71246   0.77471   0.77625   0.81942   0.82075
 Alpha virt. eigenvalues --    1.01386   1.01909   1.05887   1.09770   1.11312
 Alpha virt. eigenvalues --    1.11719   1.11783   1.14035   1.14468   1.19233
 Alpha virt. eigenvalues --    1.19794   1.20281   1.28037   1.28337   1.30071
 Alpha virt. eigenvalues --    5.20743   5.21058   5.21498   5.22765   5.38605
 Alpha virt. eigenvalues --   11.06336  11.06423  11.08236  11.12221  11.12621
 Alpha virt. eigenvalues --   11.12686  11.12941  11.13093  11.13269  11.17762
 Alpha virt. eigenvalues --   11.17950  11.24092  11.26827  11.27127  11.27724
 Alpha virt. eigenvalues --  140.63795 140.64182 140.66309 140.66986 140.83607
  Beta  occ. eigenvalues --  -66.32715 -66.32264 -66.32264 -66.29483 -66.29483
  Beta  occ. eigenvalues --   -5.49402  -5.49038  -5.49037  -5.46670  -5.46666
  Beta  occ. eigenvalues --   -3.85312  -3.85132  -3.85001  -3.84980  -3.84979
  Beta  occ. eigenvalues --   -3.84731  -3.84730  -3.84569  -3.84569  -3.82623
  Beta  occ. eigenvalues --   -3.82620  -3.82310  -3.82310  -3.82284  -3.82284
  Beta  occ. eigenvalues --   -0.82580  -0.64533  -0.64444  -0.64295  -0.47747
  Beta  occ. eigenvalues --   -0.44044  -0.43869  -0.43832  -0.41275
  Beta virt. eigenvalues --   -0.36631  -0.28619  -0.27709  -0.27485  -0.23442
  Beta virt. eigenvalues --   -0.17803  -0.16103  -0.16039  -0.14625  -0.14376
  Beta virt. eigenvalues --   -0.11839  -0.09874  -0.07807  -0.07806  -0.07041
  Beta virt. eigenvalues --   -0.06849  -0.06780  -0.06137  -0.06075  -0.05770
  Beta virt. eigenvalues --   -0.01995  -0.01523  -0.01245  -0.01238  -0.00366
  Beta virt. eigenvalues --   -0.00346   0.00367   0.00582   0.00607   0.02579
  Beta virt. eigenvalues --    0.02677   0.06638   0.06729   0.09014   0.10334
  Beta virt. eigenvalues --    0.10339   0.12799   0.13122   0.13330   0.15947
  Beta virt. eigenvalues --    0.17917   0.17997   0.18387   0.19001   0.19661
  Beta virt. eigenvalues --    0.19725   0.23547   0.23617   0.24373   0.30529
  Beta virt. eigenvalues --    0.30531   0.32096   0.35805   0.35868   0.36351
  Beta virt. eigenvalues --    0.36488   0.36813   0.39850   0.39984   0.40052
  Beta virt. eigenvalues --    0.49885   0.49919   0.54280   0.54326   0.55895
  Beta virt. eigenvalues --    0.55930   0.56434   0.60214   0.60917   0.61015
  Beta virt. eigenvalues --    0.70411   0.71780   0.77887   0.78115   0.82200
  Beta virt. eigenvalues --    0.82421   1.02272   1.02404   1.06796   1.10422
  Beta virt. eigenvalues --    1.11747   1.11936   1.11941   1.14508   1.14590
  Beta virt. eigenvalues --    1.19363   1.20316   1.20475   1.28839   1.28878
  Beta virt. eigenvalues --    1.30300   5.21155   5.21320   5.21722   5.22844
  Beta virt. eigenvalues --    5.38775  11.06586  11.06770  11.08497  11.12382
  Beta virt. eigenvalues --   11.12686  11.12763  11.13233  11.13313  11.13373
  Beta virt. eigenvalues --   11.17919  11.17971  11.24168  11.27133  11.27263
  Beta virt. eigenvalues --   11.27756 140.63968 140.64279 140.66408 140.67010
  Beta virt. eigenvalues --  140.83658
          Condensed to atoms (all electrons):
              1          2          3          4          5
     1  Si  13.829557   0.574506   0.604854  -0.666539  -0.666539
     2  Si   0.574506  13.829557   0.604854  -0.666539  -0.666539
     3  Si   0.604854   0.604854  13.829559  -0.660138  -0.660138
     4  Si  -0.666539  -0.666539  -0.660138  14.902572   1.055312
     5  Si  -0.666539  -0.666539  -0.660138   1.055312  14.902572
 Mulliken atomic charges:
              1
     1  Si   0.324163
     2  Si   0.324163
     3  Si   0.281010
     4  Si   0.035332
     5  Si   0.035332
 Sum of Mulliken charges=   1.00000
 Atomic charges with hydrogens summed into heavy atoms:
              1
     1  Si   0.324163
     2  Si   0.324163
     3  Si   0.281010
     4  Si   0.035332
     5  Si   0.035332
 Sum of Mulliken charges=   1.00000
          Atomic-Atomic Spin Densities.
              1          2          3          4          5
     1  Si   0.235007   0.030902   0.018085  -0.001398  -0.001398
     2  Si   0.030902   0.235007   0.018085  -0.001398  -0.001398
     3  Si   0.018085   0.018085   0.405815  -0.024005  -0.024005
     4  Si  -0.001398  -0.001398  -0.024005   0.044072   0.004544
     5  Si  -0.001398  -0.001398  -0.024005   0.004544   0.044072
 Mulliken atomic spin densities:
              1
     1  Si   0.281197
     2  Si   0.281197
     3  Si   0.393975
     4  Si   0.021815
     5  Si   0.021815
 Sum of Mulliken spin densities=   1.00000
 Electronic spatial extent (au):  <R**2>=   821.2605
 Charge=     1.0000 electrons
 Dipole moment (field-independent basis, Debye):
    X=     0.0000    Y=     0.0000    Z=     0.5587  Tot=     0.5587
 Quadrupole moment (field-independent basis, Debye-Ang):
   XX=   -54.7285   YY=   -50.8250   ZZ=   -50.1356
   XY=     0.0000   XZ=     0.0000   YZ=     0.0000
 Traceless Quadrupole moment (field-independent basis, Debye-Ang):
   XX=    -2.8321   YY=     1.0714   ZZ=     1.7608
   XY=     0.0000   XZ=     0.0000   YZ=     0.0000
 Octapole moment (field-independent basis, Debye-Ang**2):
  XXX=     0.0000  YYY=     0.0000  ZZZ=    12.5035  XYY=     0.0000
  XXY=     0.0000  XXZ=    -0.1395  XZZ=     0.0000  YZZ=     0.0000
  YYZ=    -2.2067  XYZ=     0.0000
 Hexadecapole moment (field-independent basis, Debye-Ang**3):
 XXXX=  -379.9335 YYYY=  -401.6861 ZZZZ=  -394.2624 XXXY=     0.0000
 XXXZ=     0.0000 YYYX=     0.0000 YYYZ=     0.0000 ZZZX=     0.0000
 ZZZY=     0.0000 XXYY=  -144.5082 XXZZ=  -143.7946 YYZZ=  -144.7567
 XXYZ=     0.0000 YYXZ=     0.0000 ZZXY=     0.0000
 N-N= 4.018610711608D+02 E-N=-4.239575179577D+03  KE= 1.444903984049D+03
 Symmetry A1   KE= 7.661183939631D+02
 Symmetry A2   KE= 5.138587938333D+01
 Symmetry B1   KE= 3.137384791779D+02
 Symmetry B2   KE= 3.136612315244D+02
                          Isotropic Fermi Contact Couplings
        Atom                 a.u.       MegaHertz       Gauss      10(-4) cm-1
     1  Si(29)             0.12229    -108.68055     -38.77992     -36.25193
     2  Si(29)             0.12229    -108.68055     -38.77992     -36.25193
     3  Si(29)             0.45322    -402.78729    -143.72451    -134.35538
     4  Si(29)            -0.01898      16.86551       6.01803       5.62573
     5  Si(29)            -0.01898      16.86551       6.01803       5.62573
 --------------------------------------------------------
       Center         ----  Spin Dipole Couplings  ----
                      3XX-RR        3YY-RR        3ZZ-RR
 --------------------------------------------------------
     1   Atom       -0.226696      0.361026     -0.134330
     2   Atom       -0.226696      0.361026     -0.134330
     3   Atom       -0.348348     -0.272604      0.620952
     4   Atom       -0.097796     -0.121604      0.219400
     5   Atom       -0.097796     -0.121604      0.219400
 --------------------------------------------------------
                        XY            XZ            YZ
 --------------------------------------------------------
     1   Atom        0.000000      0.000000      0.398586
     2   Atom        0.000000      0.000000     -0.398586
     3   Atom        0.000000      0.000000      0.000000
     4   Atom        0.000000     -0.029921      0.000000
     5   Atom        0.000000      0.029921      0.000000
 --------------------------------------------------------


 ---------------------------------------------------------------------------------
              Anisotropic Spin Dipole Couplings in Principal Axis System
 ---------------------------------------------------------------------------------

       Atom             a.u.   MegaHertz   Gauss  10(-4) cm-1        Axes

              Baa    -0.3559    37.758    13.473    12.595  0.0000 -0.4859  0.8740
     1 Si(29) Bbb    -0.2267    24.049     8.581     8.022  1.0000  0.0000  0.0000
              Bcc     0.5826   -61.807   -22.054   -20.616  0.0000  0.8740  0.4859
 
              Baa    -0.3559    37.758    13.473    12.595  0.0000  0.4859  0.8740
     2 Si(29) Bbb    -0.2267    24.049     8.581     8.022  1.0000  0.0000  0.0000
[...]
     4   Atom        0.000000     -0.025911      0.000000
     5   Atom        0.000000      0.025911      0.000000
 --------------------------------------------------------


 ---------------------------------------------------------------------------------
              Anisotropic Spin Dipole Couplings in Principal Axis System
 ---------------------------------------------------------------------------------

       Atom             a.u.   MegaHertz   Gauss  10(-4) cm-1        Axes

              Baa    -0.3488    37.004    13.204    12.343  0.0000 -0.6586  0.7525
     1 Si(29) Bbb    -0.2022    21.445     7.652     7.153  1.0000  0.0000  0.0000
              Bcc     0.5510   -58.449   -20.856   -19.497  0.0000  0.7525  0.6586
 
              Baa    -0.3488    37.004    13.204    12.343  0.0000  0.6586  0.7525
     2 Si(29) Bbb    -0.2022    21.445     7.652     7.153  1.0000  0.0000  0.0000
              Bcc     0.5510   -58.449   -20.856   -19.497  0.0000  0.7525 -0.6586
 
              Baa    -0.4062    43.095    15.378    14.375  1.0000  0.0000  0.0000
     3 Si(29) Bbb    -0.3090    32.778    11.696    10.934  0.0000  1.0000  0.0000
              Bcc     0.7152   -75.874   -27.074   -25.309  0.0000  0.0000  1.0000
 
              Baa    -0.1103    11.699     4.174     3.902  0.0000  1.0000  0.0000
     4 Si(29) Bbb    -0.0751     7.969     2.843     2.658  0.9950  0.0000  0.1000
              Bcc     0.1854   -19.668    -7.018    -6.560 -0.1000  0.0000  0.9950
 
              Baa    -0.1103    11.699     4.174     3.902  0.0000  1.0000  0.0000
     5 Si(29) Bbb    -0.0751     7.969     2.843     2.658  0.9950  0.0000 -0.1000
              Bcc     0.1854   -19.668    -7.018    -6.560  0.1000  0.0000  0.9950
 

 ---------------------------------------------------------------------------------

 Full mass-weighted force constant matrix:
 Low frequencies ---   -3.8975    0.0021    0.0035    0.0037    2.5488    5.6251
 Low frequencies ---  134.7449  185.9558  224.1695
 Diagonal vibrational polarizability:
        0.4137669       3.5174890       0.8633370
 Harmonic frequencies (cm**-1), IR intensities (KM/Mole), Raman scattering
 activities (A**4/AMU), depolarization ratios for plane and unpolarized
 incident light, reduced masses (AMU), force constants (mDyne/A),
 and normal coordinates:
                     1                      2                      3
                    A1                     B2                     A1
 Frequencies --   134.7449               185.9558               224.1695
 Red. masses --    27.9769                27.9769                27.9769
 Frc consts  --     0.2993                 0.5700                 0.8283
 IR Inten    --     0.1009                 3.6663                 0.1814
 Atom AN      X      Y      Z        X      Y      Z        X      Y      Z
   1  14     0.00   0.40   0.45     0.00  -0.18  -0.22     0.00  -0.41   0.21
   2  14     0.00  -0.40   0.45     0.00  -0.18   0.22     0.00   0.41   0.21
   3  14     0.00   0.00  -0.33     0.00  -0.61   0.00     0.00   0.00  -0.45
   4  14     0.00   0.00  -0.29     0.00   0.48   0.00     0.43   0.00   0.02
   5  14     0.00   0.00  -0.29     0.00   0.48   0.00    -0.43   0.00   0.02
                     4                      5                      6
                    B2                     B1                     A2
 Frequencies --   232.2494               286.3835               286.3849
 Red. masses --    27.9769                27.9769                27.9769
 Frc consts  --     0.8891                 1.3519                 1.3519
 IR Inten    --     1.3313                 1.2439                 0.0000
 Atom AN      X      Y      Z        X      Y      Z        X      Y      Z
   1  14     0.00   0.44  -0.42     0.46   0.00   0.00     0.49   0.00   0.00
   2  14     0.00   0.44   0.42     0.46   0.00   0.00    -0.49   0.00   0.00
   3  14     0.00  -0.37   0.00    -0.23   0.00   0.00     0.00   0.00   0.00
   4  14     0.00  -0.26   0.00    -0.35   0.00  -0.37     0.00   0.51   0.00
   5  14     0.00  -0.26   0.00    -0.35   0.00   0.37     0.00  -0.51   0.00
                     7                      8                      9
                    A1                     B1                     A1
 Frequencies --   386.2260               434.6793               473.7053
 Red. masses --    27.9769                27.9769                27.9769
 Frc consts  --     2.4589                 3.1145                 3.6988
 IR Inten    --     3.2924                 0.0393                 0.1893
 Atom AN      X      Y      Z        X      Y      Z        X      Y      Z
   1  14     0.00  -0.41   0.23     0.09   0.00   0.00     0.00   0.08  -0.03
   2  14     0.00   0.41   0.23     0.09   0.00   0.00     0.00  -0.08  -0.03
   3  14     0.00   0.00   0.26     0.67   0.00   0.00     0.00   0.00   0.65
   4  14    -0.34   0.00  -0.36    -0.42   0.00   0.30     0.44   0.00  -0.30
   5  14     0.34   0.00  -0.36    -0.42   0.00  -0.30    -0.44   0.00  -0.30

 -------------------
 - Thermochemistry -
 -------------------
 Temperature   298.150 Kelvin.  Pressure   1.00000 Atm.
 Atom  1 has atomic number 14 and mass  27.97693
 Atom  2 has atomic number 14 and mass  27.97693
 Atom  3 has atomic number 14 and mass  27.97693
 Atom  4 has atomic number 14 and mass  27.97693
 Atom  5 has atomic number 14 and mass  27.97693
 Molecular mass:   139.88464 amu.
 Principal axes and moments of inertia in atomic units:
                           1         2         3
     EIGENVALUES --   900.11448 925.896771006.46546
           X            0.00000   1.00000   0.00000
           Y            1.00000   0.00000   0.00000
           Z            0.00000   0.00000   1.00000
 This molecule is an asymmetric top.
 Rotational symmetry number  2.
 Warning -- assumption of classical behavior for rotation
           may cause significant error
 Rotational temperatures (Kelvin)      0.09623     0.09355     0.08606
 Rotational constants (GHZ):           2.00501     1.94918     1.79315
 Zero-point vibrational energy      15817.6 (Joules/Mol)
                                    3.78050 (Kcal/Mol)
 Warning -- explicit consideration of   9 degrees of freedom as
           vibrations may cause significant error
 Vibrational temperatures:    193.87   267.55   322.53   334.15   412.04
          (Kelvin)            412.04   555.69   625.41   681.56
 
 Zero-point correction=                           0.006025 (Hartree/Particle)
 Thermal correction to Energy=                    0.012866
 Thermal correction to Enthalpy=                  0.013810
 Thermal correction to Gibbs Free Energy=        -0.025838
 Sum of electronic and zero-point Energies=          -1447.192833
 Sum of electronic and thermal Energies=             -1447.185992
 Sum of electronic and thermal Enthalpies=           -1447.185048
 Sum of electronic and thermal Free Energies=        -1447.224695
 
                     E (Thermal)             CV                S
                      KCal/Mol        Cal/Mol-Kelvin    Cal/Mol-Kelvin
 Total                    8.073             20.936             83.445
 Electronic               0.000              0.000              1.377
 Translational            0.889              2.981             40.719
 Rotational               0.889              2.981             26.842
 Vibrational              6.296             14.974             14.508
 Vibration  1             0.613              1.919              2.877
 Vibration  2             0.632              1.859              2.268
 Vibration  3             0.649              1.804              1.925
 Vibration  4             0.653              1.792              1.861
 Vibration  5             0.684              1.699              1.495
 Vibration  6             0.684              1.699              1.495
 Vibration  7             0.755              1.500              1.015
 Vibration  8             0.795              1.395              0.844
 Vibration  9             0.830              1.308              0.727
                       Q            Log10(Q)             Ln(Q)
 Total Bot       0.766465D+12         11.884493         27.365055
 Total V=0       0.452497D+15         14.655615         33.745801
 Vib (Bot)       0.359506D-01         -1.444294         -3.325609
 Vib (Bot)  1    0.151114D+01          0.179305          0.412866
 Vib (Bot)  2    0.107785D+01          0.032557          0.074966
 Vib (Bot)  3    0.880830D+00         -0.055108         -0.126890
 Vib (Bot)  4    0.847209D+00         -0.072009         -0.165808
 Vib (Bot)  5    0.669063D+00         -0.174533         -0.401877
 Vib (Bot)  6    0.669059D+00         -0.174536         -0.401883
 Vib (Bot)  7    0.466086D+00         -0.331534         -0.763385
 Vib (Bot)  8    0.399377D+00         -0.398617         -0.917850
 Vib (Bot)  9    0.354961D+00         -0.449820         -1.035748
 Vib (V=0)       0.212241D+02          1.326829          3.055137
 Vib (V=0)  1    0.209171D+01          0.320502          0.737983
 Vib (V=0)  2    0.168817D+01          0.227417          0.523647
 Vib (V=0)  3    0.151285D+01          0.179795          0.413994
 Vib (V=0)  4    0.148375D+01          0.171361          0.394572
 Vib (V=0)  5    0.133525D+01          0.125563          0.289120
 Vib (V=0)  6    0.133525D+01          0.125562          0.289117
 Vib (V=0)  7    0.118355D+01          0.073185          0.168516
 Vib (V=0)  8    0.113992D+01          0.056876          0.130961
 Vib (V=0)  9    0.111319D+01          0.046568          0.107226
 Electronic      0.200000D+01          0.301030          0.693147
 Translational   0.650295D+08          7.813110         17.990351
 Rotational      0.163925D+06          5.214646         12.007166
 ***** Axes restored to original set *****
 -------------------------------------------------------------------
 Center     Atomic                   Forces (Hartrees/Bohr)
 Number     Number              X              Y              Z
 -------------------------------------------------------------------
    1         14           0.000000000    0.000009492   -0.000009484
    2         14           0.000000000   -0.000009492   -0.000009484
    3         14           0.000000000    0.000000000    0.000003766
    4         14          -0.000015926    0.000000000    0.000007600
    5         14           0.000015926    0.000000000    0.000007600
 -------------------------------------------------------------------
 Cartesian Forces:  Max     0.000015926 RMS     0.000008153

 GradGradGradGradGradGradGradGradGradGradGradGradGradGradGradGradGradGrad
 Berny optimization.
 Internal  Forces:  Max     0.000013388 RMS     0.000007090
 Search for a local minimum.
 Step number   1 out of a maximum of   2
 All quantities printed in internal units (Hartrees-Bohrs-Radians)
 Second derivative matrix not updated -- analytic derivatives used.
     Eigenvalues ---    0.01795   0.02851   0.04041   0.04508   0.06856
     Eigenvalues ---    0.07005   0.08751   0.08826   0.102061000.00000
     Eigenvalues --- 1000.000001000.000001000.000001000.000001000.00000
     Eigenvalues --- 1000.000001000.000001000.000001000.000001000.00000
     Eigenvalues --- 1000.000001000.000001000.000001000.000001000.00000
     Eigenvalues --- 1000.000001000.00000
 Angle between quadratic step and forces=  23.46 degrees.
 Linear search not attempted -- first point.
 Iteration  1 RMS(Cart)=  0.00011759 RMS(Int)=  0.00000001
 Iteration  2 RMS(Cart)=  0.00000001 RMS(Int)=  0.00000000
 Variable       Old X    -DE/DX   Delta X   Delta X   Delta X     New X
                                 (Linear)    (Quad)   (Total)
    R1        4.53033   0.00000   0.00000   0.00004   0.00004   4.53036
    R2        4.53033   0.00000   0.00000   0.00004   0.00004   4.53036
    R3        4.53033   0.00000   0.00000   0.00004   0.00004   4.53036
    R4        4.53033   0.00000   0.00000   0.00004   0.00004   4.53036
    R5        4.28239   0.00000   0.00000  -0.00004  -0.00004   4.28236
    R6        4.28239   0.00000   0.00000  -0.00004  -0.00004   4.28236
    A1        1.42424  -0.00001   0.00000  -0.00015  -0.00015   1.42409
    A2        1.42424  -0.00001   0.00000  -0.00015  -0.00015   1.42409
    A3        1.52649  -0.00001   0.00000  -0.00013  -0.00013   1.52636
    A4        1.46949   0.00001   0.00000   0.00003   0.00003   1.46952
    A5        1.37181   0.00001   0.00000   0.00015   0.00015   1.37196
    A6        1.37181   0.00001   0.00000   0.00015   0.00015   1.37196
    A7        1.46949   0.00001   0.00000   0.00003   0.00003   1.46952
    A8        1.37181   0.00001   0.00000   0.00015   0.00015   1.37196
    A9        1.37181   0.00001   0.00000   0.00015   0.00015   1.37196
    D1        0.67627   0.00001   0.00000   0.00015   0.00015   0.67641
    D2       -0.71131   0.00000   0.00000   0.00001   0.00001  -0.71130
    D3       -0.67627  -0.00001   0.00000  -0.00015  -0.00015  -0.67641
    D4        0.71131   0.00000   0.00000  -0.00001  -0.00001   0.71130
    D5       -0.67627  -0.00001   0.00000  -0.00015  -0.00015  -0.67641
    D6        0.71131   0.00000   0.00000  -0.00001  -0.00001   0.71130
    D7        0.67627   0.00001   0.00000   0.00015   0.00015   0.67641
    D8       -0.71131   0.00000   0.00000   0.00001   0.00001  -0.71130
    D9        0.75308   0.00000   0.00000  -0.00001  -0.00001   0.75307
   D10       -0.75308   0.00000   0.00000   0.00001   0.00001  -0.75307
   D11       -0.75308   0.00000   0.00000   0.00001   0.00001  -0.75307
   D12        0.75308   0.00000   0.00000  -0.00001  -0.00001   0.75307
         Item               Value     Threshold  Converged?
 Maximum Force            0.000013     0.000450     YES
 RMS     Force            0.000007     0.000300     YES
 Maximum Displacement     0.000291     0.001800     YES
 RMS     Displacement     0.000118     0.001200     YES
 Predicted change in Energy=-8.422464D-09
 Optimization completed.
    -- Stationary point found.
                           ----------------------------
                           !   Optimized Parameters   !
                           ! (Angstroms and Degrees)  !
 --------------------------                            --------------------------
 ! Name  Definition              Value          Derivative Info.                !
 --------------------------------------------------------------------------------
 ! R1    R(1,4)                  2.3973         -DE/DX =    0.0                 !
 ! R2    R(1,5)                  2.3973         -DE/DX =    0.0                 !
 ! R3    R(2,4)                  2.3973         -DE/DX =    0.0                 !
 ! R4    R(2,5)                  2.3973         -DE/DX =    0.0                 !
 ! R5    R(3,4)                  2.2661         -DE/DX =    0.0                 !
 ! R6    R(3,5)                  2.2661         -DE/DX =    0.0                 !
 ! A1    A(4,1,5)               81.6027         -DE/DX =    0.0                 !
 ! A2    A(4,2,5)               81.6027         -DE/DX =    0.0                 !
 ! A3    A(4,3,5)               87.4615         -DE/DX =    0.0                 !
 ! A4    A(1,4,2)               84.1955         -DE/DX =    0.0                 !
 ! A5    A(1,4,3)               78.5989         -DE/DX =    0.0                 !
 ! A6    A(2,4,3)               78.5989         -DE/DX =    0.0                 !
 ! A7    A(1,5,2)               84.1955         -DE/DX =    0.0                 !
 ! A8    A(1,5,3)               78.5989         -DE/DX =    0.0                 !
 ! A9    A(2,5,3)               78.5989         -DE/DX =    0.0                 !
 ! D1    D(5,1,4,2)             38.7472         -DE/DX =    0.0                 !
 ! D2    D(5,1,4,3)            -40.7552         -DE/DX =    0.0                 !
 ! D3    D(4,1,5,2)            -38.7472         -DE/DX =    0.0                 !
 ! D4    D(4,1,5,3)             40.7552         -DE/DX =    0.0                 !
 ! D5    D(5,2,4,1)            -38.7472         -DE/DX =    0.0                 !
 ! D6    D(5,2,4,3)             40.7552         -DE/DX =    0.0                 !
 ! D7    D(4,2,5,1)             38.7472         -DE/DX =    0.0                 !
 ! D8    D(4,2,5,3)            -40.7552         -DE/DX =    0.0                 !
 ! D9    D(5,3,4,1)             43.1486         -DE/DX =    0.0                 !
 ! D10   D(5,3,4,2)            -43.1486         -DE/DX =    0.0                 !
 ! D11   D(4,3,5,1)            -43.1486         -DE/DX =    0.0                 !
 ! D12   D(4,3,5,2)             43.1486         -DE/DX =    0.0                 !
 --------------------------------------------------------------------------------
 GradGradGradGradGradGradGradGradGradGradGradGradGradGradGradGradGradGrad

 1\1\GINC-NODE39\Freq\UB3LYP\6-311+G(d)\Si5(1+,2)\TAM\17-Jun-2011\0\\#N
  Geom=AllCheck Guess=Read SCRF=Check GenChk UB3LYP/6-311+G(d) Freq\\si
 5-c\\1,2\Si,0.,1.6071747146,-0.8331697288\Si,0.,-1.6071747146,-0.83316
 97288\Si,0.,0.,1.6471179484\Si,1.5665183353,0.,0.0096110175\Si,-1.5665
 183353,0.,0.0096110175\\Version=AM64L-G03RevE.01\State=2-A1\HF=-1447.1
 988576\S2=0.765336\S2-1=0.\S2A=0.750102\RMSD=1.184e-09\RMSF=8.153e-06\
 ZeroPoint=0.0060246\Thermal=0.0128655\Dipole=0.,0.,0.121578\DipoleDeri
 v=0.2846671,0.0000001,0.,-0.0000001,0.2225508,-0.1697993,0.,-0.1633546
 ,0.2596398,0.2846671,0.0000002,0.,-0.0000001,0.2225508,0.1697993,0.,0.
 1633546,0.2596398,0.1913511,0.,0.,0.,-0.0583427,0.,0.,0.,0.312871,0.11
 96573,-0.0000002,-0.0421536,0.,0.3066205,-0.0000003,-0.0705817,-0.0000
 001,0.0839247,0.1196573,-0.0000002,0.0421536,0.,0.3066205,0.0000002,0.
 0705817,0.0000001,0.0839247\Polar=144.3251081,0.0000011,150.8131088,-0
 .0000002,-0.0000032,134.8227775\PG=C02V [C2(Si1),SGV(Si2),SGV'(Si2)]\N
 Imag=0\\0.04133672,0.,0.05174646,0.,-0.02537925,0.02643188,-0.00091724
 ,0.,0.,0.04133672,0.,-0.02731480,0.00730410,0.,0.05174646,0.,-0.007304
 10,0.00310414,0.,0.02537925,0.02643188,0.00238369,0.,0.,0.00238369,0.,
 0.,0.09394630,0.,-0.00520459,0.01357070,0.,-0.00520458,-0.01357070,0.,
 0.02131402,0.,0.00311554,-0.00269336,0.,-0.00311554,-0.00269336,0.,0.,
 0.12355166,-0.02140159,0.02128526,-0.01052866,-0.02140158,-0.02128526,
 -0.01052866,-0.04935684,0.,0.04329778,0.12101263,0.02170493,-0.0096135
 4,0.00225223,-0.02170493,-0.00961354,-0.00225223,0.,-0.00545242,0.,0.,
 0.03462192,-0.00961039,0.01478391,-0.01342133,-0.00961039,-0.01478391,
 -0.01342133,0.04783777,0.,-0.05908247,-0.02542873,0.,0.07314277,-0.021
 40158,-0.02128526,0.01052866,-0.02140159,0.02128526,0.01052866,-0.0493
 5684,0.,-0.04329778,-0.02885262,0.,-0.00318827,0.12101263,-0.02170493,
 -0.00961354,0.00225223,0.02170493,-0.00961354,-0.00225223,0.,-0.005452
 42,0.,0.,-0.00994242,0.,0.,0.03462192,0.00961039,0.01478391,-0.0134213
 3,0.00961039,-0.01478391,-0.01342133,-0.04783777,0.,-0.05908247,0.0031
 8827,0.,0.01278236,0.02542873,0.,0.07314277\\0.,-0.00000949,0.00000948
 ,0.,0.00000949,0.00000948,0.,0.,-0.00000377,0.00001593,0.,-0.00000760,
 -0.00001593,0.,-0.00000760\\\@


 10 WHATSOEVER THY HAND FINDETH TO DO, DO IT WITH THY  
 MIGHT. FOR THERE IS NO WORK, NOR DEVICE, NOR KNOWLEDGE, NOR  
 WISDOM, IN THE GRAVE, WHITHER THOU GOEST.                    
 11 I RETURNED AND SAW UNDER THE SUN, THAT THE RACE IS NOT TO 
 THE SWIFT, NOR THE BATTLE TO THE STRONG, NEITHER YET BREAD TO
 THE WISE, NOR YET RICHES TO MEN OF UNDERSTANDING, NOR YET    
 FAVOR TO MEN OF SKILL. BUT TIME AND CHANCE HAPPEN TO THEM ALL.
 12 FOR MAN ALSO KNOWETH NOT HIS TIME. AS THE FISHES   
 THAT ARE TAKEN IN AN EVIL NET, AND AS THE BIRDS THAT ARE     
 CAUGHT IN THE SNARE. SO ARE THE SONS OF MEN SNARED IN AN EVIL
 TIME, WHEN IT FALLETH SUDDENLY UPON THEM.
                                         ECCLESIASTES 9
 Job cpu time:  0 days  0 hours  5 minutes 16.4 seconds.
 File lengths (MBytes):  RWF=     49 Int=      0 D2E=      0 Chk=      8 Scr=      1
 Normal termination of Gaussian 03 at Fri Jun 17 16:21:09 2011.
