 Entering Gaussian System, Link 0=g03
 Initial command:
 /usr/local/chem/g03E01/l1.exe /temp0/tam/Gau-5977.inp -scrdir=/temp0/tam/
 Entering Link 1 = /usr/local/chem/g03E01/l1.exe PID=      5978.
  
 Copyright (c) 1988,1990,1992,1993,1995,1998,2003,2004,2007, Gaussian, Inc.
                  All Rights Reserved.
  
 This is the Gaussian(R) 03 program.  It is based on the
 the Gaussian(R) 98 system (copyright 1998, Gaussian, Inc.),
 the Gaussian(R) 94 system (copyright 1995, Gaussian, Inc.),
 the Gaussian 92(TM) system (copyright 1992, Gaussian, Inc.),
 the Gaussian 90(TM) system (copyright 1990, Gaussian, Inc.),
 the Gaussian 88(TM) system (copyright 1988, Gaussian, Inc.),
 the Gaussian 86(TM) system (copyright 1986, Carnegie Mellon
 University), and the Gaussian 82(TM) system (copyright 1983,
 Carnegie Mellon University). Gaussian is a federally registered
 trademark of Gaussian, Inc.
  
 This software contains proprietary and confidential information,
 including trade secrets, belonging to Gaussian, Inc.
  
 This software is provided under written license and may be
 used, copied, transmitted, or stored only in accord with that
 written license.
  
 The following legend is applicable only to US Government
 contracts under FAR:
  
                    RESTRICTED RIGHTS LEGEND
  
 Use, reproduction and disclosure by the US Government is
 subject to restrictions as set forth in subparagraphs (a)
 and (c) of the Commercial Computer Software - Restricted
 Rights clause in FAR 52.227-19.
  
 Gaussian, Inc.
 340 Quinnipiac St., Bldg. 40, Wallingford CT 06492
  
  
 ---------------------------------------------------------------
 Warning -- This program may not be used in any manner that
 competes with the business of Gaussian, Inc. or will provide
 assistance to any competitor of Gaussian, Inc.  The licensee
 of this program is prohibited from giving any competitor of
 Gaussian, Inc. access to this program.  By using this program,
 the user acknowledges that Gaussian, Inc. is engaged in the
 business of creating and licensing software in the field of
 computational chemistry and represents and warrants to the
 licensee that it is not a competitor of Gaussian, Inc. and that
 it will not use this program in any manner prohibited above.
 ---------------------------------------------------------------
  

 Cite this work as:
 Gaussian 03, Revision E.01,
 M. J. Frisch, G. W. Trucks, H. B. Schlegel, G. E. Scuseria, 
 M. A. Robb, J. R. Cheeseman, J. A. Montgomery, Jr., T. Vreven, 
 K. N. Kudin, J. C. Burant, J. M. Millam, S. S. Iyengar, J. Tomasi, 
 V. Barone, B. Mennucci, M. Cossi, G. Scalmani, N. Rega, 
 G. A. Petersson, H. Nakatsuji, M. Hada, M. Ehara, K. Toyota, 
 R. Fukuda, J. Hasegawa, M. Ishida, T. Nakajima, Y. Honda, O. Kitao, 
 H. Nakai, M. Klene, X. Li, J. E. Knox, H. P. Hratchian, J. B. Cross, 
 V. Bakken, C. Adamo, J. Jaramillo, R. Gomperts, R. E. Stratmann, 
 O. Yazyev, A. J. Austin, R. Cammi, C. Pomelli, J. W. Ochterski, 
 P. Y. Ayala, K. Morokuma, G. A. Voth, P. Salvador, J. J. Dannenberg, 
 V. G. Zakrzewski, S. Dapprich, A. D. Daniels, M. C. Strain, 
 O. Farkas, D. K. Malick, A. D. Rabuck, K. Raghavachari, 
 J. B. Foresman, J. V. Ortiz, Q. Cui, A. G. Baboul, S. Clifford, 
 J. Cioslowski, B. B. Stefanov, G. Liu, A. Liashenko, P. Piskorz, 
 I. Komaromi, R. L. Martin, D. J. Fox, T. Keith, M. A. Al-Laham, 
 C. Y. Peng, A. Nanayakkara, M. Challacombe, P. M. W. Gill, 
 B. Johnson, W. Chen, M. W. Wong, C. Gonzalez, and J. A. Pople, 
 Gaussian, Inc., Wallingford CT, 2004.
 
 ******************************************
 Gaussian 03:  AM64L-G03RevE.01 11-Sep-2007
                 9-Nov-2010 
 ******************************************
 %NprocShared=4
 Will use up to    4 processors via shared memory.
 %mem=3750MB
 %chk=S6-an-d-01
 ----------------------------------------------------------------------
 # hf/LANL2DZ opt=(calcall,noeigentest,maxcycle=500) nosym scfcyc=500 s
 cf=xqc
 ----------------------------------------------------------------------
 1/6=500,10=4,11=1,18=20,38=1/1,3;
 2/9=110,15=1,17=6,18=5,40=1/2;
 3/5=6,6=3,11=9,16=1,25=1,30=1/1,2,3;
 4//1;
 5/5=2,7=500,8=3,13=1,38=5/2,8;
 8/6=4,10=90,11=11/1;
 11/6=1,8=1,9=11,15=111,16=1,31=1/1,2,10;
 10/6=1,31=1/2;
 6/7=2,8=2,9=2,10=2,18=1,28=1/1;
 7/10=1,25=1,30=1/1,2,3,16;
 1/6=500,10=4,11=1,18=20/3(3);
 2/9=110,15=1/2;
 7/8=1,9=1,25=1,30=1,44=-1/16;
 99//99;
 2/9=110,15=1/2;
 3/5=6,6=3,11=9,16=1,25=1,30=1/1,2,3;
 4/5=5,16=3/1;
 5/5=2,7=500,8=3,13=1,38=5/2,8;
 8/6=4,10=90,11=11/1;
 11/6=1,8=1,9=11,15=111,16=1,31=1/1,2,10;
 10/6=1,31=1/2;
 7/10=1,25=1,30=1/1,2,3,16;
 1/6=500,10=4,11=1,18=20/3(-8);
 2/9=110,15=1/2;
 6/7=2,8=2,9=2,10=2,18=1,19=2,28=1/1;
 7/8=1,9=1,25=1,30=1,44=-1/16;
 99//99;
 -----------------------
 si6-an-doublet-isomer01
 -----------------------
 Symbolic Z-matrix:
 Charge = -1 Multiplicity = 2
 Si                    0.       -1.18859   1.46165 
 Si                    0.       -1.98351  -0.88226 
 Si                    0.        1.18859   1.46165 
 Si                    0.        1.98351  -0.88226 
 Si                   -1.29835   0.       -0.30309 
 Si                    1.29835   0.       -0.30309 
 

 GradGradGradGradGradGradGradGradGradGradGradGradGradGradGradGradGradGrad
 Berny optimization.
 Initialization pass.
                           ----------------------------
                           !    Initial Parameters    !
                           ! (Angstroms and Degrees)  !
 --------------------------                            --------------------------
 ! Name  Definition              Value          Derivative Info.                !
 --------------------------------------------------------------------------------
 ! R1    R(1,2)                  2.475          calculate D2E/DX2 analytically  !
 ! R2    R(1,3)                  2.3772         calculate D2E/DX2 analytically  !
 ! R3    R(1,5)                  2.4925         calculate D2E/DX2 analytically  !
 ! R4    R(1,6)                  2.4925         calculate D2E/DX2 analytically  !
 ! R5    R(2,5)                  2.4404         calculate D2E/DX2 analytically  !
 ! R6    R(2,6)                  2.4404         calculate D2E/DX2 analytically  !
 ! R7    R(3,4)                  2.475          calculate D2E/DX2 analytically  !
 ! R8    R(3,5)                  2.4925         calculate D2E/DX2 analytically  !
 ! R9    R(3,6)                  2.4925         calculate D2E/DX2 analytically  !
 ! R10   R(4,5)                  2.4404         calculate D2E/DX2 analytically  !
 ! R11   R(4,6)                  2.4404         calculate D2E/DX2 analytically  !
 ! R12   R(5,6)                  2.5967         calculate D2E/DX2 analytically  !
 ! A1    A(2,1,3)              108.7341         calculate D2E/DX2 analytically  !
 ! A2    A(1,3,4)              108.7341         calculate D2E/DX2 analytically  !
 ! A3    A(1,5,4)              106.1697         calculate D2E/DX2 analytically  !
 ! A4    A(2,5,3)              106.1697         calculate D2E/DX2 analytically  !
 ! A5    A(2,5,4)              108.7384         calculate D2E/DX2 analytically  !
 ! A6    A(1,6,4)              106.1697         calculate D2E/DX2 analytically  !
 ! A7    A(2,6,3)              106.1697         calculate D2E/DX2 analytically  !
 ! A8    A(2,6,4)              108.7384         calculate D2E/DX2 analytically  !
 ! D1    D(2,1,3,4)              0.0            calculate D2E/DX2 analytically  !
 --------------------------------------------------------------------------------
 Trust Radius=3.00D-01 FncErr=1.00D-07 GrdErr=1.00D-07
 Number of steps in this run= 100 maximum allowed number of steps= 100.
 GradGradGradGradGradGradGradGradGradGradGradGradGradGradGradGradGradGrad

                          Input orientation:                          
 ---------------------------------------------------------------------
 Center     Atomic     Atomic              Coordinates (Angstroms)
 Number     Number      Type              X           Y           Z
 ---------------------------------------------------------------------
    1         14             0        0.000000   -1.188591    1.461646
    2         14             0        0.000000   -1.983511   -0.882256
    3         14             0        0.000000    1.188591    1.461646
    4         14             0        0.000000    1.983511   -0.882256
    5         14             0       -1.298350    0.000000   -0.303093
    6         14             0        1.298350    0.000000   -0.303093
 ---------------------------------------------------------------------
                    Distance matrix (angstroms):
                    1          2          3          4          5
     1  Si   0.000000
     2  Si   2.475031   0.000000
     3  Si   2.377182   3.944124   0.000000
     4  Si   3.944124   3.967023   2.475031   0.000000
     5  Si   2.492542   2.440381   2.492542   2.440381   0.000000
     6  Si   2.492542   2.440381   2.492542   2.440381   2.596700
                    6
     6  Si   0.000000
 Symmetry turned off by external request.
 Stoichiometry    Si6(1-,2)
 Framework group  C2V[SGV(Si4),SGV'(Si2)]
 Deg. of freedom     5
 Full point group                 C2V
 Rotational constants (GHZ):      1.9353388      1.2842815      1.0845070
 Standard basis: LANL2DZ (5D, 7F)
 Integral buffers will be    131072 words long.
 Raffenetti 2 integral format.
 Two-electron integral symmetry is turned off.
    48 basis functions,    72 primitive gaussians,    48 cartesian basis functions
    13 alpha electrons       12 beta electrons
       nuclear repulsion energy        47.5571829206 Hartrees.
 NAtoms=    6 NActive=    6 NUniq=    6 SFac= 7.50D-01 NAtFMM=   80 NAOKFM=F Big=F
 One-electron integrals computed using PRISM.
   1 Symmetry operations used in ECPInt.
 ECPInt:  NShTT=     300 NPrTT=     678 LenC2=     301 LenP2D=     675.
 LDataN:  DoStor=F MaxTD1= 3 Len=   28
 LDataN:  DoStor=T MaxTD1= 3 Len=   28
 NBasis=    48 RedAO= T  NBF=    48
 NBsUse=    48 1.00D-06 NBFU=    48
 Harris functional with IExCor=  205 diagonalized for initial guess.
 ExpMin= 8.85D-02 ExpMax= 2.58D+00 ExpMxC= 2.58D+00 IAcc=2 IRadAn=         4 AccDes= 0.00D+00
 HarFok:  IExCor= 205 AccDes= 0.00D+00 IRadAn=         4 IDoV=1
 ScaDFX=  1.000000  1.000000  1.000000  1.000000
 <S**2> of initial guess= 0.7500
 Requested convergence on RMS density matrix=1.00D-08 within 128 cycles.
 Requested convergence on MAX density matrix=1.00D-06.
 Requested convergence on             energy=1.00D-06.
 No special actions if energy rises.
 Keep R1 and R2 integrals in memory in canonical form, NReq=     2268654.
 Restarting incremental Fock formation.
 SCF Done:  E(UHF) =  -22.3355698260     A.U. after   20 cycles
             Convg  =    0.3200D-08             -V/T =  3.4803
             S**2   =   0.8195
 Annihilation of the first spin contaminant:
 S**2 before annihilation     0.8195,   after     0.7535
 QCSCF skips out because SCF is already converged.
 Range of M.O.s used for correlation:     1    48
 NBasis=    48 NAE=    13 NBE=    12 NFC=     0 NFV=     0
 NROrb=     48 NOA=    13 NOB=    12 NVA=    35 NVB=    36
   1 Symmetry operations used in ECPInt.
 ECPInt:  NShTT=     300 NPrTT=     678 LenC2=     301 LenP2D=     675.
 LDataN:  DoStor=F MaxTD1= 4 Len=   56
 LDataN:  DoStor=T MaxTD1= 4 Len=   56
 Symmetrizing basis deriv contribution to polar:
 IMax=3 JMax=2 DiffMx= 0.00D+00
 G2DrvN: will do    7 centers at a time, making    1 passes doing MaxLOS=1.
 FoFDir/FoFCou used for L=0 through L=1.
 DoAtom=TTTTTT
          Differentiating once with respect to electric field.
                with respect to dipole field.
          Differentiating once with respect to nuclear coordinates.
          Store integrals in memory, NReq=     2184687.
          There are  21 degrees of freedom in the 1st order CPHF.
    18 vectors were produced by pass  0.
 AX will form  18 AO Fock derivatives at one time.
    18 vectors were produced by pass  1.
    18 vectors were produced by pass  2.
    18 vectors were produced by pass  3.
    18 vectors were produced by pass  4.
    18 vectors were produced by pass  5.
    18 vectors were produced by pass  6.
    18 vectors were produced by pass  7.
    18 vectors were produced by pass  8.
     9 vectors were produced by pass  9.
     3 vectors were produced by pass 10.
     2 vectors were produced by pass 11.
 Inv2:  IOpt= 1 Iter= 1 AM= 2.64D-15 Conv= 1.00D-12.
 Inverted reduced A of dimension  176 with in-core refinement.
 Isotropic polarizability for W=    0.000000      191.36 Bohr**3.
 End of Minotr Frequency-dependent properties file   721 does not exist.

 **********************************************************************

            Population analysis using the SCF density.

 **********************************************************************

 Alpha  occ. eigenvalues --   -0.77620  -0.58537  -0.51154  -0.45053  -0.34404
 Alpha  occ. eigenvalues --   -0.33037  -0.23117  -0.21165  -0.17564  -0.16274
 Alpha  occ. eigenvalues --   -0.16165  -0.14518  -0.11110
 Alpha virt. eigenvalues --    0.14205   0.17146   0.20693   0.22047   0.23470
 Alpha virt. eigenvalues --    0.24099   0.26151   0.27040   0.27043   0.31880
 Alpha virt. eigenvalues --    0.32218   0.56225   0.57984   0.58919   0.58925
 Alpha virt. eigenvalues --    0.59836   0.59922   0.61117   0.61920   0.62564
 Alpha virt. eigenvalues --    0.63187   0.65556   0.65827   0.66983   0.68225
 Alpha virt. eigenvalues --    0.69204   0.70040   0.73118   0.73495   9.13553
 Alpha virt. eigenvalues --   10.13201  11.55646  11.65735  11.80978  13.04437
  Beta  occ. eigenvalues --   -0.77314  -0.56135  -0.49352  -0.45738  -0.31705
  Beta  occ. eigenvalues --   -0.29485  -0.20770  -0.18572  -0.16637  -0.16453
  Beta  occ. eigenvalues --   -0.15326  -0.13345
  Beta virt. eigenvalues --    0.12529   0.14857   0.18322   0.22009   0.23491
  Beta virt. eigenvalues --    0.24289   0.25131   0.26908   0.27062   0.28050
  Beta virt. eigenvalues --    0.32191   0.35134   0.57326   0.58650   0.58931
  Beta virt. eigenvalues --    0.59277   0.60283   0.60574   0.62243   0.62295
  Beta virt. eigenvalues --    0.62551   0.65334   0.65965   0.67245   0.67343
  Beta virt. eigenvalues --    0.68833   0.69964   0.69978   0.73201   0.74528
  Beta virt. eigenvalues --    9.14019  10.13569  11.55913  11.65784  11.81276
  Beta virt. eigenvalues --   13.04483
          Condensed to atoms (all electrons):
              1          2          3          4          5          6
     1  Si   3.935518   0.093088   0.165941  -0.097274   0.015822   0.015822
     2  Si   0.093088   3.718261  -0.097274  -0.054802   0.181968   0.181968
     3  Si   0.165941  -0.097274   3.935518   0.093088   0.015822   0.015822
     4  Si  -0.097274  -0.054802   0.093088   3.718261   0.181968   0.181968
     5  Si   0.015822   0.181968   0.015822   0.181968   4.136518  -0.184225
     6  Si   0.015822   0.181968   0.015822   0.181968  -0.184225   4.136518
 Mulliken atomic charges:
              1
     1  Si  -0.128918
     2  Si  -0.023209
     3  Si  -0.128918
     4  Si  -0.023209
     5  Si  -0.347873
     6  Si  -0.347873
 Sum of Mulliken charges=  -1.00000
 Atomic charges with hydrogens summed into heavy atoms:
              1
     1  Si  -0.128918
     2  Si  -0.023209
     3  Si  -0.128918
     4  Si  -0.023209
     5  Si  -0.347873
     6  Si  -0.347873
 Sum of Mulliken charges=  -1.00000
          Atomic-Atomic Spin Densities.
              1          2          3          4          5          6
     1  Si   0.224924   0.047221  -0.134957  -0.001636   0.014969   0.014969
     2  Si   0.047221   0.464793  -0.001636  -0.015084  -0.004857  -0.004857
     3  Si  -0.134957  -0.001636   0.224924   0.047221   0.014969   0.014969
     4  Si  -0.001636  -0.015084   0.047221   0.464793  -0.004857  -0.004857
     5  Si   0.014969  -0.004857   0.014969  -0.004857  -0.166730  -0.004565
     6  Si   0.014969  -0.004857   0.014969  -0.004857  -0.004565  -0.166730
 Mulliken atomic spin densities:
              1
     1  Si   0.165489
     2  Si   0.485582
     3  Si   0.165489
     4  Si   0.485582
     5  Si  -0.151071
     6  Si  -0.151071
 Sum of Mulliken spin densities=   1.00000
 APT atomic charges:
              1
     1  Si  -0.140109
     2  Si   0.047830
     3  Si  -0.140110
     4  Si   0.047830
     5  Si  -0.407721
     6  Si  -0.407721
 Sum of APT charges=  -1.00000
 APT Atomic charges with hydrogens summed into heavy atoms:
              1
     1  Si  -0.140109
     2  Si   0.047830
     3  Si  -0.140110
     4  Si   0.047830
     5  Si  -0.407721
     6  Si  -0.407721
 Sum of APT charges=  -1.00000
 Electronic spatial extent (au):  <R**2>=   499.1962
 Charge=    -1.0000 electrons
 Dipole moment (field-independent basis, Debye):
    X=     0.0000    Y=     0.0000    Z=    -0.1059  Tot=     0.1059
 Quadrupole moment (field-independent basis, Debye-Ang):
   XX=   -87.7110   YY=  -102.9441   ZZ=   -95.0095
   XY=     0.0000   XZ=     0.0000   YZ=     0.0000
 Traceless Quadrupole moment (field-independent basis, Debye-Ang):
   XX=     7.5106   YY=    -7.7226   ZZ=     0.2121
   XY=     0.0000   XZ=     0.0000   YZ=     0.0000
 Octapole moment (field-independent basis, Debye-Ang**2):
  XXX=     0.0000  YYY=     0.0000  ZZZ=   -41.2057  XYY=     0.0000
  XXY=     0.0000  XXZ=     0.7634  XZZ=     0.0000  YZZ=     0.0000
  YYZ=     1.7904  XYZ=     0.0000
 Hexadecapole moment (field-independent basis, Debye-Ang**3):
 XXXX=  -494.5286 YYYY= -1236.5583 ZZZZ=  -734.9352 XXXY=     0.0000
 XXXZ=     0.0000 YYYX=     0.0000 YYYZ=     0.0000 ZZZX=     0.0000
 ZZZY=     0.0000 XXYY=  -238.7912 XXZZ=  -187.4059 YYZZ=  -358.3915
 XXYZ=     0.0000 YYXZ=     0.0000 ZZXY=     0.0000
 N-N= 4.755718292057D+01 E-N=-1.406850396477D+02  KE= 9.005027165190D+00
  Exact polarizability: 161.319   0.000 231.401   0.000   0.000 181.360
 Approx polarizability: 254.192   0.000 313.445   0.000   0.000 242.444
                          Isotropic Fermi Contact Couplings
        Atom                 a.u.       MegaHertz       Gauss      10(-4) cm-1
     1  Si(29)             0.00000      -0.00013      -0.00005      -0.00004
     2  Si(29)             0.00000       0.00001       0.00000       0.00000
     3  Si(29)             0.00000      -0.00013      -0.00005      -0.00004
     4  Si(29)             0.00000       0.00001       0.00000       0.00000
     5  Si(29)             0.00000      -0.00005      -0.00002      -0.00002
     6  Si(29)             0.00000      -0.00005      -0.00002      -0.00002
 --------------------------------------------------------
       Center         ----  Spin Dipole Couplings  ----
                      3XX-RR        3YY-RR        3ZZ-RR
 --------------------------------------------------------
     1   Atom       -0.012794     -0.020728      0.033523
     2   Atom       -0.025344     -0.008383      0.033726
     3   Atom       -0.012794     -0.020728      0.033523
     4   Atom       -0.025344     -0.008383      0.033726
     5   Atom        0.000202      0.008104     -0.008306
     6   Atom        0.000202      0.008104     -0.008306
 --------------------------------------------------------
                        XY            XZ            YZ
 --------------------------------------------------------
     1   Atom        0.000000      0.000000     -0.004450
     2   Atom        0.000000      0.000000     -0.032884
     3   Atom        0.000000      0.000000      0.004450
     4   Atom        0.000000      0.000000      0.032884
     5   Atom        0.000000     -0.003230      0.000000
     6   Atom        0.000000      0.003230      0.000000
 --------------------------------------------------------


 ---------------------------------------------------------------------------------
              Anisotropic Spin Dipole Couplings in Principal Axis System
 ---------------------------------------------------------------------------------

       Atom             a.u.   MegaHertz   Gauss  10(-4) cm-1        Axes

              Baa    -0.0211     2.237     0.798     0.746  0.0000  0.9967  0.0812
     1 Si(29) Bbb    -0.0128     1.357     0.484     0.453  1.0000  0.0000  0.0000
              Bcc     0.0339    -3.595    -1.283    -1.199  0.0000 -0.0812  0.9967
 
              Baa    -0.0264     2.798     0.998     0.933  0.0000  0.8773  0.4800
     2 Si(29) Bbb    -0.0253     2.689     0.959     0.897  1.0000  0.0000  0.0000
              Bcc     0.0517    -5.487    -1.958    -1.830  0.0000 -0.4800  0.8773
 
              Baa    -0.0211     2.237     0.798     0.746  0.0000  0.9967 -0.0812
     3 Si(29) Bbb    -0.0128     1.357     0.484     0.453  1.0000  0.0000  0.0000
              Bcc     0.0339    -3.595    -1.283    -1.199  0.0000  0.0812  0.9967
 
              Baa    -0.0264     2.798     0.998     0.933  0.0000  0.8773 -0.4800
     4 Si(29) Bbb    -0.0253     2.689     0.959     0.897  1.0000  0.0000  0.0000
              Bcc     0.0517    -5.487    -1.958    -1.830  0.0000  0.4800  0.8773
 
              Baa    -0.0094     0.996     0.356     0.332  0.3190  0.0000  0.9478
     5 Si(29) Bbb     0.0013    -0.137    -0.049    -0.046  0.9478  0.0000 -0.3190
              Bcc     0.0081    -0.860    -0.307    -0.287  0.0000  1.0000  0.0000
 
              Baa    -0.0094     0.996     0.356     0.332 -0.3190  0.0000  0.9478
     6 Si(29) Bbb     0.0013    -0.137    -0.049    -0.046  0.9478  0.0000  0.3190
              Bcc     0.0081    -0.860    -0.307    -0.287  0.0000  1.0000  0.0000
 

 ---------------------------------------------------------------------------------

   1 Symmetry operations used in ECPInt.
 ECPInt:  NShTT=     300 NPrTT=     678 LenC2=     301 LenP2D=     678.
 LDataN:  DoStor=F MaxTD1= 5 Len=  102
 LDataN:  DoStor=T MaxTD1= 5 Len=  102
 -------------------------------------------------------------------
 Center     Atomic                   Forces (Hartrees/Bohr)
 Number     Number              X              Y              Z
 -------------------------------------------------------------------
    1         14           0.000000000   -0.005305018    0.031071113
    2         14           0.000000000   -0.004796003   -0.010057205
    3         14           0.000000000    0.005305018    0.031071112
    4         14           0.000000000    0.004796002   -0.010057205
    5         14          -0.027323835    0.000000000   -0.021013907
    6         14           0.027323834    0.000000000   -0.021013907
 -------------------------------------------------------------------
 Cartesian Forces:  Max     0.031071113 RMS     0.016006535

 GradGradGradGradGradGradGradGradGradGradGradGradGradGradGradGradGradGrad
 Berny optimization.
 Internal  Forces:  Max     0.014676522 RMS     0.007679354
 Search for a local minimum.
 Step number   1 out of a maximum of 100
 All quantities printed in internal units (Hartrees-Bohrs-Radians)
 Second derivative matrix not updated -- analytic derivatives used.
     Eigenvalues ---    0.00090   0.01704   0.02852   0.03381   0.04355
     Eigenvalues ---    0.04375   0.04400   0.04910   0.05053   0.05937
     Eigenvalues ---    0.06739   0.097091000.000001000.000001000.00000
     Eigenvalues --- 1000.000001000.000001000.000001000.000001000.00000
     Eigenvalues --- 1000.00000
 RFO step:  Lambda=-1.97244343D-02.
 Linear search not attempted -- first point.
 Maximum step size (   0.300) exceeded in Quadratic search.
    -- Step size scaled by   0.532
 Iteration  1 RMS(Cart)=  0.03923777 RMS(Int)=  0.00061848
 Iteration  2 RMS(Cart)=  0.00038495 RMS(Int)=  0.00044102
 Iteration  3 RMS(Cart)=  0.00000011 RMS(Int)=  0.00044102
 Variable       Old X    -DE/DX   Delta X   Delta X   Delta X     New X
                                 (Linear)    (Quad)   (Total)
    R1        4.67713   0.01090   0.00000   0.07660   0.07629   4.75342
    R2        4.49222  -0.00440   0.00000  -0.04431  -0.04467   4.44756
    R3        4.71022   0.01468   0.00000   0.12821   0.12840   4.83862
    R4        4.71022   0.01468   0.00000   0.12821   0.12840   4.83862
    R5        4.61165   0.00103   0.00000   0.01362   0.01388   4.62554
    R6        4.61165   0.00103   0.00000   0.01362   0.01388   4.62554
    R7        4.67713   0.01090   0.00000   0.07660   0.07629   4.75342
    R8        4.71022   0.01468   0.00000   0.12821   0.12840   4.83862
    R9        4.71022   0.01468   0.00000   0.12821   0.12840   4.83862
   R10        4.61165   0.00103   0.00000   0.01362   0.01388   4.62554
   R11        4.61165   0.00103   0.00000   0.01362   0.01388   4.62554
   R12        4.90705   0.00926   0.00000   0.08188   0.08107   4.98813
    A1        1.89777  -0.00015   0.00000   0.00370   0.00342   1.90119
    A2        1.89777  -0.00015   0.00000   0.00370   0.00342   1.90119
    A3        1.85301  -0.00272   0.00000  -0.02744  -0.02736   1.82565
    A4        1.85301  -0.00272   0.00000  -0.02744  -0.02736   1.82565
    A5        1.89784  -0.00014   0.00000   0.00578   0.00466   1.90251
    A6        1.85301  -0.00272   0.00000  -0.02744  -0.02736   1.82565
    A7        1.85301  -0.00272   0.00000  -0.02744  -0.02736   1.82565
    A8        1.89784  -0.00014   0.00000   0.00578   0.00466   1.90251
    D1        0.00000   0.00000   0.00000   0.00000   0.00000   0.00000
         Item               Value     Threshold  Converged?
 Maximum Force            0.014677     0.000450     NO 
 RMS     Force            0.007679     0.000300     NO 
 Maximum Displacement     0.087442     0.001800     NO 
 RMS     Displacement     0.039235     0.001200     NO 
 Predicted change in Energy=-8.593284D-03
 GradGradGradGradGradGradGradGradGradGradGradGradGradGradGradGradGradGrad

                          Input orientation:                          
 ---------------------------------------------------------------------
 Center     Atomic     Atomic              Coordinates (Angstroms)
 Number     Number      Type              X           Y           Z
 ---------------------------------------------------------------------
    1         14             0        0.000000   -1.176773    1.502509
    2         14             0        0.000000   -1.992802   -0.876846
    3         14             0        0.000000    1.176773    1.502509
    4         14             0        0.000000    1.992802   -0.876846
    5         14             0       -1.319801    0.000000   -0.349365
    6         14             0        1.319801    0.000000   -0.349365
 ---------------------------------------------------------------------
                    Distance matrix (angstroms):
                    1          2          3          4          5
     1  Si   0.000000
     2  Si   2.515400   0.000000
     3  Si   2.353545   3.963273   0.000000
     4  Si   3.963273   3.985604   2.515400   0.000000
     5  Si   2.560489   2.447728   2.560489   2.447728   0.000000
     6  Si   2.560489   2.447728   2.560489   2.447728   2.639603
                    6
     6  Si   0.000000
 Symmetry turned off by external request.
 Stoichiometry    Si6(1-,2)
 Framework group  CS[SG(Si4),X(Si2)]
 Deg. of freedom     8
 Full point group                 CS
 Rotational constants (GHZ):      1.8565870      1.2724932      1.0652209
 Standard basis: LANL2DZ (5D, 7F)
 Integral buffers will be    131072 words long.
 Raffenetti 2 integral format.
 Two-electron integral symmetry is turned off.
    48 basis functions,    72 primitive gaussians,    48 cartesian basis functions
    13 alpha electrons       12 beta electrons
       nuclear repulsion energy        46.9972370220 Hartrees.
 NAtoms=    6 NActive=    6 NUniq=    6 SFac= 7.50D-01 NAtFMM=   80 NAOKFM=F Big=F
 One-electron integrals computed using PRISM.
   1 Symmetry operations used in ECPInt.
 ECPInt:  NShTT=     300 NPrTT=     678 LenC2=     301 LenP2D=     675.
 LDataN:  DoStor=F MaxTD1= 3 Len=   28
 LDataN:  DoStor=T MaxTD1= 3 Len=   28
 NBasis=    48 RedAO= T  NBF=    48
 NBsUse=    48 1.00D-06 NBFU=    48
 Initial guess read from the read-write file:
 <S**2> of initial guess= 0.8207
 Harris functional with IExCor=  205 diagonalized for initial guess.
 ExpMin= 8.85D-02 ExpMax= 2.58D+00 ExpMxC= 2.58D+00 IAcc=2 IRadAn=         4 AccDes= 0.00D+00
 HarFok:  IExCor= 205 AccDes= 0.00D+00 IRadAn=         4 IDoV=1
 ScaDFX=  1.000000  1.000000  1.000000  1.000000
 Requested convergence on RMS density matrix=1.00D-08 within 128 cycles.
 Requested convergence on MAX density matrix=1.00D-06.
 Requested convergence on             energy=1.00D-06.
 No special actions if energy rises.
 Keep R1 and R2 integrals in memory in canonical form, NReq=     2268654.
 Restarting incremental Fock formation.
 SCF Done:  E(UHF) =  -22.3443032496     A.U. after   20 cycles
             Convg  =    0.5786D-08             -V/T =  3.5047
             S**2   =   0.8270
 Annihilation of the first spin contaminant:
 S**2 before annihilation     0.8270,   after     0.7545
 QCSCF skips out because SCF is already converged.
 Range of M.O.s used for correlation:     1    48
 NBasis=    48 NAE=    13 NBE=    12 NFC=     0 NFV=     0
 NROrb=     48 NOA=    13 NOB=    12 NVA=    35 NVB=    36
   1 Symmetry operations used in ECPInt.
 ECPInt:  NShTT=     300 NPrTT=     678 LenC2=     301 LenP2D=     675.
 LDataN:  DoStor=F MaxTD1= 4 Len=   56
 LDataN:  DoStor=T MaxTD1= 4 Len=   56
 Symmetrizing basis deriv contribution to polar:
 IMax=3 JMax=2 DiffMx= 0.00D+00
 G2DrvN: will do    7 centers at a time, making    1 passes doing MaxLOS=1.
 FoFDir/FoFCou used for L=0 through L=1.
 DoAtom=TTTTTT
          Differentiating once with respect to electric field.
                with respect to dipole field.
          Differentiating once with respect to nuclear coordinates.
          Store integrals in memory, NReq=     2184687.
          There are  21 degrees of freedom in the 1st order CPHF.
    18 vectors were produced by pass  0.
 AX will form  18 AO Fock derivatives at one time.
    18 vectors were produced by pass  1.
    18 vectors were produced by pass  2.
    18 vectors were produced by pass  3.
    18 vectors were produced by pass  4.
    18 vectors were produced by pass  5.
    18 vectors were produced by pass  6.
    18 vectors were produced by pass  7.
    18 vectors were produced by pass  8.
     9 vectors were produced by pass  9.
     3 vectors were produced by pass 10.
     2 vectors were produced by pass 11.
 Inv2:  IOpt= 1 Iter= 1 AM= 5.91D-15 Conv= 1.00D-12.
 Inverted reduced A of dimension  176 with in-core refinement.
 Isotropic polarizability for W=    0.000000      194.16 Bohr**3.
 End of Minotr Frequency-dependent properties file   721 does not exist.
   1 Symmetry operations used in ECPInt.
 ECPInt:  NShTT=     300 NPrTT=     678 LenC2=     301 LenP2D=     678.
 LDataN:  DoStor=F MaxTD1= 5 Len=  102
 LDataN:  DoStor=T MaxTD1= 5 Len=  102
 -------------------------------------------------------------------
 Center     Atomic                   Forces (Hartrees/Bohr)
 Number     Number              X              Y              Z
 -------------------------------------------------------------------
    1         14           0.000000000   -0.003959684    0.021164407
    2         14           0.000000000   -0.003261661   -0.006308093
    3         14           0.000000000    0.003959684    0.021164405
    4         14           0.000000000    0.003261661   -0.006308092
    5         14          -0.018227912    0.000000000   -0.014856314
    6         14           0.018227912    0.000000000   -0.014856314
 -------------------------------------------------------------------
 Cartesian Forces:  Max     0.021164407 RMS     0.010888365

 GradGradGradGradGradGradGradGradGradGradGradGradGradGradGradGradGradGrad
 Berny optimization.
 Internal  Forces:  Max     0.010139822 RMS     0.005179622
 Search for a local minimum.
 Step number   2 out of a maximum of 100
 All quantities printed in internal units (Hartrees-Bohrs-Radians)
 Second derivative matrix not updated -- analytic derivatives used.
 Trust test= 1.02D+00 RLast= 3.00D-01 DXMaxT set to 4.24D-01
 Maximum step size (   0.424) exceeded in linear search.
    -- Step size scaled by   0.707
 Quartic linear search produced a step of  1.41431.
 Iteration  1 RMS(Cart)=  0.05441930 RMS(Int)=  0.00163136
 Iteration  2 RMS(Cart)=  0.00075066 RMS(Int)=  0.00140861
 Iteration  3 RMS(Cart)=  0.00000075 RMS(Int)=  0.00140861
 Variable       Old X    -DE/DX   Delta X   Delta X   Delta X     New X
                                 (Linear)    (Quad)   (Total)
    R1        4.75342   0.00689   0.10789   0.00000   0.10694   4.86036
    R2        4.44756  -0.00259  -0.06317   0.00000  -0.06427   4.38329
    R3        4.83862   0.01014   0.18160   0.00000   0.18216   5.02079
    R4        4.83862   0.01014   0.18160   0.00000   0.18216   5.02079
    R5        4.62554   0.00077   0.01963   0.00000   0.02046   4.64600
    R6        4.62554   0.00077   0.01963   0.00000   0.02046   4.64600
    R7        4.75342   0.00689   0.10789   0.00000   0.10694   4.86036
    R8        4.83862   0.01014   0.18160   0.00000   0.18216   5.02079
    R9        4.83862   0.01014   0.18160   0.00000   0.18216   5.02079
   R10        4.62554   0.00077   0.01963   0.00000   0.02046   4.64600
   R11        4.62554   0.00077   0.01963   0.00000   0.02046   4.64600
   R12        4.98813   0.00589   0.11466   0.00000   0.11220   5.10032
    A1        1.90119  -0.00007   0.00484   0.00000   0.00394   1.90513
    A2        1.90119  -0.00007   0.00484   0.00000   0.00394   1.90513
    A3        1.82565  -0.00183  -0.03870   0.00000  -0.03830   1.78735
    A4        1.82565  -0.00183  -0.03870   0.00000  -0.03830   1.78735
    A5        1.90251  -0.00001   0.00660   0.00000   0.00297   1.90547
    A6        1.82565  -0.00183  -0.03870   0.00000  -0.03830   1.78735
    A7        1.82565  -0.00183  -0.03870   0.00000  -0.03830   1.78735
    A8        1.90251  -0.00001   0.00660   0.00000   0.00297   1.90547
    D1        0.00000   0.00000   0.00000   0.00000   0.00000   0.00000
         Item               Value     Threshold  Converged?
 Maximum Force            0.010140     0.000450     NO 
 RMS     Force            0.005180     0.000300     NO 
 Maximum Displacement     0.121002     0.001800     NO 
 RMS     Displacement     0.054399     0.001200     NO 
 Predicted change in Energy=-6.995922D-03
 GradGradGradGradGradGradGradGradGradGradGradGradGradGradGradGradGradGrad

                          Input orientation:                          
 ---------------------------------------------------------------------
 Center     Atomic     Atomic              Coordinates (Angstroms)
 Number     Number      Type              X           Y           Z
 ---------------------------------------------------------------------
    1         14             0        0.000000   -1.159769    1.559637
    2         14             0        0.000000   -2.003733   -0.869943
    3         14             0        0.000000    1.159769    1.559637
    4         14             0        0.000000    2.003733   -0.869943
    5         14             0       -1.349487    0.000000   -0.413397
    6         14             0        1.349487    0.000000   -0.413397
 ---------------------------------------------------------------------
                    Distance matrix (angstroms):
                    1          2          3          4          5
     1  Si   0.000000
     2  Si   2.571990   0.000000
     3  Si   2.319537   3.988809   0.000000
     4  Si   3.988809   4.007466   2.571990   0.000000
     5  Si   2.656886   2.458555   2.656886   2.458555   0.000000
     6  Si   2.656886   2.458555   2.656886   2.458555   2.698975
                    6
     6  Si   0.000000
 Symmetry turned off by external request.
 Stoichiometry    Si6(1-,2)
 Framework group  CS[SG(Si4),X(Si2)]
 Deg. of freedom     8
 Full point group                 CS
 Rotational constants (GHZ):      1.7518154      1.2577511      1.0387985
 Standard basis: LANL2DZ (5D, 7F)
 Integral buffers will be    131072 words long.
 Raffenetti 2 integral format.
 Two-electron integral symmetry is turned off.
    48 basis functions,    72 primitive gaussians,    48 cartesian basis functions
    13 alpha electrons       12 beta electrons
       nuclear repulsion energy        46.2515315668 Hartrees.
 NAtoms=    6 NActive=    6 NUniq=    6 SFac= 7.50D-01 NAtFMM=   80 NAOKFM=F Big=F
 One-electron integrals computed using PRISM.
   1 Symmetry operations used in ECPInt.
 ECPInt:  NShTT=     300 NPrTT=     678 LenC2=     301 LenP2D=     675.
 LDataN:  DoStor=F MaxTD1= 3 Len=   28
 LDataN:  DoStor=T MaxTD1= 3 Len=   28
 NBasis=    48 RedAO= T  NBF=    48
 NBsUse=    48 1.00D-06 NBFU=    48
 Initial guess read from the read-write file:
 <S**2> of initial guess= 0.8291
 Harris functional with IExCor=  205 diagonalized for initial guess.
 ExpMin= 8.85D-02 ExpMax= 2.58D+00 ExpMxC= 2.58D+00 IAcc=2 IRadAn=         4 AccDes= 0.00D+00
 HarFok:  IExCor= 205 AccDes= 0.00D+00 IRadAn=         4 IDoV=1
 ScaDFX=  1.000000  1.000000  1.000000  1.000000
 Requested convergence on RMS density matrix=1.00D-08 within 128 cycles.
 Requested convergence on MAX density matrix=1.00D-06.
 Requested convergence on             energy=1.00D-06.
 No special actions if energy rises.
 Keep R1 and R2 integrals in memory in canonical form, NReq=     2268654.
 Restarting incremental Fock formation.
 SCF Done:  E(UHF) =  -22.3515789178     A.U. after   21 cycles
             Convg  =    0.3875D-08             -V/T =  3.5349
             S**2   =   0.8434
 Annihilation of the first spin contaminant:
 S**2 before annihilation     0.8434,   after     0.7571
 QCSCF skips out because SCF is already converged.
 Range of M.O.s used for correlation:     1    48
 NBasis=    48 NAE=    13 NBE=    12 NFC=     0 NFV=     0
 NROrb=     48 NOA=    13 NOB=    12 NVA=    35 NVB=    36
   1 Symmetry operations used in ECPInt.
 ECPInt:  NShTT=     300 NPrTT=     678 LenC2=     301 LenP2D=     675.
 LDataN:  DoStor=F MaxTD1= 4 Len=   56
 LDataN:  DoStor=T MaxTD1= 4 Len=   56
 Symmetrizing basis deriv contribution to polar:
 IMax=3 JMax=2 DiffMx= 0.00D+00
 G2DrvN: will do    7 centers at a time, making    1 passes doing MaxLOS=1.
 FoFDir/FoFCou used for L=0 through L=1.
 DoAtom=TTTTTT
          Differentiating once with respect to electric field.
                with respect to dipole field.
          Differentiating once with respect to nuclear coordinates.
          Store integrals in memory, NReq=     2184687.
          There are  21 degrees of freedom in the 1st order CPHF.
    18 vectors were produced by pass  0.
 AX will form  18 AO Fock derivatives at one time.
    18 vectors were produced by pass  1.
    18 vectors were produced by pass  2.
    18 vectors were produced by pass  3.
    18 vectors were produced by pass  4.
    18 vectors were produced by pass  5.
    18 vectors were produced by pass  6.
    18 vectors were produced by pass  7.
    18 vectors were produced by pass  8.
     9 vectors were produced by pass  9.
     3 vectors were produced by pass 10.
     3 vectors were produced by pass 11.
 Inv2:  IOpt= 1 Iter= 1 AM= 1.01D-14 Conv= 1.00D-12.
 Inverted reduced A of dimension  177 with in-core refinement.
 Isotropic polarizability for W=    0.000000      197.92 Bohr**3.
 End of Minotr Frequency-dependent properties file   721 does not exist.
   1 Symmetry operations used in ECPInt.
 ECPInt:  NShTT=     300 NPrTT=     678 LenC2=     301 LenP2D=     678.
 LDataN:  DoStor=F MaxTD1= 5 Len=  102
 LDataN:  DoStor=T MaxTD1= 5 Len=  102
 -------------------------------------------------------------------
 Center     Atomic                   Forces (Hartrees/Bohr)
 Number     Number              X              Y              Z
 -------------------------------------------------------------------
    1         14           0.000000000   -0.005423832    0.010432707
    2         14           0.000000000   -0.001394729   -0.001935862
    3         14           0.000000000    0.005423831    0.010432704
    4         14           0.000000000    0.001394729   -0.001935861
    5         14          -0.007619076    0.000000000   -0.008496843
    6         14           0.007619076    0.000000000   -0.008496844
 -------------------------------------------------------------------
 Cartesian Forces:  Max     0.010432707 RMS     0.005519650

 GradGradGradGradGradGradGradGradGradGradGradGradGradGradGradGradGradGrad
 Berny optimization.
 Internal  Forces:  Max     0.005637596 RMS     0.002613038
 Search for a local minimum.
 Step number   3 out of a maximum of 100
 All quantities printed in internal units (Hartrees-Bohrs-Radians)
 Second derivative matrix not updated -- analytic derivatives used.
 Maximum step size (   0.424) exceeded in linear search.
    -- Step size scaled by   0.823
 Quintic linear search produced a step of  1.00024.
 Iteration  1 RMS(Cart)=  0.05332180 RMS(Int)=  0.00167733
 Iteration  2 RMS(Cart)=  0.00070873 RMS(Int)=  0.00149004
 Iteration  3 RMS(Cart)=  0.00000076 RMS(Int)=  0.00149004
 Variable       Old X    -DE/DX   Delta X   Delta X   Delta X     New X
                                 (Linear)    (Quad)   (Total)
    R1        4.86036   0.00218   0.10697   0.00000   0.10601   4.96637
    R2        4.38329   0.00140  -0.06428   0.00000  -0.06542   4.31788
    R3        5.02079   0.00564   0.18221   0.00000   0.18275   5.20354
    R4        5.02079   0.00564   0.18221   0.00000   0.18275   5.20354
    R5        4.64600   0.00039   0.02047   0.00000   0.02131   4.66731
    R6        4.64600   0.00039   0.02047   0.00000   0.02131   4.66731
    R7        4.86036   0.00218   0.10697   0.00000   0.10601   4.96637
    R8        5.02079   0.00564   0.18221   0.00000   0.18275   5.20354
    R9        5.02079   0.00564   0.18221   0.00000   0.18275   5.20354
   R10        4.64600   0.00039   0.02047   0.00000   0.02131   4.66731
   R11        4.64600   0.00039   0.02047   0.00000   0.02131   4.66731
   R12        5.10032   0.00129   0.11222   0.00000   0.10976   5.21008
    A1        1.90513  -0.00007   0.00394   0.00000   0.00300   1.90813
    A2        1.90513  -0.00007   0.00394   0.00000   0.00300   1.90813
    A3        1.78735  -0.00068  -0.03831   0.00000  -0.03766   1.74969
    A4        1.78735  -0.00068  -0.03831   0.00000  -0.03766   1.74969
    A5        1.90547   0.00057   0.00297   0.00000  -0.00090   1.90457
    A6        1.78735  -0.00068  -0.03831   0.00000  -0.03766   1.74969
    A7        1.78735  -0.00068  -0.03831   0.00000  -0.03766   1.74969
    A8        1.90547   0.00057   0.00297   0.00000  -0.00090   1.90457
    D1        0.00000   0.00000   0.00000   0.00000   0.00000   0.00000
         Item               Value     Threshold  Converged?
 Maximum Force            0.005638     0.000450     NO 
 RMS     Force            0.002613     0.000300     NO 
 Maximum Displacement     0.118211     0.001800     NO 
 RMS     Displacement     0.053307     0.001200     NO 
 Predicted change in Energy=-2.479439D-03
 GradGradGradGradGradGradGradGradGradGradGradGradGradGradGradGradGradGrad

                          Input orientation:                          
 ---------------------------------------------------------------------
 Center     Atomic     Atomic              Coordinates (Angstroms)
 Number     Number      Type              X           Y           Z
 ---------------------------------------------------------------------
    1         14             0        0.000000   -1.142461    1.616111
    2         14             0        0.000000   -2.012278   -0.863862
    3         14             0        0.000000    1.142461    1.616111
    4         14             0        0.000000    2.012278   -0.863862
    5         14             0       -1.378529    0.000000   -0.475951
    6         14             0        1.378529    0.000000   -0.475951
 ---------------------------------------------------------------------
                    Distance matrix (angstroms):
                    1          2          3          4          5
     1  Si   0.000000
     2  Si   2.628089   0.000000
     3  Si   2.284921   4.012810   0.000000
     4  Si   4.012810   4.024556   2.628089   0.000000
     5  Si   2.753594   2.469834   2.753595   2.469834   0.000000
     6  Si   2.753594   2.469834   2.753595   2.469834   2.757057
                    6
     6  Si   0.000000
 Symmetry turned off by external request.
 Stoichiometry    Si6(1-,2)
 Framework group  C1[X(Si6)]
 Deg. of freedom    12
 Full point group                 C1
 Rotational constants (GHZ):      1.6543771      1.2449747      1.0132866
 Standard basis: LANL2DZ (5D, 7F)
 Integral buffers will be    131072 words long.
 Raffenetti 2 integral format.
 Two-electron integral symmetry is turned off.
    48 basis functions,    72 primitive gaussians,    48 cartesian basis functions
    13 alpha electrons       12 beta electrons
       nuclear repulsion energy        45.5552496300 Hartrees.
 NAtoms=    6 NActive=    6 NUniq=    6 SFac= 7.50D-01 NAtFMM=   80 NAOKFM=F Big=F
 One-electron integrals computed using PRISM.
   1 Symmetry operations used in ECPInt.
 ECPInt:  NShTT=     300 NPrTT=     678 LenC2=     301 LenP2D=     675.
 LDataN:  DoStor=F MaxTD1= 3 Len=   28
 LDataN:  DoStor=T MaxTD1= 3 Len=   28
 NBasis=    48 RedAO= T  NBF=    48
 NBsUse=    48 1.00D-06 NBFU=    48
 Initial guess read from the read-write file:
 <S**2> of initial guess= 0.8463
 Harris functional with IExCor=  205 diagonalized for initial guess.
 ExpMin= 8.85D-02 ExpMax= 2.58D+00 ExpMxC= 2.58D+00 IAcc=2 IRadAn=         4 AccDes= 0.00D+00
 HarFok:  IExCor= 205 AccDes= 0.00D+00 IRadAn=         4 IDoV=1
 ScaDFX=  1.000000  1.000000  1.000000  1.000000
 Requested convergence on RMS density matrix=1.00D-08 within 128 cycles.
 Requested convergence on MAX density matrix=1.00D-06.
 Requested convergence on             energy=1.00D-06.
 No special actions if energy rises.
 Keep R1 and R2 integrals in memory in canonical form, NReq=     2268654.
 Restarting incremental Fock formation.
 SCF Done:  E(UHF) =  -22.3542314077     A.U. after   20 cycles
             Convg  =    0.9725D-08             -V/T =  3.5603
             S**2   =   0.8694
 Annihilation of the first spin contaminant:
 S**2 before annihilation     0.8694,   after     0.7622
 QCSCF skips out because SCF is already converged.
 Range of M.O.s used for correlation:     1    48
 NBasis=    48 NAE=    13 NBE=    12 NFC=     0 NFV=     0
 NROrb=     48 NOA=    13 NOB=    12 NVA=    35 NVB=    36
   1 Symmetry operations used in ECPInt.
 ECPInt:  NShTT=     300 NPrTT=     678 LenC2=     301 LenP2D=     675.
 LDataN:  DoStor=F MaxTD1= 4 Len=   56
 LDataN:  DoStor=T MaxTD1= 4 Len=   56
 Symmetrizing basis deriv contribution to polar:
 IMax=3 JMax=2 DiffMx= 0.00D+00
 G2DrvN: will do    7 centers at a time, making    1 passes doing MaxLOS=1.
 FoFDir/FoFCou used for L=0 through L=1.
 DoAtom=TTTTTT
          Differentiating once with respect to electric field.
                with respect to dipole field.
          Differentiating once with respect to nuclear coordinates.
          Store integrals in memory, NReq=     2184687.
          There are  21 degrees of freedom in the 1st order CPHF.
    18 vectors were produced by pass  0.
 AX will form  18 AO Fock derivatives at one time.
    18 vectors were produced by pass  1.
    18 vectors were produced by pass  2.
    18 vectors were produced by pass  3.
    18 vectors were produced by pass  4.
    18 vectors were produced by pass  5.
    18 vectors were produced by pass  6.
    18 vectors were produced by pass  7.
    18 vectors were produced by pass  8.
    10 vectors were produced by pass  9.
     3 vectors were produced by pass 10.
     3 vectors were produced by pass 11.
 Inv2:  IOpt= 1 Iter= 1 AM= 8.81D-15 Conv= 1.00D-12.
 Inverted reduced A of dimension  178 with in-core refinement.
 Isotropic polarizability for W=    0.000000      201.46 Bohr**3.
 End of Minotr Frequency-dependent properties file   721 does not exist.
   1 Symmetry operations used in ECPInt.
 ECPInt:  NShTT=     300 NPrTT=     678 LenC2=     301 LenP2D=     678.
 LDataN:  DoStor=F MaxTD1= 5 Len=  102
 LDataN:  DoStor=T MaxTD1= 5 Len=  102
 -------------------------------------------------------------------
 Center     Atomic                   Forces (Hartrees/Bohr)
 Number     Number              X              Y              Z
 -------------------------------------------------------------------
    1         14          -0.000000002   -0.010023511    0.002440345
    2         14           0.000000003    0.000058386    0.001551401
    3         14          -0.000000002    0.010023509    0.002440342
    4         14           0.000000003   -0.000058385    0.001551401
    5         14           0.001212542    0.000000000   -0.003991741
    6         14          -0.001212546    0.000000000   -0.003991748
 -------------------------------------------------------------------
 Cartesian Forces:  Max     0.010023511 RMS     0.003745228

 GradGradGradGradGradGradGradGradGradGradGradGradGradGradGradGradGradGrad
 Berny optimization.
 Internal  Forces:  Max     0.007094819 RMS     0.002178383
 Search for a local minimum.
 Step number   4 out of a maximum of 100
 All quantities printed in internal units (Hartrees-Bohrs-Radians)
 Second derivative matrix not updated -- analytic derivatives used.
     Eigenvalues ---    0.00533   0.00934   0.01240   0.01496   0.02024
     Eigenvalues ---    0.02195   0.02697   0.03064   0.03852   0.05100
     Eigenvalues ---    0.08241   0.108991000.000001000.000001000.00000
     Eigenvalues --- 1000.000001000.000001000.000001000.000001000.00000
     Eigenvalues --- 1000.00000
 RFO step:  Lambda=-2.22266079D-03.
 Quintic linear search produced a step of  0.19269.
 Iteration  1 RMS(Cart)=  0.06823494 RMS(Int)=  0.00470027
 Iteration  2 RMS(Cart)=  0.00279720 RMS(Int)=  0.00263439
 Iteration  3 RMS(Cart)=  0.00000480 RMS(Int)=  0.00263439
 Iteration  4 RMS(Cart)=  0.00000002 RMS(Int)=  0.00263439
 Variable       Old X    -DE/DX   Delta X   Delta X   Delta X     New X
                                 (Linear)    (Quad)   (Total)
    R1        4.96637  -0.00170   0.02043  -0.10178  -0.08182   4.88454
    R2        4.31788   0.00709  -0.01260   0.05513   0.04219   4.36007
    R3        5.20354   0.00265   0.03521   0.11728   0.15269   5.35623
    R4        5.20354   0.00265   0.03521   0.11728   0.15269   5.35623
    R5        4.66731   0.00009   0.00411  -0.01421  -0.00867   4.65864
    R6        4.66731   0.00009   0.00411  -0.01421  -0.00867   4.65863
    R7        4.96637  -0.00170   0.02043  -0.10178  -0.08183   4.88454
    R8        5.20354   0.00265   0.03521   0.11728   0.15269   5.35623
    R9        5.20354   0.00265   0.03521   0.11728   0.15269   5.35623
   R10        4.66731   0.00009   0.00411  -0.01421  -0.00867   4.65864
   R11        4.66731   0.00009   0.00411  -0.01421  -0.00867   4.65863
   R12        5.21008  -0.00326   0.02115  -0.05019  -0.03387   5.17622
    A1        1.90813  -0.00022   0.00058   0.01245   0.01130   1.91943
    A2        1.90813  -0.00022   0.00058   0.01246   0.01130   1.91943
    A3        1.74969   0.00044  -0.00726  -0.02922  -0.03761   1.71208
    A4        1.74969   0.00044  -0.00726  -0.02922  -0.03761   1.71208
    A5        1.90457   0.00140  -0.00017   0.04717   0.03984   1.94441
    A6        1.74969   0.00044  -0.00726  -0.02922  -0.03761   1.71208
    A7        1.74969   0.00044  -0.00726  -0.02922  -0.03761   1.71208
    A8        1.90457   0.00140  -0.00017   0.04717   0.03984   1.94441
    D1        0.00000   0.00000   0.00000   0.00000   0.00000   0.00000
         Item               Value     Threshold  Converged?
 Maximum Force            0.007095     0.000450     NO 
 RMS     Force            0.002178     0.000300     NO 
 Maximum Displacement     0.164250     0.001800     NO 
 RMS     Displacement     0.067542     0.001200     NO 
 Predicted change in Energy=-1.291686D-03
 GradGradGradGradGradGradGradGradGradGradGradGradGradGradGradGradGradGrad

                          Input orientation:                          
 ---------------------------------------------------------------------
 Center     Atomic     Atomic              Coordinates (Angstroms)
 Number     Number      Type              X           Y           Z
 ---------------------------------------------------------------------
    1         14             0        0.000000   -1.153624    1.634230
    2         14             0        0.000000   -2.036614   -0.795064
    3         14             0        0.000000    1.153624    1.634229
    4         14             0        0.000000    2.036614   -0.795063
    5         14             0       -1.369568    0.000000   -0.562868
    6         14             0        1.369568    0.000000   -0.562869
 ---------------------------------------------------------------------
                    Distance matrix (angstroms):
                    1          2          3          4          5
     1  Si   0.000000
     2  Si   2.584790   0.000000
     3  Si   2.307248   4.009873   0.000000
     4  Si   4.009873   4.073227   2.584788   0.000000
     5  Si   2.834396   2.465243   2.834396   2.465244   0.000000
     6  Si   2.834397   2.465243   2.834396   2.465243   2.739135
                    6
     6  Si   0.000000
 Symmetry turned off by external request.
 Stoichiometry    Si6(1-,2)
 Framework group  C1[X(Si6)]
 Deg. of freedom    12
 Full point group                 C1
 Rotational constants (GHZ):      1.6512244      1.2281243      0.9955051
 Standard basis: LANL2DZ (5D, 7F)
 Integral buffers will be    131072 words long.
 Raffenetti 2 integral format.
 Two-electron integral symmetry is turned off.
    48 basis functions,    72 primitive gaussians,    48 cartesian basis functions
    13 alpha electrons       12 beta electrons
       nuclear repulsion energy        45.3002831833 Hartrees.
 NAtoms=    6 NActive=    6 NUniq=    6 SFac= 7.50D-01 NAtFMM=   80 NAOKFM=F Big=F
 One-electron integrals computed using PRISM.
   1 Symmetry operations used in ECPInt.
 ECPInt:  NShTT=     300 NPrTT=     678 LenC2=     301 LenP2D=     673.
 LDataN:  DoStor=F MaxTD1= 3 Len=   28
 LDataN:  DoStor=T MaxTD1= 3 Len=   28
 NBasis=    48 RedAO= T  NBF=    48
 NBsUse=    48 1.00D-06 NBFU=    48
 Initial guess read from the read-write file:
 <S**2> of initial guess= 0.8697
 Harris functional with IExCor=  205 diagonalized for initial guess.
 ExpMin= 8.85D-02 ExpMax= 2.58D+00 ExpMxC= 2.58D+00 IAcc=2 IRadAn=         4 AccDes= 0.00D+00
 HarFok:  IExCor= 205 AccDes= 0.00D+00 IRadAn=         4 IDoV=1
 ScaDFX=  1.000000  1.000000  1.000000  1.000000
 Requested convergence on RMS density matrix=1.00D-08 within 128 cycles.
 Requested convergence on MAX density matrix=1.00D-06.
 Requested convergence on             energy=1.00D-06.
 No special actions if energy rises.
 Keep R1 and R2 integrals in memory in canonical form, NReq=     2268654.
 Restarting incremental Fock formation.
 SCF Done:  E(UHF) =  -22.3556681527     A.U. after   21 cycles
             Convg  =    0.1318D-08             -V/T =  3.5670
             S**2   =   0.9140
 Annihilation of the first spin contaminant:
 S**2 before annihilation     0.9140,   after     0.7727
 QCSCF skips out because SCF is already converged.
 Range of M.O.s used for correlation:     1    48
 NBasis=    48 NAE=    13 NBE=    12 NFC=     0 NFV=     0
 NROrb=     48 NOA=    13 NOB=    12 NVA=    35 NVB=    36
   1 Symmetry operations used in ECPInt.
 ECPInt:  NShTT=     300 NPrTT=     678 LenC2=     301 LenP2D=     673.
 LDataN:  DoStor=F MaxTD1= 4 Len=   56
 LDataN:  DoStor=T MaxTD1= 4 Len=   56
 Symmetrizing basis deriv contribution to polar:
 IMax=3 JMax=2 DiffMx= 0.00D+00
 G2DrvN: will do    7 centers at a time, making    1 passes doing MaxLOS=1.
 FoFDir/FoFCou used for L=0 through L=1.
 DoAtom=TTTTTT
          Differentiating once with respect to electric field.
                with respect to dipole field.
          Differentiating once with respect to nuclear coordinates.
          Store integrals in memory, NReq=     2184687.
          There are  21 degrees of freedom in the 1st order CPHF.
    18 vectors were produced by pass  0.
 AX will form  18 AO Fock derivatives at one time.
    18 vectors were produced by pass  1.
    18 vectors were produced by pass  2.
    18 vectors were produced by pass  3.
    18 vectors were produced by pass  4.
    18 vectors were produced by pass  5.
    18 vectors were produced by pass  6.
    18 vectors were produced by pass  7.
    18 vectors were produced by pass  8.
    10 vectors were produced by pass  9.
     3 vectors were produced by pass 10.
     3 vectors were produced by pass 11.
 Inv2:  IOpt= 1 Iter= 1 AM= 8.51D-15 Conv= 1.00D-12.
 Inverted reduced A of dimension  178 with in-core refinement.
 Isotropic polarizability for W=    0.000000      202.87 Bohr**3.
 End of Minotr Frequency-dependent properties file   721 does not exist.
   1 Symmetry operations used in ECPInt.
 ECPInt:  NShTT=     300 NPrTT=     678 LenC2=     301 LenP2D=     678.
 LDataN:  DoStor=F MaxTD1= 5 Len=  102
 LDataN:  DoStor=T MaxTD1= 5 Len=  102
 -------------------------------------------------------------------
 Center     Atomic                   Forces (Hartrees/Bohr)
 Number     Number              X              Y              Z
 -------------------------------------------------------------------
    1         14          -0.000000018   -0.001511257    0.000911141
    2         14           0.000000030   -0.000232289    0.000405434
    3         14          -0.000000018    0.001511240    0.000911151
    4         14           0.000000030    0.000232315    0.000405405
    5         14          -0.000435390   -0.000000004   -0.001316532
    6         14           0.000435368   -0.000000004   -0.001316599
 -------------------------------------------------------------------
 Cartesian Forces:  Max     0.001511257 RMS     0.000764147

 GradGradGradGradGradGradGradGradGradGradGradGradGradGradGradGradGradGrad
 Berny optimization.
 Internal  Forces:  Max     0.000835360 RMS     0.000452823
 Search for a local minimum.
 Step number   5 out of a maximum of 100
 All quantities printed in internal units (Hartrees-Bohrs-Radians)
 Second derivative matrix not updated -- analytic derivatives used.
 Trust test= 1.11D+00 RLast= 3.45D-01 DXMaxT set to 6.00D-01
     Eigenvalues ---    0.00621   0.00662   0.00978   0.01395   0.01696
     Eigenvalues ---    0.02284   0.02670   0.03262   0.03912   0.05394
     Eigenvalues ---    0.08061   0.102001000.000001000.000001000.00000
     Eigenvalues --- 1000.000001000.000001000.000001000.000001000.00000
     Eigenvalues --- 1000.00000
 RFO step:  Lambda=-2.17242553D-04.
 Quintic linear search produced a step of  0.59685.
 Iteration  1 RMS(Cart)=  0.06205058 RMS(Int)=  0.00494701
 Iteration  2 RMS(Cart)=  0.00233835 RMS(Int)=  0.00373404
 Iteration  3 RMS(Cart)=  0.00000376 RMS(Int)=  0.00373404
 Iteration  4 RMS(Cart)=  0.00000002 RMS(Int)=  0.00373404
 Variable       Old X    -DE/DX   Delta X   Delta X   Delta X     New X
                                 (Linear)    (Quad)   (Total)
    R1        4.88454  -0.00040  -0.04884  -0.02437  -0.07338   4.81116
    R2        4.36007   0.00074   0.02518  -0.03430  -0.00930   4.35077
    R3        5.35623   0.00084   0.09114   0.04961   0.14072   5.49696
    R4        5.35623   0.00084   0.09114   0.04961   0.14073   5.49696
    R5        4.65864   0.00018  -0.00518   0.01087   0.00761   4.66624
    R6        4.65863   0.00018  -0.00518   0.01086   0.00760   4.66623
    R7        4.88454  -0.00040  -0.04884  -0.02437  -0.07339   4.81116
    R8        5.35623   0.00084   0.09113   0.04961   0.14072   5.49696
    R9        5.35623   0.00084   0.09114   0.04961   0.14073   5.49696
   R10        4.65864   0.00018  -0.00518   0.01087   0.00761   4.66624
   R11        4.65863   0.00018  -0.00518   0.01086   0.00760   4.66624
   R12        5.17622  -0.00051  -0.02021   0.02533  -0.00124   5.17498
    A1        1.91943   0.00007   0.00674   0.00912   0.01346   1.93289
    A2        1.91943   0.00007   0.00674   0.00912   0.01346   1.93289
    A3        1.71208  -0.00011  -0.02245  -0.02172  -0.04531   1.66677
    A4        1.71208  -0.00011  -0.02245  -0.02172  -0.04531   1.66677
    A5        1.94441   0.00032   0.02378   0.00566   0.01893   1.96334
    A6        1.71208  -0.00011  -0.02245  -0.02172  -0.04531   1.66677
    A7        1.71208  -0.00011  -0.02245  -0.02172  -0.04531   1.66677
    A8        1.94441   0.00032   0.02378   0.00566   0.01893   1.96335
    D1        0.00000   0.00000   0.00000   0.00000   0.00000   0.00000
         Item               Value     Threshold  Converged?
 Maximum Force            0.000835     0.000450     NO 
 RMS     Force            0.000453     0.000300     NO 
 Maximum Displacement     0.152325     0.001800     NO 
 RMS     Displacement     0.061700     0.001200     NO 
 Predicted change in Energy=-2.276495D-04
 GradGradGradGradGradGradGradGradGradGradGradGradGradGradGradGradGradGrad

                          Input orientation:                          
 ---------------------------------------------------------------------
 Center     Atomic     Atomic              Coordinates (Angstroms)
 Number     Number      Type              X           Y           Z
 ---------------------------------------------------------------------
    1         14             0       -0.000001   -1.151164    1.650322
    2         14             0        0.000002   -2.053016   -0.730551
    3         14             0       -0.000001    1.151165    1.650321
    4         14             0        0.000002    2.053016   -0.730550
    5         14             0       -1.369241    0.000000   -0.643472
    6         14             0        1.369239    0.000000   -0.643475
 ---------------------------------------------------------------------
                    Distance matrix (angstroms):
                    1          2          3          4          5
     1  Si   0.000000
     2  Si   2.545957   0.000000
     3  Si   2.302329   3.991908   0.000000
     4  Si   3.991908   4.106033   2.545955   0.000000
     5  Si   2.908864   2.469268   2.908864   2.469268   0.000000
     6  Si   2.908867   2.469265   2.908866   2.469265   2.738480
                    6
     6  Si   0.000000
 Symmetry turned off by external request.
 Stoichiometry    Si6(1-,2)
 Framework group  C1[X(Si6)]
 Deg. of freedom    12
 Full point group                 C1
 Rotational constants (GHZ):      1.6360375      1.2181011      0.9832497
 Standard basis: LANL2DZ (5D, 7F)
 Integral buffers will be    131072 words long.
 Raffenetti 2 integral format.
 Two-electron integral symmetry is turned off.
    48 basis functions,    72 primitive gaussians,    48 cartesian basis functions
    13 alpha electrons       12 beta electrons
       nuclear repulsion energy        45.0829082993 Hartrees.
 NAtoms=    6 NActive=    6 NUniq=    6 SFac= 7.50D-01 NAtFMM=   80 NAOKFM=F Big=F
 One-electron integrals computed using PRISM.
   1 Symmetry operations used in ECPInt.
 ECPInt:  NShTT=     300 NPrTT=     678 LenC2=     301 LenP2D=     673.
 LDataN:  DoStor=F MaxTD1= 3 Len=   28
 LDataN:  DoStor=T MaxTD1= 3 Len=   28
 NBasis=    48 RedAO= T  NBF=    48
 NBsUse=    48 1.00D-06 NBFU=    48
 Initial guess read from the read-write file:
 <S**2> of initial guess= 0.9175
 Harris functional with IExCor=  205 diagonalized for initial guess.
 ExpMin= 8.85D-02 ExpMax= 2.58D+00 ExpMxC= 2.58D+00 IAcc=2 IRadAn=         4 AccDes= 0.00D+00
 HarFok:  IExCor= 205 AccDes= 0.00D+00 IRadAn=         4 IDoV=1
 ScaDFX=  1.000000  1.000000  1.000000  1.000000
 Requested convergence on RMS density matrix=1.00D-08 within 128 cycles.
 Requested convergence on MAX density matrix=1.00D-06.
 Requested convergence on             energy=1.00D-06.
 No special actions if energy rises.
 Keep R1 and R2 integrals in memory in canonical form, NReq=     2268654.
 Restarting incremental Fock formation.
 SCF Done:  E(UHF) =  -22.3559503771     A.U. after   25 cycles
             Convg  =    0.6968D-08             -V/T =  3.5697
             S**2   =   0.9884
 Annihilation of the first spin contaminant:
 S**2 before annihilation     0.9884,   after     0.7951
 QCSCF skips out because SCF is already converged.
 Range of M.O.s used for correlation:     1    48
 NBasis=    48 NAE=    13 NBE=    12 NFC=     0 NFV=     0
 NROrb=     48 NOA=    13 NOB=    12 NVA=    35 NVB=    36
   1 Symmetry operations used in ECPInt.
 ECPInt:  NShTT=     300 NPrTT=     678 LenC2=     301 LenP2D=     673.
 LDataN:  DoStor=F MaxTD1= 4 Len=   56
 LDataN:  DoStor=T MaxTD1= 4 Len=   56
 Symmetrizing basis deriv contribution to polar:
 IMax=3 JMax=2 DiffMx= 0.00D+00
 G2DrvN: will do    7 centers at a time, making    1 passes doing MaxLOS=1.
 FoFDir/FoFCou used for L=0 through L=1.
 DoAtom=TTTTTT
          Differentiating once with respect to electric field.
                with respect to dipole field.
          Differentiating once with respect to nuclear coordinates.
          Store integrals in memory, NReq=     2184687.
          There are  21 degrees of freedom in the 1st order CPHF.
    18 vectors were produced by pass  0.
 AX will form  18 AO Fock derivatives at one time.
    18 vectors were produced by pass  1.
    18 vectors were produced by pass  2.
    18 vectors were produced by pass  3.
    18 vectors were produced by pass  4.
    18 vectors were produced by pass  5.
    18 vectors were produced by pass  6.
    18 vectors were produced by pass  7.
    18 vectors were produced by pass  8.
     8 vectors were produced by pass  9.
     3 vectors were produced by pass 10.
     3 vectors were produced by pass 11.
 Inv2:  IOpt= 1 Iter= 1 AM= 7.57D-15 Conv= 1.00D-12.
 Inverted reduced A of dimension  176 with in-core refinement.
 Isotropic polarizability for W=    0.000000      204.92 Bohr**3.
 End of Minotr Frequency-dependent properties file   721 does not exist.
   1 Symmetry operations used in ECPInt.
 ECPInt:  NShTT=     300 NPrTT=     678 LenC2=     301 LenP2D=     678.
 LDataN:  DoStor=F MaxTD1= 5 Len=  102
 LDataN:  DoStor=T MaxTD1= 5 Len=  102
 -------------------------------------------------------------------
 Center     Atomic                   Forces (Hartrees/Bohr)
 Number     Number              X              Y              Z
 -------------------------------------------------------------------
    1         14           0.000000021   -0.000611223    0.000176406
    2         14          -0.000000041   -0.000545326   -0.000070966
    3         14           0.000000021    0.000611201    0.000176405
    4         14          -0.000000041    0.000545363   -0.000070991
    5         14          -0.000190199   -0.000000007   -0.000105465
    6         14           0.000190240   -0.000000007   -0.000105389
 -------------------------------------------------------------------
 Cartesian Forces:  Max     0.000611223 RMS     0.000289528

 GradGradGradGradGradGradGradGradGradGradGradGradGradGradGradGradGradGrad
 Berny optimization.
 Internal  Forces:  Max     0.000531657 RMS     0.000188034
 Search for a local minimum.
 Step number   6 out of a maximum of 100
 All quantities printed in internal units (Hartrees-Bohrs-Radians)
 Second derivative matrix not updated -- analytic derivatives used.
 Trust test= 1.24D+00 RLast= 3.16D-01 DXMaxT set to 8.49D-01
     Eigenvalues ---   -0.00146   0.00402   0.01075   0.01491   0.01638
     Eigenvalues ---    0.02369   0.02561   0.03493   0.03896   0.05627
     Eigenvalues ---    0.07968   0.104821000.000001000.000001000.00000
     Eigenvalues --- 1000.000001000.000001000.000001000.000001000.00000
     Eigenvalues --- 1000.00000
 RFO step:  Lambda=-1.45745878D-03.
 Quintic linear search produced a step of  0.11057.
 Iteration  1 RMS(Cart)=  0.02744274 RMS(Int)=  0.00066230
 Iteration  2 RMS(Cart)=  0.00040744 RMS(Int)=  0.00034884
 Iteration  3 RMS(Cart)=  0.00000010 RMS(Int)=  0.00034884
 Variable       Old X    -DE/DX   Delta X   Delta X   Delta X     New X
                                 (Linear)    (Quad)   (Total)
    R1        4.81116   0.00003  -0.00811  -0.09535  -0.10330   4.70786
    R2        4.35077   0.00053  -0.00103   0.00464   0.00390   4.35467
    R3        5.49696   0.00009   0.01556  -0.05318  -0.03773   5.45923
    R4        5.49696   0.00009   0.01556  -0.05319  -0.03773   5.45923
    R5        4.66624   0.00029   0.00084   0.02774   0.02867   4.69491
    R6        4.66623   0.00029   0.00084   0.02775   0.02868   4.69491
    R7        4.81116   0.00003  -0.00811   0.09767   0.08968   4.90084
    R8        5.49696   0.00009   0.01556   0.05815   0.07367   5.57062
    R9        5.49696   0.00009   0.01556   0.05815   0.07366   5.57062
   R10        4.66624   0.00029   0.00084  -0.01800  -0.01708   4.64916
   R11        4.66624   0.00029   0.00084  -0.01799  -0.01708   4.64916
   R12        5.17498  -0.00015  -0.00014   0.00199   0.00137   5.17635
    A1        1.93289   0.00003   0.00149   0.04714   0.04885   1.98173
    A2        1.93289   0.00003   0.00149  -0.04602  -0.04417   1.88872
    A3        1.66677   0.00007  -0.00501   0.00616   0.00083   1.66759
    A4        1.66677   0.00007  -0.00501  -0.00566  -0.01114   1.65563
    A5        1.96334   0.00012   0.00209   0.00093   0.00221   1.96555
    A6        1.66677   0.00007  -0.00501   0.00616   0.00083   1.66759
    A7        1.66677   0.00007  -0.00501  -0.00566  -0.01114   1.65563
    A8        1.96335   0.00012   0.00209   0.00092   0.00220   1.96555
    D1        0.00000   0.00000   0.00000   0.00000   0.00000   0.00000
         Item               Value     Threshold  Converged?
 Maximum Force            0.000532     0.000450     NO 
 RMS     Force            0.000188     0.000300     YES
 Maximum Displacement     0.078408     0.001800     NO 
 RMS     Displacement     0.027477     0.001200     NO 
 Predicted change in Energy=-3.494076D-05
 GradGradGradGradGradGradGradGradGradGradGradGradGradGradGradGradGradGrad

                          Input orientation:                          
 ---------------------------------------------------------------------
 Center     Atomic     Atomic              Coordinates (Angstroms)
 Number     Number      Type              X           Y           Z
 ---------------------------------------------------------------------
    1         14             0        0.000000   -1.149331    1.612873
    2         14             0        0.000000   -2.065698   -0.703767
    3         14             0        0.000000    1.153707    1.691813
    4         14             0        0.000000    2.048302   -0.742419
    5         14             0       -1.369602    0.006510   -0.652953
    6         14             0        1.369602    0.006510   -0.652953
 ---------------------------------------------------------------------
                    Distance matrix (angstroms):
                    1          2          3          4          5
     1  Si   0.000000
     2  Si   2.491295   0.000000
     3  Si   2.304391   4.012901   0.000000
     4  Si   3.971430   4.114182   2.593411   0.000000
     5  Si   2.888901   2.484440   2.947846   2.460229   0.000000
     6  Si   2.888901   2.484440   2.947846   2.460229   2.739204
                    6
     6  Si   0.000000
 Symmetry turned off by external request.
 Stoichiometry    Si6(1-,2)
 Framework group  C1[X(Si6)]
 Deg. of freedom    12
 Full point group                 C1
 Rotational constants (GHZ):      1.6327908      1.2150904      0.9803290
 Standard basis: LANL2DZ (5D, 7F)
 Integral buffers will be    131072 words long.
 Raffenetti 2 integral format.
 Two-electron integral symmetry is turned off.
    48 basis functions,    72 primitive gaussians,    48 cartesian basis functions
    13 alpha electrons       12 beta electrons
       nuclear repulsion energy        45.0332295024 Hartrees.
 NAtoms=    6 NActive=    6 NUniq=    6 SFac= 7.50D-01 NAtFMM=   80 NAOKFM=F Big=F
 One-electron integrals computed using PRISM.
   1 Symmetry operations used in ECPInt.
 ECPInt:  NShTT=     300 NPrTT=     678 LenC2=     301 LenP2D=     673.
 LDataN:  DoStor=F MaxTD1= 3 Len=   28
 LDataN:  DoStor=T MaxTD1= 3 Len=   28
 NBasis=    48 RedAO= T  NBF=    48
 NBsUse=    48 1.00D-06 NBFU=    48
 Initial guess read from the read-write file:
 <S**2> of initial guess= 0.9894
 Harris functional with IExCor=  205 diagonalized for initial guess.
 ExpMin= 8.85D-02 ExpMax= 2.58D+00 ExpMxC= 2.58D+00 IAcc=2 IRadAn=         4 AccDes= 0.00D+00
 HarFok:  IExCor= 205 AccDes= 0.00D+00 IRadAn=         4 IDoV=1
 ScaDFX=  1.000000  1.000000  1.000000  1.000000
 Requested convergence on RMS density matrix=1.00D-08 within 128 cycles.
 Requested convergence on MAX density matrix=1.00D-06.
 Requested convergence on             energy=1.00D-06.
 No special actions if energy rises.
 Keep R1 and R2 integrals in memory in canonical form, NReq=     2268654.
 Restarting incremental Fock formation.
 SCF Done:  E(UHF) =  -22.3559794372     A.U. after   29 cycles
             Convg  =    0.7452D-08             -V/T =  3.5709
             S**2   =   0.9879
 Annihilation of the first spin contaminant:
 S**2 before annihilation     0.9879,   after     0.7944
 QCSCF skips out because SCF is already converged.
 Range of M.O.s used for correlation:     1    48
 NBasis=    48 NAE=    13 NBE=    12 NFC=     0 NFV=     0
 NROrb=     48 NOA=    13 NOB=    12 NVA=    35 NVB=    36
   1 Symmetry operations used in ECPInt.
 ECPInt:  NShTT=     300 NPrTT=     678 LenC2=     301 LenP2D=     673.
 LDataN:  DoStor=F MaxTD1= 4 Len=   56
 LDataN:  DoStor=T MaxTD1= 4 Len=   56
 Symmetrizing basis deriv contribution to polar:
 IMax=3 JMax=2 DiffMx= 0.00D+00
 G2DrvN: will do    7 centers at a time, making    1 passes doing MaxLOS=1.
 FoFDir/FoFCou used for L=0 through L=1.
 DoAtom=TTTTTT
          Differentiating once with respect to electric field.
                with respect to dipole field.
          Differentiating once with respect to nuclear coordinates.
          Store integrals in memory, NReq=     2184687.
          There are  21 degrees of freedom in the 1st order CPHF.
    18 vectors were produced by pass  0.
 AX will form  18 AO Fock derivatives at one time.
    18 vectors were produced by pass  1.
    18 vectors were produced by pass  2.
    18 vectors were produced by pass  3.
    18 vectors were produced by pass  4.
    18 vectors were produced by pass  5.
    18 vectors were produced by pass  6.
    18 vectors were produced by pass  7.
    18 vectors were produced by pass  8.
    11 vectors were produced by pass  9.
     3 vectors were produced by pass 10.
     3 vectors were produced by pass 11.
 Inv2:  IOpt= 1 Iter= 1 AM= 9.28D-15 Conv= 1.00D-12.
 Inverted reduced A of dimension  179 with in-core refinement.
 Isotropic polarizability for W=    0.000000      205.32 Bohr**3.
 End of Minotr Frequency-dependent properties file   721 does not exist.
   1 Symmetry operations used in ECPInt.
 ECPInt:  NShTT=     300 NPrTT=     678 LenC2=     301 LenP2D=     678.
 LDataN:  DoStor=F MaxTD1= 5 Len=  102
 LDataN:  DoStor=T MaxTD1= 5 Len=  102
 -------------------------------------------------------------------
 Center     Atomic                   Forces (Hartrees/Bohr)
 Number     Number              X              Y              Z
 -------------------------------------------------------------------
    1         14          -0.000000003   -0.000102815    0.000144131
    2         14          -0.000000004    0.000050440    0.000075612
    3         14           0.000000006    0.000285815    0.000184884
    4         14          -0.000000005   -0.000109613    0.000272128
    5         14           0.000023318   -0.000061916   -0.000338381
    6         14          -0.000023313   -0.000061911   -0.000338375
 -------------------------------------------------------------------
 Cartesian Forces:  Max     0.000338381 RMS     0.000163180

 GradGradGradGradGradGradGradGradGradGradGradGradGradGradGradGradGradGrad
 Berny optimization.
 Internal  Forces:  Max     0.000259820 RMS     0.000121217
 Search for a local minimum.
 Step number   7 out of a maximum of 100
 All quantities printed in internal units (Hartrees-Bohrs-Radians)
 Second derivative matrix not updated -- analytic derivatives used.
 Trust test= 8.32D-01 RLast= 1.98D-01 DXMaxT set to 8.49D-01
     Eigenvalues ---    0.00007   0.00812   0.00991   0.01516   0.01659
     Eigenvalues ---    0.02345   0.02527   0.03588   0.03871   0.05705
     Eigenvalues ---    0.07889   0.103761000.000001000.000001000.00000
     Eigenvalues --- 1000.000001000.000001000.000001000.000001000.00000
     Eigenvalues --- 1000.00000
 RFO step:  Lambda=-2.95431194D-04.
 Quintic linear search produced a step of  0.08258.
 Maximum step size (   0.849) exceeded in Quadratic search.
    -- Step size scaled by   0.970
 Iteration  1 RMS(Cart)=  0.08474247 RMS(Int)=  0.09054448
 Iteration  2 RMS(Cart)=  0.05911881 RMS(Int)=  0.01517748
 Iteration  3 RMS(Cart)=  0.00844911 RMS(Int)=  0.00950526
 Iteration  4 RMS(Cart)=  0.00005662 RMS(Int)=  0.00950509
 Iteration  5 RMS(Cart)=  0.00000069 RMS(Int)=  0.00950509
 Variable       Old X    -DE/DX   Delta X   Delta X   Delta X     New X
                                 (Linear)    (Quad)   (Total)
    R1        4.70786  -0.00006  -0.00853  -0.39256  -0.39684   4.31102
    R2        4.35467   0.00001   0.00032  -0.01302  -0.00925   4.34542
    R3        5.45923   0.00014  -0.00312   0.11412   0.10813   5.56736
    R4        5.45923   0.00014  -0.00312   0.11412   0.10813   5.56736
    R5        4.69491  -0.00003   0.00237   0.08609   0.09221   4.78712
    R6        4.69491  -0.00003   0.00237   0.08609   0.09221   4.78712
    R7        4.90084  -0.00026   0.00741   0.07777   0.08804   4.98887
    R8        5.57062   0.00026   0.00608   0.46646   0.47098   6.04160
    R9        5.57062   0.00026   0.00608   0.46646   0.47098   6.04160
   R10        4.64916  -0.00001  -0.00141  -0.04774  -0.04544   4.60372
   R11        4.64916  -0.00001  -0.00141  -0.04774  -0.04544   4.60372
   R12        5.17635  -0.00019   0.00011  -0.01858  -0.03145   5.14490
    A1        1.98173   0.00005   0.00403   0.16604   0.16597   2.14770
    A2        1.88872   0.00000  -0.00365  -0.11037  -0.11472   1.77400
    A3        1.66759  -0.00009   0.00007  -0.08923  -0.09033   1.57727
    A4        1.65563  -0.00003  -0.00092  -0.10439  -0.11102   1.54461
    A5        1.96555   0.00006   0.00018   0.02509  -0.00237   1.96318
    A6        1.66759  -0.00009   0.00007  -0.08923  -0.09033   1.57727
    A7        1.65563  -0.00003  -0.00092  -0.10439  -0.11102   1.54461
    A8        1.96555   0.00006   0.00018   0.02509  -0.00237   1.96318
    D1        0.00000   0.00000   0.00000   0.00000   0.00000   0.00000
         Item               Value     Threshold  Converged?
 Maximum Force            0.000260     0.000450     YES
 RMS     Force            0.000121     0.000300     YES
 Maximum Displacement     0.330384     0.001800     NO 
 RMS     Displacement     0.145771     0.001200     NO 
 Predicted change in Energy=-2.814696D-04
 GradGradGradGradGradGradGradGradGradGradGradGradGradGradGradGradGradGrad

                          Input orientation:                          
 ---------------------------------------------------------------------
 Center     Atomic     Atomic              Coordinates (Angstroms)
 Number     Number      Type              X           Y           Z
 ---------------------------------------------------------------------
    1         14             0        0.000000   -1.121908    1.532252
    2         14             0        0.000000   -2.099562   -0.528936
    3         14             0        0.000000    1.156971    1.839503
    4         14             0        0.000000    2.030449   -0.651808
[...]
 
              Baa    -0.0591     6.273     2.238     2.092  0.0000  1.0000 -0.0051
     6 Si(29) Bbb     0.0020    -0.211    -0.075    -0.071  0.0000  0.0051  1.0000
              Bcc     0.0571    -6.061    -2.163    -2.022  1.0000  0.0000  0.0000
 

 ---------------------------------------------------------------------------------

 Full mass-weighted force constant matrix:
 Low frequencies ---   -0.0033   -0.0027   -0.0025    5.6723    6.5645    7.9532
 Low frequencies ---  110.4009  148.4147  207.3029
 Diagonal vibrational polarizability:
        3.0804359       0.2572895       2.1369709
 Harmonic frequencies (cm**-1), IR intensities (KM/Mole), Raman scattering
 activities (A**4/AMU), depolarization ratios for plane and unpolarized
 incident light, reduced masses (AMU), force constants (mDyne/A),
 and normal coordinates:
                     1                      2                      3
                     A                      A                      A
 Frequencies --   110.4002               148.4147               207.3028
 Red. masses --    27.9769                27.9769                27.9769
 Frc consts  --     0.2009                 0.3631                 0.7084
 IR Inten    --     0.0000                 0.0996                 3.3850
 Atom AN      X      Y      Z        X      Y      Z        X      Y      Z
   1  14     0.00   0.00   0.62     0.12  -0.02   0.00     0.00   0.00  -0.03
   2  14     0.00   0.00  -0.34    -0.33   0.44   0.00     0.00   0.00   0.49
   3  14     0.00   0.00  -0.62    -0.12  -0.02   0.00     0.00   0.00  -0.03
   4  14     0.00   0.00   0.34     0.33   0.44   0.00     0.00   0.00   0.49
   5  14     0.04   0.00   0.00     0.00  -0.42   0.06     0.00   0.23  -0.46
   6  14    -0.04   0.00   0.00     0.00  -0.42  -0.06     0.00  -0.23  -0.46
                     4                      5                      6
                     A                      A                      A
 Frequencies --   235.3403               273.4530               286.5992
 Red. masses --    27.9769                27.9769                27.9769
 Frc consts  --     0.9129                 1.2326                 1.3539
 IR Inten    --     3.9870                 1.5439                 0.0527
 Atom AN      X      Y      Z        X      Y      Z        X      Y      Z
   1  14    -0.21  -0.43   0.00     0.41  -0.44   0.00     0.00   0.00   0.35
   2  14    -0.07   0.43   0.00    -0.29  -0.20   0.00     0.00   0.00  -0.03
   3  14    -0.21   0.43   0.00     0.41   0.44   0.00     0.00   0.00   0.35
   4  14    -0.07  -0.43   0.00    -0.29   0.20   0.00     0.00   0.00  -0.03
   5  14     0.28   0.00   0.00    -0.13   0.00   0.00     0.00  -0.52  -0.32
   6  14     0.28   0.00   0.00    -0.13   0.00   0.00     0.00   0.52  -0.32
                     7                      8                      9
                     A                      A                      A
 Frequencies --   304.4739               339.9886               340.2673
 Red. masses --    27.9769                27.9769                27.9769
 Frc consts  --     1.5281                 1.9054                 1.9085
 IR Inten    --     0.1609                 0.0000                 0.0335
 Atom AN      X      Y      Z        X      Y      Z        X      Y      Z
   1  14     0.15   0.51   0.00     0.00   0.00  -0.14    -0.07   0.15   0.00
   2  14     0.25  -0.17   0.00     0.00   0.00  -0.32    -0.47  -0.26   0.00
   3  14    -0.15   0.51   0.00     0.00   0.00   0.14     0.07   0.15   0.00
   4  14    -0.25  -0.17   0.00     0.00   0.00   0.32     0.47  -0.26   0.00
   5  14     0.00  -0.34   0.11    -0.62   0.00   0.00     0.00   0.12   0.41
   6  14     0.00  -0.34  -0.11     0.62   0.00   0.00     0.00   0.12  -0.41
                    10                     11                     12
                     A                      A                      A
 Frequencies --   418.1214               433.3144               435.7438
 Red. masses --    27.9769                27.9769                27.9769
 Frc consts  --     2.8817                 3.0950                 3.1298
 IR Inten    --     0.5248                 0.0023                 4.1454
 Atom AN      X      Y      Z        X      Y      Z        X      Y      Z
   1  14    -0.16  -0.18   0.00     0.66  -0.14   0.00     0.04  -0.21   0.00
   2  14     0.33   0.19   0.00     0.03  -0.02   0.00     0.44   0.20   0.00
   3  14     0.16  -0.18   0.00    -0.66  -0.14   0.00     0.04   0.21   0.00
   4  14    -0.33   0.19   0.00    -0.03  -0.02   0.00     0.44  -0.20   0.00
   5  14     0.00  -0.01   0.54     0.00   0.16   0.14    -0.48   0.00   0.00
   6  14     0.00  -0.01  -0.54     0.00   0.16  -0.14    -0.48   0.00   0.00

 -------------------
 - Thermochemistry -
 -------------------
 Temperature   298.150 Kelvin.  Pressure   1.00000 Atm.
 Atom  1 has atomic number 14 and mass  27.97693
 Atom  2 has atomic number 14 and mass  27.97693
 Atom  3 has atomic number 14 and mass  27.97693
 Atom  4 has atomic number 14 and mass  27.97693
 Atom  5 has atomic number 14 and mass  27.97693
 Atom  6 has atomic number 14 and mass  27.97693
 Molecular mass:   167.86157 amu.
 Principal axes and moments of inertia in atomic units:
                           1         2         3
     EIGENVALUES --   943.853051374.695581670.23624
           X            1.00000   0.00000   0.00000
           Y            0.00000   1.00000   0.00000
           Z            0.00000   0.00000   1.00000
 This molecule is an asymmetric top.
 Rotational symmetry number  1.
 Warning -- assumption of classical behavior for rotation
           may cause significant error
 Rotational temperatures (Kelvin)      0.09177     0.06301     0.05186
 Rotational constants (GHZ):           1.91210     1.31283     1.08053
 Zero-point vibrational energy      21134.5 (Joules/Mol)
                                    5.05128 (Kcal/Mol)
 Warning -- explicit consideration of  12 degrees of freedom as
           vibrations may cause significant error
 Vibrational temperatures:    158.84   213.54   298.26   338.60   393.44
          (Kelvin)            412.35   438.07   489.17   489.57   601.58
                              623.44   626.94
 
 Zero-point correction=                           0.008050 (Hartree/Particle)
 Thermal correction to Energy=                    0.016198
 Thermal correction to Enthalpy=                  0.017142
 Thermal correction to Gibbs Free Energy=        -0.026157
 Sum of electronic and zero-point Energies=          -1737.099447
 Sum of electronic and thermal Energies=             -1737.091299
 Sum of electronic and thermal Enthalpies=           -1737.090355
 Sum of electronic and thermal Free Energies=        -1737.133654
 
                     E (Thermal)             CV                S
                      KCal/Mol        Cal/Mol-Kelvin    Cal/Mol-Kelvin
 Total                   10.164             25.921             91.131
 Electronic               0.000              0.000              1.377
 Translational            0.889              2.981             41.262
 Rotational               0.889              2.981             29.162
 Vibrational              8.387             19.959             19.329
 Vibration  1             0.606              1.941              3.262
 Vibration  2             0.618              1.904              2.692
 Vibration  3             0.641              1.829              2.067
 Vibration  4             0.655              1.787              1.838
 Vibration  5             0.676              1.722              1.574
 Vibration  6             0.684              1.699              1.494
 Vibration  7             0.695              1.665              1.392
 Vibration  8             0.720              1.596              1.212
 Vibration  9             0.720              1.595              1.211
 Vibration 10             0.781              1.431              0.898
 Vibration 11             0.794              1.398              0.848
 Vibration 12             0.796              1.392              0.840
                       Q            Log10(Q)             Ln(Q)
 Total Bot       0.107542D+13         12.031580         27.703736
 Total V=0       0.542234D+16         15.734187         36.229304
 Vib (Bot)       0.119365D-01         -1.923123         -4.428155
 Vib (Bot)  1    0.185502D+01          0.268348          0.617894
 Vib (Bot)  2    0.136685D+01          0.135722          0.312512
 Vib (Bot)  3    0.959127D+00         -0.018124         -0.041732
 Vib (Bot)  4    0.834935D+00         -0.078348         -0.180402
 Vib (Bot)  5    0.705495D+00         -0.151506         -0.348856
 Vib (Bot)  6    0.668482D+00         -0.174911         -0.402746
 Vib (Bot)  7    0.623026D+00         -0.205494         -0.473167
 Vib (Bot)  8    0.546155D+00         -0.262684         -0.604853
 Vib (Bot)  9    0.545611D+00         -0.263117         -0.605849
 Vib (Bot) 10    0.420551D+00         -0.376182         -0.866191
 Vib (Bot) 11    0.401065D+00         -0.396785         -0.913631
 Vib (Bot) 12    0.398067D+00         -0.400044         -0.921135
 Vib (V=0)       0.601844D+02          1.779484          4.097414
 Vib (V=0)  1    0.242122D+01          0.384034          0.884272
 Vib (V=0)  2    0.195543D+01          0.291243          0.670613
 Vib (V=0)  3    0.158163D+01          0.199105          0.458456
 Vib (V=0)  4    0.147320D+01          0.168261          0.387436
 Vib (V=0)  5    0.136471D+01          0.135040          0.310942
 Vib (V=0)  6    0.133479D+01          0.125412          0.288771
 Vib (V=0)  7    0.129885D+01          0.113559          0.261479
 Vib (V=0)  8    0.124046D+01          0.093584          0.215484
 Vib (V=0)  9    0.124006D+01          0.093443          0.215161
 Vib (V=0) 10    0.115335D+01          0.061960          0.142668
 Vib (V=0) 11    0.114098D+01          0.057277          0.131886
 Vib (V=0) 12    0.113911D+01          0.056564          0.130244
 Electronic      0.200000D+01          0.301030          0.693147
 Translational   0.854835D+08          7.931882         18.263833
 Rotational      0.526976D+06          5.721791         13.174910
 ***** Axes restored to original set *****
 -------------------------------------------------------------------
 Center     Atomic                   Forces (Hartrees/Bohr)
 Number     Number              X              Y              Z
 -------------------------------------------------------------------
    1         14          -0.000000015   -0.000002626    0.000008521
    2         14           0.000000083   -0.000000631   -0.000006924
    3         14          -0.000000031    0.000002917    0.000008844
    4         14           0.000000076    0.000000514   -0.000006767
    5         14          -0.000000837   -0.000000073   -0.000001772
    6         14           0.000000724   -0.000000100   -0.000001902
 -------------------------------------------------------------------
 Cartesian Forces:  Max     0.000008844 RMS     0.000003863

 GradGradGradGradGradGradGradGradGradGradGradGradGradGradGradGradGradGrad
 Berny optimization.
 Internal  Forces:  Max     0.000006839 RMS     0.000002458
 Search for a local minimum.
 Step number   1 out of a maximum of   2
 All quantities printed in internal units (Hartrees-Bohrs-Radians)
 Second derivative matrix not updated -- analytic derivatives used.
     Eigenvalues ---    0.01320   0.02660   0.02797   0.03191   0.03965
     Eigenvalues ---    0.04379   0.05208   0.05292   0.05320   0.06038
     Eigenvalues ---    0.06824   0.090541000.000001000.000001000.00000
     Eigenvalues --- 1000.000001000.000001000.000001000.000001000.00000
     Eigenvalues --- 1000.00000
 Angle between quadratic step and forces=   4.31 degrees.
 Linear search not attempted -- first point.
 Iteration  1 RMS(Cart)=  0.00005719 RMS(Int)=  0.00000000
 Iteration  2 RMS(Cart)=  0.00000000 RMS(Int)=  0.00000000
 Variable       Old X    -DE/DX   Delta X   Delta X   Delta X     New X
                                 (Linear)    (Quad)   (Total)
    R1        4.71872   0.00001   0.00000   0.00018   0.00018   4.71889
    R2        4.40047   0.00000   0.00000   0.00006   0.00006   4.40053
    R3        4.80247   0.00000   0.00000   0.00003   0.00003   4.80249
    R4        4.80247   0.00000   0.00000   0.00003   0.00003   4.80249
    R5        4.53938   0.00000   0.00000  -0.00001  -0.00001   4.53937
    R6        4.53939   0.00000   0.00000  -0.00001  -0.00001   4.53937
    R7        4.71872   0.00001   0.00000   0.00018   0.00018   4.71889
    R8        4.80246   0.00000   0.00000   0.00003   0.00003   4.80249
    R9        4.80246   0.00000   0.00000   0.00003   0.00003   4.80249
   R10        4.53938   0.00000   0.00000  -0.00001  -0.00001   4.53937
   R11        4.53939   0.00000   0.00000  -0.00002  -0.00002   4.53937
   R12        4.81385   0.00000   0.00000   0.00001   0.00001   4.81385
    A1        1.90159   0.00000   0.00000  -0.00003  -0.00003   1.90155
    A2        1.90159   0.00000   0.00000  -0.00004  -0.00004   1.90155
    A3        1.83650   0.00000   0.00000   0.00003   0.00003   1.83653
    A4        1.83650   0.00000   0.00000   0.00003   0.00003   1.83653
    A5        1.93096   0.00000   0.00000  -0.00004  -0.00004   1.93092
    A6        1.83650   0.00000   0.00000   0.00003   0.00003   1.83653
    A7        1.83650   0.00000   0.00000   0.00003   0.00003   1.83653
    A8        1.93096   0.00000   0.00000  -0.00004  -0.00004   1.93092
    D1        0.00000   0.00000   0.00000   0.00000   0.00000   0.00000
         Item               Value     Threshold  Converged?
 Maximum Force            0.000007     0.000450     YES
 RMS     Force            0.000002     0.000300     YES
 Maximum Displacement     0.000139     0.001800     YES
 RMS     Displacement     0.000057     0.001200     YES
 Predicted change in Energy=-1.586523D-09
 Optimization completed.
    -- Stationary point found.
                           ----------------------------
                           !   Optimized Parameters   !
                           ! (Angstroms and Degrees)  !
 --------------------------                            --------------------------
 ! Name  Definition              Value          Derivative Info.                !
 --------------------------------------------------------------------------------
 ! R1    R(1,2)                  2.497          -DE/DX =    0.0                 !
 ! R2    R(1,3)                  2.3286         -DE/DX =    0.0                 !
 ! R3    R(1,5)                  2.5414         -DE/DX =    0.0                 !
 ! R4    R(1,6)                  2.5414         -DE/DX =    0.0                 !
 ! R5    R(2,5)                  2.4021         -DE/DX =    0.0                 !
 ! R6    R(2,6)                  2.4021         -DE/DX =    0.0                 !
 ! R7    R(3,4)                  2.497          -DE/DX =    0.0                 !
 ! R8    R(3,5)                  2.5414         -DE/DX =    0.0                 !
 ! R9    R(3,6)                  2.5414         -DE/DX =    0.0                 !
 ! R10   R(4,5)                  2.4021         -DE/DX =    0.0                 !
 ! R11   R(4,6)                  2.4021         -DE/DX =    0.0                 !
 ! R12   R(5,6)                  2.5474         -DE/DX =    0.0                 !
 ! A1    A(2,1,3)              108.9529         -DE/DX =    0.0                 !
 ! A2    A(1,3,4)              108.9531         -DE/DX =    0.0                 !
 ! A3    A(1,5,4)              105.224          -DE/DX =    0.0                 !
 ! A4    A(2,5,3)              105.2239         -DE/DX =    0.0                 !
 ! A5    A(2,5,4)              110.636          -DE/DX =    0.0                 !
 ! A6    A(1,6,4)              105.2239         -DE/DX =    0.0                 !
 ! A7    A(2,6,3)              105.2238         -DE/DX =    0.0                 !
 ! A8    A(2,6,4)              110.6358         -DE/DX =    0.0                 !
 ! D1    D(2,1,3,4)              0.0            -DE/DX =    0.0                 !
 --------------------------------------------------------------------------------
 GradGradGradGradGradGradGradGradGradGradGradGradGradGradGradGradGradGrad

 1\1\GINC-NODE34\Freq\UB3LYP\6-311+G(d)\Si6(1-,2)\TAM\09-Nov-2010\0\\#N
  Geom=AllCheck Guess=Read SCRF=Check GenChk UB3LYP/6-311+G(d) Freq\\si
 6-an-doublet-isomer01\\-1,2\Si,0.0000001425,-1.1669296601,1.499032164\
 Si,-0.0000009283,-1.9735592698,-0.8641322284\Si,0.0000005529,1.1616939
 311,1.5033546511\Si,-0.0000011981,1.9770983868,-0.8567969023\Si,-1.273
 6879383,0.0008482081,-0.3644320878\Si,1.2736893676,0.0008484038,-0.364
 4312366\\Version=AM64L-G03RevE.01\State=2-A\HF=-1737.1074963\S2=0.7595
 71\S2-1=0.\S2A=0.75007\RMSD=2.888e-09\RMSF=3.863e-06\ZeroPoint=0.00804
 97\Thermal=0.0161976\Dipole=-0.0000014,-0.0000149,0.0084631\DipoleDeri
 v=-0.1888972,0.0000004,-0.0000001,0.,-0.1700492,-0.0431883,0.,0.166941
 9,-0.2161291,-0.0144764,-0.0000003,0.,-0.0000002,0.0691929,0.0273316,-
 0.0000002,-0.0345738,-0.1631841,-0.1888979,-0.0000005,-0.0000002,0.,-0
 .1695907,0.0433607,0.0000002,-0.1667704,-0.2165906,-0.0144756,0.000000
 4,0.,0.0000002,0.0691626,-0.0264676,-0.0000002,0.0354392,-0.163153,-0.
 2966273,-0.0001259,0.0676054,-0.0001743,-0.399358,-0.0005182,0.0937108
 ,-0.0005184,-0.1204711,-0.2966254,0.0001259,-0.0676051,0.0001743,-0.39
 93576,-0.0005183,-0.0937107,-0.0005185,-0.1204721\Polar=182.7636415,0.
 000002,277.6456754,0.0000307,0.0901073,229.0708889\PG=C01 [X(Si6)]\NIm
 ag=0\\0.01781275,0.00000002,0.11028173,0.,-0.01737060,0.07241832,0.001
 03581,0.,-0.00000002,0.02470370,0.,-0.00397711,-0.01415899,-0.00000022
 ,0.10130589,0.,-0.01793267,-0.03130363,-0.00000002,0.03959198,0.045134
 27,0.00343543,0.,0.,-0.00409121,0.,-0.00000002,0.01781292,-0.00000002,
 -0.07770904,-0.00380686,0.,-0.00627582,-0.00289637,-0.00000002,0.11015
 238,0.,0.00350562,0.00341285,0.,-0.00142111,-0.00725777,-0.00000002,0.
 01751102,0.07254814,-0.00409123,-0.00000002,-0.00000001,-0.00301332,0.
 ,0.00000002,0.00103582,0.00000001,-0.00000003,0.02470363,0.,-0.0062917
 9,0.00142469,0.,-0.01075512,0.00057623,0.,-0.00409669,0.01426004,0.000
 00020,0.10159895,-0.00000002,0.00289992,-0.00724178,0.00000002,-0.0006
 1976,0.00095772,-0.00000001,0.01803370,-0.03118383,-0.00000001,-0.0393
 8219,0.04484069,-0.00909636,0.00051472,-0.00880466,-0.00931753,0.01284
 840,0.00421940,-0.00909646,-0.00048208,-0.00880664,-0.00931748,-0.0128
 6395,0.00417165,0.09897001,0.01060375,-0.01115189,0.01695588,0.0237808
 4,-0.04014913,-0.00966964,-0.01054368,-0.01103541,-0.01692777,-0.02380
 461,-0.04022788,0.00953421,-0.00002670,0.09790147,-0.01618289,0.014448
 87,-0.01864288,0.00646373,-0.01169612,-0.00376528,-0.01622232,-0.01442
 073,-0.01875967,0.00637534,0.01156067,-0.00368638,0.01439319,0.0000913
 0,0.04880937,-0.00909641,-0.00051472,0.00880469,-0.00931745,-0.0128481
 8,-0.00421938,-0.00909651,0.00048210,0.00880669,-0.00931743,0.01286374
 ,-0.00417163,-0.06214218,-0.00000961,0.00517295,0.09896998,-0.01060375
 ,-0.01115190,0.01695587,-0.02378062,-0.04014872,-0.00966953,0.01054369
 ,-0.01103542,-0.01692780,0.02380441,-0.04022746,0.00953411,0.00000960,
 0.00466285,0.00001601,0.00002667,0.09790065,0.01618291,0.01444887,-0.0
 1864287,-0.00646370,-0.01169601,-0.00376531,0.01622236,-0.01442076,-0.
 01875971,-0.00637531,0.01156056,-0.00368640,-0.00517294,0.00001601,-0.
 00395516,-0.01439333,0.00009134,0.04880945\\0.00000001,0.00000263,-0.0
 0000852,-0.00000008,0.00000063,0.00000692,0.00000003,-0.00000292,-0.00
 000884,-0.00000008,-0.00000051,0.00000677,0.00000084,0.00000007,0.0000
 0177,-0.00000072,0.00000010,0.00000190\\\@


 CONFIDENCE: THAT QUIET ASSURED FEELING YOU HAVE
 JUST BEFORE YOU FALL FLAT ON YOUR FACE.
 Job cpu time:  0 days  0 hours 19 minutes 18.5 seconds.
 File lengths (MBytes):  RWF=     78 Int=      0 D2E=      0 Chk=      8 Scr=      1
 Normal termination of Gaussian 03 at Tue Nov  9 12:35:38 2010.
