 Entering Gaussian System, Link 0=g03
 Initial command:
 /usr/local/chem/g03E01/l1.exe /temp0/tam/Gau-25677.inp -scrdir=/temp0/tam/
 Entering Link 1 = /usr/local/chem/g03E01/l1.exe PID=     25678.
  
 Copyright (c) 1988,1990,1992,1993,1995,1998,2003,2004,2007, Gaussian, Inc.
                  All Rights Reserved.
  
 This is the Gaussian(R) 03 program.  It is based on the
 the Gaussian(R) 98 system (copyright 1998, Gaussian, Inc.),
 the Gaussian(R) 94 system (copyright 1995, Gaussian, Inc.),
 the Gaussian 92(TM) system (copyright 1992, Gaussian, Inc.),
 the Gaussian 90(TM) system (copyright 1990, Gaussian, Inc.),
 the Gaussian 88(TM) system (copyright 1988, Gaussian, Inc.),
 the Gaussian 86(TM) system (copyright 1986, Carnegie Mellon
 University), and the Gaussian 82(TM) system (copyright 1983,
 Carnegie Mellon University). Gaussian is a federally registered
 trademark of Gaussian, Inc.
  
 This software contains proprietary and confidential information,
 including trade secrets, belonging to Gaussian, Inc.
  
 This software is provided under written license and may be
 used, copied, transmitted, or stored only in accord with that
 written license.
  
 The following legend is applicable only to US Government
 contracts under FAR:
  
                    RESTRICTED RIGHTS LEGEND
  
 Use, reproduction and disclosure by the US Government is
 subject to restrictions as set forth in subparagraphs (a)
 and (c) of the Commercial Computer Software - Restricted
 Rights clause in FAR 52.227-19.
  
 Gaussian, Inc.
 340 Quinnipiac St., Bldg. 40, Wallingford CT 06492
  
  
 ---------------------------------------------------------------
 Warning -- This program may not be used in any manner that
 competes with the business of Gaussian, Inc. or will provide
 assistance to any competitor of Gaussian, Inc.  The licensee
 of this program is prohibited from giving any competitor of
 Gaussian, Inc. access to this program.  By using this program,
 the user acknowledges that Gaussian, Inc. is engaged in the
 business of creating and licensing software in the field of
 computational chemistry and represents and warrants to the
 licensee that it is not a competitor of Gaussian, Inc. and that
 it will not use this program in any manner prohibited above.
 ---------------------------------------------------------------
  

 Cite this work as:
 Gaussian 03, Revision E.01,
 M. J. Frisch, G. W. Trucks, H. B. Schlegel, G. E. Scuseria, 
 M. A. Robb, J. R. Cheeseman, J. A. Montgomery, Jr., T. Vreven, 
 K. N. Kudin, J. C. Burant, J. M. Millam, S. S. Iyengar, J. Tomasi, 
 V. Barone, B. Mennucci, M. Cossi, G. Scalmani, N. Rega, 
 G. A. Petersson, H. Nakatsuji, M. Hada, M. Ehara, K. Toyota, 
 R. Fukuda, J. Hasegawa, M. Ishida, T. Nakajima, Y. Honda, O. Kitao, 
 H. Nakai, M. Klene, X. Li, J. E. Knox, H. P. Hratchian, J. B. Cross, 
 V. Bakken, C. Adamo, J. Jaramillo, R. Gomperts, R. E. Stratmann, 
 O. Yazyev, A. J. Austin, R. Cammi, C. Pomelli, J. W. Ochterski, 
 P. Y. Ayala, K. Morokuma, G. A. Voth, P. Salvador, J. J. Dannenberg, 
 V. G. Zakrzewski, S. Dapprich, A. D. Daniels, M. C. Strain, 
 O. Farkas, D. K. Malick, A. D. Rabuck, K. Raghavachari, 
 J. B. Foresman, J. V. Ortiz, Q. Cui, A. G. Baboul, S. Clifford, 
 J. Cioslowski, B. B. Stefanov, G. Liu, A. Liashenko, P. Piskorz, 
 I. Komaromi, R. L. Martin, D. J. Fox, T. Keith, M. A. Al-Laham, 
 C. Y. Peng, A. Nanayakkara, M. Challacombe, P. M. W. Gill, 
 B. Johnson, W. Chen, M. W. Wong, C. Gonzalez, and J. A. Pople, 
 Gaussian, Inc., Wallingford CT, 2004.
 
 ******************************************
 Gaussian 03:  AM64L-G03RevE.01 11-Sep-2007
                13-Apr-2011 
 ******************************************
 %NprocShared=4
 Will use up to    4 processors via shared memory.
 %mem=3750MB
 %chk=S9L-ne-d-01
 ----------------------------------------------------------------------
 # b3lyp/LANL2DZ opt=(calcall,noeigentest,maxcycle=500) scfcyc=500 scf=
 xqc
 ----------------------------------------------------------------------
 1/6=500,10=4,11=1,14=-1,18=20,26=3,38=1/1,3;
 2/9=110,17=6,18=5,40=1/2;
 3/5=6,6=3,11=2,16=1,25=1,30=1,74=-5/1,2,3;
 4//1;
 5/5=2,7=500,8=3,13=1,38=5/2,8;
 8/6=4,10=90,11=11/1;
 11/6=1,8=1,9=11,15=111,16=1/1,2,10;
 10/6=1/2;
 6/7=2,8=2,9=2,10=2,18=1,28=1/1;
 7/10=1,25=1/1,2,3,16;
 1/6=500,10=4,11=1,14=-1,18=20/3(3);
 2/9=110/2;
 7/8=1,9=1,25=1,44=-1/16;
 99//99;
 2/9=110/2;
 3/5=6,6=3,11=2,16=1,25=1,30=1,74=-5/1,2,3;
 4/5=5,16=3/1;
 5/5=2,7=500,8=3,13=1,38=5/2,8;
 8/6=4,10=90,11=11/1;
 11/6=1,8=1,9=11,15=111,16=1/1,2,10;
 10/6=1/2;
 7/10=1,25=1/1,2,3,16;
 1/6=500,10=4,11=1,14=-1,18=20/3(-8);
 2/9=110/2;
 6/7=2,8=2,9=2,10=2,18=1,19=2,28=1/1;
 7/8=1,9=1,25=1,44=-1/16;
 99//99;
 --------
 si8-an-d
 --------
 Symbolic Z-matrix:
 Charge = -1 Multiplicity = 2
 Si                    0.        1.99615  -1.39971 
 Si                   -1.85097   0.        1.49273 
 Si                    1.30934   0.       -1.02274 
 Si                    0.       -1.43046   0.92972 
 Si                    0.        1.43046   0.92972 
 Si                   -1.30934   0.       -1.02274 
 Si                    0.       -1.99615  -1.39971 
 Si                    1.85097   0.        1.49273 
 

 GradGradGradGradGradGradGradGradGradGradGradGradGradGradGradGradGradGrad
 Berny optimization.
 Initialization pass.
                           ----------------------------
                           !    Initial Parameters    !
                           ! (Angstroms and Degrees)  !
 --------------------------                            --------------------------
 ! Name  Definition              Value          Derivative Info.                !
 --------------------------------------------------------------------------------
 ! R1    R(1,3)                  2.4168         calculate D2E/DX2 analytically  !
 ! R2    R(1,5)                  2.3971         calculate D2E/DX2 analytically  !
 ! R3    R(1,6)                  2.4168         calculate D2E/DX2 analytically  !
 ! R4    R(2,4)                  2.4061         calculate D2E/DX2 analytically  !
 ! R5    R(2,5)                  2.4061         calculate D2E/DX2 analytically  !
 ! R6    R(2,6)                  2.5731         calculate D2E/DX2 analytically  !
 ! R7    R(3,4)                  2.7519         calculate D2E/DX2 analytically  !
 ! R8    R(3,5)                  2.7519         calculate D2E/DX2 analytically  !
 ! R9    R(3,6)                  2.6187         calculate D2E/DX2 analytically  !
 ! R10   R(3,7)                  2.4168         calculate D2E/DX2 analytically  !
 ! R11   R(3,8)                  2.5731         calculate D2E/DX2 analytically  !
 ! R12   R(4,5)                  2.8609         calculate D2E/DX2 analytically  !
 ! R13   R(4,6)                  2.7519         calculate D2E/DX2 analytically  !
 ! R14   R(4,7)                  2.3971         calculate D2E/DX2 analytically  !
 ! R15   R(4,8)                  2.4061         calculate D2E/DX2 analytically  !
 ! R16   R(5,6)                  2.7519         calculate D2E/DX2 analytically  !
 ! R17   R(5,8)                  2.4061         calculate D2E/DX2 analytically  !
 ! R18   R(6,7)                  2.4168         calculate D2E/DX2 analytically  !
 ! A1    A(1,3,4)              106.3937         calculate D2E/DX2 analytically  !
 ! A2    A(1,3,7)              111.367          calculate D2E/DX2 analytically  !
 ! A3    A(1,3,8)              105.4574         calculate D2E/DX2 analytically  !
 ! A4    A(5,3,7)              106.3937         calculate D2E/DX2 analytically  !
 ! A5    A(6,3,8)              102.1516         calculate D2E/DX2 analytically  !
 ! A6    A(7,3,8)              105.4574         calculate D2E/DX2 analytically  !
 ! A7    A(2,4,3)              102.8856         calculate D2E/DX2 analytically  !
 ! A8    A(2,4,7)              111.5725         calculate D2E/DX2 analytically  !
 ! A9    A(2,4,8)              100.5794         calculate D2E/DX2 analytically  !
 ! A10   A(5,4,7)              103.6497         calculate D2E/DX2 analytically  !
 ! A11   A(6,4,8)              102.8856         calculate D2E/DX2 analytically  !
 ! A12   A(7,4,8)              111.5725         calculate D2E/DX2 analytically  !
 ! A13   A(1,5,2)              111.5725         calculate D2E/DX2 analytically  !
 ! A14   A(1,5,4)              103.6497         calculate D2E/DX2 analytically  !
 ! A15   A(1,5,8)              111.5725         calculate D2E/DX2 analytically  !
 ! A16   A(2,5,3)              102.8856         calculate D2E/DX2 analytically  !
 ! A17   A(2,5,8)              100.5794         calculate D2E/DX2 analytically  !
 ! A18   A(6,5,8)              102.8856         calculate D2E/DX2 analytically  !
 ! A19   A(1,6,2)              105.4574         calculate D2E/DX2 analytically  !
 ! A20   A(1,6,4)              106.3937         calculate D2E/DX2 analytically  !
 ! A21   A(1,6,7)              111.367          calculate D2E/DX2 analytically  !
 ! A22   A(2,6,3)              102.1516         calculate D2E/DX2 analytically  !
 ! A23   A(2,6,7)              105.4574         calculate D2E/DX2 analytically  !
 ! A24   A(5,6,7)              106.3937         calculate D2E/DX2 analytically  !
 ! D1    D(1,3,4,2)             -2.5776         calculate D2E/DX2 analytically  !
 ! D2    D(7,3,5,2)              2.5776         calculate D2E/DX2 analytically  !
 ! D3    D(8,3,6,2)              0.0            calculate D2E/DX2 analytically  !
 ! D4    D(7,4,5,1)              0.0            calculate D2E/DX2 analytically  !
 ! D5    D(8,4,6,1)              2.5776         calculate D2E/DX2 analytically  !
 ! D6    D(8,5,6,7)             -2.5776         calculate D2E/DX2 analytically  !
 --------------------------------------------------------------------------------
 Trust Radius=3.00D-01 FncErr=1.00D-07 GrdErr=1.00D-06
 Number of steps in this run= 100 maximum allowed number of steps= 100.
 GradGradGradGradGradGradGradGradGradGradGradGradGradGradGradGradGradGrad

                          Input orientation:                          
 ---------------------------------------------------------------------
 Center     Atomic     Atomic              Coordinates (Angstroms)
 Number     Number      Type              X           Y           Z
 ---------------------------------------------------------------------
    1         14             0        0.000000    1.996149   -1.399711
    2         14             0       -1.850972    0.000000    1.492726
    3         14             0        1.309335    0.000000   -1.022738
    4         14             0        0.000000   -1.430462    0.929723
    5         14             0        0.000000    1.430462    0.929723
    6         14             0       -1.309335    0.000000   -1.022738
    7         14             0        0.000000   -1.996149   -1.399711
    8         14             0        1.850972    0.000000    1.492726
 ---------------------------------------------------------------------
                    Distance matrix (angstroms):
                    1          2          3          4          5
     1  Si   0.000000
     2  Si   3.972015   0.000000
     3  Si   2.416832   4.039195   0.000000
     4  Si   4.143420   2.406095   2.751851   0.000000
     5  Si   2.397137   2.406095   2.751851   2.860924   0.000000
     6  Si   2.416832   2.573117   2.618670   2.751851   2.751851
     7  Si   3.992298   3.972015   2.416832   2.397137   4.143420
     8  Si   3.972015   3.701944   2.573117   2.406095   2.406095
                    6          7          8
     6  Si   0.000000
     7  Si   2.416832   0.000000
     8  Si   4.039195   3.972015   0.000000
 Stoichiometry    Si8(1-,2)
 Framework group  C2V[SGV(Si4),SGV'(Si4)]
 Deg. of freedom     7
 Full point group                 C2V
 Largest Abelian subgroup         C2V     NOp   4
 Largest concise Abelian subgroup C2V     NOp   4
                         Standard orientation:                         
 ---------------------------------------------------------------------
 Center     Atomic     Atomic              Coordinates (Angstroms)
 Number     Number      Type              X           Y           Z
 ---------------------------------------------------------------------
    1         14             0        0.000000    1.996149   -1.399711
    2         14             0       -1.850972    0.000000    1.492726
    3         14             0        1.309335    0.000000   -1.022738
    4         14             0        0.000000   -1.430462    0.929723
    5         14             0        0.000000    1.430462    0.929723
    6         14             0       -1.309335    0.000000   -1.022738
    7         14             0        0.000000   -1.996149   -1.399711
    8         14             0        1.850972    0.000000    1.492726
 ---------------------------------------------------------------------
 Rotational constants (GHZ):      0.8085073      0.8036895      0.7446897
 Standard basis: LANL2DZ (5D, 7F)
 There are    24 symmetry adapted basis functions of A1  symmetry.
 There are     8 symmetry adapted basis functions of A2  symmetry.
 There are    16 symmetry adapted basis functions of B1  symmetry.
 There are    16 symmetry adapted basis functions of B2  symmetry.
 Integral buffers will be    131072 words long.
 Raffenetti 2 integral format.
 Two-electron integral symmetry is turned on.
    64 basis functions,    96 primitive gaussians,    64 cartesian basis functions
    17 alpha electrons       16 beta electrons
       nuclear repulsion energy        81.4473623473 Hartrees.
 NAtoms=    8 NActive=    8 NUniq=    4 SFac= 3.00D+00 NAtFMM=   80 NAOKFM=F Big=F
 One-electron integrals computed using PRISM.
   4 Symmetry operations used in ECPInt.
 ECPInt:  NShTT=     528 NPrTT=    1192 LenC2=     529 LenP2D=    1178.
 LDataN:  DoStor=F MaxTD1= 3 Len=   28
 LDataN:  DoStor=T MaxTD1= 3 Len=   28
 NBasis=    64 RedAO= T  NBF=    24     8    16    16
 NBsUse=    64 1.00D-06 NBFU=    24     8    16    16
 Harris functional with IExCor=  402 diagonalized for initial guess.
 ExpMin= 8.85D-02 ExpMax= 2.58D+00 ExpMxC= 2.58D+00 IAcc=2 IRadAn=         4 AccDes= 0.00D+00
 HarFok:  IExCor= 402 AccDes= 0.00D+00 IRadAn=         4 IDoV=1
 ScaDFX=  1.000000  1.000000  1.000000  1.000000
 Initial guess orbital symmetries:
 Alpha Orbitals:
       Occupied  (A1) (A1) (B2) (B1) (B2) (B1) (A1) (A1) (A2) (A1)
                 (A1) (B2) (A1) (B2) (B1) (A2) (B1)
       Virtual   (A1) (B1) (B2) (A1) (B2) (B1) (A1) (B1) (A1) (B1)
                 (B2) (B2) (A2) (A2) (A1) (A1) (B2) (A2) (B1) (A1)
                 (A1) (B1) (B2) (A1) (B2) (A2) (B1) (A1) (B2) (B1)
                 (A1) (B2) (B1) (A1) (B1) (B2) (A2) (A2) (A1) (A1)
                 (A1) (B1) (B2) (B2) (B1) (A1) (A1)
 Beta  Orbitals:
       Occupied  (A1) (A1) (B2) (B1) (B2) (B1) (A1) (A1) (A2) (A1)
                 (A1) (B2) (A1) (B2) (B1) (A2)
       Virtual   (B1) (A1) (B1) (B2) (A1) (B2) (B1) (A1) (B1) (A1)
                 (B1) (B2) (B2) (A2) (A2) (A1) (A1) (B2) (A2) (B1)
                 (A1) (A1) (B1) (B2) (A1) (B2) (A2) (B1) (A1) (B2)
                 (B1) (A1) (B2) (B1) (A1) (B1) (B2) (A2) (A2) (A1)
                 (A1) (A1) (B1) (B2) (B2) (B1) (A1) (A1)
 The electronic state of the initial guess is 2-B1.
 <S**2> of initial guess= 0.7500
 Requested convergence on RMS density matrix=1.00D-08 within 128 cycles.
 Requested convergence on MAX density matrix=1.00D-06.
 Requested convergence on             energy=1.00D-06.
 No special actions if energy rises.
 Keep R1 and R2 integrals in memory in canonical form, NReq=     6108938.
 Integral accuracy reduced to 1.0D-05 until final iterations.
 Initial convergence to 1.0D-05 achieved.  Increase integral accuracy.
 SCF Done:  E(UB+HF-LYP) =  -30.9430285516     A.U. after   20 cycles
             Convg  =    0.3751D-08             -V/T =  3.5224
             S**2   =   0.7549
 Annihilation of the first spin contaminant:
 S**2 before annihilation     0.7549,   after     0.7500
 QCSCF skips out because SCF is already converged.
 Range of M.O.s used for correlation:     1    64
 NBasis=    64 NAE=    17 NBE=    16 NFC=     0 NFV=     0
 NROrb=     64 NOA=    17 NOB=    16 NVA=    47 NVB=    48

 **** Warning!!: The smallest beta delta epsilon is  0.59885224D-01

   4 Symmetry operations used in ECPInt.
 ECPInt:  NShTT=     528 NPrTT=    1192 LenC2=     529 LenP2D=    1178.
 LDataN:  DoStor=F MaxTD1= 4 Len=   56
 LDataN:  DoStor=T MaxTD1= 4 Len=   56
 Symmetrizing basis deriv contribution to polar:
 IMax=3 JMax=2 DiffMx= 0.00D+00
 G2DrvN: will do    9 centers at a time, making    1 passes doing MaxLOS=1.
 FoFDir/FoFCou used for L=0 through L=1.
 DoAtom=TTTTTTTT
          Differentiating once with respect to electric field.
                with respect to dipole field.
          Differentiating once with respect to nuclear coordinates.
          Store integrals in memory, NReq=     5131022.
          There are  15 degrees of freedom in the 1st order CPHF.
    15 vectors were produced by pass  0.
 AX will form  15 AO Fock derivatives at one time.
    15 vectors were produced by pass  1.
    15 vectors were produced by pass  2.
    15 vectors were produced by pass  3.
    15 vectors were produced by pass  4.
    15 vectors were produced by pass  5.
    15 vectors were produced by pass  6.
    15 vectors were produced by pass  7.
    13 vectors were produced by pass  8.
     3 vectors were produced by pass  9.
     3 vectors were produced by pass 10.
 Inv2:  IOpt= 1 Iter= 1 AM= 1.85D-15 Conv= 1.00D-12.
 Inverted reduced A of dimension  139 with in-core refinement.
 Isotropic polarizability for W=    0.000000      245.22 Bohr**3.
 End of Minotr Frequency-dependent properties file   721 does not exist.

 **********************************************************************

            Population analysis using the SCF density.

 **********************************************************************

 Orbital symmetries:
 Alpha Orbitals:
       Occupied  (A1) (A1) (B2) (B1) (B2) (B1) (A1) (A1) (A1) (A2)
                 (A1) (B2) (A1) (B1) (B2) (A2) (B1)
       Virtual   (A1) (B1) (B2) (A1) (B2) (B1) (A1) (B1) (A1) (B1)
                 (B2) (A2) (B2) (A2) (A1) (A2) (A1) (B2) (A1) (B1)
                 (A1) (B1) (B2) (B2) (A2) (A1) (B1) (A1) (A1) (B1)
                 (B2) (B1) (B2) (A1) (B1) (A2) (B2) (A2) (A1) (A1)
                 (B1) (A1) (B2) (B2) (A1) (B1) (A1)
 Beta  Orbitals:
       Occupied  (A1) (A1) (B2) (B1) (B2) (B1) (A1) (A1) (A2) (A1)
                 (B2) (A1) (A1) (B2) (B1) (A2)
       Virtual   (B1) (A1) (B2) (B1) (A1) (B2) (B1) (A1) (B1) (A1)
                 (B2) (B1) (B2) (A2) (A2) (A1) (A2) (A1) (B2) (A1)
                 (B1) (A1) (B1) (B2) (B2) (A2) (A1) (B1) (A1) (A1)
                 (B2) (B1) (B2) (B1) (A1) (B1) (B2) (A2) (A2) (A1)
                 (A1) (B1) (A1) (B2) (B2) (A1) (B1) (A1)
 The electronic state is 2-B1.
 Alpha  occ. eigenvalues --   -0.57395  -0.43002  -0.42539  -0.40859  -0.26869
 Alpha  occ. eigenvalues --   -0.26355  -0.25806  -0.21270  -0.19232  -0.18783
 Alpha  occ. eigenvalues --   -0.10331  -0.10304  -0.10016  -0.09734  -0.09650
 Alpha  occ. eigenvalues --   -0.08989  -0.07766
 Alpha virt. eigenvalues --    0.04277   0.04915   0.05342   0.08468   0.09166
 Alpha virt. eigenvalues --    0.09478   0.14193   0.14616   0.15807   0.16050
 Alpha virt. eigenvalues --    0.16536   0.17215   0.17299   0.18041   0.19427
 Alpha virt. eigenvalues --    0.41854   0.42177   0.42333   0.42823   0.43145
 Alpha virt. eigenvalues --    0.43490   0.43735   0.44843   0.45302   0.45462
 Alpha virt. eigenvalues --    0.46082   0.47138   0.49419   0.50258   0.50401
 Alpha virt. eigenvalues --    0.50587   0.51381   0.51700   0.51935   0.53695
 Alpha virt. eigenvalues --    0.54825   0.54952   0.56982   0.57979   8.70482
 Alpha virt. eigenvalues --   11.08279  11.09554  11.31065  12.36704  12.41765
 Alpha virt. eigenvalues --   12.42731  12.62760
  Beta  occ. eigenvalues --   -0.57052  -0.42412  -0.42293  -0.39792  -0.26567
  Beta  occ. eigenvalues --   -0.25579  -0.25097  -0.20779  -0.18273  -0.17590
  Beta  occ. eigenvalues --   -0.10212  -0.09984  -0.09786  -0.09485  -0.09164
  Beta  occ. eigenvalues --   -0.08493
  Beta virt. eigenvalues --   -0.02505   0.04989   0.05490   0.05754   0.08753
  Beta virt. eigenvalues --    0.09354   0.09734   0.14459   0.15600   0.16123
  Beta virt. eigenvalues --    0.16665   0.16756   0.17339   0.17715   0.18407
  Beta virt. eigenvalues --    0.20144   0.42091   0.42373   0.42386   0.43215
  Beta virt. eigenvalues --    0.43249   0.43625   0.44373   0.44898   0.45360
  Beta virt. eigenvalues --    0.45629   0.46511   0.47663   0.49823   0.50601
  Beta virt. eigenvalues --    0.50679   0.50881   0.51818   0.51912   0.52332
  Beta virt. eigenvalues --    0.54410   0.55006   0.55113   0.57227   0.58212
  Beta virt. eigenvalues --    8.70500  11.08339  11.09540  11.31085  12.36727
  Beta virt. eigenvalues --   12.41870  12.42735  12.62766
          Condensed to atoms (all electrons):
              1          2          3          4          5          6
     1  Si   3.755587  -0.040162   0.137752  -0.035523   0.130585   0.137752
     2  Si  -0.040162   3.814825  -0.046151   0.144542   0.144542   0.090974
     3  Si   0.137752  -0.046151   4.229934  -0.099680  -0.099680  -0.110567
     4  Si  -0.035523   0.144542  -0.099680   4.188176  -0.121664  -0.099680
     5  Si   0.130585   0.144542  -0.099680  -0.121664   4.188176  -0.099680
     6  Si   0.137752   0.090974  -0.110567  -0.099680  -0.099680   4.229934
     7  Si  -0.044785  -0.040162   0.137752   0.130585  -0.035523   0.137752
     8  Si  -0.040162  -0.061086   0.090974   0.144542   0.144542  -0.046151
              7          8
     1  Si  -0.044785  -0.040162
     2  Si  -0.040162  -0.061086
     3  Si   0.137752   0.090974
     4  Si   0.130585   0.144542
     5  Si  -0.035523   0.144542
     6  Si   0.137752  -0.046151
     7  Si   3.755587  -0.040162
     8  Si  -0.040162   3.814825
 Mulliken atomic charges:
              1
     1  Si  -0.001044
     2  Si  -0.007322
     3  Si  -0.240335
     4  Si  -0.251299
     5  Si  -0.251299
     6  Si  -0.240335
     7  Si  -0.001044
     8  Si  -0.007322
 Sum of Mulliken charges=  -1.00000
 Atomic charges with hydrogens summed into heavy atoms:
              1
     1  Si  -0.001044
     2  Si  -0.007322
     3  Si  -0.240335
     4  Si  -0.251299
     5  Si  -0.251299
     6  Si  -0.240335
     7  Si  -0.001044
     8  Si  -0.007322
 Sum of Mulliken charges=  -1.00000
          Atomic-Atomic Spin Densities.
              1          2          3          4          5          6
     1  Si   0.053041  -0.002153  -0.003610   0.002281   0.010310  -0.003610
     2  Si  -0.002153   0.264732   0.007061   0.003180   0.003180   0.043151
     3  Si  -0.003610   0.007061   0.140906  -0.014522  -0.014522  -0.041160
     4  Si   0.002281   0.003180  -0.014522   0.053287  -0.000814  -0.014522
     5  Si   0.010310   0.003180  -0.014522  -0.000814   0.053287  -0.014522
     6  Si  -0.003610   0.043151  -0.041160  -0.014522  -0.014522   0.140906
     7  Si   0.001210  -0.002153  -0.003610   0.010310   0.002281  -0.003610
     8  Si  -0.002153  -0.028385   0.043151   0.003180   0.003180   0.007061
              7          8
     1  Si   0.001210  -0.002153
     2  Si  -0.002153  -0.028385
     3  Si  -0.003610   0.043151
     4  Si   0.010310   0.003180
     5  Si   0.002281   0.003180
     6  Si  -0.003610   0.007061
     7  Si   0.053041  -0.002153
     8  Si  -0.002153   0.264732
 Mulliken atomic spin densities:
              1
     1  Si   0.055315
     2  Si   0.288612
     3  Si   0.113693
     4  Si   0.042380
     5  Si   0.042380
     6  Si   0.113693
     7  Si   0.055315
     8  Si   0.288612
 Sum of Mulliken spin densities=   1.00000
 APT atomic charges:
              1
     1  Si  -0.049811
     2  Si  -0.019121
     3  Si  -0.240827
     4  Si  -0.190240
     5  Si  -0.190240
     6  Si  -0.240827
     7  Si  -0.049811
     8  Si  -0.019121
 Sum of APT charges=  -1.00000
 APT Atomic charges with hydrogens summed into heavy atoms:
              1
     1  Si  -0.049811
     2  Si  -0.019121
     3  Si  -0.240827
     4  Si  -0.190240
     5  Si  -0.190240
     6  Si  -0.240827
     7  Si  -0.049811
     8  Si  -0.019121
 Sum of APT charges=  -1.00000
 Electronic spatial extent (au):  <R**2>=   762.2789
 Charge=    -1.0000 electrons
 Dipole moment (field-independent basis, Debye):
    X=     0.0000    Y=     0.0000    Z=     0.1516  Tot=     0.1516
 Quadrupole moment (field-independent basis, Debye-Ang):
   XX=  -118.9128   YY=  -121.2278   ZZ=  -121.5749
   XY=     0.0000   XZ=     0.0000   YZ=     0.0000
 Traceless Quadrupole moment (field-independent basis, Debye-Ang):
   XX=     1.6590   YY=    -0.6559   ZZ=    -1.0031
   XY=     0.0000   XZ=     0.0000   YZ=     0.0000
 Octapole moment (field-independent basis, Debye-Ang**2):
  XXX=     0.0000  YYY=     0.0000  ZZZ=    -1.0267  XYY=     0.0000
  XXY=     0.0000  XXZ=   -20.0019  XZZ=     0.0000  YZZ=     0.0000
  YYZ=    19.8951  XYZ=     0.0000
 Hexadecapole moment (field-independent basis, Debye-Ang**3):
 XXXX= -1126.0525 YYYY= -1288.5657 ZZZZ= -1223.2240 XXXY=     0.0000
 XXXZ=     0.0000 YYYX=     0.0000 YYYZ=     0.0000 ZZZX=     0.0000
 ZZZY=     0.0000 XXYY=  -355.6088 XXZZ=  -447.1888 YYZZ=  -458.0153
 XXYZ=     0.0000 YYXZ=     0.0000 ZZXY=     0.0000
 N-N= 8.144736234734D+01 E-N=-2.240203673608D+02  KE= 1.226706545631D+01
 Symmetry A1   KE= 4.780584385251D+00
 Symmetry A2   KE= 1.737903829331D+00
 Symmetry B1   KE= 2.642401972348D+00
 Symmetry B2   KE= 3.106175269377D+00
  Exact polarizability: 235.389   0.000 251.706   0.000   0.000 248.552
 Approx polarizability: 703.305   0.000 763.819   0.000   0.000 722.131
                          Isotropic Fermi Contact Couplings
        Atom                 a.u.       MegaHertz       Gauss      10(-4) cm-1
     1  Si(29)             0.00000      -0.00003      -0.00001      -0.00001
     2  Si(29)             0.00000      -0.00024      -0.00009      -0.00008
     3  Si(29)             0.00000       0.00002       0.00001       0.00001
     4  Si(29)             0.00000      -0.00002      -0.00001      -0.00001
     5  Si(29)             0.00000      -0.00002      -0.00001      -0.00001
     6  Si(29)             0.00000       0.00002       0.00001       0.00001
     7  Si(29)             0.00000      -0.00003      -0.00001      -0.00001
     8  Si(29)             0.00000      -0.00024      -0.00009      -0.00008
 --------------------------------------------------------
       Center         ----  Spin Dipole Couplings  ----
                      3XX-RR        3YY-RR        3ZZ-RR
 --------------------------------------------------------
     1   Atom        0.008630     -0.003221     -0.005408
     2   Atom        0.018817     -0.019547      0.000730
     3   Atom        0.001568     -0.010518      0.008950
     4   Atom        0.013048     -0.004812     -0.008236
     5   Atom        0.013048     -0.004812     -0.008236
     6   Atom        0.001568     -0.010518      0.008950
     7   Atom        0.008630     -0.003221     -0.005408
     8   Atom        0.018817     -0.019547      0.000730
 --------------------------------------------------------
                        XY            XZ            YZ
 --------------------------------------------------------
     1   Atom        0.000000      0.000000     -0.001820
     2   Atom        0.000000      0.025792      0.000000
     3   Atom        0.000000      0.015718      0.000000
     4   Atom        0.000000      0.000000      0.002281
     5   Atom        0.000000      0.000000     -0.002281
     6   Atom        0.000000     -0.015718      0.000000
     7   Atom        0.000000      0.000000      0.001820
     8   Atom        0.000000     -0.025792      0.000000
 --------------------------------------------------------


 ---------------------------------------------------------------------------------
              Anisotropic Spin Dipole Couplings in Principal Axis System
 ---------------------------------------------------------------------------------

       Atom             a.u.   MegaHertz   Gauss  10(-4) cm-1        Axes

              Baa    -0.0064     0.683     0.244     0.228  0.0000  0.4924  0.8704
     1 Si(29) Bbb    -0.0022     0.232     0.083     0.078  0.0000  0.8704 -0.4924
              Bcc     0.0086    -0.915    -0.327    -0.305  1.0000  0.0000  0.0000
 
              Baa    -0.0195     2.074     0.740     0.692  0.0000  1.0000  0.0000
     2 Si(29) Bbb    -0.0176     1.863     0.665     0.621 -0.5784  0.0000  0.8157
              Bcc     0.0371    -3.936    -1.405    -1.313  0.8157  0.0000  0.5784
 
              Baa    -0.0109     1.155     0.412     0.385  0.7838  0.0000 -0.6210
     3 Si(29) Bbb    -0.0105     1.116     0.398     0.372  0.0000  1.0000  0.0000
              Bcc     0.0214    -2.271    -0.810    -0.757  0.6210  0.0000  0.7838
 
              Baa    -0.0094     0.995     0.355     0.332  0.0000 -0.4470  0.8945
     4 Si(29) Bbb    -0.0037     0.390     0.139     0.130  0.0000  0.8945  0.4470
              Bcc     0.0130    -1.384    -0.494    -0.462  1.0000  0.0000  0.0000
 
              Baa    -0.0094     0.995     0.355     0.332  0.0000  0.4470  0.8945
     5 Si(29) Bbb    -0.0037     0.390     0.139     0.130  0.0000  0.8945 -0.4470
              Bcc     0.0130    -1.384    -0.494    -0.462  1.0000  0.0000  0.0000
 
              Baa    -0.0109     1.155     0.412     0.385  0.7838  0.0000  0.6210
     6 Si(29) Bbb    -0.0105     1.116     0.398     0.372  0.0000  1.0000  0.0000
              Bcc     0.0214    -2.271    -0.810    -0.757 -0.6210  0.0000  0.7838
 
              Baa    -0.0064     0.683     0.244     0.228  0.0000 -0.4924  0.8704
     7 Si(29) Bbb    -0.0022     0.232     0.083     0.078  0.0000  0.8704  0.4924
              Bcc     0.0086    -0.915    -0.327    -0.305  1.0000  0.0000  0.0000
 
              Baa    -0.0195     2.074     0.740     0.692  0.0000  1.0000  0.0000
     8 Si(29) Bbb    -0.0176     1.863     0.665     0.621  0.5784  0.0000  0.8157
              Bcc     0.0371    -3.936    -1.405    -1.313  0.8157  0.0000 -0.5784
 

 ---------------------------------------------------------------------------------

   4 Symmetry operations used in ECPInt.
 ECPInt:  NShTT=     528 NPrTT=    1192 LenC2=     529 LenP2D=    1192.
 LDataN:  DoStor=F MaxTD1= 5 Len=  102
 LDataN:  DoStor=T MaxTD1= 5 Len=  102
 ***** Axes restored to original set *****
 -------------------------------------------------------------------
 Center     Atomic                   Forces (Hartrees/Bohr)
 Number     Number              X              Y              Z
 -------------------------------------------------------------------
    1         14           0.000000000    0.013760908   -0.009064139
    2         14          -0.012063189    0.000000000    0.010410407
    3         14           0.026649613    0.000000000   -0.020417759
    4         14           0.000000000   -0.027651996    0.019071490
    5         14           0.000000000    0.027651996    0.019071490
    6         14          -0.026649613    0.000000000   -0.020417759
    7         14           0.000000000   -0.013760908   -0.009064139
    8         14           0.012063189    0.000000000    0.010410407
 -------------------------------------------------------------------
 Cartesian Forces:  Max     0.027651996 RMS     0.015222953

 GradGradGradGradGradGradGradGradGradGradGradGradGradGradGradGradGradGrad
 Berny optimization.
 Internal  Forces:  Max     0.010446311 RMS     0.005151390
 Search for a local minimum.
 Step number   1 out of a maximum of 100
 All quantities printed in internal units (Hartrees-Bohrs-Radians)
 Second derivative matrix not updated -- analytic derivatives used.
     Eigenvalues ---    0.00080   0.01621   0.01716   0.01847   0.02294
     Eigenvalues ---    0.02983   0.03096   0.03295   0.04781   0.04826
     Eigenvalues ---    0.05405   0.05725   0.06161   0.06508   0.06766
     Eigenvalues ---    0.07114   0.07656   0.079601000.000001000.00000
     Eigenvalues --- 1000.000001000.000001000.000001000.000001000.00000
     Eigenvalues --- 1000.000001000.000001000.000001000.000001000.00000
     Eigenvalues --- 1000.000001000.000001000.000001000.000001000.00000
     Eigenvalues --- 1000.000001000.000001000.000001000.000001000.00000
     Eigenvalues --- 1000.000001000.000001000.000001000.000001000.00000
     Eigenvalues --- 1000.000001000.000001000.00000
 RFO step:  Lambda=-2.23947468D-02.
 Linear search not attempted -- first point.
 Maximum step size (   0.300) exceeded in Quadratic search.
    -- Step size scaled by   0.458
 Iteration  1 RMS(Cart)=  0.02002964 RMS(Int)=  0.00010548
 Iteration  2 RMS(Cart)=  0.00007414 RMS(Int)=  0.00004236
 Iteration  3 RMS(Cart)=  0.00000000 RMS(Int)=  0.00004236
 Variable       Old X    -DE/DX   Delta X   Delta X   Delta X     New X
                                 (Linear)    (Quad)   (Total)
    R1        4.56715   0.00740   0.00000   0.04002   0.04005   4.60720
    R2        4.52993   0.00730   0.00000   0.04094   0.04089   4.57082
    R3        4.56715   0.00740   0.00000   0.04002   0.04005   4.60720
    R4        4.54686   0.00689   0.00000   0.03780   0.03778   4.58464
    R5        4.54686   0.00689   0.00000   0.03780   0.03778   4.58464
    R6        4.86249   0.00764   0.00000   0.05954   0.05956   4.92205
    R7        5.20024   0.01045   0.00000   0.10713   0.10715   5.30740
    R8        5.20024   0.01045   0.00000   0.10713   0.10715   5.30740
    R9        4.94857   0.00997   0.00000   0.09288   0.09282   5.04139
   R10        4.56715   0.00740   0.00000   0.04002   0.04005   4.60720
   R11        4.86249   0.00764   0.00000   0.05954   0.05956   4.92205
   R12        5.40636   0.01011   0.00000   0.10306   0.10304   5.50940
   R13        5.20024   0.01045   0.00000   0.10713   0.10715   5.30740
   R14        4.52993   0.00730   0.00000   0.04094   0.04089   4.57082
   R15        4.54686   0.00689   0.00000   0.03780   0.03778   4.58464
   R16        5.20024   0.01045   0.00000   0.10713   0.10715   5.30740
   R17        4.54686   0.00689   0.00000   0.03780   0.03778   4.58464
   R18        4.56715   0.00740   0.00000   0.04002   0.04005   4.60720
    A1        1.85692  -0.00045   0.00000  -0.01015  -0.01010   1.84682
    A2        1.94372  -0.00028   0.00000  -0.00680  -0.00691   1.93682
    A3        1.84058  -0.00046   0.00000  -0.01253  -0.01252   1.82806
    A4        1.85692  -0.00045   0.00000  -0.01015  -0.01010   1.84682
    A5        1.78288  -0.00033   0.00000  -0.00954  -0.00945   1.77343
    A6        1.84058  -0.00046   0.00000  -0.01253  -0.01252   1.82806
    A7        1.79569  -0.00032   0.00000  -0.00866  -0.00864   1.78706
    A8        1.94731  -0.00042   0.00000  -0.00837  -0.00843   1.93888
    A9        1.75544  -0.00020   0.00000  -0.01065  -0.01064   1.74480
   A10        1.80903  -0.00023   0.00000  -0.00838  -0.00834   1.80069
   A11        1.79569  -0.00032   0.00000  -0.00866  -0.00864   1.78706
   A12        1.94731  -0.00042   0.00000  -0.00837  -0.00843   1.93888
   A13        1.94731  -0.00042   0.00000  -0.00837  -0.00843   1.93888
   A14        1.80903  -0.00023   0.00000  -0.00838  -0.00834   1.80069
   A15        1.94731  -0.00042   0.00000  -0.00837  -0.00843   1.93888
   A16        1.79569  -0.00032   0.00000  -0.00866  -0.00864   1.78706
   A17        1.75544  -0.00020   0.00000  -0.01065  -0.01064   1.74480
   A18        1.79569  -0.00032   0.00000  -0.00866  -0.00864   1.78706
   A19        1.84058  -0.00046   0.00000  -0.01253  -0.01252   1.82806
   A20        1.85692  -0.00045   0.00000  -0.01015  -0.01010   1.84682
   A21        1.94372  -0.00028   0.00000  -0.00680  -0.00691   1.93682
   A22        1.78288  -0.00033   0.00000  -0.00954  -0.00945   1.77343
   A23        1.84058  -0.00046   0.00000  -0.01253  -0.01252   1.82806
   A24        1.85692  -0.00045   0.00000  -0.01015  -0.01010   1.84682
    D1       -0.04499   0.00022   0.00000   0.00206   0.00202  -0.04296
    D2        0.04499  -0.00022   0.00000  -0.00206  -0.00202   0.04296
    D3        0.00000   0.00000   0.00000   0.00000   0.00000   0.00000
    D4        0.00000   0.00000   0.00000   0.00000   0.00000   0.00000
    D5        0.04499  -0.00022   0.00000  -0.00206  -0.00202   0.04296
    D6       -0.04499   0.00022   0.00000   0.00206   0.00202  -0.04296
         Item               Value     Threshold  Converged?
 Maximum Force            0.010446     0.000450     NO 
 RMS     Force            0.005151     0.000300     NO 
 Maximum Displacement     0.051520     0.001800     NO 
 RMS     Displacement     0.020022     0.001200     NO 
 Predicted change in Energy=-8.919675D-03
 GradGradGradGradGradGradGradGradGradGradGradGradGradGradGradGradGradGrad

                          Input orientation:                          
 ---------------------------------------------------------------------
 Center     Atomic     Atomic              Coordinates (Angstroms)
 Number     Number      Type              X           Y           Z
 ---------------------------------------------------------------------
    1         14             0        0.000000    2.008894   -1.406226
    2         14             0       -1.858080    0.000000    1.504328
    3         14             0        1.333894    0.000000   -1.047017
    4         14             0        0.000000   -1.457725    0.948914
    5         14             0        0.000000    1.457725    0.948914
    6         14             0       -1.333894    0.000000   -1.047017
    7         14             0        0.000000   -2.008894   -1.406226
    8         14             0        1.858080    0.000000    1.504328
 ---------------------------------------------------------------------
                    Distance matrix (angstroms):
                    1          2          3          4          5
     1  Si   0.000000
     2  Si   3.994927   0.000000
     3  Si   2.438023   4.086326   0.000000
     4  Si   4.190958   2.426089   2.808554   0.000000
     5  Si   2.418775   2.426089   2.808554   2.915450   0.000000
     6  Si   2.438023   2.604637   2.667788   2.808554   2.808554
     7  Si   4.017787   3.994927   2.438023   2.418775   4.190958
     8  Si   3.994927   3.716161   2.604637   2.426089   2.426089
                    6          7          8
     6  Si   0.000000
     7  Si   2.438023   0.000000
     8  Si   4.086326   3.994927   0.000000
 Stoichiometry    Si8(1-,2)
 Framework group  C2V[SGV(Si4),SGV'(Si4)]
 Deg. of freedom     7
 Full point group                 C2V
 Largest Abelian subgroup         C2V     NOp   4
 Largest concise Abelian subgroup C2V     NOp   4
                         Standard orientation:                         
 ---------------------------------------------------------------------
 Center     Atomic     Atomic              Coordinates (Angstroms)
 Number     Number      Type              X           Y           Z
 ---------------------------------------------------------------------
    1         14             0        0.000000    2.008894   -1.406226
    2         14             0       -1.858080    0.000000    1.504328
    3         14             0        1.333894    0.000000   -1.047017
    4         14             0        0.000000   -1.457725    0.948914
    5         14             0        0.000000    1.457725    0.948914
    6         14             0       -1.333894    0.000000   -1.047017
    7         14             0        0.000000   -2.008894   -1.406226
    8         14             0        1.858080    0.000000    1.504328
 ---------------------------------------------------------------------
 Rotational constants (GHZ):      0.7928185      0.7875273      0.7285233
 Standard basis: LANL2DZ (5D, 7F)
 There are    24 symmetry adapted basis functions of A1  symmetry.
 There are     8 symmetry adapted basis functions of A2  symmetry.
 There are    16 symmetry adapted basis functions of B1  symmetry.
 There are    16 symmetry adapted basis functions of B2  symmetry.
 Integral buffers will be    131072 words long.
 Raffenetti 2 integral format.
 Two-electron integral symmetry is turned on.
    64 basis functions,    96 primitive gaussians,    64 cartesian basis functions
    17 alpha electrons       16 beta electrons
       nuclear repulsion energy        80.5375467983 Hartrees.
 NAtoms=    8 NActive=    8 NUniq=    4 SFac= 3.00D+00 NAtFMM=   80 NAOKFM=F Big=F
 One-electron integrals computed using PRISM.
   4 Symmetry operations used in ECPInt.
 ECPInt:  NShTT=     528 NPrTT=    1192 LenC2=     529 LenP2D=    1174.
 LDataN:  DoStor=F MaxTD1= 3 Len=   28
 LDataN:  DoStor=T MaxTD1= 3 Len=   28
 NBasis=    64 RedAO= T  NBF=    24     8    16    16
 NBsUse=    64 1.00D-06 NBFU=    24     8    16    16
 Initial guess read from the read-write file:
 Initial guess orbital symmetries:
 Alpha Orbitals:
       Occupied  (A1) (A1) (B2) (B1) (B2) (B1) (A1) (A1) (A1) (A2)
                 (A1) (B2) (A1) (B1) (B2) (A2) (B1)
       Virtual   (A1) (B1) (B2) (A1) (B2) (B1) (A1) (B1) (A1) (B1)
                 (B2) (A2) (B2) (A2) (A1) (A2) (A1) (B2) (A1) (B1)
                 (A1) (B1) (B2) (B2) (A2) (A1) (B1) (A1) (A1) (B1)
                 (B2) (B1) (B2) (A1) (B1) (A2) (B2) (A2) (A1) (A1)
                 (B1) (A1) (B2) (B2) (A1) (B1) (A1)
 Beta  Orbitals:
       Occupied  (A1) (A1) (B2) (B1) (B2) (B1) (A1) (A1) (A2) (A1)
                 (B2) (A1) (A1) (B2) (B1) (A2)
       Virtual   (B1) (A1) (B2) (B1) (A1) (B2) (B1) (A1) (B1) (A1)
                 (B2) (B1) (B2) (A2) (A2) (A1) (A2) (A1) (B2) (A1)
                 (B1) (A1) (B1) (B2) (B2) (A2) (A1) (B1) (A1) (A1)
                 (B2) (B1) (B2) (B1) (A1) (B1) (B2) (A2) (A2) (A1)
                 (A1) (B1) (A1) (B2) (B2) (A1) (B1) (A1)
 <S**2> of initial guess= 0.7549
 Harris functional with IExCor=  402 diagonalized for initial guess.
 ExpMin= 8.85D-02 ExpMax= 2.58D+00 ExpMxC= 2.58D+00 IAcc=2 IRadAn=         4 AccDes= 0.00D+00
 HarFok:  IExCor= 402 AccDes= 0.00D+00 IRadAn=         4 IDoV=1
 ScaDFX=  1.000000  1.000000  1.000000  1.000000
 Requested convergence on RMS density matrix=1.00D-08 within 128 cycles.
 Requested convergence on MAX density matrix=1.00D-06.
 Requested convergence on             energy=1.00D-06.
 No special actions if energy rises.
 Keep R1 and R2 integrals in memory in canonical form, NReq=     6108938.
 Integral accuracy reduced to 1.0D-05 until final iterations.
 Initial convergence to 1.0D-05 achieved.  Increase integral accuracy.
 SCF Done:  E(UB+HF-LYP) =  -30.9519882018     A.U. after   17 cycles
             Convg  =    0.7815D-08             -V/T =  3.5472
             S**2   =   0.7552
 Annihilation of the first spin contaminant:
 S**2 before annihilation     0.7552,   after     0.7500
 QCSCF skips out because SCF is already converged.
 Range of M.O.s used for correlation:     1    64
 NBasis=    64 NAE=    17 NBE=    16 NFC=     0 NFV=     0
 NROrb=     64 NOA=    17 NOB=    16 NVA=    47 NVB=    48

 **** Warning!!: The smallest beta delta epsilon is  0.60477940D-01

   4 Symmetry operations used in ECPInt.
 ECPInt:  NShTT=     528 NPrTT=    1192 LenC2=     529 LenP2D=    1174.
 LDataN:  DoStor=F MaxTD1= 4 Len=   56
 LDataN:  DoStor=T MaxTD1= 4 Len=   56
 Symmetrizing basis deriv contribution to polar:
 IMax=3 JMax=2 DiffMx= 0.00D+00
 G2DrvN: will do    9 centers at a time, making    1 passes doing MaxLOS=1.
 FoFDir/FoFCou used for L=0 through L=1.
 DoAtom=TTTTTTTT
          Differentiating once with respect to electric field.
                with respect to dipole field.
          Differentiating once with respect to nuclear coordinates.
          Store integrals in memory, NReq=     5131022.
          There are  15 degrees of freedom in the 1st order CPHF.
    15 vectors were produced by pass  0.
 AX will form  15 AO Fock derivatives at one time.
    15 vectors were produced by pass  1.
    15 vectors were produced by pass  2.
    15 vectors were produced by pass  3.
    15 vectors were produced by pass  4.
    15 vectors were produced by pass  5.
    15 vectors were produced by pass  6.
    15 vectors were produced by pass  7.
    13 vectors were produced by pass  8.
     3 vectors were produced by pass  9.
     3 vectors were produced by pass 10.
 Inv2:  IOpt= 1 Iter= 1 AM= 2.01D-15 Conv= 1.00D-12.
 Inverted reduced A of dimension  139 with in-core refinement.
 Isotropic polarizability for W=    0.000000      248.83 Bohr**3.
 End of Minotr Frequency-dependent properties file   721 does not exist.
   4 Symmetry operations used in ECPInt.
 ECPInt:  NShTT=     528 NPrTT=    1192 LenC2=     529 LenP2D=    1192.
 LDataN:  DoStor=F MaxTD1= 5 Len=  102
 LDataN:  DoStor=T MaxTD1= 5 Len=  102
 ***** Axes restored to original set *****
 -------------------------------------------------------------------
 Center     Atomic                   Forces (Hartrees/Bohr)
 Number     Number              X              Y              Z
 -------------------------------------------------------------------
    1         14           0.000000000    0.009178481   -0.005973652
    2         14          -0.008040871    0.000000000    0.007363776
    3         14           0.020110484    0.000000000   -0.016047298
    4         14           0.000000000   -0.021109125    0.014657174
    5         14           0.000000000    0.021109125    0.014657174
    6         14          -0.020110484    0.000000000   -0.016047298
    7         14           0.000000000   -0.009178481   -0.005973652
    8         14           0.008040871    0.000000000    0.007363776
 -------------------------------------------------------------------
 Cartesian Forces:  Max     0.021109125 RMS     0.011406084

 GradGradGradGradGradGradGradGradGradGradGradGradGradGradGradGradGradGrad
 Berny optimization.
 Internal  Forces:  Max     0.008169884 RMS     0.003792046
 Search for a local minimum.
 Step number   2 out of a maximum of 100
 All quantities printed in internal units (Hartrees-Bohrs-Radians)
 Second derivative matrix not updated -- analytic derivatives used.
 Trust test= 1.00D+00 RLast= 3.00D-01 DXMaxT set to 4.24D-01
 Maximum step size (   0.424) exceeded in linear search.
    -- Step size scaled by   0.707
 Quintic linear search produced a step of  1.41422.
 Iteration  1 RMS(Cart)=  0.02823282 RMS(Int)=  0.00023644
 Iteration  2 RMS(Cart)=  0.00014769 RMS(Int)=  0.00014011
 Iteration  3 RMS(Cart)=  0.00000001 RMS(Int)=  0.00014011
 Variable       Old X    -DE/DX   Delta X   Delta X   Delta X     New X
                                 (Linear)    (Quad)   (Total)
    R1        4.60720   0.00501   0.05663   0.00000   0.05672   4.66392
    R2        4.57082   0.00497   0.05783   0.00000   0.05768   4.62850
    R3        4.60720   0.00501   0.05663   0.00000   0.05672   4.66392
    R4        4.58464   0.00467   0.05344   0.00000   0.05337   4.63802
    R5        4.58464   0.00467   0.05344   0.00000   0.05337   4.63802
    R6        4.92205   0.00559   0.08424   0.00000   0.08430   5.00635
    R7        5.30740   0.00817   0.15154   0.00000   0.15161   5.45901
    R8        5.30740   0.00817   0.15154   0.00000   0.15161   5.45901
    R9        5.04139   0.00760   0.13127   0.00000   0.13108   5.17247
   R10        4.60720   0.00501   0.05663   0.00000   0.05672   4.66392
   R11        4.92205   0.00559   0.08424   0.00000   0.08430   5.00635
   R12        5.50940   0.00786   0.14572   0.00000   0.14565   5.65506
   R13        5.30740   0.00817   0.15154   0.00000   0.15161   5.45901
   R14        4.57082   0.00497   0.05783   0.00000   0.05768   4.62850
   R15        4.58464   0.00467   0.05344   0.00000   0.05337   4.63802
   R16        5.30740   0.00817   0.15154   0.00000   0.15161   5.45901
   R17        4.58464   0.00467   0.05344   0.00000   0.05337   4.63802
   R18        4.60720   0.00501   0.05663   0.00000   0.05672   4.66392
    A1        1.84682  -0.00046  -0.01429   0.00000  -0.01414   1.83268
    A2        1.93682  -0.00031  -0.00977   0.00000  -0.01010   1.92671
    A3        1.82806  -0.00052  -0.01771   0.00000  -0.01769   1.81037
    A4        1.84682  -0.00046  -0.01429   0.00000  -0.01414   1.83268
    A5        1.77343  -0.00038  -0.01336   0.00000  -0.01306   1.76037
    A6        1.82806  -0.00052  -0.01771   0.00000  -0.01769   1.81037
    A7        1.78706  -0.00035  -0.01221   0.00000  -0.01212   1.77493
    A8        1.93888  -0.00041  -0.01192   0.00000  -0.01212   1.92676
    A9        1.74480  -0.00033  -0.01505   0.00000  -0.01502   1.72978
   A10        1.80069  -0.00030  -0.01180   0.00000  -0.01166   1.78902
   A11        1.78706  -0.00035  -0.01221   0.00000  -0.01212   1.77493
   A12        1.93888  -0.00041  -0.01192   0.00000  -0.01212   1.92676
   A13        1.93888  -0.00041  -0.01192   0.00000  -0.01212   1.92676
   A14        1.80069  -0.00030  -0.01180   0.00000  -0.01166   1.78902
   A15        1.93888  -0.00041  -0.01192   0.00000  -0.01212   1.92676
   A16        1.78706  -0.00035  -0.01221   0.00000  -0.01212   1.77493
   A17        1.74480  -0.00033  -0.01505   0.00000  -0.01502   1.72978
   A18        1.78706  -0.00035  -0.01221   0.00000  -0.01212   1.77493
   A19        1.82806  -0.00052  -0.01771   0.00000  -0.01769   1.81037
   A20        1.84682  -0.00046  -0.01429   0.00000  -0.01414   1.83268
   A21        1.93682  -0.00031  -0.00977   0.00000  -0.01010   1.92671
   A22        1.77343  -0.00038  -0.01336   0.00000  -0.01306   1.76037
   A23        1.82806  -0.00052  -0.01771   0.00000  -0.01769   1.81037
   A24        1.84682  -0.00046  -0.01429   0.00000  -0.01414   1.83268
    D1       -0.04296   0.00016   0.00286   0.00000   0.00275  -0.04022
    D2        0.04296  -0.00016  -0.00286   0.00000  -0.00275   0.04022
    D3        0.00000   0.00000   0.00000   0.00000   0.00000   0.00000
    D4        0.00000   0.00000   0.00000   0.00000   0.00000   0.00000
    D5        0.04296  -0.00016  -0.00286   0.00000  -0.00275   0.04022
    D6       -0.04296   0.00016   0.00286   0.00000   0.00275  -0.04022
         Item               Value     Threshold  Converged?
 Maximum Force            0.008170     0.000450     NO 
 RMS     Force            0.003792     0.000300     NO 
 Maximum Displacement     0.072827     0.001800     NO 
 RMS     Displacement     0.028218     0.001200     NO 
 Predicted change in Energy=-8.421711D-03
 GradGradGradGradGradGradGradGradGradGradGradGradGradGradGradGradGradGrad

                          Input orientation:                          
 ---------------------------------------------------------------------
 Center     Atomic     Atomic              Coordinates (Angstroms)
 Number     Number      Type              X           Y           Z
 ---------------------------------------------------------------------
    1         14             0        0.000000    2.026536   -1.415105
    2         14             0       -1.867806    0.000000    1.520394
    3         14             0        1.368576    0.000000   -1.081390
    4         14             0        0.000000   -1.496263    0.976101
    5         14             0        0.000000    1.496263    0.976101
    6         14             0       -1.368576    0.000000   -1.081390
    7         14             0        0.000000   -2.026536   -1.415105
    8         14             0        1.867806    0.000000    1.520394
 ---------------------------------------------------------------------
                    Distance matrix (angstroms):
                    1          2          3          4          5
     1  Si   0.000000
     2  Si   4.026499   0.000000
     3  Si   2.468038   4.152523   0.000000
     4  Si   4.257696   2.454334   2.888784   0.000000
     5  Si   2.449297   2.454334   2.888784   2.992527   0.000000
     6  Si   2.468038   2.649247   2.737152   2.888784   2.888784
     7  Si   4.053071   4.026499   2.468038   2.449297   4.257696
     8  Si   4.026499   3.735611   2.649247   2.454334   2.454334
                    6          7          8
     6  Si   0.000000
     7  Si   2.468038   0.000000
     8  Si   4.152523   4.026499   0.000000
 Stoichiometry    Si8(1-,2)
 Framework group  C2V[SGV(Si4),SGV'(Si4)]
 Deg. of freedom     7
 Full point group                 C2V
 Largest Abelian subgroup         C2V     NOp   4
 Largest concise Abelian subgroup C2V     NOp   4
                         Standard orientation:                         
 ---------------------------------------------------------------------
 Center     Atomic     Atomic              Coordinates (Angstroms)
 Number     Number      Type              X           Y           Z
 ---------------------------------------------------------------------
    1         14             0        0.000000    2.026536   -1.415105
    2         14             0       -1.867806    0.000000    1.520394
    3         14             0        1.368576    0.000000   -1.081390
    4         14             0        0.000000   -1.496263    0.976101
    5         14             0        0.000000    1.496263    0.976101
    6         14             0       -1.368576    0.000000   -1.081390
    7         14             0        0.000000   -2.026536   -1.415105
    8         14             0        1.867806    0.000000    1.520394
 ---------------------------------------------------------------------
 Rotational constants (GHZ):      0.7714870      0.7655595      0.7066269
 Standard basis: LANL2DZ (5D, 7F)
 There are    24 symmetry adapted basis functions of A1  symmetry.
 There are     8 symmetry adapted basis functions of A2  symmetry.
 There are    16 symmetry adapted basis functions of B1  symmetry.
 There are    16 symmetry adapted basis functions of B2  symmetry.
 Integral buffers will be    131072 words long.
 Raffenetti 2 integral format.
 Two-electron integral symmetry is turned on.
    64 basis functions,    96 primitive gaussians,    64 cartesian basis functions
    17 alpha electrons       16 beta electrons
       nuclear repulsion energy        79.2950367419 Hartrees.
 NAtoms=    8 NActive=    8 NUniq=    4 SFac= 3.00D+00 NAtFMM=   80 NAOKFM=F Big=F
 One-electron integrals computed using PRISM.
   4 Symmetry operations used in ECPInt.
 ECPInt:  NShTT=     528 NPrTT=    1192 LenC2=     529 LenP2D=    1174.
 LDataN:  DoStor=F MaxTD1= 3 Len=   28
 LDataN:  DoStor=T MaxTD1= 3 Len=   28
 NBasis=    64 RedAO= T  NBF=    24     8    16    16
 NBsUse=    64 1.00D-06 NBFU=    24     8    16    16
 Initial guess read from the read-write file:
 Initial guess orbital symmetries:
 Alpha Orbitals:
       Occupied  (A1) (A1) (B2) (B1) (B2) (B1) (A1) (A1) (A1) (A2)
                 (A1) (A1) (B2) (B2) (B1) (A2) (B1)
       Virtual   (A1) (B1) (B2) (A1) (B2) (B1) (B1) (A1) (A1) (B1)
                 (B2) (A2) (B2) (A2) (A1) (A1) (A2) (B2) (B1) (A1)
                 (A1) (B1) (B2) (B2) (A2) (A1) (B1) (A1) (B1) (A1)
                 (B2) (B1) (B2) (A1) (B1) (A2) (B2) (A2) (A1) (A1)
                 (B1) (A1) (B2) (A1) (B2) (B1) (A1)
 Beta  Orbitals:
       Occupied  (A1) (A1) (B2) (B1) (B2) (B1) (A1) (A1) (A2) (A1)
                 (A1) (B2) (A1) (B2) (B1) (A2)
       Virtual   (B1) (A1) (B2) (B1) (A1) (B2) (B1) (A1) (B1) (A1)
                 (B2) (B1) (B2) (A2) (A2) (A1) (A1) (B2) (A2) (B1)
                 (A1) (A1) (B1) (B2) (B2) (A2) (A1) (B1) (A1) (B2)
                 (A1) (B1) (B2) (B1) (A1) (B1) (B2) (A2) (A2) (A1)
                 (A1) (B1) (A1) (B2) (A1) (B2) (B1) (A1)
 <S**2> of initial guess= 0.7553
 Harris functional with IExCor=  402 diagonalized for initial guess.
 ExpMin= 8.85D-02 ExpMax= 2.58D+00 ExpMxC= 2.58D+00 IAcc=2 IRadAn=         4 AccDes= 0.00D+00
 HarFok:  IExCor= 402 AccDes= 0.00D+00 IRadAn=         4 IDoV=1
 ScaDFX=  1.000000  1.000000  1.000000  1.000000
 Requested convergence on RMS density matrix=1.00D-08 within 128 cycles.
 Requested convergence on MAX density matrix=1.00D-06.
 Requested convergence on             energy=1.00D-06.
 No special actions if energy rises.
 Keep R1 and R2 integrals in memory in canonical form, NReq=     6108938.
 Integral accuracy reduced to 1.0D-05 until final iterations.
 Initial convergence to 1.0D-05 achieved.  Increase integral accuracy.
 SCF Done:  E(UB+HF-LYP) =  -30.9605056618     A.U. after   18 cycles
             Convg  =    0.3562D-08             -V/T =  3.5804
             S**2   =   0.7557
 Annihilation of the first spin contaminant:
 S**2 before annihilation     0.7557,   after     0.7500
 QCSCF skips out because SCF is already converged.
 Range of M.O.s used for correlation:     1    64
 NBasis=    64 NAE=    17 NBE=    16 NFC=     0 NFV=     0
 NROrb=     64 NOA=    17 NOB=    16 NVA=    47 NVB=    48

 **** Warning!!: The smallest beta delta epsilon is  0.61224917D-01

   4 Symmetry operations used in ECPInt.
 ECPInt:  NShTT=     528 NPrTT=    1192 LenC2=     529 LenP2D=    1174.
 LDataN:  DoStor=F MaxTD1= 4 Len=   56
 LDataN:  DoStor=T MaxTD1= 4 Len=   56
 Symmetrizing basis deriv contribution to polar:
 IMax=3 JMax=2 DiffMx= 0.00D+00
 G2DrvN: will do    9 centers at a time, making    1 passes doing MaxLOS=1.
 FoFDir/FoFCou used for L=0 through L=1.
 DoAtom=TTTTTTTT
          Differentiating once with respect to electric field.
                with respect to dipole field.
          Differentiating once with respect to nuclear coordinates.
          Store integrals in memory, NReq=     5131022.
          There are  15 degrees of freedom in the 1st order CPHF.
    15 vectors were produced by pass  0.
 AX will form  15 AO Fock derivatives at one time.
    15 vectors were produced by pass  1.
    15 vectors were produced by pass  2.
    15 vectors were produced by pass  3.
    15 vectors were produced by pass  4.
    15 vectors were produced by pass  5.
    15 vectors were produced by pass  6.
    15 vectors were produced by pass  7.
    14 vectors were produced by pass  8.
     4 vectors were produced by pass  9.
     3 vectors were produced by pass 10.
 Inv2:  IOpt= 1 Iter= 1 AM= 1.62D-15 Conv= 1.00D-12.
 Inverted reduced A of dimension  141 with in-core refinement.
 Isotropic polarizability for W=    0.000000      253.92 Bohr**3.
 End of Minotr Frequency-dependent properties file   721 does not exist.
   4 Symmetry operations used in ECPInt.
 ECPInt:  NShTT=     528 NPrTT=    1192 LenC2=     529 LenP2D=    1192.
 LDataN:  DoStor=F MaxTD1= 5 Len=  102
 LDataN:  DoStor=T MaxTD1= 5 Len=  102
 ***** Axes restored to original set *****
 -------------------------------------------------------------------
 Center     Atomic                   Forces (Hartrees/Bohr)
 Number     Number              X              Y              Z
 -------------------------------------------------------------------
    1         14           0.000000000    0.003451654   -0.002157494
    2         14          -0.002993778    0.000000000    0.003617618
    3         14           0.011699650    0.000000000   -0.010394315
    4         14           0.000000000   -0.012503733    0.008934191
    5         14           0.000000000    0.012503733    0.008934191
    6         14          -0.011699650    0.000000000   -0.010394315
    7         14           0.000000000   -0.003451654   -0.002157494
    8         14           0.002993778    0.000000000    0.003617618
 -------------------------------------------------------------------
 Cartesian Forces:  Max     0.012503733 RMS     0.006580940

 GradGradGradGradGradGradGradGradGradGradGradGradGradGradGradGradGradGrad
 Berny optimization.
 Internal  Forces:  Max     0.005247347 RMS     0.002125383
 Search for a local minimum.
 Step number   3 out of a maximum of 100
 All quantities printed in internal units (Hartrees-Bohrs-Radians)
 Second derivative matrix not updated -- analytic derivatives used.
 Maximum step size (   0.424) exceeded in linear search.
    -- Step size scaled by   0.638
 Quintic linear search produced a step of  1.00001.
 Iteration  1 RMS(Cart)=  0.02812151 RMS(Int)=  0.00024454
 Iteration  2 RMS(Cart)=  0.00014747 RMS(Int)=  0.00015619
 Iteration  3 RMS(Cart)=  0.00000001 RMS(Int)=  0.00015619
 Variable       Old X    -DE/DX   Delta X   Delta X   Delta X     New X
                                 (Linear)    (Quad)   (Total)
    R1        4.66392   0.00200   0.05672   0.00000   0.05682   4.72073
    R2        4.62850   0.00203   0.05768   0.00000   0.05751   4.68601
    R3        4.66392   0.00200   0.05672   0.00000   0.05682   4.72073
    R4        4.63802   0.00182   0.05338   0.00000   0.05331   4.69133
    R5        4.63802   0.00182   0.05338   0.00000   0.05331   4.69133
    R6        5.00635   0.00306   0.08430   0.00000   0.08437   5.09072
    R7        5.45901   0.00525   0.15161   0.00000   0.15170   5.61071
    R8        5.45901   0.00525   0.15161   0.00000   0.15170   5.61071
    R9        5.17247   0.00461   0.13108   0.00000   0.13087   5.30334
   R10        4.66392   0.00200   0.05672   0.00000   0.05682   4.72073
   R11        5.00635   0.00306   0.08430   0.00000   0.08437   5.09072
   R12        5.65506   0.00490   0.14565   0.00000   0.14558   5.80063
   R13        5.45901   0.00525   0.15161   0.00000   0.15170   5.61071
   R14        4.62850   0.00203   0.05768   0.00000   0.05751   4.68601
   R15        4.63802   0.00182   0.05338   0.00000   0.05331   4.69133
   R16        5.45901   0.00525   0.15161   0.00000   0.15170   5.61071
   R17        4.63802   0.00182   0.05338   0.00000   0.05331   4.69133
   R18        4.66392   0.00200   0.05672   0.00000   0.05682   4.72073
    A1        1.83268  -0.00051  -0.01414   0.00000  -0.01397   1.81870
    A2        1.92671  -0.00037  -0.01010   0.00000  -0.01048   1.91623
    A3        1.81037  -0.00062  -0.01769   0.00000  -0.01764   1.79272
    A4        1.83268  -0.00051  -0.01414   0.00000  -0.01397   1.81870
    A5        1.76037  -0.00046  -0.01306   0.00000  -0.01272   1.74765
    A6        1.81037  -0.00062  -0.01769   0.00000  -0.01764   1.79272
    A7        1.77493  -0.00038  -0.01212   0.00000  -0.01202   1.76292
    A8        1.92676  -0.00039  -0.01212   0.00000  -0.01234   1.91443
    A9        1.72978  -0.00052  -0.01502   0.00000  -0.01500   1.71478
   A10        1.78902  -0.00039  -0.01166   0.00000  -0.01152   1.77751
   A11        1.77493  -0.00038  -0.01212   0.00000  -0.01202   1.76292
   A12        1.92676  -0.00039  -0.01212   0.00000  -0.01234   1.91443
   A13        1.92676  -0.00039  -0.01212   0.00000  -0.01234   1.91443
   A14        1.78902  -0.00039  -0.01166   0.00000  -0.01152   1.77751
   A15        1.92676  -0.00039  -0.01212   0.00000  -0.01234   1.91443
   A16        1.77493  -0.00038  -0.01212   0.00000  -0.01202   1.76292
   A17        1.72978  -0.00052  -0.01502   0.00000  -0.01500   1.71478
   A18        1.77493  -0.00038  -0.01212   0.00000  -0.01202   1.76292
   A19        1.81037  -0.00062  -0.01769   0.00000  -0.01764   1.79272
   A20        1.83268  -0.00051  -0.01414   0.00000  -0.01397   1.81870
   A21        1.92671  -0.00037  -0.01010   0.00000  -0.01048   1.91623
   A22        1.76037  -0.00046  -0.01306   0.00000  -0.01272   1.74765
   A23        1.81037  -0.00062  -0.01769   0.00000  -0.01764   1.79272
   A24        1.83268  -0.00051  -0.01414   0.00000  -0.01397   1.81870
    D1       -0.04022   0.00008   0.00275   0.00000   0.00262  -0.03760
    D2        0.04022  -0.00008  -0.00275   0.00000  -0.00262   0.03760
    D3        0.00000   0.00000   0.00000   0.00000   0.00000   0.00000
    D4        0.00000   0.00000   0.00000   0.00000   0.00000   0.00000
    D5        0.04022  -0.00008  -0.00275   0.00000  -0.00262   0.03760
    D6       -0.04022   0.00008   0.00275   0.00000   0.00262  -0.03760
         Item               Value     Threshold  Converged?
 Maximum Force            0.005247     0.000450     NO 
 RMS     Force            0.002125     0.000300     NO 
 Maximum Displacement     0.072789     0.001800     NO 
 RMS     Displacement     0.028108     0.001200     NO 
 Predicted change in Energy=-4.062103D-03
 GradGradGradGradGradGradGradGradGradGradGradGradGradGradGradGradGradGrad

                          Input orientation:                          
 ---------------------------------------------------------------------
 Center     Atomic     Atomic              Coordinates (Angstroms)
 Number     Number      Type              X           Y           Z
 ---------------------------------------------------------------------
    1         14             0        0.000000    2.043725   -1.423599
    2         14             0       -1.877145    0.000000    1.536066
    3         14             0        1.403202    0.000000   -1.115807
    4         14             0        0.000000   -1.534781    1.003340
    5         14             0        0.000000    1.534781    1.003340
    6         14             0       -1.403202    0.000000   -1.115807
    7         14             0        0.000000   -2.043725   -1.423599
    8         14             0        1.877145    0.000000    1.536066
 ---------------------------------------------------------------------
                    Distance matrix (angstroms):
                    1          2          3          4          5
     1  Si   0.000000
     2  Si   4.057105   0.000000
     3  Si   2.498104   4.218188   0.000000
     4  Si   4.323858   2.482544   2.969060   0.000000
     5  Si   2.479730   2.482544   2.969060   3.069563   0.000000
     6  Si   2.498104   2.693892   2.806404   2.969060   2.969060
     7  Si   4.087450   4.057105   2.498104   2.479730   4.323858
     8  Si   4.057105   3.754289   2.693892   2.482544   2.482544
                    6          7          8
     6  Si   0.000000
     7  Si   2.498104   0.000000
     8  Si   4.218188   4.057105   0.000000
 Stoichiometry    Si8(1-,2)
 Framework group  C2V[SGV(Si4),SGV'(Si4)]
 Deg. of freedom     7
 Full point group                 C2V
 Largest Abelian subgroup         C2V     NOp   4
 Largest concise Abelian subgroup C2V     NOp   4
                         Standard orientation:                         
 ---------------------------------------------------------------------
 Center     Atomic     Atomic              Coordinates (Angstroms)
 Number     Number      Type              X           Y           Z
 ---------------------------------------------------------------------
    1         14             0        0.000000    2.043725   -1.423599
    2         14             0       -1.877145    0.000000    1.536066
    3         14             0        1.403202    0.000000   -1.115807
    4         14             0        0.000000   -1.534781    1.003340
    5         14             0        0.000000    1.534781    1.003340
    6         14             0       -1.403202    0.000000   -1.115807
    7         14             0        0.000000   -2.043725   -1.423599
    8         14             0        1.877145    0.000000    1.536066
 ---------------------------------------------------------------------
 Rotational constants (GHZ):      0.7511066      0.7445750      0.6857948
 Standard basis: LANL2DZ (5D, 7F)
 There are    24 symmetry adapted basis functions of A1  symmetry.
 There are     8 symmetry adapted basis functions of A2  symmetry.
 There are    16 symmetry adapted basis functions of B1  symmetry.
 There are    16 symmetry adapted basis functions of B2  symmetry.
 Integral buffers will be    131072 words long.
 Raffenetti 2 integral format.
 Two-electron integral symmetry is turned on.
    64 basis functions,    96 primitive gaussians,    64 cartesian basis functions
    17 alpha electrons       16 beta electrons
       nuclear repulsion energy        78.1013474645 Hartrees.
 NAtoms=    8 NActive=    8 NUniq=    4 SFac= 3.00D+00 NAtFMM=   80 NAOKFM=F Big=F
 One-electron integrals computed using PRISM.
   4 Symmetry operations used in ECPInt.
 ECPInt:  NShTT=     528 NPrTT=    1192 LenC2=     529 LenP2D=    1172.
 LDataN:  DoStor=F MaxTD1= 3 Len=   28
 LDataN:  DoStor=T MaxTD1= 3 Len=   28
 NBasis=    64 RedAO= T  NBF=    24     8    16    16
 NBsUse=    64 1.00D-06 NBFU=    24     8    16    16
 Initial guess read from the read-write file:
 Initial guess orbital symmetries:
 Alpha Orbitals:
       Occupied  (A1) (A1) (B2) (B1) (B2) (B1) (A1) (A1) (A1) (A2)
                 (A1) (A1) (B2) (B2) (B1) (A2) (B1)
       Virtual   (A1) (B1) (B2) (A1) (B1) (B2) (B1) (A1) (B1) (A1)
                 (B2) (A2) (B2) (A2) (A1) (A1) (B2) (B1) (A2) (A1)
                 (B1) (A1) (B2) (B2) (A2) (A1) (B1) (A1) (B1) (B2)
                 (A1) (B2) (B1) (B1) (A1) (A2) (B2) (A2) (A1) (A1)
                 (B1) (A1) (B2) (A1) (B2) (A1) (B1)
 Beta  Orbitals:
       Occupied  (A1) (A1) (B2) (B1) (B2) (B1) (A1) (A1) (A2) (A1)
                 (A1) (B2) (B2) (A1) (B1) (A2)
       Virtual   (B1) (A1) (B2) (B1) (A1) (B2) (B1) (B1) (A1) (A1)
                 (B1) (B2) (B2) (A2) (A2) (A1) (A1) (B2) (B1) (A2)
                 (A1) (A1) (B1) (B2) (B2) (A2) (A1) (B1) (A1) (B2)
                 (B1) (B2) (A1) (B1) (B1) (A1) (B2) (A2) (A2) (A1)
                 (A1) (B1) (A1) (B2) (A1) (B2) (A1) (B1)
 <S**2> of initial guess= 0.7559
 Harris functional with IExCor=  402 diagonalized for initial guess.
 ExpMin= 8.85D-02 ExpMax= 2.58D+00 ExpMxC= 2.58D+00 IAcc=2 IRadAn=         4 AccDes= 0.00D+00
 HarFok:  IExCor= 402 AccDes= 0.00D+00 IRadAn=         4 IDoV=1
 ScaDFX=  1.000000  1.000000  1.000000  1.000000
 Requested convergence on RMS density matrix=1.00D-08 within 128 cycles.
 Requested convergence on MAX density matrix=1.00D-06.
 Requested convergence on             energy=1.00D-06.
 No special actions if energy rises.
 Keep R1 and R2 integrals in memory in canonical form, NReq=     6108938.
 Integral accuracy reduced to 1.0D-05 until final iterations.
 Initial convergence to 1.0D-05 achieved.  Increase integral accuracy.
 SCF Done:  E(UB+HF-LYP) =  -30.9646493479     A.U. after   18 cycles
             Convg  =    0.4554D-08             -V/T =  3.6118
             S**2   =   0.7563
 Annihilation of the first spin contaminant:
 S**2 before annihilation     0.7563,   after     0.7500
 QCSCF skips out because SCF is already converged.
 Range of M.O.s used for correlation:     1    64
 NBasis=    64 NAE=    17 NBE=    16 NFC=     0 NFV=     0
 NROrb=     64 NOA=    17 NOB=    16 NVA=    47 NVB=    48

 **** Warning!!: The smallest beta delta epsilon is  0.60567342D-01

   4 Symmetry operations used in ECPInt.
 ECPInt:  NShTT=     528 NPrTT=    1192 LenC2=     529 LenP2D=    1172.
 LDataN:  DoStor=F MaxTD1= 4 Len=   56
 LDataN:  DoStor=T MaxTD1= 4 Len=   56
 Symmetrizing basis deriv contribution to polar:
 IMax=3 JMax=2 DiffMx= 0.00D+00
 G2DrvN: will do    9 centers at a time, making    1 passes doing MaxLOS=1.
 FoFDir/FoFCou used for L=0 through L=1.
 DoAtom=TTTTTTTT
          Differentiating once with respect to electric field.
                with respect to dipole field.
          Differentiating once with respect to nuclear coordinates.
          Store integrals in memory, NReq=     5131022.
          There are  15 degrees of freedom in the 1st order CPHF.
    15 vectors were produced by pass  0.
 AX will form  15 AO Fock derivatives at one time.
    15 vectors were produced by pass  1.
    15 vectors were produced by pass  2.
    15 vectors were produced by pass  3.
    15 vectors were produced by pass  4.
    15 vectors were produced by pass  5.
    15 vectors were produced by pass  6.
    15 vectors were produced by pass  7.
    15 vectors were produced by pass  8.
     4 vectors were produced by pass  9.
     3 vectors were produced by pass 10.
 Inv2:  IOpt= 1 Iter= 1 AM= 1.79D-15 Conv= 1.00D-12.
 Inverted reduced A of dimension  142 with in-core refinement.
 Isotropic polarizability for W=    0.000000      258.99 Bohr**3.
 End of Minotr Frequency-dependent properties file   721 does not exist.
   4 Symmetry operations used in ECPInt.
 ECPInt:  NShTT=     528 NPrTT=    1192 LenC2=     529 LenP2D=    1192.
 LDataN:  DoStor=F MaxTD1= 5 Len=  102
 LDataN:  DoStor=T MaxTD1= 5 Len=  102
 ***** Axes restored to original set *****
 -------------------------------------------------------------------
 Center     Atomic                   Forces (Hartrees/Bohr)
 Number     Number              X              Y              Z
 -------------------------------------------------------------------
    1         14           0.000000000   -0.001480885    0.001085996
    2         14           0.001385061    0.000000000    0.000448335
    3         14           0.004099084    0.000000000   -0.005256831
    4         14           0.000000000   -0.004584847    0.003722500
    5         14           0.000000000    0.004584847    0.003722500
    6         14          -0.004099084    0.000000000   -0.005256831
    7         14           0.000000000    0.001480885    0.001085996
    8         14          -0.001385061    0.000000000    0.000448335
 -------------------------------------------------------------------
 Cartesian Forces:  Max     0.005256831 RMS     0.002658420

 GradGradGradGradGradGradGradGradGradGradGradGradGradGradGradGradGradGrad
 Berny optimization.
 Internal  Forces:  Max     0.002612297 RMS     0.001005585
 Search for a local minimum.
 Step number   4 out of a maximum of 100
 All quantities printed in internal units (Hartrees-Bohrs-Radians)
 Second derivative matrix not updated -- analytic derivatives used.
     Eigenvalues ---    0.00228   0.00897   0.01030   0.01041   0.01741
     Eigenvalues ---    0.02122   0.02127   0.02410   0.03384   0.03641
     Eigenvalues ---    0.04077   0.04216   0.04438   0.04844   0.05236
     Eigenvalues ---    0.05387   0.06042   0.065701000.000001000.00000
     Eigenvalues --- 1000.000001000.000001000.000001000.000001000.00000
     Eigenvalues --- 1000.000001000.000001000.000001000.000001000.00000
     Eigenvalues --- 1000.000001000.000001000.000001000.000001000.00000
     Eigenvalues --- 1000.000001000.000001000.000001000.000001000.00000
     Eigenvalues --- 1000.000001000.000001000.000001000.000001000.00000
     Eigenvalues --- 1000.000001000.000001000.00000
 RFO step:  Lambda=-1.37310393D-03.
 Quintic linear search produced a step of  0.56294.
 Iteration  1 RMS(Cart)=  0.02844634 RMS(Int)=  0.00066889
 Iteration  2 RMS(Cart)=  0.00040845 RMS(Int)=  0.00038748
 Iteration  3 RMS(Cart)=  0.00000007 RMS(Int)=  0.00038748
 Variable       Old X    -DE/DX   Delta X   Delta X   Delta X     New X
                                 (Linear)    (Quad)   (Total)
    R1        4.72073  -0.00065   0.03198  -0.04123  -0.00894   4.71179
    R2        4.68601  -0.00054   0.03237  -0.02611   0.00628   4.69229
    R3        4.72073  -0.00065   0.03198  -0.04123  -0.00894   4.71179
    R4        4.69133  -0.00071   0.03001  -0.03814  -0.00805   4.68328
    R5        4.69133  -0.00071   0.03001  -0.03814  -0.00805   4.68328
    R6        5.09072   0.00090   0.04749   0.00527   0.05298   5.14370
    R7        5.61071   0.00261   0.08540   0.06352   0.14873   5.75944
    R8        5.61071   0.00261   0.08540   0.06352   0.14873   5.75944
    R9        5.30334   0.00194   0.07367   0.03270   0.10572   5.40906
   R10        4.72073  -0.00065   0.03198  -0.04123  -0.00894   4.71179
   R11        5.09072   0.00090   0.04749   0.00527   0.05298   5.14370
   R12        5.80063   0.00219   0.08195   0.05034   0.13193   5.93256
   R13        5.61071   0.00261   0.08540   0.06352   0.14873   5.75944
   R14        4.68601  -0.00054   0.03237  -0.02611   0.00628   4.69229
   R15        4.69133  -0.00071   0.03001  -0.03814  -0.00805   4.68328
   R16        5.61071   0.00261   0.08540   0.06352   0.14873   5.75944
   R17        4.69133  -0.00071   0.03001  -0.03814  -0.00805   4.68328
   R18        4.72073  -0.00065   0.03198  -0.04123  -0.00894   4.71179
    A1        1.81870  -0.00055  -0.00787  -0.01567  -0.02373   1.79497
    A2        1.91623  -0.00043  -0.00590  -0.01271  -0.01960   1.89664
    A3        1.79272  -0.00072  -0.00993  -0.02084  -0.03121   1.76151
    A4        1.81870  -0.00055  -0.00787  -0.01567  -0.02373   1.79497
    A5        1.74765  -0.00054  -0.00716  -0.01530  -0.02221   1.72544
    A6        1.79272  -0.00072  -0.00993  -0.02084  -0.03121   1.76151
    A7        1.76292  -0.00038  -0.00676  -0.01415  -0.02108   1.74184
    A8        1.91443  -0.00035  -0.00694  -0.01422  -0.02193   1.89250
    A9        1.71478  -0.00069  -0.00844  -0.01989  -0.02874   1.68604
   A10        1.77751  -0.00046  -0.00648  -0.01544  -0.02201   1.75550
   A11        1.76292  -0.00038  -0.00676  -0.01415  -0.02108   1.74184
   A12        1.91443  -0.00035  -0.00694  -0.01422  -0.02193   1.89250
   A13        1.91443  -0.00035  -0.00694  -0.01422  -0.02193   1.89250
   A14        1.77751  -0.00046  -0.00648  -0.01544  -0.02201   1.75550
   A15        1.91443  -0.00035  -0.00694  -0.01422  -0.02193   1.89250
   A16        1.76292  -0.00038  -0.00676  -0.01415  -0.02108   1.74184
   A17        1.71478  -0.00069  -0.00844  -0.01989  -0.02874   1.68604
   A18        1.76292  -0.00038  -0.00676  -0.01415  -0.02108   1.74184
   A19        1.79272  -0.00072  -0.00993  -0.02084  -0.03121   1.76151
   A20        1.81870  -0.00055  -0.00787  -0.01567  -0.02373   1.79497
   A21        1.91623  -0.00043  -0.00590  -0.01271  -0.01960   1.89664
   A22        1.74765  -0.00054  -0.00716  -0.01530  -0.02221   1.72544
   A23        1.79272  -0.00072  -0.00993  -0.02084  -0.03121   1.76151
   A24        1.81870  -0.00055  -0.00787  -0.01567  -0.02373   1.79497
    D1       -0.03760  -0.00001   0.00147   0.00179   0.00304  -0.03455
    D2        0.03760   0.00001  -0.00147  -0.00179  -0.00304   0.03455
    D3        0.00000   0.00000   0.00000   0.00000   0.00000   0.00000
    D4        0.00000   0.00000   0.00000   0.00000   0.00000   0.00000
    D5        0.03760   0.00001  -0.00147  -0.00179  -0.00304   0.03455
    D6       -0.03760  -0.00001   0.00147   0.00179   0.00304  -0.03455
         Item               Value     Threshold  Converged?
 Maximum Force            0.002612     0.000450     NO 
 RMS     Force            0.001006     0.000300     NO 
 Maximum Displacement     0.073950     0.001800     NO 
 RMS     Displacement     0.028600     0.001200     NO 
 Predicted change in Energy=-1.242596D-03
 GradGradGradGradGradGradGradGradGradGradGradGradGradGradGradGradGradGrad

                          Input orientation:                          
 ---------------------------------------------------------------------
 Center     Atomic     Atomic              Coordinates (Angstroms)
 Number     Number      Type              X           Y           Z
 ---------------------------------------------------------------------
    1         14             0        0.000000    2.025709   -1.410193
    2         14             0       -1.850426    0.000000    1.534508
    3         14             0        1.431174    0.000000   -1.154940
    4         14             0        0.000000   -1.569688    1.030625
    5         14             0        0.000000    1.569688    1.030625
    6         14             0       -1.431174    0.000000   -1.154940
    7         14             0        0.000000   -2.025709   -1.410193
    8         14             0        1.850426    0.000000    1.534508
 ---------------------------------------------------------------------
                    Distance matrix (angstroms):
                    1          2          3          4          5
     1  Si   0.000000
     2  Si   4.024778   0.000000
     3  Si   2.493374   4.242879   0.000000
     4  Si   4.345628   2.478284   3.047766   0.000000
     5  Si   2.483053   2.478284   3.047766   3.139377   0.000000
     6  Si   2.493374   2.721929   2.862349   3.047766   3.047766
     7  Si   4.051418   4.024778   2.493374   2.483053   4.345628
     8  Si   4.024778   3.700851   2.721929   2.478284   2.478284
                    6          7          8
[...]
                       Q            Log10(Q)             Ln(Q)
 Total Bot       0.295620D+12         11.470734         26.412340
 Total V=0       0.440477D+17         16.643923         38.324050
 Vib (Bot)       0.179970D-02         -2.744799         -6.320134
 Vib (Bot)  1    0.149678D+01          0.175157          0.403313
 Vib (Bot)  2    0.149370D+01          0.174264          0.401258
 Vib (Bot)  3    0.973431D+00         -0.011695         -0.026929
 Vib (Bot)  4    0.857378D+00         -0.066828         -0.153876
 Vib (Bot)  5    0.800768D+00         -0.096493         -0.222184
 Vib (Bot)  6    0.778424D+00         -0.108784         -0.250483
 Vib (Bot)  7    0.753563D+00         -0.122880         -0.282943
 Vib (Bot)  8    0.744176D+00         -0.128324         -0.295478
 Vib (Bot)  9    0.720252D+00         -0.142516         -0.328155
 Vib (Bot) 10    0.682803D+00         -0.165704         -0.381548
 Vib (Bot) 11    0.610221D+00         -0.214513         -0.493935
 Vib (Bot) 12    0.570343D+00         -0.243864         -0.561517
 Vib (Bot) 13    0.479547D+00         -0.319169         -0.734913
 Vib (Bot) 14    0.473318D+00         -0.324847         -0.747987
 Vib (Bot) 15    0.427849D+00         -0.368709         -0.848985
 Vib (Bot) 16    0.424364D+00         -0.372261         -0.857163
 Vib (Bot) 17    0.391171D+00         -0.407633         -0.938610
 Vib (V=0)       0.268158D+03          2.428391          5.591576
 Vib (V=0)  1    0.207808D+01          0.317662          0.731445
 Vib (V=0)  2    0.207517D+01          0.317053          0.730041
 Vib (V=0)  3    0.159433D+01          0.202579          0.466456
 Vib (V=0)  4    0.149252D+01          0.173920          0.400466
 Vib (V=0)  5    0.144405D+01          0.159582          0.367451
 Vib (V=0)  6    0.142517D+01          0.153867          0.354293
 Vib (V=0)  7    0.140435D+01          0.147477          0.339578
 Vib (V=0)  8    0.139655D+01          0.145056          0.334003
 Vib (V=0)  9    0.137679D+01          0.138868          0.319755
 Vib (V=0) 10    0.134630D+01          0.129141          0.297359
 Vib (V=0) 11    0.128890D+01          0.110221          0.253792
 Vib (V=0) 12    0.125848D+01          0.099846          0.229905
 Vib (V=0) 13    0.119280D+01          0.076566          0.176300
 Vib (V=0) 14    0.118850D+01          0.074999          0.172691
 Vib (V=0) 15    0.115807D+01          0.063734          0.146754
 Vib (V=0) 16    0.115581D+01          0.062886          0.144800
 Vib (V=0) 17    0.113483D+01          0.054933          0.126487
 Electronic      0.200000D+01          0.301030          0.693147
 Translational   0.131610D+09          8.119290         18.695357
 Rotational      0.624040D+06          5.795213         13.343970
 ***** Axes restored to original set *****
 -------------------------------------------------------------------
 Center     Atomic                   Forces (Hartrees/Bohr)
 Number     Number              X              Y              Z
 -------------------------------------------------------------------
    1         14           0.000000000   -0.000000887   -0.000002006
    2         14           0.000001151    0.000000000    0.000001795
    3         14           0.000002889    0.000000000   -0.000000203
    4         14           0.000000000   -0.000004136    0.000000414
    5         14           0.000000000    0.000004136    0.000000414
    6         14          -0.000002889    0.000000000   -0.000000203
    7         14           0.000000000    0.000000887   -0.000002006
    8         14          -0.000001151    0.000000000    0.000001795
 -------------------------------------------------------------------
 Cartesian Forces:  Max     0.000004136 RMS     0.000001708

 GradGradGradGradGradGradGradGradGradGradGradGradGradGradGradGradGradGrad
 Berny optimization.
 Internal  Forces:  Max     0.000003048 RMS     0.000000965
 Search for a local minimum.
 Step number   1 out of a maximum of   2
 All quantities printed in internal units (Hartrees-Bohrs-Radians)
 Second derivative matrix not updated -- analytic derivatives used.
     Eigenvalues ---   -0.00016   0.01435   0.01467   0.01706   0.01912
     Eigenvalues ---    0.02906   0.02985   0.03083   0.04282   0.04535
     Eigenvalues ---    0.04911   0.05613   0.05707   0.06511   0.06683
     Eigenvalues ---    0.06966   0.07471   0.076681000.000001000.00000
     Eigenvalues --- 1000.000001000.000001000.000001000.000001000.00000
     Eigenvalues --- 1000.000001000.000001000.000001000.000001000.00000
     Eigenvalues --- 1000.000001000.000001000.000001000.000001000.00000
     Eigenvalues --- 1000.000001000.000001000.000001000.000001000.00000
     Eigenvalues --- 1000.000001000.000001000.000001000.000001000.00000
     Eigenvalues --- 1000.000001000.000001000.00000
 Eigenvalue   1 out of range, new value =    0.000156 Eigenvector:
                           1
           R1          -0.16255
           R2           0.00170
           R3          -0.16255
           R4          -0.20117
           R5           0.20117
           R6           0.00000
           R7           0.36327
           R8          -0.36327
           R9           0.00000
           R10          0.16255
           R11          0.00000
           R12          0.00000
           R13          0.36327
           R14         -0.00170
           R15         -0.20117
           R16         -0.36327
           R17          0.20117
           R18          0.16255
           A1           0.06484
           A2           0.00000
           A3           0.16418
           A4          -0.06484
           A5           0.00000
           A6          -0.16418
           A7          -0.04828
           A8          -0.06877
           A9           0.10685
           A10         -0.11997
           A11         -0.04828
           A12         -0.06877
           A13          0.06877
           A14          0.11997
           A15          0.06877
           A16          0.04828
           A17         -0.10685
           A18          0.04828
           A19          0.16418
           A20          0.06484
           A21          0.00000
           A22          0.00000
           A23         -0.16418
           A24         -0.06484
           D1           0.00331
           D2           0.00331
           D3           0.00000
           D4           0.00000
           D5          -0.00331
           D6          -0.00331
 Angle between quadratic step and forces=  25.30 degrees.
 Linear search not attempted -- first point.
 Iteration  1 RMS(Cart)=  0.00004368 RMS(Int)=  0.00000000
 Iteration  2 RMS(Cart)=  0.00000000 RMS(Int)=  0.00000000
 Variable       Old X    -DE/DX   Delta X   Delta X   Delta X     New X
                                 (Linear)    (Quad)   (Total)
    R1        4.56700   0.00000   0.00000   0.00000   0.00000   4.56700
    R2        4.52796   0.00000   0.00000   0.00001   0.00001   4.52797
    R3        4.56700   0.00000   0.00000   0.00000   0.00000   4.56700
    R4        4.54345   0.00000   0.00000   0.00001   0.00001   4.54347
    R5        4.54345   0.00000   0.00000   0.00001   0.00001   4.54347
    R6        4.87366   0.00000   0.00000  -0.00002  -0.00002   4.87365
    R7        5.20634   0.00000   0.00000   0.00001   0.00001   5.20635
    R8        5.20634   0.00000   0.00000   0.00001   0.00001   5.20635
    R9        4.94889   0.00000   0.00000   0.00010   0.00010   4.94899
   R10        4.56700   0.00000   0.00000   0.00000   0.00000   4.56700
   R11        4.87366   0.00000   0.00000  -0.00002  -0.00002   4.87365
   R12        5.39492   0.00000   0.00000   0.00022   0.00022   5.39514
   R13        5.20634   0.00000   0.00000   0.00001   0.00001   5.20635
   R14        4.52796   0.00000   0.00000   0.00001   0.00001   4.52797
   R15        4.54345   0.00000   0.00000   0.00001   0.00001   4.54347
   R16        5.20634   0.00000   0.00000   0.00001   0.00001   5.20635
   R17        4.54345   0.00000   0.00000   0.00001   0.00001   4.54347
   R18        4.56700   0.00000   0.00000   0.00000   0.00000   4.56700
    A1        1.85361   0.00000   0.00000   0.00002   0.00002   1.85364
    A2        1.94603   0.00000   0.00000  -0.00005  -0.00005   1.94598
    A3        1.83664   0.00000   0.00000   0.00002   0.00002   1.83666
    A4        1.85361   0.00000   0.00000   0.00002   0.00002   1.85364
    A5        1.78243   0.00000   0.00000  -0.00003  -0.00003   1.78240
    A6        1.83664   0.00000   0.00000   0.00002   0.00002   1.83666
    A7        1.79738   0.00000   0.00000  -0.00002  -0.00002   1.79736
    A8        1.94814   0.00000   0.00000   0.00001   0.00001   1.94815
    A9        1.75751   0.00000   0.00000  -0.00008  -0.00008   1.75743
   A10        1.81108   0.00000   0.00000  -0.00004  -0.00004   1.81104
   A11        1.79738   0.00000   0.00000  -0.00002  -0.00002   1.79736
   A12        1.94814   0.00000   0.00000   0.00001   0.00001   1.94815
   A13        1.94814   0.00000   0.00000   0.00001   0.00001   1.94815
   A14        1.81108   0.00000   0.00000  -0.00004  -0.00004   1.81104
   A15        1.94814   0.00000   0.00000   0.00001   0.00001   1.94815
   A16        1.79738   0.00000   0.00000  -0.00002  -0.00002   1.79736
   A17        1.75751   0.00000   0.00000  -0.00008  -0.00008   1.75743
   A18        1.79738   0.00000   0.00000  -0.00002  -0.00002   1.79736
   A19        1.83664   0.00000   0.00000   0.00002   0.00002   1.83666
   A20        1.85361   0.00000   0.00000   0.00002   0.00002   1.85364
   A21        1.94603   0.00000   0.00000  -0.00005  -0.00005   1.94598
   A22        1.78243   0.00000   0.00000  -0.00003  -0.00003   1.78240
   A23        1.83664   0.00000   0.00000   0.00002   0.00002   1.83666
   A24        1.85361   0.00000   0.00000   0.00002   0.00002   1.85364
    D1       -0.04004   0.00000   0.00000  -0.00009  -0.00009  -0.04013
    D2        0.04004   0.00000   0.00000   0.00009   0.00009   0.04013
    D3        0.00000   0.00000   0.00000   0.00000   0.00000   0.00000
    D4        0.00000   0.00000   0.00000   0.00000   0.00000   0.00000
    D5        0.04004   0.00000   0.00000   0.00009   0.00009   0.04013
    D6       -0.04004   0.00000   0.00000  -0.00009  -0.00009  -0.04013
         Item               Value     Threshold  Converged?
 Maximum Force            0.000003     0.000450     YES
 RMS     Force            0.000001     0.000300     YES
 Maximum Displacement     0.000109     0.001800     YES
 RMS     Displacement     0.000044     0.001200     YES
 Predicted change in Energy=-1.039708D-09
 Optimization completed.
    -- Stationary point found.
                           ----------------------------
                           !   Optimized Parameters   !
                           ! (Angstroms and Degrees)  !
 --------------------------                            --------------------------
 ! Name  Definition              Value          Derivative Info.                !
 --------------------------------------------------------------------------------
 ! R1    R(1,3)                  2.4168         -DE/DX =    0.0                 !
 ! R2    R(1,5)                  2.3961         -DE/DX =    0.0                 !
 ! R3    R(1,6)                  2.4168         -DE/DX =    0.0                 !
 ! R4    R(2,4)                  2.4043         -DE/DX =    0.0                 !
 ! R5    R(2,5)                  2.4043         -DE/DX =    0.0                 !
 ! R6    R(2,6)                  2.579          -DE/DX =    0.0                 !
 ! R7    R(3,4)                  2.7551         -DE/DX =    0.0                 !
 ! R8    R(3,5)                  2.7551         -DE/DX =    0.0                 !
 ! R9    R(3,6)                  2.6188         -DE/DX =    0.0                 !
 ! R10   R(3,7)                  2.4168         -DE/DX =    0.0                 !
 ! R11   R(3,8)                  2.579          -DE/DX =    0.0                 !
 ! R12   R(4,5)                  2.8549         -DE/DX =    0.0                 !
 ! R13   R(4,6)                  2.7551         -DE/DX =    0.0                 !
 ! R14   R(4,7)                  2.3961         -DE/DX =    0.0                 !
 ! R15   R(4,8)                  2.4043         -DE/DX =    0.0                 !
 ! R16   R(5,6)                  2.7551         -DE/DX =    0.0                 !
 ! R17   R(5,8)                  2.4043         -DE/DX =    0.0                 !
 ! R18   R(6,7)                  2.4168         -DE/DX =    0.0                 !
 ! A1    A(1,3,4)              106.2043         -DE/DX =    0.0                 !
 ! A2    A(1,3,7)              111.4991         -DE/DX =    0.0                 !
 ! A3    A(1,3,8)              105.2317         -DE/DX =    0.0                 !
 ! A4    A(5,3,7)              106.2043         -DE/DX =    0.0                 !
 ! A5    A(6,3,8)              102.1258         -DE/DX =    0.0                 !
 ! A6    A(7,3,8)              105.2317         -DE/DX =    0.0                 !
 ! A7    A(2,4,3)              102.9823         -DE/DX =    0.0                 !
 ! A8    A(2,4,7)              111.6204         -DE/DX =    0.0                 !
 ! A9    A(2,4,8)              100.6977         -DE/DX =    0.0                 !
 ! A10   A(5,4,7)              103.7672         -DE/DX =    0.0                 !
 ! A11   A(6,4,8)              102.9823         -DE/DX =    0.0                 !
 ! A12   A(7,4,8)              111.6204         -DE/DX =    0.0                 !
 ! A13   A(1,5,2)              111.6204         -DE/DX =    0.0                 !
 ! A14   A(1,5,4)              103.7672         -DE/DX =    0.0                 !
 ! A15   A(1,5,8)              111.6204         -DE/DX =    0.0                 !
 ! A16   A(2,5,3)              102.9823         -DE/DX =    0.0                 !
 ! A17   A(2,5,8)              100.6977         -DE/DX =    0.0                 !
 ! A18   A(6,5,8)              102.9823         -DE/DX =    0.0                 !
 ! A19   A(1,6,2)              105.2317         -DE/DX =    0.0                 !
 ! A20   A(1,6,4)              106.2043         -DE/DX =    0.0                 !
 ! A21   A(1,6,7)              111.4991         -DE/DX =    0.0                 !
 ! A22   A(2,6,3)              102.1258         -DE/DX =    0.0                 !
 ! A23   A(2,6,7)              105.2317         -DE/DX =    0.0                 !
 ! A24   A(5,6,7)              106.2043         -DE/DX =    0.0                 !
 ! D1    D(1,3,4,2)             -2.294          -DE/DX =    0.0                 !
 ! D2    D(7,3,5,2)              2.294          -DE/DX =    0.0                 !
 ! D3    D(8,3,6,2)              0.0            -DE/DX =    0.0                 !
 ! D4    D(7,4,5,1)              0.0            -DE/DX =    0.0                 !
 ! D5    D(8,4,6,1)              2.294          -DE/DX =    0.0                 !
 ! D6    D(8,5,6,7)             -2.294          -DE/DX =    0.0                 !
 --------------------------------------------------------------------------------
 GradGradGradGradGradGradGradGradGradGradGradGradGradGradGradGradGradGrad

 1\1\GINC-NODE31\Freq\UB3LYP\6-311+G(d)\Si8(1-,2)\TAM\13-Apr-2011\0\\#N
  Geom=AllCheck Guess=Read SCRF=Check GenChk UB3LYP/6-311+G(d) Freq\\si
 8-an-d\\-1,2\Si,0.,1.9976505195,-1.3962333792\Si,-1.8511690986,0.,1.49
 33520238\Si,1.3094194481,0.,-1.0281387186\Si,0.,-1.427435251,0.9310206
 144\Si,0.,1.427435251,0.9310206144\Si,-1.3094194481,0.,-1.0281387186\S
 i,0.,-1.9976505195,-1.3962333792\Si,1.8511690986,0.,1.4933520238\\Vers
 ion=AM64L-G03RevE.01\State=2-B1\HF=-2316.1385962\S2=0.756115\S2-1=0.\S
 2A=0.750026\RMSD=2.600e-09\RMSF=1.708e-06\ZeroPoint=0.0112469\Thermal=
 0.0216329\Dipole=0.,0.,0.0742874\DipoleDeriv=-0.09256,0.,0.,0.,-0.0377
 532,-0.0067419,0.,0.0543635,-0.1123075,-0.0596002,0.,-0.0130847,0.,0.0
 458907,0.0000001,-0.1045354,0.,-0.1407053,-0.2511251,0.,0.069655,-0.00
 00001,-0.2829698,0.,-0.0032584,0.,-0.0973343,-0.0967146,0.,0.,0.,-0.22
 51678,0.0602873,0.,-0.051941,-0.1496531,-0.0967146,0.,0.,0.,-0.2251678
 ,-0.0602873,0.,0.051941,-0.1496531,-0.2511251,0.,-0.069655,0.,-0.28296
 98,0.,0.0032584,0.,-0.0973343,-0.09256,0.,0.,0.,-0.0377532,0.0067419,0
 .,-0.0543635,-0.1123075,-0.0596002,0.,0.0130847,0.,0.0458907,-0.000000
 1,0.1045354,0.,-0.1407053\Polar=280.1882501,-0.0000016,294.1388694,0.0
 000006,0.000002,292.2140086\PG=C02V [SGV(Si4),SGV'(Si4)]\NImag=1\\0.03
 910548,0.,0.10141732,0.,-0.03743967,0.07956072,-0.00016762,0.00144466,
 0.00011596,0.09144267,-0.00146519,-0.00670994,-0.00238782,0.,0.0353374
 0,0.00422171,0.00008493,-0.00216387,-0.03544773,0.,0.04969747,-0.01356
 606,0.01453619,-0.00665436,-0.00865637,0.,0.00219000,0.07869906,0.0205
 8442,-0.03566879,0.00769260,0.,0.01800602,0.,0.,0.06419854,-0.00792481
 ,0.00720750,-0.00614609,0.00282398,0.,-0.00939618,-0.00069495,0.,0.049
 95013,0.00158064,0.,0.,-0.03831638,0.02030625,0.00843713,-0.00390061,0
 .00598784,0.01104094,0.07841328,0.,-0.00859343,0.00442051,0.02212880,-
 0.01943897,-0.00936844,0.00106877,-0.00782387,0.01090289,0.,0.07968363
 ,0.,0.01145932,-0.00008749,0.01262479,-0.00290749,-0.01042408,0.009267
 35,-0.00924552,-0.00357401,0.,0.01958118,0.08326129,-0.01252381,0.,0.,
 -0.03831638,-0.02030625,0.00843713,-0.00390061,-0.00598784,0.01104094,
 0.01696387,0.,0.,0.07841328,0.,-0.00308892,0.02748755,-0.02212880,-0.0
 1943897,0.00936844,-0.00106878,-0.00782387,-0.01090289,0.,-0.01347559,
 -0.00041696,0.,0.07968363,0.,0.00631753,-0.06381528,0.01262479,0.00290
 749,-0.01042408,0.00926736,0.00924552,-0.00357401,0.,0.00041696,0.0086
 3765,0.,-0.01958118,0.08326129,-0.01356606,-0.01453619,0.00665436,-0.0
 0146267,0.,0.01092170,-0.03364669,0.,-0.00420067,-0.00390061,-0.001068
 78,-0.00926736,-0.00390061,0.00106877,-0.00926735,0.07869906,-0.020584
 41,-0.03566879,0.00769259,0.,0.00644204,0.,0.,-0.00166128,0.,-0.005987
 84,-0.00782387,-0.00924552,0.00598784,-0.00782387,0.00924552,0.,0.0641
 9854,0.00792481,0.00720751,-0.00614609,0.00416061,0.,-0.02062856,0.004
 20067,0.,-0.00048520,-0.01104094,0.01090289,-0.00357401,-0.01104094,-0
 .01090289,-0.00357401,0.00069495,0.,0.04995013,-0.00069495,0.,0.,-0.00
 016762,0.00146519,0.00422171,-0.01356606,-0.02058441,-0.00792481,-0.01
 252381,0.,0.,0.00158064,0.,0.,-0.01356606,0.02058442,0.00792481,0.0391
 0548,0.,-0.00497751,-0.00507794,-0.00144466,-0.00670994,-0.00008493,-0
 .01453619,-0.03566879,-0.00720751,0.,-0.00308892,-0.00631753,0.,-0.008
 59343,-0.01145932,0.01453619,-0.03566879,-0.00720750,0.,0.10141732,0.,
 0.00507794,0.00096197,0.00011596,0.00238782,-0.00216387,-0.00665436,-0
 .00769259,-0.00614609,0.,-0.02748755,-0.06381528,0.,-0.00442051,-0.000
 08749,0.00665436,-0.00769260,-0.00614609,0.,0.03743967,0.07956072,-0.0
 0016762,-0.00144466,-0.00011596,-0.00435563,0.,-0.00298164,-0.00146267
 ,0.,-0.00416061,-0.03831638,-0.02212880,-0.01262479,-0.03831638,0.0221
 2880,-0.01262479,-0.00865637,0.,-0.00282398,-0.00016762,0.00144466,-0.
 00011596,0.09144267,0.00146519,-0.00670994,-0.00238782,0.,-0.00748764,
 0.,0.,0.00644204,0.,-0.02030625,-0.01943897,-0.00290749,0.02030625,-0.
 01943897,0.00290749,0.,0.01800602,0.,-0.00146519,-0.00670994,0.0023878
 2,0.,0.03533740,-0.00422171,0.00008493,-0.00216387,0.00298164,0.,0.005
 50316,-0.01092170,0.,-0.02062856,-0.00843713,-0.00936844,-0.01042408,-
 0.00843713,0.00936844,-0.01042408,-0.00219000,0.,-0.00939618,-0.004221
 71,-0.00008493,-0.00216387,0.03544773,0.,0.04969747\\0.,0.00000089,0.0
 0000201,-0.00000115,0.,-0.00000179,-0.00000289,0.,0.00000020,0.,0.0000
 0414,-0.00000041,0.,-0.00000414,-0.00000041,0.00000289,0.,0.00000020,0
 .,-0.00000089,0.00000201,0.00000115,0.,-0.00000179\\\@


 The mind is not a vessel to be filled but a fire to be kindled.
                                  -- Plutarch
 Job cpu time:  0 days  0 hours 40 minutes  6.6 seconds.
 File lengths (MBytes):  RWF=    136 Int=      0 D2E=      0 Chk=     10 Scr=      1
 Normal termination of Gaussian 03 at Wed Apr 13 19:56:14 2011.
