 Entering Gaussian System, Link 0=g03
 Initial command:
 /usr/local/chem/g03E01/l1.exe /temp0/tam/Gau-13757.inp -scrdir=/temp0/tam/
 Entering Link 1 = /usr/local/chem/g03E01/l1.exe PID=     13758.
  
 Copyright (c) 1988,1990,1992,1993,1995,1998,2003,2004,2007, Gaussian, Inc.
                  All Rights Reserved.
  
 This is the Gaussian(R) 03 program.  It is based on the
 the Gaussian(R) 98 system (copyright 1998, Gaussian, Inc.),
 the Gaussian(R) 94 system (copyright 1995, Gaussian, Inc.),
 the Gaussian 92(TM) system (copyright 1992, Gaussian, Inc.),
 the Gaussian 90(TM) system (copyright 1990, Gaussian, Inc.),
 the Gaussian 88(TM) system (copyright 1988, Gaussian, Inc.),
 the Gaussian 86(TM) system (copyright 1986, Carnegie Mellon
 University), and the Gaussian 82(TM) system (copyright 1983,
 Carnegie Mellon University). Gaussian is a federally registered
 trademark of Gaussian, Inc.
  
 This software contains proprietary and confidential information,
 including trade secrets, belonging to Gaussian, Inc.
  
 This software is provided under written license and may be
 used, copied, transmitted, or stored only in accord with that
 written license.
  
 The following legend is applicable only to US Government
 contracts under FAR:
  
                    RESTRICTED RIGHTS LEGEND
  
 Use, reproduction and disclosure by the US Government is
 subject to restrictions as set forth in subparagraphs (a)
 and (c) of the Commercial Computer Software - Restricted
 Rights clause in FAR 52.227-19.
  
 Gaussian, Inc.
 340 Quinnipiac St., Bldg. 40, Wallingford CT 06492
  
  
 ---------------------------------------------------------------
 Warning -- This program may not be used in any manner that
 competes with the business of Gaussian, Inc. or will provide
 assistance to any competitor of Gaussian, Inc.  The licensee
 of this program is prohibited from giving any competitor of
 Gaussian, Inc. access to this program.  By using this program,
 the user acknowledges that Gaussian, Inc. is engaged in the
 business of creating and licensing software in the field of
 computational chemistry and represents and warrants to the
 licensee that it is not a competitor of Gaussian, Inc. and that
 it will not use this program in any manner prohibited above.
 ---------------------------------------------------------------
  

 Cite this work as:
 Gaussian 03, Revision E.01,
 M. J. Frisch, G. W. Trucks, H. B. Schlegel, G. E. Scuseria, 
 M. A. Robb, J. R. Cheeseman, J. A. Montgomery, Jr., T. Vreven, 
 K. N. Kudin, J. C. Burant, J. M. Millam, S. S. Iyengar, J. Tomasi, 
 V. Barone, B. Mennucci, M. Cossi, G. Scalmani, N. Rega, 
 G. A. Petersson, H. Nakatsuji, M. Hada, M. Ehara, K. Toyota, 
 R. Fukuda, J. Hasegawa, M. Ishida, T. Nakajima, Y. Honda, O. Kitao, 
 H. Nakai, M. Klene, X. Li, J. E. Knox, H. P. Hratchian, J. B. Cross, 
 V. Bakken, C. Adamo, J. Jaramillo, R. Gomperts, R. E. Stratmann, 
 O. Yazyev, A. J. Austin, R. Cammi, C. Pomelli, J. W. Ochterski, 
 P. Y. Ayala, K. Morokuma, G. A. Voth, P. Salvador, J. J. Dannenberg, 
 V. G. Zakrzewski, S. Dapprich, A. D. Daniels, M. C. Strain, 
 O. Farkas, D. K. Malick, A. D. Rabuck, K. Raghavachari, 
 J. B. Foresman, J. V. Ortiz, Q. Cui, A. G. Baboul, S. Clifford, 
 J. Cioslowski, B. B. Stefanov, G. Liu, A. Liashenko, P. Piskorz, 
 I. Komaromi, R. L. Martin, D. J. Fox, T. Keith, M. A. Al-Laham, 
 C. Y. Peng, A. Nanayakkara, M. Challacombe, P. M. W. Gill, 
 B. Johnson, W. Chen, M. W. Wong, C. Gonzalez, and J. A. Pople, 
 Gaussian, Inc., Wallingford CT, 2004.
 
 ******************************************
 Gaussian 03:  AM64L-G03RevE.01 11-Sep-2007
                17-Jun-2011 
 ******************************************
 %NprocShared=4
 Will use up to    4 processors via shared memory.
 %mem=3750MB
 %chk=S9L-ne-d-01
 --------------------------------------
 # hf/6-311G(d) freq scfcyc=500 scf=xqc
 --------------------------------------
 1/10=4,30=1,38=1/1,3;
 2/17=6,18=5,40=1/2;
 3/5=4,6=6,7=1,11=9,16=1,25=1,30=1/1,2,3;
 4//1;
 5/5=2,7=500,8=3,13=1,38=5/2,8;
 8/6=4,10=90,11=11/1;
 10/13=10/2;
 11/6=2,8=1,9=11,15=111,16=1/1,2,10;
 10/6=1/2;
 6/7=2,8=2,9=2,10=2,18=1,28=1/1;
 7/8=1,10=1,25=1/1,2,3,16;
 1/10=4,30=1/3;
 99//99;
 -----
 si9-c
 -----
 Symbolic Z-matrix:
 Charge =  1 Multiplicity = 2
 Si                    1.31654   0.05341   1.309 
 Si                    1.9179   -1.84597  -0.00002 
 Si                    1.52969   2.03651   0.00002 
 Si                    1.31654   0.05344  -1.30899 
 Si                   -1.13066   0.07795   2.00615 
 Si                   -0.4496   -1.50467  -0.00002 
 Si                   -0.8493    1.45656   0.00001 
 Si                   -1.13065   0.07799  -2.00615 
 Si                   -2.52045  -0.40523  -0.00001 
 

 GradGradGradGradGradGradGradGradGradGradGradGradGradGradGradGradGradGrad
 Berny optimization.
 Initialization pass.
 Trust Radius=3.00D-01 FncErr=1.00D-07 GrdErr=1.00D-07
 Number of steps in this run=   2 maximum allowed number of steps=   2.
 GradGradGradGradGradGradGradGradGradGradGradGradGradGradGradGradGradGrad

                          Input orientation:                          
 ---------------------------------------------------------------------
 Center     Atomic     Atomic              Coordinates (Angstroms)
 Number     Number      Type              X           Y           Z
 ---------------------------------------------------------------------
    1         14             0        1.316537    0.053414    1.308996
    2         14             0        1.917897   -1.845968   -0.000016
    3         14             0        1.529689    2.036506    0.000022
    4         14             0        1.316542    0.053441   -1.308993
    5         14             0       -1.130659    0.077954    2.006151
    6         14             0       -0.449597   -1.504672   -0.000015
    7         14             0       -0.849304    1.456564    0.000011
    8         14             0       -1.130652    0.077994   -2.006149
    9         14             0       -2.520452   -0.405233   -0.000007
 ---------------------------------------------------------------------
                    Distance matrix (angstroms):
                    1          2          3          4          5
     1  Si   0.000000
     2  Si   2.383862   0.000000
     3  Si   2.385687   3.901834   0.000000
     4  Si   2.617989   2.383863   2.385686   0.000000
     5  Si   2.544680   4.125515   3.864962   4.120628   0.000000
     6  Si   2.694508   2.391968   4.056786   2.694510   2.644476
     7  Si   2.893638   4.308610   2.448661   2.893637   2.450372
     8  Si   4.120622   4.125512   3.864959   2.544678   4.012300
     9  Si   4.079991   4.666333   4.729242   4.079994   2.487904
                    6          7          8          9
     6  Si   0.000000
     7  Si   2.988090   0.000000
     8  Si   2.644474   2.450365   0.000000
     9  Si   2.344612   2.501804   2.487902   0.000000
 Stoichiometry    Si9(1+,2)
 Framework group  C1[X(Si9)]
 Deg. of freedom    21
 Full point group                 C1
 Largest Abelian subgroup         C1      NOp   1
 Largest concise Abelian subgroup C1      NOp   1
                         Standard orientation:                         
 ---------------------------------------------------------------------
 Center     Atomic     Atomic              Coordinates (Angstroms)
 Number     Number      Type              X           Y           Z
 ---------------------------------------------------------------------
    1         14             0        1.316537    0.053414    1.308996
    2         14             0        1.917897   -1.845968   -0.000016
    3         14             0        1.529689    2.036506    0.000022
    4         14             0        1.316542    0.053441   -1.308993
    5         14             0       -1.130659    0.077954    2.006151
    6         14             0       -0.449597   -1.504672   -0.000015
    7         14             0       -0.849304    1.456564    0.000011
    8         14             0       -1.130652    0.077994   -2.006149
    9         14             0       -2.520452   -0.405233   -0.000007
 ---------------------------------------------------------------------
 Rotational constants (GHZ):      0.7654663      0.5866134      0.5745520
 Standard basis: 6-311G(d) (5D, 7F)
 There are   234 symmetry adapted basis functions of A   symmetry.
 Integral buffers will be    131072 words long.
 Raffenetti 2 integral format.
 Two-electron integral symmetry is turned on.
   234 basis functions,   414 primitive gaussians,   243 cartesian basis functions
    63 alpha electrons       62 beta electrons
       nuclear repulsion energy      1247.7431579802 Hartrees.
 NAtoms=    9 NActive=    9 NUniq=    9 SFac= 7.50D-01 NAtFMM=   80 NAOKFM=F Big=F
 One-electron integrals computed using PRISM.
 NBasis=   234 RedAO= T  NBF=   234
 NBsUse=   234 1.00D-06 NBFU=   234
 Harris functional with IExCor=  205 diagonalized for initial guess.
 ExpMin= 6.54D-02 ExpMax= 6.94D+04 ExpMxC= 2.33D+03 IAcc=2 IRadAn=         4 AccDes= 0.00D+00
 HarFok:  IExCor= 205 AccDes= 0.00D+00 IRadAn=         4 IDoV=1
 ScaDFX=  1.000000  1.000000  1.000000  1.000000
 Initial guess orbital symmetries:
 Alpha Orbitals:
       Occupied  (A) (A) (A) (A) (A) (A) (A) (A) (A) (A) (A) (A)
                 (A) (A) (A) (A) (A) (A) (A) (A) (A) (A) (A) (A)
                 (A) (A) (A) (A) (A) (A) (A) (A) (A) (A) (A) (A)
                 (A) (A) (A) (A) (A) (A) (A) (A) (A) (A) (A) (A)
                 (A) (A) (A) (A) (A) (A) (A) (A) (A) (A) (A) (A)
                 (A) (A) (A)
       Virtual   (A) (A) (A) (A) (A) (A) (A) (A) (A) (A) (A) (A)
                 (A) (A) (A) (A) (A) (A) (A) (A) (A) (A) (A) (A)
                 (A) (A) (A) (A) (A) (A) (A) (A) (A) (A) (A) (A)
                 (A) (A) (A) (A) (A) (A) (A) (A) (A) (A) (A) (A)
                 (A) (A) (A) (A) (A) (A) (A) (A) (A) (A) (A) (A)
                 (A) (A) (A) (A) (A) (A) (A) (A) (A) (A) (A) (A)
                 (A) (A) (A) (A) (A) (A) (A) (A) (A) (A) (A) (A)
                 (A) (A) (A) (A) (A) (A) (A) (A) (A) (A) (A) (A)
                 (A) (A) (A) (A) (A) (A) (A) (A) (A) (A) (A) (A)
                 (A) (A) (A) (A) (A) (A) (A) (A) (A) (A) (A) (A)
                 (A) (A) (A) (A) (A) (A) (A) (A) (A) (A) (A) (A)
                 (A) (A) (A) (A) (A) (A) (A) (A) (A) (A) (A) (A)
                 (A) (A) (A) (A) (A) (A) (A) (A) (A) (A) (A) (A)
                 (A) (A) (A) (A) (A) (A) (A) (A) (A) (A) (A) (A)
                 (A) (A) (A)
 Beta  Orbitals:
       Occupied  (A) (A) (A) (A) (A) (A) (A) (A) (A) (A) (A) (A)
                 (A) (A) (A) (A) (A) (A) (A) (A) (A) (A) (A) (A)
                 (A) (A) (A) (A) (A) (A) (A) (A) (A) (A) (A) (A)
                 (A) (A) (A) (A) (A) (A) (A) (A) (A) (A) (A) (A)
                 (A) (A) (A) (A) (A) (A) (A) (A) (A) (A) (A) (A)
                 (A) (A)
       Virtual   (A) (A) (A) (A) (A) (A) (A) (A) (A) (A) (A) (A)
                 (A) (A) (A) (A) (A) (A) (A) (A) (A) (A) (A) (A)
                 (A) (A) (A) (A) (A) (A) (A) (A) (A) (A) (A) (A)
                 (A) (A) (A) (A) (A) (A) (A) (A) (A) (A) (A) (A)
                 (A) (A) (A) (A) (A) (A) (A) (A) (A) (A) (A) (A)
                 (A) (A) (A) (A) (A) (A) (A) (A) (A) (A) (A) (A)
                 (A) (A) (A) (A) (A) (A) (A) (A) (A) (A) (A) (A)
                 (A) (A) (A) (A) (A) (A) (A) (A) (A) (A) (A) (A)
                 (A) (A) (A) (A) (A) (A) (A) (A) (A) (A) (A) (A)
                 (A) (A) (A) (A) (A) (A) (A) (A) (A) (A) (A) (A)
                 (A) (A) (A) (A) (A) (A) (A) (A) (A) (A) (A) (A)
                 (A) (A) (A) (A) (A) (A) (A) (A) (A) (A) (A) (A)
                 (A) (A) (A) (A) (A) (A) (A) (A) (A) (A) (A) (A)
                 (A) (A) (A) (A) (A) (A) (A) (A) (A) (A) (A) (A)
                 (A) (A) (A) (A)
 The electronic state of the initial guess is 2-A.
 <S**2> of initial guess= 0.7500
 Requested convergence on RMS density matrix=1.00D-08 within 128 cycles.
 Requested convergence on MAX density matrix=1.00D-06.
 Requested convergence on             energy=1.00D-06.
 No special actions if energy rises.
 Integral accuracy reduced to 1.0D-05 until final iterations.
 Initial convergence to 1.7D-05 achieved.  Increase integral accuracy.
 Restarting incremental Fock formation.
 SCF Done:  E(UHF) =  -2599.96801986     A.U. after   49 cycles
             Convg  =    0.6078D-08             -V/T =  1.9999
             S**2   =   1.0302
 Annihilation of the first spin contaminant:
 S**2 before annihilation     1.0302,   after     0.8173
 QCSCF skips out because SCF is already converged.
 Range of M.O.s used for correlation:     1   234
 NBasis=   234 NAE=    63 NBE=    62 NFC=     0 NFV=     0
 NROrb=    234 NOA=    63 NOB=    62 NVA=   171 NVB=   172
          Differentiating once with respect to electric field.
                with respect to dipole field.
          Electric field/nuclear overlap derivatives assumed to be zero.
 Integrals replicated using symmetry in FoFDir.
 MinBra= 0 MaxBra= 2 Meth= 1.
 IRaf=       0 NMat=   3 IRICut=       1 DoRegI=T DoRafI=F ISym2E= 2 JSym2E=2.
          There are   3 degrees of freedom in the 1st order CPHF.
     3 vectors were produced by pass  0.
 AX will form   3 AO Fock derivatives at one time.
     3 vectors were produced by pass  1.
     3 vectors were produced by pass  2.
     3 vectors were produced by pass  3.
     3 vectors were produced by pass  4.
     3 vectors were produced by pass  5.
     3 vectors were produced by pass  6.
     3 vectors were produced by pass  7.
     3 vectors were produced by pass  8.
     3 vectors were produced by pass  9.
     3 vectors were produced by pass 10.
     3 vectors were produced by pass 11.
     3 vectors were produced by pass 12.
     3 vectors were produced by pass 13.
     3 vectors were produced by pass 14.
     3 vectors were produced by pass 15.
     3 vectors were produced by pass 16.
     2 vectors were produced by pass 17.
 Inv2:  IOpt= 1 Iter= 1 AM= 9.57D-14 Conv= 1.00D-12.
 Inverted reduced A of dimension   53 with in-core refinement.
 End of Minotr Frequency-dependent properties file   721 does not exist.
 Symmetrizing basis deriv contribution to polar:
 IMax=3 JMax=2 DiffMx= 0.00D+00
 G2DrvN: will do   10 centers at a time, making    1 passes doing MaxLOS=2.
 FoFDir/FoFCou used for L=0 through L=2.
 DoAtom=TTTTTTTTT
          Differentiating once with respect to electric field.
                with respect to dipole field.
          Differentiating once with respect to nuclear coordinates.
 Integrals replicated using symmetry in FoFDir.
 MinBra= 0 MaxBra= 2 Meth= 1.
 IRaf=       0 NMat=  30 IRICut=      30 DoRegI=T DoRafI=T ISym2E= 2 JSym2E=2.
          There are  30 degrees of freedom in the 1st order CPHF.
    27 vectors were produced by pass  0.
 AX will form  27 AO Fock derivatives at one time.
    27 vectors were produced by pass  1.
    27 vectors were produced by pass  2.
    27 vectors were produced by pass  3.
    27 vectors were produced by pass  4.
    27 vectors were produced by pass  5.
    27 vectors were produced by pass  6.
    27 vectors were produced by pass  7.
    27 vectors were produced by pass  8.
    26 vectors were produced by pass  9.
     6 vectors were produced by pass 10.
     3 vectors were produced by pass 11.
     3 vectors were produced by pass 12.
     1 vectors were produced by pass 13.
 Inv2:  IOpt= 1 Iter= 1 AM= 9.78D-14 Conv= 1.00D-12.
 Inverted reduced A of dimension  282 with in-core refinement.
 Isotropic polarizability for W=    0.000000      266.85 Bohr**3.
 End of Minotr Frequency-dependent properties file   721 does not exist.

 **********************************************************************

            Population analysis using the SCF density.

 **********************************************************************

 Orbital symmetries:
 Alpha Orbitals:
       Occupied  (A) (A) (A) (A) (A) (A) (A) (A) (A) (A) (A) (A)
                 (A) (A) (A) (A) (A) (A) (A) (A) (A) (A) (A) (A)
                 (A) (A) (A) (A) (A) (A) (A) (A) (A) (A) (A) (A)
                 (A) (A) (A) (A) (A) (A) (A) (A) (A) (A) (A) (A)
                 (A) (A) (A) (A) (A) (A) (A) (A) (A) (A) (A) (A)
                 (A) (A) (A)
       Virtual   (A) (A) (A) (A) (A) (A) (A) (A) (A) (A) (A) (A)
                 (A) (A) (A) (A) (A) (A) (A) (A) (A) (A) (A) (A)
                 (A) (A) (A) (A) (A) (A) (A) (A) (A) (A) (A) (A)
                 (A) (A) (A) (A) (A) (A) (A) (A) (A) (A) (A) (A)
                 (A) (A) (A) (A) (A) (A) (A) (A) (A) (A) (A) (A)
                 (A) (A) (A) (A) (A) (A) (A) (A) (A) (A) (A) (A)
                 (A) (A) (A) (A) (A) (A) (A) (A) (A) (A) (A) (A)
                 (A) (A) (A) (A) (A) (A) (A) (A) (A) (A) (A) (A)
                 (A) (A) (A) (A) (A) (A) (A) (A) (A) (A) (A) (A)
                 (A) (A) (A) (A) (A) (A) (A) (A) (A) (A) (A) (A)
                 (A) (A) (A) (A) (A) (A) (A) (A) (A) (A) (A) (A)
                 (A) (A) (A) (A) (A) (A) (A) (A) (A) (A) (A) (A)
                 (A) (A) (A) (A) (A) (A) (A) (A) (A) (A) (A) (A)
                 (A) (A) (A) (A) (A) (A) (A) (A) (A) (A) (A) (A)
                 (A) (A) (A)
 Beta  Orbitals:
       Occupied  (A) (A) (A) (A) (A) (A) (A) (A) (A) (A) (A) (A)
                 (A) (A) (A) (A) (A) (A) (A) (A) (A) (A) (A) (A)
                 (A) (A) (A) (A) (A) (A) (A) (A) (A) (A) (A) (A)
                 (A) (A) (A) (A) (A) (A) (A) (A) (A) (A) (A) (A)
                 (A) (A) (A) (A) (A) (A) (A) (A) (A) (A) (A) (A)
                 (A) (A)
       Virtual   (A) (A) (A) (A) (A) (A) (A) (A) (A) (A) (A) (A)
                 (A) (A) (A) (A) (A) (A) (A) (A) (A) (A) (A) (A)
                 (A) (A) (A) (A) (A) (A) (A) (A) (A) (A) (A) (A)
                 (A) (A) (A) (A) (A) (A) (A) (A) (A) (A) (A) (A)
                 (A) (A) (A) (A) (A) (A) (A) (A) (A) (A) (A) (A)
                 (A) (A) (A) (A) (A) (A) (A) (A) (A) (A) (A) (A)
                 (A) (A) (A) (A) (A) (A) (A) (A) (A) (A) (A) (A)
                 (A) (A) (A) (A) (A) (A) (A) (A) (A) (A) (A) (A)
                 (A) (A) (A) (A) (A) (A) (A) (A) (A) (A) (A) (A)
                 (A) (A) (A) (A) (A) (A) (A) (A) (A) (A) (A) (A)
                 (A) (A) (A) (A) (A) (A) (A) (A) (A) (A) (A) (A)
                 (A) (A) (A) (A) (A) (A) (A) (A) (A) (A) (A) (A)
                 (A) (A) (A) (A) (A) (A) (A) (A) (A) (A) (A) (A)
                 (A) (A) (A) (A) (A) (A) (A) (A) (A) (A) (A) (A)
                 (A) (A) (A) (A)
 The electronic state is 2-A.
 Alpha  occ. eigenvalues --  -68.98906 -68.98410 -68.98410 -68.98137 -68.95973
 Alpha  occ. eigenvalues --  -68.95843 -68.95843 -68.95366 -68.95025  -6.33494
 Alpha  occ. eigenvalues --   -6.32737  -6.32735  -6.32519  -6.30614  -6.30387
 Alpha  occ. eigenvalues --   -6.30381  -6.29718  -6.29403  -4.43997  -4.43906
 Alpha  occ. eigenvalues --   -4.43632  -4.43371  -4.43371  -4.42817  -4.42816
 Alpha  occ. eigenvalues --   -4.42707  -4.42700  -4.42688  -4.42584  -4.42550
 Alpha  occ. eigenvalues --   -4.41021  -4.40953  -4.40927  -4.40918  -4.40797
 Alpha  occ. eigenvalues --   -4.40699  -4.40684  -4.40612  -4.40610  -4.39928
 Alpha  occ. eigenvalues --   -4.39909  -4.39752  -4.39683  -4.39516  -4.39461
 Alpha  occ. eigenvalues --   -1.06621  -0.94427  -0.87869  -0.87527  -0.73118
 Alpha  occ. eigenvalues --   -0.71030  -0.70783  -0.67741  -0.61786  -0.56325
 Alpha  occ. eigenvalues --   -0.50395  -0.49512  -0.48971  -0.48139  -0.46368
 Alpha  occ. eigenvalues --   -0.45541  -0.44888  -0.44590
 Alpha virt. eigenvalues --   -0.17409  -0.16293  -0.14592  -0.11744  -0.09560
 Alpha virt. eigenvalues --   -0.08957  -0.08136  -0.06728  -0.06538  -0.05900
 Alpha virt. eigenvalues --   -0.04256  -0.01642  -0.00921  -0.00295   0.00947
 Alpha virt. eigenvalues --    0.02385   0.03176   0.04592   0.06785   0.07843
 Alpha virt. eigenvalues --    0.08176   0.08305   0.08469   0.09886   0.10975
 Alpha virt. eigenvalues --    0.11821   0.12413   0.13153   0.15737   0.15859
 Alpha virt. eigenvalues --    0.15908   0.16049   0.18044   0.18571   0.19910
 Alpha virt. eigenvalues --    0.20508   0.20829   0.23689   0.24100   0.24794
 Alpha virt. eigenvalues --    0.25624   0.26264   0.26684   0.26836   0.29132
 Alpha virt. eigenvalues --    0.35864   0.40434   0.40872   0.41813   0.43852
 Alpha virt. eigenvalues --    0.46316   0.49535   0.50376   0.51232   0.52886
 Alpha virt. eigenvalues --    0.53503   0.54481   0.55414   0.56160   0.57164
 Alpha virt. eigenvalues --    0.57898   0.59292   0.59479   0.59870   0.60786
 Alpha virt. eigenvalues --    0.63443   0.64724   0.65538   0.67375   0.67855
 Alpha virt. eigenvalues --    0.71743   0.73463   0.73753   0.74741   0.75691
 Alpha virt. eigenvalues --    0.76810   0.78061   0.79186   0.80149   0.81346
 Alpha virt. eigenvalues --    0.83783   0.84118   0.84366   0.86638   0.87554
 Alpha virt. eigenvalues --    0.87672   0.88558   0.89843   0.91004   0.92689
 Alpha virt. eigenvalues --    0.94550   0.95240   0.97216   0.97274   1.00913
 Alpha virt. eigenvalues --    1.01079   1.03127   1.04461   1.11066   1.26871
 Alpha virt. eigenvalues --    1.27954   1.30830   1.32239   1.32481   1.33415
 Alpha virt. eigenvalues --    1.35539   1.36045   1.37467   1.37760   1.37933
 Alpha virt. eigenvalues --    1.41517   1.44475   1.45403   1.47652   1.47687
 Alpha virt. eigenvalues --    1.51095   1.51261   1.54283   1.54335   1.56223
 Alpha virt. eigenvalues --    1.58657   1.60165   1.61539   1.62523   1.63148
 Alpha virt. eigenvalues --    1.71594   5.60102   5.71790   5.74819   5.75317
 Alpha virt. eigenvalues --    5.76256   5.76970   5.79654   5.81679   5.99517
 Alpha virt. eigenvalues --   11.94369  11.95080  11.96016  11.96573  11.96779
 Alpha virt. eigenvalues --   11.97984  11.98455  11.99005  11.99423  12.01009
 Alpha virt. eigenvalues --   12.02290  12.02405  12.03001  12.03203  12.06038
 Alpha virt. eigenvalues --   12.07203  12.07394  12.10602  12.11700  12.12314
 Alpha virt. eigenvalues --   12.13307  12.15779  12.17448  12.19169  12.21663
 Alpha virt. eigenvalues --   12.25237  12.27495 143.36630 143.49289 143.52959
 Alpha virt. eigenvalues --  143.53369 143.54530 143.55233 143.58185 143.61386
 Alpha virt. eigenvalues --  143.80996
  Beta  occ. eigenvalues --  -68.98692 -68.98175 -68.98175 -68.98145 -68.96147
  Beta  occ. eigenvalues --  -68.95811 -68.95811 -68.95324 -68.94982  -6.33239
  Beta  occ. eigenvalues --   -6.32543  -6.32431  -6.32429  -6.30838  -6.30357
  Beta  occ. eigenvalues --   -6.30351  -6.29666  -6.29360  -4.43584  -4.43404
  Beta  occ. eigenvalues --   -4.43350  -4.42768  -4.42768  -4.42724  -4.42685
  Beta  occ. eigenvalues --   -4.42682  -4.42641  -4.42443  -4.42229  -4.42228
  Beta  occ. eigenvalues --   -4.41446  -4.41114  -4.41069  -4.40831  -4.40818
  Beta  occ. eigenvalues --   -4.40692  -4.40682  -4.40494  -4.40491  -4.39952
  Beta  occ. eigenvalues --   -4.39713  -4.39657  -4.39557  -4.39427  -4.39405
  Beta  occ. eigenvalues --   -1.05602  -0.93821  -0.87042  -0.85237  -0.72051
  Beta  occ. eigenvalues --   -0.69914  -0.69240  -0.66621  -0.59234  -0.53903
  Beta  occ. eigenvalues --   -0.50351  -0.48940  -0.47356  -0.45631  -0.44940
  Beta  occ. eigenvalues --   -0.44577  -0.44331
  Beta virt. eigenvalues --   -0.23035  -0.16472  -0.15080  -0.14678  -0.11351
  Beta virt. eigenvalues --   -0.09143  -0.08377  -0.07075  -0.06489  -0.05547
  Beta virt. eigenvalues --   -0.04251  -0.02273  -0.00950  -0.00118   0.00014
  Beta virt. eigenvalues --    0.01514   0.02556   0.03269   0.05965   0.07732
  Beta virt. eigenvalues --    0.07972   0.08230   0.08758   0.08956   0.10588
  Beta virt. eigenvalues --    0.11068   0.11881   0.12655   0.13689   0.15502
  Beta virt. eigenvalues --    0.16197   0.16448   0.17111   0.18656   0.19275
  Beta virt. eigenvalues --    0.20145   0.20481   0.21926   0.23989   0.24009
  Beta virt. eigenvalues --    0.25369   0.25877   0.26439   0.27035   0.27135
  Beta virt. eigenvalues --    0.29484   0.36538   0.41092   0.41595   0.42527
  Beta virt. eigenvalues --    0.44232   0.46553   0.49941   0.52074   0.52983
  Beta virt. eigenvalues --    0.53089   0.53591   0.55001   0.55694   0.56495
  Beta virt. eigenvalues --    0.57247   0.58557   0.59795   0.60148   0.60458
  Beta virt. eigenvalues --    0.61193   0.64115   0.64848   0.66958   0.67920
  Beta virt. eigenvalues --    0.68029   0.72156   0.74067   0.74374   0.75037
  Beta virt. eigenvalues --    0.76207   0.76870   0.78687   0.79330   0.80650
  Beta virt. eigenvalues --    0.82071   0.84038   0.84818   0.84895   0.87651
  Beta virt. eigenvalues --    0.87718   0.88425   0.88826   0.90322   0.91183
  Beta virt. eigenvalues --    0.93206   0.94110   0.95759   0.97424   0.97551
  Beta virt. eigenvalues --    1.01144   1.01294   1.03549   1.04585   1.11227
  Beta virt. eigenvalues --    1.27568   1.28264   1.31204   1.32368   1.32715
  Beta virt. eigenvalues --    1.33613   1.35801   1.36314   1.37680   1.38030
  Beta virt. eigenvalues --    1.38190   1.41554   1.45228   1.45481   1.47944
  Beta virt. eigenvalues --    1.47976   1.51524   1.51646   1.54501   1.54822
  Beta virt. eigenvalues --    1.56173   1.59472   1.60248   1.61744   1.62515
  Beta virt. eigenvalues --    1.63266   1.71654   5.60353   5.71934   5.75282
  Beta virt. eigenvalues --    5.75446   5.76332   5.77037   5.79882   5.81541
  Beta virt. eigenvalues --    5.99559  11.94634  11.95148  11.96307  11.96751
  Beta virt. eigenvalues --   11.96776  11.98001  11.98624  11.99061  11.99562
  Beta virt. eigenvalues --   12.00969  12.02649  12.02668  12.03109  12.03285
  Beta virt. eigenvalues --   12.06167  12.07214  12.07543  12.10701  12.11788
  Beta virt. eigenvalues --   12.12357  12.13517  12.15764  12.17481  12.19597
  Beta virt. eigenvalues --   12.21716  12.25189  12.27529 143.36716 143.49353
  Beta virt. eigenvalues --  143.53129 143.53390 143.54544 143.55254 143.58262
  Beta virt. eigenvalues --  143.61330 143.81007
          Condensed to atoms (all electrons):
              1          2          3          4          5          6
     1  Si  13.867694   0.162387   0.143152  -0.049116   0.079124  -0.050663
     2  Si   0.162387  13.321158  -0.008347   0.162388  -0.000517   0.059851
     3  Si   0.143152  -0.008347  13.327212   0.143152   0.001544  -0.021105
     4  Si  -0.049116   0.162388   0.143152  13.867691  -0.019807  -0.050662
     5  Si   0.079124  -0.000517   0.001544  -0.019807  13.580342  -0.012010
     6  Si  -0.050663   0.059851  -0.021105  -0.050662  -0.012010  14.110977
     7  Si  -0.024505  -0.015490   0.042725  -0.024505   0.056056  -0.047075
     8  Si  -0.019807  -0.000517   0.001544   0.079124  -0.013758  -0.012010
     9  Si  -0.020591   0.000640   0.003374  -0.020590   0.095263   0.074261
              7          8          9
     1  Si  -0.024505  -0.019807  -0.020591
     2  Si  -0.015490  -0.000517   0.000640
     3  Si   0.042725   0.001544   0.003374
     4  Si  -0.024505   0.079124  -0.020590
     5  Si   0.056056  -0.013758   0.095263
     6  Si  -0.047075  -0.012010   0.074261
     7  Si  14.140787   0.056054   0.014716
     8  Si   0.056054  13.580347   0.095264
     9  Si   0.014716   0.095264  13.484704
 Mulliken atomic charges:
              1
     1  Si  -0.087675
     2  Si   0.318447
     3  Si   0.366749
     4  Si  -0.087674
     5  Si   0.233763
     6  Si  -0.051565
     7  Si  -0.198763
     8  Si   0.233759
     9  Si   0.272958
 Sum of Mulliken charges=   1.00000
 Atomic charges with hydrogens summed into heavy atoms:
              1
     1  Si  -0.087675
     2  Si   0.318447
     3  Si   0.366749
     4  Si  -0.087674
     5  Si   0.233763
     6  Si  -0.051565
     7  Si  -0.198763
     8  Si   0.233759
     9  Si   0.272958
 Sum of Mulliken charges=   1.00000
          Atomic-Atomic Spin Densities.
              1          2          3          4          5          6
     1  Si   0.045104   0.035909  -0.006400   0.014542  -0.022721  -0.030997
     2  Si   0.035909   0.060787  -0.000479   0.035911  -0.005253  -0.050053
     3  Si  -0.006400  -0.000479   0.070745  -0.006401  -0.002864   0.011710
     4  Si   0.014542   0.035911  -0.006401   0.045099  -0.008778  -0.030999
     5  Si  -0.022721  -0.005253  -0.002864  -0.008778   0.205939   0.134065
     6  Si  -0.030997  -0.050053   0.011710  -0.030999   0.134065   0.322794
     7  Si   0.001707   0.006327   0.015465   0.001704   0.053590  -0.062815
     8  Si  -0.008779  -0.005253  -0.002864  -0.022719  -0.033775   0.134066
     9  Si   0.005827   0.000200   0.000897   0.005828   0.047572  -0.074598
              7          8          9
     1  Si   0.001707  -0.008779   0.005827
     2  Si   0.006327  -0.005253   0.000200
     3  Si   0.015465  -0.002864   0.000897
     4  Si   0.001704  -0.022719   0.005828
     5  Si   0.053590  -0.033775   0.047572
     6  Si  -0.062815   0.134066  -0.074598
     7  Si  -0.315508   0.053593  -0.048631
     8  Si   0.053593   0.205948   0.047569
     9  Si  -0.048631   0.047569  -0.005119
 Mulliken atomic spin densities:
              1
     1  Si   0.034193
     2  Si   0.078096
     3  Si   0.079810
     4  Si   0.034188
     5  Si   0.367776
     6  Si   0.353174
     7  Si  -0.294569
     8  Si   0.367787
     9  Si  -0.020454
 Sum of Mulliken spin densities=   1.00000
 APT atomic charges:
              1
     1  Si  -0.153333
     2  Si   0.471599
     3  Si   0.345284
     4  Si  -0.153334
     5  Si  -0.129169
     6  Si   0.209085
     7  Si  -0.282465
     8  Si  -0.129268
     9  Si   0.821601
 Sum of APT charges=   1.00000
 APT Atomic charges with hydrogens summed into heavy atoms:
              1
     1  Si  -0.153333
     2  Si   0.471599
     3  Si   0.345284
     4  Si  -0.153334
     5  Si  -0.129169
     6  Si   0.209085
     7  Si  -0.282465
     8  Si  -0.129268
     9  Si   0.821601
 Sum of APT charges=   1.00000
 Electronic spatial extent (au):  <R**2>=  2374.8765
 Charge=     1.0000 electrons
 Dipole moment (field-independent basis, Debye):
    X=    -1.0498    Y=    -0.0188    Z=     0.0000  Tot=     1.0500
 Quadrupole moment (field-independent basis, Debye-Ang):
   XX=   -99.2090   YY=  -108.3846   ZZ=  -100.7764
   XY=    -0.7417   XZ=     0.0001   YZ=    -0.0001
 Traceless Quadrupole moment (field-independent basis, Debye-Ang):
   XX=     3.5809   YY=    -5.5946   ZZ=     2.0136
   XY=    -0.7417   XZ=     0.0001   YZ=    -0.0001
 Octapole moment (field-independent basis, Debye-Ang**2):
  XXX=     2.5870  YYY=    -1.7227  ZZZ=    -0.0001  XYY=    -6.3409
  XXY=    -0.7969  XXZ=    -0.0001  XZZ=    -2.6224  YZZ=     4.8397
  YYZ=    -0.0001  XYZ=     0.0000
 Hexadecapole moment (field-independent basis, Debye-Ang**3):
 XXXX= -1569.9358 YYYY= -1145.8430 ZZZZ=  -993.5735 XXXY=    -1.4944
 XXXZ=     0.0004 YYYX=    -2.5184 YYYZ=    -0.0011 ZZZX=     0.0006
 ZZZY=    -0.0006 XXYY=  -447.6759 XXZZ=  -435.4348 YYZZ=  -347.5041
 XXYZ=    -0.0003 YYXZ=     0.0002 ZZXY=   -11.6945
 N-N= 1.247743157980D+03 E-N=-8.679600220625D+03  KE= 2.600100482605D+03
  Exact polarizability: 295.183  -3.822 241.222   0.001   0.000 264.136
 Approx polarizability: 432.201   2.202 360.165   0.000   0.000 380.438
                          Isotropic Fermi Contact Couplings
        Atom                 a.u.       MegaHertz       Gauss      10(-4) cm-1
     1  Si(29)            -0.02522      22.41149       7.99698       7.47567
     2  Si(29)            -0.01246      11.07325       3.95121       3.69364
     3  Si(29)             0.00074      -0.66054      -0.23570      -0.22033
     4  Si(29)            -0.02522      22.41261       7.99738       7.47604
     5  Si(29)             0.18697    -166.16479     -59.29172     -55.42661
     6  Si(29)             0.08005     -71.14053     -25.38471     -23.72993
     7  Si(29)            -0.15351     136.43146      48.68213      45.50864
     8  Si(29)             0.18700    -166.18983     -59.30066     -55.43496
     9  Si(29)            -0.06440      57.23444      20.42267      19.09135
 --------------------------------------------------------
       Center         ----  Spin Dipole Couplings  ----
                      3XX-RR        3YY-RR        3ZZ-RR
 --------------------------------------------------------
     1   Atom        0.008711      0.055774     -0.064485
     2   Atom       -0.126072      0.128365     -0.002293
     3   Atom        0.040996     -0.257571      0.216575
     4   Atom        0.008718      0.055768     -0.064486
     5   Atom       -0.375662     -0.115415      0.491077
     6   Atom       -0.307489      0.018016      0.289473
     7   Atom        0.106926     -0.314826      0.207900
     8   Atom       -0.375667     -0.115410      0.491077
     9   Atom       -0.171466     -0.116083      0.287549
 --------------------------------------------------------
                        XY            XZ            YZ
 --------------------------------------------------------
     1   Atom       -0.267157      0.057681     -0.204876
     2   Atom       -0.156856     -0.000001     -0.000004
     3   Atom       -0.168286     -0.000004     -0.000012
     4   Atom       -0.267154     -0.057674      0.204864
     5   Atom       -0.250079     -0.195136      0.541789
     6   Atom        0.217107      0.000006     -0.000005
     7   Atom        0.252249      0.000001     -0.000007
     8   Atom       -0.250095      0.195154     -0.541796
     9   Atom        0.002619      0.000000     -0.000002
 --------------------------------------------------------


 ---------------------------------------------------------------------------------
              Anisotropic Spin Dipole Couplings in Principal Axis System
 ---------------------------------------------------------------------------------

       Atom             a.u.   MegaHertz   Gauss  10(-4) cm-1        Axes

              Baa    -0.2913    30.906    11.028    10.309  0.5233  0.6943  0.4940
     1 Si(29) Bbb    -0.0924     9.806     3.499     3.271 -0.6320 -0.0727  0.7715
              Bcc     0.3838   -40.711   -14.527   -13.580 -0.5716  0.7160 -0.4008
 
              Baa    -0.2008    21.303     7.602     7.106  0.9028  0.4302  0.0000
     2 Si(29) Bbb    -0.0023     0.243     0.087     0.081  0.0000  0.0000  1.0000
              Bcc     0.2031   -21.547    -7.688    -7.187 -0.4302  0.9028  0.0000
 
              Baa    -0.3332    35.352    12.614    11.792  0.4101  0.9120  0.0000
     3 Si(29) Bbb     0.1167   -12.377    -4.416    -4.128  0.9120 -0.4101  0.0000
              Bcc     0.2166   -22.975    -8.198    -7.664  0.0000  0.0000  1.0000
 
              Baa    -0.2913    30.905    11.028    10.309  0.5233  0.6943 -0.4940
     4 Si(29) Bbb    -0.0924     9.805     3.499     3.271  0.6320  0.0727  0.7716
              Bcc     0.3838   -40.710   -14.526   -13.579 -0.5716  0.7160  0.4008
 
              Baa    -0.5534    58.702    20.946    19.581  0.7083  0.6720 -0.2163
     5 Si(29) Bbb    -0.3252    34.503    12.311    11.509  0.6672 -0.5372  0.5160
              Bcc     0.8786   -93.205   -33.258   -31.090 -0.2306  0.5098  0.8288
 
              Baa    -0.4161    44.139    15.750    14.723  0.8944 -0.4473  0.0000
     6 Si(29) Bbb     0.1266   -13.430    -4.792    -4.480  0.4473  0.8944  0.0000
              Bcc     0.2895   -30.708   -10.958   -10.243  0.0000  0.0000  1.0000
 
              Baa    -0.4327    45.906    16.380    15.313 -0.4234  0.9059  0.0000
     7 Si(29) Bbb     0.2079   -22.055    -7.870    -7.357  0.0001  0.0000  1.0000
              Bcc     0.2248   -23.851    -8.511    -7.956  0.9059  0.4234 -0.0001
 
              Baa    -0.5534    58.703    20.947    19.581  0.7083  0.6720  0.2162
     8 Si(29) Bbb    -0.3252    34.504    12.312    11.509  0.6672 -0.5372 -0.5160
              Bcc     0.8786   -93.207   -33.258   -31.090  0.2306 -0.5098  0.8288
 
              Baa    -0.1716    18.203     6.495     6.072  0.9989 -0.0471  0.0000
     9 Si(29) Bbb    -0.1160    12.301     4.389     4.103  0.0471  0.9989  0.0000
              Bcc     0.2875   -30.504   -10.885   -10.175  0.0000  0.0000  1.0000
 

 ---------------------------------------------------------------------------------

 Full mass-weighted force constant matrix:
 Low frequencies --- -473.0313 -369.0219  -43.6609  -29.1884   -9.8575    0.0016
 Low frequencies ---    0.0023    0.0024   86.7840
 ******    2 imaginary frequencies (negative Signs) ****** 
 Diagonal vibrational polarizability:
       44.1236400      11.9606703      61.0223769
 Diagonal vibrational hyperpolarizability:
     5293.8222197    -320.9466754      -0.3768234
 Harmonic frequencies (cm**-1), IR intensities (KM/Mole), Raman scattering
 activities (A**4/AMU), depolarization ratios for plane and unpolarized
 incident light, reduced masses (AMU), force constants (mDyne/A),
 and normal coordinates:
                     1                      2                      3
                     A                      A                      A
 Frequencies --  -473.0311              -369.0064                84.4394
 Red. masses --    27.9769                27.9769                27.9769
 Frc consts  --     3.6883                 2.2445                 0.1175
 IR Inten    --   165.3837               225.6272                 2.7644
 Raman Activ -- 16355.6576              1430.8806                77.8501
 Depolar (P) --     0.7414                 0.7500                 0.1840
 Depolar (U) --     0.8515                 0.8571                 0.3109
 Atom AN      X      Y      Z        X      Y      Z        X      Y      Z
   1  14    -0.28   0.11   0.07     0.13   0.05   0.22     0.14   0.11  -0.06
   2  14    -0.13  -0.15   0.00     0.00   0.00   0.28     0.02   0.13   0.00
   3  14     0.01   0.12   0.00     0.00   0.00  -0.06    -0.05   0.17   0.00
   4  14    -0.28   0.11  -0.07    -0.13  -0.05   0.22     0.14   0.11   0.06
   5  14     0.07  -0.09   0.51     0.22  -0.28  -0.43     0.03  -0.45  -0.07
   6  14     0.20   0.13   0.00     0.00   0.00  -0.02    -0.27  -0.09   0.00
   7  14     0.21  -0.28   0.00     0.00   0.00  -0.13     0.10  -0.09   0.00
   8  14     0.07  -0.09  -0.51    -0.22   0.28  -0.43     0.03  -0.45   0.07
   9  14     0.12   0.14   0.00     0.00   0.00   0.36    -0.16   0.57   0.00
                     4                      5                      6
                     A                      A                      A
 Frequencies --    95.7387               138.9643               144.4028
 Red. masses --    27.9769                27.9769                27.9769
 Frc consts  --     0.1511                 0.3183                 0.3437
 IR Inten    --     3.3766                 8.5663                 0.0338
 Raman Activ --    18.9899                92.1841               106.7352
 Depolar (P) --     0.7500                 0.5758                 0.7500
 Depolar (U) --     0.8571                 0.7308                 0.8571
 Atom AN      X      Y      Z        X      Y      Z        X      Y      Z
   1  14    -0.05  -0.25   0.01     0.23  -0.12  -0.04     0.12  -0.07   0.03
   2  14     0.00   0.00  -0.30     0.02  -0.29   0.00     0.00   0.00  -0.28
   3  14     0.00   0.00   0.46    -0.14   0.18   0.00     0.00   0.00  -0.13
   4  14     0.05   0.25   0.01     0.23  -0.12   0.04    -0.12   0.07   0.03
   5  14    -0.02   0.24  -0.10    -0.24  -0.05  -0.06    -0.10  -0.15  -0.14
   6  14     0.00   0.00   0.17     0.28   0.66   0.00     0.00   0.00   0.82
   7  14     0.00   0.00  -0.52     0.06  -0.22   0.00     0.00   0.00   0.08
   8  14     0.02  -0.24  -0.10    -0.24  -0.05   0.06     0.10   0.15  -0.14
   9  14     0.00   0.00   0.38    -0.20   0.00   0.00     0.00   0.00  -0.28
                     7                      8                      9
                     A                      A                      A
 Frequencies --   180.1229               215.6790               217.0671
 Red. masses --    27.9769                27.9769                27.9769
 Frc consts  --     0.5348                 0.7668                 0.7767
 IR Inten    --     0.4434                 0.7149                 4.2899
 Raman Activ --    16.7237                 0.3204                29.1229
 Depolar (P) --     0.5410                 0.7499                 0.3109
 Depolar (U) --     0.7021                 0.8571                 0.4743
 Atom AN      X      Y      Z        X      Y      Z        X      Y      Z
   1  14     0.22   0.08  -0.01    -0.31   0.10  -0.22     0.16   0.19  -0.03
   2  14    -0.44  -0.22   0.00     0.00   0.00  -0.01    -0.13   0.06   0.00
   3  14    -0.24   0.11   0.00     0.00   0.00  -0.19     0.13   0.16   0.00
   4  14     0.22   0.08   0.01     0.31  -0.10  -0.22     0.16   0.19   0.03
   5  14     0.43   0.02   0.07    -0.36  -0.26   0.02    -0.15   0.20  -0.01
   6  14    -0.23   0.12   0.00     0.00   0.00   0.10    -0.30  -0.24   0.00
   7  14    -0.29  -0.02   0.00     0.00   0.00  -0.01     0.41  -0.53   0.00
   8  14     0.43   0.02  -0.07     0.36   0.26   0.02    -0.15   0.20   0.01
   9  14    -0.10  -0.19   0.00     0.00   0.00   0.51    -0.14  -0.25   0.00
                    10                     11                     12
                     A                      A                      A
 Frequencies --   219.9276               255.9372               280.4804
 Red. masses --    27.9769                27.9769                27.9769
 Frc consts  --     0.7973                 1.0797                 1.2967
 IR Inten    --     1.0115                 0.6321                 6.7118
 Raman Activ --    97.0552                55.3770               101.0060
 Depolar (P) --     0.1598                 0.7500                 0.5895
 Depolar (U) --     0.2756                 0.8571                 0.7417
 Atom AN      X      Y      Z        X      Y      Z        X      Y      Z
   1  14    -0.02   0.23  -0.01     0.04   0.08  -0.46    -0.26  -0.07   0.11
   2  14    -0.39  -0.01   0.00     0.00   0.00   0.44     0.20   0.27   0.00
   3  14     0.59  -0.01   0.00     0.00   0.00   0.49     0.21  -0.08   0.00
   4  14    -0.02   0.23   0.01    -0.04  -0.08  -0.46    -0.26  -0.07  -0.11
   5  14    -0.12  -0.27  -0.06     0.14  -0.10  -0.02     0.29  -0.03  -0.14
   6  14     0.06   0.18   0.00     0.00   0.00   0.22    -0.11   0.35   0.00
   7  14    -0.04   0.25   0.00     0.00   0.00  -0.03     0.14  -0.19   0.00
   8  14    -0.12  -0.27   0.06    -0.14   0.10  -0.02     0.29  -0.03   0.14
   9  14     0.06  -0.33   0.00     0.00   0.00  -0.14    -0.50  -0.15   0.00
                    13                     14                     15
                     A                      A                      A
 Frequencies --   287.5040               306.3826               313.8904
 Red. masses --    27.9769                27.9769                27.9769
 Frc consts  --     1.3625                 1.5473                 1.6241
 IR Inten    --    15.2332                 0.8705                 0.7364
 Raman Activ --   168.9087                29.2917               303.7331
 Depolar (P) --     0.7500                 0.5468                 0.6973
 Depolar (U) --     0.8571                 0.7070                 0.8217
 Atom AN      X      Y      Z        X      Y      Z        X      Y      Z
   1  14     0.50   0.23   0.02     0.28   0.02   0.29     0.01  -0.02   0.49
   2  14     0.00   0.00  -0.07     0.13   0.28   0.00    -0.35   0.17   0.00
   3  14     0.00   0.00   0.14     0.15  -0.40   0.00    -0.32  -0.07   0.00
   4  14    -0.50  -0.23   0.02     0.28   0.02  -0.29     0.01  -0.02  -0.49
   5  14    -0.32  -0.10   0.14    -0.12   0.01   0.31    -0.01  -0.06  -0.19
   6  14     0.00   0.00  -0.13    -0.13   0.10   0.00     0.12   0.03   0.00
   7  14     0.00   0.00  -0.29    -0.34  -0.08   0.00     0.34   0.03   0.00
   8  14     0.32   0.10   0.14    -0.12   0.01  -0.31    -0.01  -0.06   0.19
   9  14     0.00   0.00   0.04    -0.13   0.05   0.00     0.21   0.00   0.00
                    16                     17                     18
                     A                      A                      A
 Frequencies --   330.2775               378.6292               395.4373
 Red. masses --    27.9769                27.9769                27.9769
 Frc consts  --     1.7981                 2.3631                 2.5775
 IR Inten    --     1.4106                 2.6226                 1.0348
 Raman Activ --   166.6846               170.3698               111.9594
 Depolar (P) --     0.7500                 0.7500                 0.1813
 Depolar (U) --     0.8571                 0.8571                 0.3070
 Atom AN      X      Y      Z        X      Y      Z        X      Y      Z
   1  14     0.14   0.07  -0.09    -0.20   0.53   0.11     0.03  -0.07   0.32
   2  14     0.00   0.00  -0.08     0.00   0.00  -0.42     0.22  -0.33   0.00
   3  14     0.00   0.00   0.17     0.00   0.00   0.29     0.14   0.52   0.00
   4  14    -0.14  -0.07  -0.09     0.20  -0.53   0.11     0.03  -0.07  -0.32
   5  14    -0.19   0.29  -0.33     0.16  -0.02  -0.03    -0.03  -0.01   0.09
   6  14     0.00   0.00  -0.06     0.00   0.00   0.05    -0.03  -0.27   0.00
   7  14     0.00   0.00   0.63     0.00   0.00  -0.02     0.02   0.33   0.00
   8  14     0.19  -0.29  -0.33    -0.16   0.02  -0.03    -0.03  -0.01  -0.09
   9  14     0.00   0.00   0.20     0.00   0.00  -0.06    -0.35  -0.09   0.00
                    19                     20                     21
                     A                      A                      A
 Frequencies --   418.7777               463.7520               491.5640
 Red. masses --    27.9769                27.9769                27.9769
 Frc consts  --     2.8908                 3.5450                 3.9830
 IR Inten    --    10.4867                26.3963                23.3861
 Raman Activ --   167.6944               185.2741              1173.5996
 Depolar (P) --     0.0948                 0.6089                 0.2625
 Depolar (U) --     0.1732                 0.7569                 0.4159
 Atom AN      X      Y      Z        X      Y      Z        X      Y      Z
   1  14     0.07  -0.02  -0.16    -0.06   0.43   0.10     0.08   0.05  -0.12
   2  14     0.11   0.10   0.00     0.28  -0.53   0.00    -0.29   0.14   0.00
   3  14    -0.31  -0.19   0.00    -0.13  -0.42   0.00    -0.06  -0.19   0.00
   4  14     0.07  -0.02   0.16    -0.06   0.43  -0.10     0.08   0.05   0.12
   5  14    -0.04  -0.09   0.22     0.01   0.00  -0.13     0.03   0.04   0.04
   6  14    -0.27   0.14   0.00     0.00   0.01   0.00     0.61  -0.31   0.00
   7  14     0.50   0.48   0.00     0.04   0.01   0.00     0.09   0.09   0.00
   8  14    -0.04  -0.09  -0.22     0.01   0.00   0.13     0.03   0.04  -0.04
   9  14    -0.09  -0.30   0.00    -0.10   0.06   0.00    -0.56   0.09   0.00

 -------------------
 - Thermochemistry -
 -------------------
 Temperature   298.150 Kelvin.  Pressure   1.00000 Atm.
 Atom  1 has atomic number 14 and mass  27.97693
 Atom  2 has atomic number 14 and mass  27.97693
 Atom  3 has atomic number 14 and mass  27.97693
 Atom  4 has atomic number 14 and mass  27.97693
 Atom  5 has atomic number 14 and mass  27.97693
 Atom  6 has atomic number 14 and mass  27.97693
 Atom  7 has atomic number 14 and mass  27.97693
 Atom  8 has atomic number 14 and mass  27.97693
 Atom  9 has atomic number 14 and mass  27.97693
 Molecular mass:   251.79236 amu.
 Principal axes and moments of inertia in atomic units:
                           1         2         3
     EIGENVALUES --  2357.701623076.542833141.12747
           X            1.00000   0.00000   0.00000
           Y            0.00000   1.00000   0.00000
           Z            0.00000   0.00000   1.00000
 This molecule is an asymmetric top.
 Rotational symmetry number  1.
 Warning -- assumption of classical behavior for rotation
           may cause significant error
 Rotational temperatures (Kelvin)      0.03674     0.02815     0.02757
 Rotational constants (GHZ):           0.76547     0.58661     0.57455
    2 imaginary frequencies ignored.
 Zero-point vibrational energy      31216.4 (Joules/Mol)
                                    7.46090 (Kcal/Mol)
 Warning -- explicit consideration of  19 degrees of freedom as
           vibrations may cause significant error
 Vibrational temperatures:    121.49   137.75   199.94   207.76   259.16
          (Kelvin)            310.31   312.31   316.43   368.24   403.55
                              413.65   440.82   451.62   475.20   544.76
                              568.95   602.53   667.23   707.25
 
 Zero-point correction=                           0.011890 (Hartree/Particle)
 Thermal correction to Energy=                    0.023717
 Thermal correction to Enthalpy=                  0.024661
 Thermal correction to Gibbs Free Energy=        -0.027388
 Sum of electronic and zero-point Energies=          -2599.956130
 Sum of electronic and thermal Energies=             -2599.944303
 Sum of electronic and thermal Enthalpies=           -2599.943359
 Sum of electronic and thermal Free Energies=        -2599.995408
 
                     E (Thermal)             CV                S
                      KCal/Mol        Cal/Mol-Kelvin    Cal/Mol-Kelvin
 Total                   14.882             38.114            109.546
 Electronic               0.000              0.000              1.377
 Translational            0.889              2.981             42.471
 Rotational               0.889              2.981             31.500
 Vibrational             13.105             32.152             34.198
 Vibration  1             0.601              1.960              3.785
 Vibration  2             0.603              1.952              3.539
 Vibration  3             0.615              1.914              2.818
 Vibration  4             0.616              1.909              2.745
 Vibration  5             0.629              1.867              2.327
 Vibration  6             0.645              1.817              1.995
 Vibration  7             0.646              1.815              1.983
 Vibration  8             0.647              1.811              1.960
 Vibration  9             0.666              1.753              1.689
 Vibration 10             0.680              1.710              1.531
 Vibration 11             0.685              1.697              1.489
 Vibration 12             0.697              1.662              1.382
 Vibration 13             0.702              1.647              1.342
 Vibration 14             0.713              1.615              1.259
 Vibration 15             0.749              1.516              1.045
 Vibration 16             0.762              1.480              0.980
 Vibration 17             0.782              1.429              0.896
 Vibration 18             0.821              1.330              0.755
 Vibration 19             0.847              1.269              0.680
                       Q            Log10(Q)             Ln(Q)
 Total Bot       0.395950D+13         12.597640         29.007139
 Total V=0       0.116549D+19         18.066510         41.599677
 Vib (Bot)       0.737779D-02         -2.132074         -4.909281
 Vib (Bot)  1    0.243723D+01          0.386896          0.890861
 Vib (Bot)  2    0.214535D+01          0.331499          0.763304
 Vib (Bot)  3    0.146363D+01          0.165431          0.380920
 Vib (Bot)  4    0.140642D+01          0.148114          0.341046
 Vib (Bot)  5    0.111503D+01          0.047286          0.108880
 Vib (Bot)  6    0.918768D+00         -0.036794         -0.084722
 Vib (Bot)  7    0.912370D+00         -0.039829         -0.091710
 Vib (Bot)  8    0.899431D+00         -0.046032         -0.105993
 Vib (Bot)  9    0.760411D+00         -0.118952         -0.273897
 Vib (Bot) 10    0.685300D+00         -0.164120         -0.377899
 Vib (Bot) 11    0.666052D+00         -0.176492         -0.406387
 Vib (Bot) 12    0.618469D+00         -0.208682         -0.480509
 Vib (Bot) 13    0.601051D+00         -0.221089         -0.509076
 Vib (Bot) 14    0.565629D+00         -0.247469         -0.569818
 Vib (Bot) 15    0.477984D+00         -0.320587         -0.738178
 Vib (Bot) 16    0.452233D+00         -0.344638         -0.793559
 Vib (Bot) 17    0.419682D+00         -0.377080         -0.868259
 Vib (Bot) 18    0.365625D+00         -0.436964         -1.006147
 Vib (Bot) 19    0.336842D+00         -0.472573         -1.088141
 Vib (V=0)       0.217168D+04          3.336796          7.683257
 Vib (V=0)  1    0.298799D+01          0.475379          1.094600
 Vib (V=0)  2    0.270285D+01          0.431822          0.994306
 Vib (V=0)  3    0.204668D+01          0.311050          0.716218
 Vib (V=0)  4    0.199265D+01          0.299432          0.689467
 Vib (V=0)  5    0.172200D+01          0.236034          0.543488
 Vib (V=0)  6    0.154601D+01          0.189212          0.435676
 Vib (V=0)  7    0.154039D+01          0.187632          0.432038
 Vib (V=0)  8    0.152907D+01          0.184426          0.424657
 Vib (V=0)  9    0.141007D+01          0.149240          0.343638
 Vib (V=0) 10    0.134831D+01          0.129791          0.298854
 Vib (V=0) 11    0.133284D+01          0.124779          0.287313
 Vib (V=0) 12    0.129530D+01          0.112371          0.258743
 Vib (V=0) 13    0.128183D+01          0.107831          0.248291
 Vib (V=0) 14    0.125494D+01          0.098623          0.227088
 Vib (V=0) 15    0.119171D+01          0.076172          0.175393
 Vib (V=0) 16    0.117418D+01          0.069733          0.160567
 Vib (V=0) 17    0.115279D+01          0.061750          0.142184
 Vib (V=0) 18    0.111942D+01          0.048993          0.112811
 Vib (V=0) 19    0.110288D+01          0.042528          0.097924
 Electronic      0.200000D+01          0.301030          0.693147
 Translational   0.157043D+09          8.196019         18.872031
 Rotational      0.170870D+07          6.232665         14.351242
 ***** Axes restored to original set *****
 -------------------------------------------------------------------
 Center     Atomic                   Forces (Hartrees/Bohr)
 Number     Number              X              Y              Z
 -------------------------------------------------------------------
    1         14          -0.005123908    0.004997762   -0.002218254
    2         14          -0.002363068   -0.010324838   -0.000000387
    3         14           0.006475909    0.009307058    0.000000272
    4         14          -0.005123837    0.004997561    0.002218133
    5         14           0.003307815    0.004670044   -0.005713436
    6         14           0.016211856   -0.016244298   -0.000000157
    7         14           0.002917200   -0.002537660    0.000000431
    8         14           0.003308006    0.004669222    0.005713623
    9         14          -0.019609971    0.000465151   -0.000000224
 -------------------------------------------------------------------
 Cartesian Forces:  Max     0.019609971 RMS     0.007227136
 ------------------------------------------------------------------------
           Internal Coordinate Forces (Hartree/Bohr or radian)
 Cent Atom N1     Length/X     N2     Alpha/Y      N3      Beta/Z       J
 ------------------------------------------------------------------------
   1  Si       -0.005124(   1)      0.004998(  10)     -0.002218(  19)
   2  Si       -0.002363(   2)     -0.010325(  11)      0.000000(  20)
   3  Si        0.006476(   3)      0.009307(  12)      0.000000(  21)
   4  Si       -0.005124(   4)      0.004998(  13)      0.002218(  22)
   5  Si        0.003308(   5)      0.004670(  14)     -0.005713(  23)
   6  Si        0.016212(   6)     -0.016244(  15)      0.000000(  24)
   7  Si        0.002917(   7)     -0.002538(  16)      0.000000(  25)
   8  Si        0.003308(   8)      0.004669(  17)      0.005714(  26)
   9  Si       -0.019610(   9)      0.000465(  18)      0.000000(  27)
 ------------------------------------------------------------------------
 Internal  Forces:  Max     0.019609971 RMS     0.007227136

 GradGradGradGradGradGradGradGradGradGradGradGradGradGradGradGradGradGrad
 Berny optimization.
 Search for a local minimum.
 Step number   1 out of a maximum of   2
 All quantities printed in internal units (Hartrees-Bohrs-Radians)
 Second derivative matrix not updated -- analytic derivatives used.
     Eigenvalues ---   -0.23690  -0.14416   0.00755   0.00970   0.02045
     Eigenvalues ---    0.02208   0.03435   0.04925   0.04989   0.05121
     Eigenvalues ---    0.06935   0.08329   0.08751   0.09938   0.10432
     Eigenvalues ---    0.11549   0.15178   0.16556   0.18568   0.22770
     Eigenvalues ---    0.25583
 Eigenvalue   1 out of range, new value =    0.236903 Eigenvector:
                           1
           X1          -0.27687
           Y1           0.10724
           Z1           0.06869
           X2          -0.13491
           Y2          -0.14500
           Z2           0.00004
           X3           0.00893
           Y3           0.12039
           Z3          -0.00001
           X4          -0.27690
           Y4           0.10723
           Z4          -0.06861
           X5           0.07424
           Y5          -0.09314
           Z5           0.50942
           X6           0.19618
           Y6           0.13013
           Z6           0.00001
           X7           0.21303
           Y7          -0.27695
           Z7          -0.00001
           X8           0.07416
           Y8          -0.09304
           Z8          -0.50958
           X9           0.12214
           Y9           0.14315
           Z9           0.00006
 Eigenvalue   2 out of range, new value =    0.144165 Eigenvector:
                           1
           X1           0.13434
           Y1           0.05432
           Z1           0.21705
           X2           0.00003
           Y2           0.00002
           Z2           0.28253
           X3           0.00000
           Y3          -0.00002
           Z3          -0.05728
           X4          -0.13424
           Y4          -0.05435
           Z4           0.21708
           X5           0.21604
           Y5          -0.28317
           Z5          -0.43491
           X6          -0.00003
           Y6          -0.00003
           Z6          -0.01891
           X7          -0.00004
           Y7           0.00005
           Z7          -0.13256
           X8          -0.21607
           Y8           0.28321
           Z8          -0.43474
           X9          -0.00003
           Y9          -0.00002
           Z9           0.36174
 Quadratic step=4.658D-01 exceeds max=3.000D-01 adjusted using Lamda=-1.104D-02.
 Angle between NR and scaled steps=  20.94 degrees.
 Angle between quadratic step and forces=  37.00 degrees.
 Linear search not attempted -- first point.
 TrRot=  0.000000  0.000000  0.000000  0.000000  0.000000  0.000000
 Variable       Old X    -DE/DX   Delta X   Delta X   Delta X     New X
                                 (Linear)    (Quad)   (Total)
    X1        2.48789  -0.00512   0.00000  -0.07660  -0.07660   2.41129
    Y1        0.10094   0.00500   0.00000   0.02819   0.02819   0.12912
    Z1        2.47364  -0.00222   0.00000  -0.02371  -0.02371   2.44994
    X2        3.62430  -0.00236   0.00000  -0.00776  -0.00776   3.61654
    Y2       -3.48837  -0.01032   0.00000  -0.05921  -0.05921  -3.54758
    Z2       -0.00003   0.00000   0.00000   0.00000   0.00000  -0.00003
    X3        2.89069   0.00648   0.00000   0.07439   0.07439   2.96508
    Y3        3.84844   0.00931   0.00000   0.06399   0.06399   3.91243
    Z3        0.00004   0.00000   0.00000   0.00000   0.00000   0.00004
    X4        2.48790  -0.00512   0.00000  -0.07661  -0.07661   2.41130
    Y4        0.10099   0.00500   0.00000   0.02818   0.02818   0.12917
    Z4       -2.47364   0.00222   0.00000   0.02371   0.02371  -2.44993
    X5       -2.13664   0.00331   0.00000   0.02331   0.02331  -2.11332
    Y5        0.14731   0.00467   0.00000   0.09938   0.09938   0.24669
    Z5        3.79108  -0.00571   0.00000  -0.03736  -0.03736   3.75371
    X6       -0.84962   0.01621   0.00000   0.06011   0.06011  -0.78950
    Y6       -2.84342  -0.01624   0.00000  -0.12570  -0.12570  -2.96912
    Z6       -0.00003   0.00000   0.00000   0.00000   0.00000  -0.00003
    X7       -1.60495   0.00292   0.00000   0.05200   0.05200  -1.55295
    Y7        2.75251  -0.00254   0.00000  -0.03159  -0.03159   2.72092
    Z7        0.00002   0.00000   0.00000   0.00001   0.00001   0.00003
    X8       -2.13662   0.00331   0.00000   0.02331   0.02331  -2.11331
    Y8        0.14739   0.00467   0.00000   0.09938   0.09938   0.24676
    Z8       -3.79107   0.00571   0.00000   0.03736   0.03736  -3.75371
    X9       -4.76296  -0.01961   0.00000  -0.07215  -0.07215  -4.83512
    Y9       -0.76578   0.00047   0.00000  -0.10262  -0.10262  -0.86840
    Z9       -0.00001   0.00000   0.00000  -0.00001  -0.00001  -0.00002
         Item               Value     Threshold  Converged?
 Maximum Force            0.019610     0.000450     NO 
 RMS     Force            0.007227     0.000300     NO 
 Maximum Displacement     0.125704     0.001800     NO 
 RMS     Displacement     0.057777     0.001200     NO 
 Predicted change in Energy=-5.000058D-03
 GradGradGradGradGradGradGradGradGradGradGradGradGradGradGradGradGradGrad

 1\1\GINC-NODE151\Freq\UHF\6-311G(d)\Si9(1+,2)\TAM\17-Jun-2011\0\\# hf/
 6-311G(d) freq scfcyc=500 scf=xqc\\si9-c\\1,2\Si,1.316537,0.053414,1.3
 08996\Si,1.917897,-1.845968,-0.000016\Si,1.529689,2.036506,0.000022\Si
 ,1.316542,0.053441,-1.308993\Si,-1.130659,0.077954,2.006151\Si,-0.4495
 97,-1.504672,-0.000015\Si,-0.849304,1.456564,0.000011\Si,-1.130652,0.0
 77994,-2.006149\Si,-2.520452,-0.405233,-0.000007\\Version=AM64L-G03Rev
 E.01\State=2-A\HF=-2599.9680199\S2=1.03025\S2-1=0.\S2A=0.817288\RMSD=6
 .078e-09\RMSF=7.227e-03\ZeroPoint=0.0118897\Thermal=0.0237166\Dipole=-
 0.4130241,-0.0074094,-0.0000071\DipoleDeriv=-0.7030674,0.0692609,0.661
 8264,0.3449558,-0.3239165,0.0746815,0.3118972,-0.100581,0.5669858,0.03
 7584,-0.0040258,-0.0000295,-0.7921896,0.515319,-0.0000313,-0.000009,0.
 0000019,0.8618929,0.3164177,0.127391,0.0000046,0.3816271,0.6091849,0.0
 000182,0.0000038,0.0000046,0.1102482,-0.7030641,0.0692696,-0.6619139,0
 .3449457,-0.3239134,-0.0746458,-0.3118448,0.1005642,0.5669751,0.357883
 2,-0.0310383,0.3062096,-0.1220207,0.113493,-0.820524,1.0234493,-0.1400
 26,-0.8588819,0.2590492,-0.231427,0.0000814,0.0909733,0.2713673,-0.000
 0037,0.0000181,0.0000016,0.0968394,-0.0176429,0.0136019,0.0000381,-0.4
 940721,-0.1281067,-0.0000568,0.0000014,0.0000097,-0.7016453,0.3578403,
 -0.0310387,-0.3061943,-0.121975,0.1134755,0.8205211,-1.023544,0.140036
 1,-0.8591202,1.095,0.0180064,-0.0000225,0.3677554,0.1530968,0.0000407,
 0.0000279,-0.000011,1.2167059\Polar=295.1826554,-3.8219605,241.2222032
 ,0.0008964,-0.0001199,264.1361303\PolarDeriv=-140.9570016,23.2909613,6
 .4286861,5.3992557,-4.8504152,99.9219164,87.6607592,-15.4186328,-2.937
 9406,-16.5468104,13.2954305,-74.5472051,29.9263694,-1.8947407,-0.80188
 15,-46.7355609,-3.9731081,19.3282905,-35.2178495,5.8111578,3.5344871,-
 0.0001803,0.0004558,67.38385,-162.0355086,38.9558238,-14.2543285,-0.00
 60417,0.0015453,68.3252099,0.0002344,-0.0001334,0.0000428,9.6245796,-1
 9.150478,-0.0009678,21.2405739,4.7730378,0.1468099,-0.000113,0.0000737
 ,-21.7975538,62.8536506,4.6623356,13.2294265,0.0020206,-0.0000347,-23.
 6857556,0.0006713,0.0002443,0.0000248,5.5913772,9.9519477,0.001258,-14
 0.9554637,23.2903152,6.4289365,-5.4110002,4.8526928,99.9234762,87.6608
 733,-15.4187103,-2.9376588,16.5524396,-13.2974984,-74.5461933,-29.9191
 345,1.8932552,0.8014467,-46.7378114,-3.9714326,-19.3500555,2.8484386,-
 0.4408464,-0.7735378,-39.7239799,-9.0349238,-20.0449621,-56.635662,2.2
 95612,1.6413289,22.6818159,13.3047227,29.3261341,309.3901683,-53.61819
 19,1.2947261,98.1164154,15.9140599,-259.0628878,101.2918974,-28.444324
 9,-2.0226155,-0.0025269,-0.0004642,-192.4088166,110.9020114,-18.421816
 1,-21.6093602,0.008375,-0.0007105,18.0037568,0.0031741,-0.0005006,-0.0
 002769,-33.6085298,-10.2204082,-0.0043901,123.5718568,-10.0975858,-9.1
 2599,0.0043137,-0.0014777,-74.5597572,-108.6513455,14.093503,32.329182
 6,-0.0013218,0.0015632,144.0242049,0.0007939,-0.000283,0.0001662,-23.1
 145114,0.6709735,-0.0097045,2.8406613,-0.43912,-0.7732083,39.7261613,9
 .0352051,-20.023363,-56.6254021,2.2933456,1.641527,-22.6893008,-13.305
 2719,29.3174912,-309.4062202,53.6209949,-1.2939119,98.1050365,15.91833
 47,259.1075827,65.3368868,-17.743595,-3.843568,0.0080696,-0.0011465,61
 .6052101,34.8706237,-13.0414608,-7.1021769,-0.0011764,0.0002537,-116.2
 176428,0.0039433,-0.0006448,-0.0003363,-61.2409953,-5.139889,-0.009125
 6\HyperPolar=-4871.4904266,788.5065057,-71.9540686,39.4449377,-0.16099
 22,0.0299346,0.0041839,2002.3474798,326.6285599,0.4573817\PG=C01 [X(Si
 9)]\NImag=2\\0.03645762,-0.00223426,0.09706245,0.00020999,0.00444839,0
 .07424074,-0.02041901,0.01713271,0.01309346,0.07729361,-0.00040755,-0.
 04342455,-0.01451370,-0.05383273,0.10441128,0.00409719,-0.03500075,-0.
 02861890,-0.00000037,0.00000092,0.03186826,-0.00520664,-0.00705060,0.0
 0479608,0.00377995,0.00738721,0.00000008,0.06362375,0.00348507,-0.0508
 7009,0.01089265,-0.00081833,0.00025873,-0.00000003,0.03282720,0.118185
 56,0.00474476,0.02909842,-0.00907832,-0.00000005,0.00000016,-0.0037891
 0,0.00000045,0.00000107,0.03685950,-0.03002900,0.01316769,0.01267659,-
 0.02041901,-0.00040761,-0.00409652,-0.00520664,0.00348532,-0.00474482,
 0.03645682,0.01316764,-0.00237739,-0.00139241,0.01713237,-0.04342583,0
 .03499987,-0.00705028,-0.05086941,-0.02909940,-0.00223465,0.09706338,-
 0.01267449,0.00139236,-0.04718751,-0.01309184,0.01451411,-0.02861797,-
 0.00479631,-0.01089426,-0.00907938,-0.00020843,-0.00444839,0.07424149,
 -0.02467366,0.00029802,-0.00682255,-0.00000525,0.00348571,-0.01082828,
 -0.00376058,-0.00316819,0.00974165,0.01626093,-0.00536271,-0.00051681,
 0.03589105,0.00485822,0.00142154,0.01096287,-0.00210524,-0.00475582,0.
 00814610,-0.00055365,0.00371910,0.00163476,-0.01409647,0.00372544,0.01
 129102,0.01088157,0.01292480,0.06033948,-0.02382143,0.00123015,0.02199
 409,0.03486411,0.02236052,-0.00215488,-0.01398170,-0.01071265,0.041476
 37,-0.02732416,0.03315826,-0.00012761,-0.01926484,-0.04404281,0.017248
 10,0.00053284,-0.01305712,-0.04888640,0.02005105,-0.00000079,-0.001205
 36,-0.02596424,-0.00000007,0.01724936,0.00053337,0.01305407,-0.0010706
 9,0.01088473,-0.03468156,0.11049604,-0.00049218,-0.00804908,-0.0036419
 9,0.02306629,0.01399427,0.00000061,-0.00184280,-0.02356623,-0.00000034
 ,-0.00049268,-0.00804902,0.00364206,0.00226625,-0.00762867,-0.02003080
 ,-0.05782539,0.06184332,-0.00651836,0.00089326,-0.00573626,0.00000043,
 0.00000048,-0.00189120,-0.00000003,-0.00000064,0.00462170,0.00651955,-
 0.00089342,-0.00573585,0.00616321,-0.00729514,-0.00299331,-0.00000151,
 0.00000012,0.02054105,0.01138385,-0.00232589,-0.01094742,0.00166834,0.
 01647851,-0.00000027,-0.04176347,-0.01756349,-0.00000017,0.01138398,-0
 .00232590,0.01094602,-0.00708076,-0.00156463,-0.02480663,-0.01727761,-
 0.00494572,-0.00000044,0.07453980,-0.01193073,0.00205795,0.00374382,-0
 .00037421,-0.02304075,0.00000032,-0.02171559,0.01371047,-0.00000011,-0
 .01193103,0.00205744,-0.00374165,-0.00024821,-0.02225549,0.05766605,0.
 01292715,-0.00117619,0.00000051,0.05151634,0.06685414,0.00086921,-0.00
 026700,-0.00255280,0.00000016,0.00000001,0.00228145,-0.00000028,-0.000
 00005,0.00328538,-0.00086855,0.00026684,-0.00255258,-0.00187220,0.0170
 4091,-0.03544932,-0.00000053,-0.00000043,-0.00086431,0.00000031,0.0000
 0195,0.05367588,0.01625895,-0.00536193,0.00051654,-0.00000647,0.003484
 48,0.01082823,-0.00376056,-0.00316731,-0.00974171,-0.02467528,0.000298
 73,0.00682168,-0.00140654,-0.00612420,-0.03275201,-0.00106738,0.002266
 16,-0.00616329,-0.00707910,-0.00025063,0.00187238,0.03589185,-0.014094
 62,0.00372452,-0.01129104,-0.00210400,-0.00475444,-0.00814664,-0.00055
 389,0.00371852,-0.00163461,0.00486050,0.00142042,-0.01096224,-0.006124
 86,0.00319120,0.04016914,0.01088156,-0.00762866,0.00729549,-0.00156614
 ,-0.02225337,-0.01704153,0.01088106,0.01292565,-0.04147999,0.02732669,
 0.03316410,-0.02199671,-0.03486680,0.02236177,0.00215508,0.01398322,-0
 .01071323,-0.06034398,0.02382264,0.00123425,0.03275775,-0.04017382,0.0
 1959746,0.03468900,0.02003057,-0.00299027,0.02480986,-0.05767177,-0.03
 544926,0.00012364,0.01926852,-0.04406238,-0.00102021,-0.01415857,-0.00
 046559,0.00699424,0.00376094,0.00000073,-0.00650047,0.01088397,-0.0000
 0006,-0.00102116,-0.01415857,0.00046612,-0.01415451,-0.00218033,-0.029
 28725,-0.07548606,0.03800007,0.00000044,-0.02577503,-0.01799307,-0.000
 00049,-0.01415547,-0.00217960,0.02928534,0.13111868,0.00764842,0.00045
 465,0.00079142,0.00190314,0.00073711,-0.00000040,-0.00144760,-0.014286
 66,0.00000005,0.00764893,0.00045497,-0.00079301,-0.00202757,0.00965790
 ,-0.02827637,0.02797894,-0.01973974,-0.00000067,-0.03770307,-0.0159542
 1,-0.00000070,-0.00202636,0.00965617,0.02828075,-0.00197483,0.02901981
 ,-0.00958779,-0.00406995,-0.01546120,0.00000083,0.00000071,-0.01595484
 ,-0.00000020,-0.00000024,-0.00139390,0.00958978,0.00406844,-0.01546070
 ,-0.02849515,0.01765814,0.01685172,-0.00000149,0.00000021,-0.00495155,
 -0.00000126,0.00000088,0.01762556,0.02849455,-0.01765710,0.01685756,0.
 00000074,-0.00000107,0.00188736\\0.00512391,-0.00499776,0.00221825,0.0
 0236307,0.01032484,0.00000039,-0.00647591,-0.00930706,-0.00000027,0.00
 512384,-0.00499756,-0.00221813,-0.00330781,-0.00467004,0.00571344,-0.0
 1621186,0.01624430,0.00000016,-0.00291720,0.00253766,-0.00000043,-0.00
 330801,-0.00466922,-0.00571362,0.01960997,-0.00046515,0.00000022\\\@


 IF I HAVE SEEN FARTHER, IT IS BY STANDING ON THE
 SHOULDERS OF GIANTS. -- SIR ISAAC NEWTON
 Job cpu time:  0 days  1 hours 59 minutes 33.3 seconds.
 File lengths (MBytes):  RWF=    209 Int=      0 D2E=      0 Chk=      9 Scr=      1
 Normal termination of Gaussian 03 at Fri Jun 17 16:57:35 2011.
 Initial command:
 /usr/local/chem/g03E01/l1.exe /temp0/tam/Gau-13757.inp -scrdir=/temp0/tam/
 Entering Link 1 = /usr/local/chem/g03E01/l1.exe PID=     13834.
  
 Copyright (c) 1988,1990,1992,1993,1995,1998,2003,2004,2007, Gaussian, Inc.
                  All Rights Reserved.
  
 This is the Gaussian(R) 03 program.  It is based on the
 the Gaussian(R) 98 system (copyright 1998, Gaussian, Inc.),
 the Gaussian(R) 94 system (copyright 1995, Gaussian, Inc.),
 the Gaussian 92(TM) system (copyright 1992, Gaussian, Inc.),
 the Gaussian 90(TM) system (copyright 1990, Gaussian, Inc.),
 the Gaussian 88(TM) system (copyright 1988, Gaussian, Inc.),
 the Gaussian 86(TM) system (copyright 1986, Carnegie Mellon
 University), and the Gaussian 82(TM) system (copyright 1983,
 Carnegie Mellon University). Gaussian is a federally registered
 trademark of Gaussian, Inc.
  
 This software contains proprietary and confidential information,
 including trade secrets, belonging to Gaussian, Inc.
  
 This software is provided under written license and may be
 used, copied, transmitted, or stored only in accord with that
 written license.
  
 The following legend is applicable only to US Government
 contracts under FAR:
  
                    RESTRICTED RIGHTS LEGEND
  
 Use, reproduction and disclosure by the US Government is
 subject to restrictions as set forth in subparagraphs (a)
 and (c) of the Commercial Computer Software - Restricted
 Rights clause in FAR 52.227-19.
  
 Gaussian, Inc.
 340 Quinnipiac St., Bldg. 40, Wallingford CT 06492
  
  
 ---------------------------------------------------------------
 Warning -- This program may not be used in any manner that
 competes with the business of Gaussian, Inc. or will provide
 assistance to any competitor of Gaussian, Inc.  The licensee
 of this program is prohibited from giving any competitor of
 Gaussian, Inc. access to this program.  By using this program,
 the user acknowledges that Gaussian, Inc. is engaged in the
 business of creating and licensing software in the field of
 computational chemistry and represents and warrants to the
 licensee that it is not a competitor of Gaussian, Inc. and that
 it will not use this program in any manner prohibited above.
 ---------------------------------------------------------------
  

 Cite this work as:
 Gaussian 03, Revision E.01,
 M. J. Frisch, G. W. Trucks, H. B. Schlegel, G. E. Scuseria, 
 M. A. Robb, J. R. Cheeseman, J. A. Montgomery, Jr., T. Vreven, 
 K. N. Kudin, J. C. Burant, J. M. Millam, S. S. Iyengar, J. Tomasi, 
 V. Barone, B. Mennucci, M. Cossi, G. Scalmani, N. Rega, 
 G. A. Petersson, H. Nakatsuji, M. Hada, M. Ehara, K. Toyota, 
 R. Fukuda, J. Hasegawa, M. Ishida, T. Nakajima, Y. Honda, O. Kitao, 
 H. Nakai, M. Klene, X. Li, J. E. Knox, H. P. Hratchian, J. B. Cross, 
 V. Bakken, C. Adamo, J. Jaramillo, R. Gomperts, R. E. Stratmann, 
 O. Yazyev, A. J. Austin, R. Cammi, C. Pomelli, J. W. Ochterski, 
 P. Y. Ayala, K. Morokuma, G. A. Voth, P. Salvador, J. J. Dannenberg, 
 V. G. Zakrzewski, S. Dapprich, A. D. Daniels, M. C. Strain, 
 O. Farkas, D. K. Malick, A. D. Rabuck, K. Raghavachari, 
 J. B. Foresman, J. V. Ortiz, Q. Cui, A. G. Baboul, S. Clifford, 
 J. Cioslowski, B. B. Stefanov, G. Liu, A. Liashenko, P. Piskorz, 
 I. Komaromi, R. L. Martin, D. J. Fox, T. Keith, M. A. Al-Laham, 
 C. Y. Peng, A. Nanayakkara, M. Challacombe, P. M. W. Gill, 
 B. Johnson, W. Chen, M. W. Wong, C. Gonzalez, and J. A. Pople, 
 Gaussian, Inc., Wallingford CT, 2004.
 
 ******************************************
 Gaussian 03:  AM64L-G03RevE.01 11-Sep-2007
                17-Jun-2011 
 ******************************************
 %NprocShared=4
 Will use up to    4 processors via shared memory.
 %mem=3750MB
 %chk=S9L-ne-d-01
 ----------------------------------------------------------------------
 # b3lyp/6-311+G(d) opt=(readfc,noeigentest,maxcycle=500) freq scfcyc=5
 00 optcyc=500 scf=xqc geom=allcheck guess=read
 ----------------------------------------------------------------------
 1/6=500,10=3,11=1,14=-1,18=20,26=3,29=7,38=1/1,3;
 2/9=110,40=1/2;
 3/5=4,6=6,7=11,11=2,16=1,25=1,30=1,74=-5/1,2,3;
 4/5=1/1;
 5/5=2,7=500,8=3,13=1,38=6/2,8;
 6/7=2,8=2,9=2,10=2,28=1/1;
 7//1,2,3,16;
 1/6=500,11=1,14=-1,18=20/3(3);
 2/9=110/2;
 6/7=2,8=2,9=2,10=2,19=2,28=1/1;
 99//99;
 2/9=110/2;
 3/5=4,6=6,7=11,11=2,16=1,25=1,30=1,74=-5/1,2,3;
 4/5=5,16=3/1;
 5/5=2,7=500,8=3,13=1,38=5/2,8;
 7//1,2,3,16;
 1/6=500,11=1,14=-1,18=20/3(-5);
 2/9=110/2;
 6/7=2,8=2,9=2,10=2,19=2,28=1/1;
 99/9=1/99;
 -----
 si9-c
 -----
 No Z-matrix found on checkpoint file.
 Cartesian coordinates read from the checkpoint file:
 S9L-ne-d-01.chk
 Charge =  1 Multiplicity = 2
  Si                                                1.316537000000      0.053414000000      1.308996000000
  Si                                                1.917897000000     -1.845968000000     -0.000016000000
  Si                                                1.529689000000      2.036506000000      0.000022000000
  Si                                                1.316542000000      0.053441000000     -1.308993000000
  Si                                               -1.130659000000      0.077954000000      2.006151000000
  Si                                               -0.449597000000     -1.504672000000     -0.000015000000
  Si                                               -0.849304000000      1.456564000000      0.000011000000
  Si                                               -1.130652000000      0.077994000000     -2.006149000000
  Si                                               -2.520452000000     -0.405233000000     -0.000007000000
 Recover connectivity data from disk.

 GradGradGradGradGradGradGradGradGradGradGradGradGradGradGradGradGradGrad
 Berny optimization.
 Initialization pass.
 No redundant coordinates on chk file, so ReadFC converted to ReadCartesianFC.
 Cartesian force constants read from checkpoint file:
 S9L-ne-d-01.chk
                           ----------------------------
                           !    Initial Parameters    !
                           ! (Angstroms and Degrees)  !
 --------------------------                            --------------------------
 ! Name  Definition              Value          Derivative Info.                !
 --------------------------------------------------------------------------------
 ! R1    R(1,2)                  2.3839         D2E/DX2 =    0.0404             !
 ! R2    R(1,3)                  2.3857         D2E/DX2 =    0.0421             !
 ! R3    R(1,4)                  2.618          D2E/DX2 =    0.0171             !
 ! R4    R(1,5)                  2.5447         D2E/DX2 =    0.0124             !
 ! R5    R(1,6)                  2.6945         D2E/DX2 =    0.0055             !
 ! R6    R(1,7)                  2.8936         D2E/DX2 =    0.0008             !
 ! R7    R(2,4)                  2.3839         D2E/DX2 =    0.0404             !
 ! R8    R(2,6)                  2.392          D2E/DX2 =    0.0383             !
 ! R9    R(3,4)                  2.3857         D2E/DX2 =    0.0421             !
 ! R10   R(3,7)                  2.4487         D2E/DX2 =    0.0417             !
 ! R11   R(4,6)                  2.6945         D2E/DX2 =    0.0055             !
 ! R12   R(4,7)                  2.8936         D2E/DX2 =    0.0008             !
 ! R13   R(4,8)                  2.5447         D2E/DX2 =    0.0124             !
 ! R14   R(5,6)                  2.6445         D2E/DX2 =   -0.0075             !
 ! R15   R(5,7)                  2.4504         D2E/DX2 =    0.012              !
 ! R16   R(5,9)                  2.4879         D2E/DX2 =    0.0085             !
 ! R17   R(6,8)                  2.6445         D2E/DX2 =   -0.0075             !
 ! R18   R(6,9)                  2.3446         D2E/DX2 =    0.0411             !
 ! R19   R(7,8)                  2.4504         D2E/DX2 =    0.012              !
 ! R20   R(7,9)                  2.5018         D2E/DX2 =    0.0188             !
 ! R21   R(8,9)                  2.4879         D2E/DX2 =    0.0085             !
 ! A1    A(2,1,3)              109.7845         D2E/DX2 =    0.0051             !
 ! A2    A(2,1,5)              113.6233         D2E/DX2 =    0.0024             !
 ! A3    A(2,1,7)              109.073          D2E/DX2 =    0.0027             !
 ! A4    A(3,1,5)              103.1927         D2E/DX2 =    0.0024             !
 ! A5    A(3,1,6)              105.8235         D2E/DX2 =    0.0029             !
 ! A6    A(4,1,5)              105.9005         D2E/DX2 =   -0.0004             !
 ! A7    A(6,1,7)               64.5346         D2E/DX2 =    0.0012             !
 ! A8    A(1,4,8)              105.9003         D2E/DX2 =   -0.0004             !
 ! A9    A(2,4,3)              109.7845         D2E/DX2 =    0.0051             !
 ! A10   A(2,4,7)              109.073          D2E/DX2 =    0.0027             !
 ! A11   A(2,4,8)              113.6232         D2E/DX2 =    0.0024             !
 ! A12   A(3,4,6)              105.8234         D2E/DX2 =    0.0029             !
 ! A13   A(3,4,8)              103.1926         D2E/DX2 =    0.0024             !
 ! A14   A(6,4,7)               64.5346         D2E/DX2 =    0.0012             !
 ! A15   A(1,5,9)              108.3265         D2E/DX2 =   -0.0022             !
 ! A16   A(6,5,7)               71.702          D2E/DX2 =   -0.0013             !
 ! A17   A(1,6,8)              101.0273         D2E/DX2 =    0.0011             !
 ! A18   A(1,6,9)              107.925          D2E/DX2 =    0.0016             !
 ! A19   A(2,6,5)              109.895          D2E/DX2 =    0.0011             !
 ! A20   A(2,6,8)              109.895          D2E/DX2 =    0.0011             !
 ! A21   A(2,6,9)              160.2389         D2E/DX2 =    0.0018             !
 ! A22   A(4,6,5)              101.0274         D2E/DX2 =    0.0011             !
[...]
 Vib (Bot) 12    0.702584D+00         -0.153301         -0.352990
 Vib (Bot) 13    0.687058D+00         -0.163007         -0.375337
 Vib (Bot) 14    0.638348D+00         -0.194942         -0.448871
 Vib (Bot) 15    0.625933D+00         -0.203472         -0.468512
 Vib (Bot) 16    0.597942D+00         -0.223341         -0.514262
 Vib (Bot) 17    0.560235D+00         -0.251630         -0.579400
 Vib (Bot) 18    0.519667D+00         -0.284275         -0.654566
 Vib (Bot) 19    0.508824D+00         -0.293433         -0.675653
 Vib (Bot) 20    0.425675D+00         -0.370922         -0.854079
 Vib (Bot) 21    0.393128D+00         -0.405466         -0.933620
 Vib (V=0)       0.101604D+05          4.006911          9.226254
 Vib (V=0)  1    0.269505D+01          0.430568          0.991418
 Vib (V=0)  2    0.259718D+01          0.414502          0.954427
 Vib (V=0)  3    0.258471D+01          0.412412          0.949614
 Vib (V=0)  4    0.205089D+01          0.311941          0.718272
 Vib (V=0)  5    0.179800D+01          0.254790          0.586675
 Vib (V=0)  6    0.170813D+01          0.232520          0.535397
 Vib (V=0)  7    0.169838D+01          0.230035          0.529675
 Vib (V=0)  8    0.162445D+01          0.210705          0.485167
 Vib (V=0)  9    0.159313D+01          0.202252          0.465703
 Vib (V=0) 10    0.149483D+01          0.174592          0.402012
 Vib (V=0) 11    0.138861D+01          0.142580          0.328302
 Vib (V=0) 12    0.136234D+01          0.134285          0.309202
 Vib (V=0) 13    0.134973D+01          0.130248          0.299908
 Vib (V=0) 14    0.131086D+01          0.117555          0.270681
 Vib (V=0) 15    0.130112D+01          0.114317          0.263225
 Vib (V=0) 16    0.127944D+01          0.107022          0.246426
 Vib (V=0) 17    0.125091D+01          0.097225          0.223870
 Vib (V=0) 18    0.122115D+01          0.086768          0.199791
 Vib (V=0) 19    0.121337D+01          0.083994          0.193404
 Vib (V=0) 20    0.115666D+01          0.063205          0.145534
 Vib (V=0) 21    0.113604D+01          0.055394          0.127550
 Electronic      0.200000D+01          0.301030          0.693147
 Translational   0.157043D+09          8.196019         18.872031
 Rotational      0.174451D+07          6.241673         14.371983
 ***** Axes restored to original set *****
 -------------------------------------------------------------------
 Center     Atomic                   Forces (Hartrees/Bohr)
 Number     Number              X              Y              Z
 -------------------------------------------------------------------
    1         14          -0.000029637   -0.000004011   -0.000006538
    2         14           0.000021226   -0.000003665    0.000014131
    3         14          -0.000021800   -0.000027922   -0.000003524
    4         14          -0.000017290    0.000006932   -0.000013225
    5         14           0.000020707   -0.000039201    0.000052123
    6         14           0.000053131   -0.000042816    0.000017473
    7         14           0.000014813    0.000029281   -0.000070712
    8         14           0.000027277    0.000049447    0.000008318
    9         14          -0.000068428    0.000031955    0.000001954
 -------------------------------------------------------------------
 Cartesian Forces:  Max     0.000070712 RMS     0.000032247

 GradGradGradGradGradGradGradGradGradGradGradGradGradGradGradGradGradGrad
 Berny optimization.
 Internal  Forces:  Max     0.000045448 RMS     0.000010056
 Search for a local minimum.
 Step number   1 out of a maximum of   2
 All quantities printed in internal units (Hartrees-Bohrs-Radians)
 Second derivative matrix not updated -- analytic derivatives used.
     Eigenvalues ---    0.00253   0.00531   0.00604   0.01053   0.01060
     Eigenvalues ---    0.01221   0.01281   0.01305   0.01873   0.02275
     Eigenvalues ---    0.02360   0.02487   0.02497   0.03552   0.03904
     Eigenvalues ---    0.04065   0.04503   0.05332   0.06122   0.06334
     Eigenvalues ---    0.063491000.000001000.000001000.000001000.00000
     Eigenvalues --- 1000.000001000.000001000.000001000.000001000.00000
     Eigenvalues --- 1000.000001000.000001000.000001000.000001000.00000
     Eigenvalues --- 1000.000001000.000001000.000001000.000001000.00000
     Eigenvalues --- 1000.000001000.000001000.000001000.000001000.00000
     Eigenvalues --- 1000.000001000.000001000.000001000.000001000.00000
     Eigenvalues --- 1000.000001000.000001000.000001000.000001000.00000
     Eigenvalues --- 1000.000001000.000001000.000001000.000001000.00000
     Eigenvalues --- 1000.000001000.000001000.000001000.000001000.00000
     Eigenvalues --- 1000.000001000.000001000.000001000.000001000.00000
     Eigenvalues --- 1000.000001000.000001000.000001000.000001000.00000
     Eigenvalues --- 1000.000001000.000001000.000001000.000001000.00000
     Eigenvalues --- 1000.000001000.000001000.000001000.000001000.00000
     Eigenvalues --- 1000.000001000.000001000.000001000.000001000.00000
     Eigenvalues --- 1000.000001000.000001000.000001000.000001000.00000
     Eigenvalues --- 1000.000001000.000001000.000001000.000001000.00000
 Angle between quadratic step and forces=  43.13 degrees.
 Linear search not attempted -- first point.
 Iteration  1 RMS(Cart)=  0.00045922 RMS(Int)=  0.00000048
 Iteration  2 RMS(Cart)=  0.00000021 RMS(Int)=  0.00000031
 Variable       Old X    -DE/DX   Delta X   Delta X   Delta X     New X
                                 (Linear)    (Quad)   (Total)
    R1        4.64775   0.00000   0.00000  -0.00106  -0.00106   4.64669
    R2        4.64709   0.00000   0.00000  -0.00048  -0.00048   4.64661
    R3        4.86009   0.00000   0.00000   0.00024   0.00024   4.86033
    R4        4.70616  -0.00001   0.00000  -0.00098  -0.00098   4.70517
    R5        5.06363  -0.00002   0.00000   0.00022   0.00022   5.06385
    R6        5.06286   0.00001   0.00000   0.00041   0.00041   5.06327
    R7        4.64614   0.00001   0.00000   0.00048   0.00048   4.64662
    R8        4.52094   0.00001   0.00000   0.00034   0.00034   4.52128
    R9        4.64626  -0.00002   0.00000   0.00043   0.00043   4.64669
   R10        4.52170  -0.00002   0.00000  -0.00041  -0.00041   4.52129
   R11        5.06357   0.00000   0.00000  -0.00034  -0.00034   5.06324
   R12        5.06428   0.00000   0.00000  -0.00041  -0.00041   5.06387
   R13        4.70601  -0.00002   0.00000  -0.00084  -0.00084   4.70518
   R14        4.88756   0.00000   0.00000  -0.00028  -0.00028   4.88728
   R15        4.88346   0.00004   0.00000   0.00306   0.00306   4.88652
   R16        4.81532   0.00002   0.00000   0.00017   0.00017   4.81549
   R17        4.88520   0.00002   0.00000   0.00133   0.00133   4.88653
   R18        4.65695   0.00005   0.00000   0.00160   0.00160   4.65855
   R19        4.88909  -0.00003   0.00000  -0.00183  -0.00183   4.88727
   R20        4.65890   0.00000   0.00000  -0.00033  -0.00033   4.65857
   R21        4.81471   0.00001   0.00000   0.00078   0.00078   4.81549
    A1        1.95983   0.00000   0.00000   0.00011   0.00011   1.95994
    A2        1.92618   0.00001   0.00000  -0.00013  -0.00013   1.92605
    A3        1.90869   0.00001   0.00000   0.00034   0.00034   1.90904
    A4        1.92543   0.00000   0.00000   0.00070   0.00070   1.92613
    A5        1.90869   0.00000   0.00000   0.00018   0.00018   1.90887
    A6        1.89360   0.00001   0.00000   0.00017   0.00017   1.89378
    A7        1.14649   0.00001   0.00000   0.00028   0.00028   1.14677
    A8        1.89377   0.00000   0.00000   0.00001   0.00001   1.89378
    A9        1.96061   0.00000   0.00000  -0.00068  -0.00068   1.95994
   A10        1.90873   0.00000   0.00000   0.00015   0.00015   1.90888
   A11        1.92523   0.00001   0.00000   0.00090   0.00090   1.92614
   A12        1.90894   0.00000   0.00000   0.00009   0.00009   1.90903
   A13        1.92638  -0.00001   0.00000  -0.00034  -0.00034   1.92604
   A14        1.14631   0.00000   0.00000   0.00046   0.00046   1.14677
   A15        1.86629   0.00000   0.00000  -0.00002  -0.00002   1.86627
   A16        1.19382   0.00000   0.00000   0.00000   0.00000   1.19382
   A17        1.79045  -0.00001   0.00000  -0.00053  -0.00053   1.78991
   A18        1.81071  -0.00001   0.00000  -0.00071  -0.00071   1.81000
   A19        1.90854   0.00000   0.00000  -0.00076  -0.00076   1.90778
   A20        1.90781   0.00000   0.00000   0.00027   0.00027   1.90808
   A21        2.76025  -0.00001   0.00000  -0.00075  -0.00075   2.75951
   A22        1.78976   0.00000   0.00000   0.00012   0.00012   1.78988
   A23        1.81054  -0.00001   0.00000  -0.00038  -0.00038   1.81016
   A24        1.86432  -0.00001   0.00000  -0.00013  -0.00013   1.86419
   A25        1.78968   0.00000   0.00000   0.00020   0.00020   1.78988
   A26        1.81042   0.00000   0.00000  -0.00027  -0.00027   1.81015
   A27        1.90863  -0.00001   0.00000  -0.00057  -0.00057   1.90806
   A28        1.90755   0.00000   0.00000   0.00023   0.00023   1.90778
   A29        2.75953   0.00000   0.00000  -0.00004  -0.00004   2.75949
   A30        1.79060  -0.00001   0.00000  -0.00069  -0.00069   1.78991
   A31        1.80985   0.00000   0.00000   0.00014   0.00014   1.80999
   A32        1.86438   0.00000   0.00000  -0.00018  -0.00018   1.86420
   A33        1.86632   0.00001   0.00000  -0.00005  -0.00005   1.86627
   A34        1.19337   0.00001   0.00000   0.00045   0.00045   1.19382
   A35        1.90480  -0.00001   0.00000  -0.00011  -0.00011   1.90469
   A36        1.26101   0.00000   0.00000   0.00021   0.00021   1.26123
    D1       -0.00110   0.00001   0.00000   0.00121   0.00121   0.00011
    D2       -1.08671  -0.00002   0.00000  -0.00156  -0.00156  -1.08827
    D3        1.08919  -0.00001   0.00000  -0.00102  -0.00102   1.08817
    D4        0.00125  -0.00001   0.00000  -0.00133  -0.00133  -0.00007
    D5       -0.01448  -0.00001   0.00000  -0.00057  -0.00057  -0.01505
    D6       -1.10276   0.00000   0.00000  -0.00022  -0.00022  -1.10299
    D7        0.59366  -0.00001   0.00000  -0.00063  -0.00063   0.59303
    D8       -0.49462   0.00000   0.00000  -0.00028  -0.00028  -0.49490
    D9        0.01457   0.00000   0.00000   0.00024   0.00024   0.01481
   D10        1.10193   0.00001   0.00000   0.00072   0.00072   1.10266
   D11       -0.59300   0.00000   0.00000   0.00008   0.00008  -0.59293
   D12        0.49436   0.00001   0.00000   0.00056   0.00056   0.49492
   D13        0.01490   0.00000   0.00000  -0.00008  -0.00008   0.01482
   D14        1.10288   0.00000   0.00000  -0.00022  -0.00022   1.10266
   D15       -0.59252   0.00000   0.00000  -0.00041  -0.00041  -0.59293
   D16        0.49546   0.00000   0.00000  -0.00054  -0.00054   0.49492
   D17       -0.01436  -0.00001   0.00000  -0.00069  -0.00069  -0.01505
   D18       -1.10271   0.00000   0.00000  -0.00027  -0.00027  -1.10298
   D19        0.59321   0.00000   0.00000  -0.00018  -0.00018   0.59303
   D20       -0.49515   0.00000   0.00000   0.00025   0.00025  -0.49490
   D21        0.00048  -0.00001   0.00000  -0.00057  -0.00057  -0.00010
   D22        1.08892  -0.00001   0.00000  -0.00077  -0.00077   1.08815
   D23       -1.08799   0.00000   0.00000  -0.00031  -0.00031  -1.08829
   D24        1.64766   0.00000   0.00000   0.00020   0.00020   1.64786
   D25        0.60357   0.00000   0.00000   0.00007   0.00007   0.60365
   D26       -0.41501   0.00001   0.00000   0.00036   0.00036  -0.41465
   D27       -1.64778   0.00001   0.00000   0.00005   0.00005  -1.64773
   D28       -0.60360   0.00000   0.00000   0.00004   0.00004  -0.60356
   D29        0.41467   0.00000   0.00000  -0.00008  -0.00008   0.41459
   D30       -0.00097   0.00001   0.00000   0.00099   0.00099   0.00001
   D31       -0.60393   0.00000   0.00000   0.00036   0.00036  -0.60357
   D32       -1.64857   0.00000   0.00000   0.00083   0.00083  -1.64774
   D33        0.41458   0.00000   0.00000   0.00000   0.00000   0.41459
   D34        0.51624   0.00000   0.00000   0.00041   0.00042   0.51665
   D35       -0.00179   0.00000   0.00000   0.00228   0.00228   0.00050
   D36       -0.51724   0.00000   0.00000   0.00050   0.00050  -0.51674
   D37        0.60391   0.00000   0.00000  -0.00027  -0.00027   0.60364
   D38        1.64819   0.00000   0.00000  -0.00035  -0.00035   1.64785
   D39       -0.41496   0.00000   0.00000   0.00030   0.00030  -0.41466
   D40       -0.51628   0.00000   0.00000  -0.00046  -0.00046  -0.51674
   D41        0.00262  -0.00001   0.00000  -0.00215  -0.00215   0.00048
   D42        0.51706   0.00000   0.00000  -0.00042  -0.00042   0.51664
   D43        0.00030   0.00000   0.00000  -0.00025  -0.00025   0.00005
         Item               Value     Threshold  Converged?
 Maximum Force            0.000045     0.000450     YES
 RMS     Force            0.000010     0.000300     YES
 Maximum Displacement     0.002160     0.001800     NO 
 RMS     Displacement     0.000459     0.001200     YES
 Predicted change in Energy=-2.635426D-07
 GradGradGradGradGradGradGradGradGradGradGradGradGradGradGradGradGradGrad

 1\1\GINC-NODE151\Freq\UB3LYP\6-311+G(d)\Si9(1+,2)\TAM\17-Jun-2011\0\\#
 N Geom=AllCheck Guess=Read SCRF=Check GenChk UB3LYP/6-311+G(d) Freq\\s
 i9-c\\1,2\Si,1.2524479837,0.10982692,1.2861187069\Si,1.8999441408,-1.8
 835522214,-0.0008349999\Si,1.5435426923,2.1855364175,0.0000293176\Si,1
 .2525259947,0.1101278612,-1.2857301371\Si,-1.1004191867,-0.095287646,2
 .0760468504\Si,-0.4613417121,-1.4991012079,-0.00007412\Si,-0.715270473
 6,1.3961294598,0.0010734433\Si,-1.0998662676,-0.0973699388,-2.07621531
 94\Si,-2.5715621716,-0.2263096443,-0.0004137419\\Version=AM64L-G03RevE
 .01\State=2-A\HF=-2605.2989427\S2=0.757272\S2-1=0.\S2A=0.750045\RMSD=5
 .576e-09\RMSF=3.225e-05\ZeroPoint=0.0119374\Thermal=0.0253231\Dipole=-
 0.065648,-0.0059419,-0.0010852\DipoleDeriv=-0.0441633,0.0220988,0.1390
 339,0.0223853,-0.2962124,0.0121063,0.0179904,0.0015961,-0.0406157,0.46
 56532,-0.2186165,-0.0000483,-0.3719534,0.5377542,0.0000706,-0.0001922,
 -0.0000415,0.2090107,0.3666277,0.1883012,-0.0000604,0.3416887,0.636995
 5,0.0002337,-0.0002038,0.0000278,0.2091778,-0.0442345,0.022344,-0.1389
 702,0.0220409,-0.2966377,-0.012227,-0.0176356,-0.00162,-0.0407952,0.11
 87685,0.0051756,-0.2672751,0.0047038,0.0608201,-0.0238018,-0.222505,-0
 .0190803,0.4877539,-0.4048326,0.0263674,-0.0006424,0.0034882,0.0658238
 ,0.000407,0.0004578,-0.0001751,-0.2858838,-0.3851402,-0.1060627,0.0009
 738,-0.0831857,0.0464213,0.0007122,-0.0000862,-0.0002347,-0.2859036,0.
 1185514,0.0049792,0.2669174,0.0056588,0.0610652,0.0228795,0.2220948,0.
 0198059,0.4876574,0.8087698,0.0554131,0.0000712,0.0551735,0.1839699,-0
 .0003804,0.0000798,-0.0002782,0.2595984\Polar=279.0494661,3.5628562,23
 8.9397749,-0.0091395,0.0411426,234.8540486\PG=C01 [X(Si9)]\NImag=0\\0.
 05861245,-0.00144519,0.07496466,0.00512525,0.00045427,0.07113149,-0.00
 579209,0.01074833,0.00722108,0.07949820,0.01034657,-0.02884039,-0.0104
 4965,-0.03663690,0.07553232,0.00069411,-0.02053293,-0.00573796,0.00003
 701,-0.00003029,0.01903800,-0.00289227,-0.00618048,0.00534526,0.002024
 32,0.00715866,0.00000640,0.06671693,-0.00579051,-0.03185228,0.01155775
 ,-0.00586849,-0.00531526,-0.00002085,0.03506575,0.08822505,-0.00286961
 ,0.02035943,-0.00574744,0.00003071,0.00000586,-0.00904487,-0.00004550,
 0.00004161,0.01908773,-0.00132271,0.00050155,-0.00322650,-0.00584713,0
 .01039451,-0.00069306,-0.00292083,-0.00576232,0.00286726,0.05861189,0.
 00046576,-0.00695535,-0.00027953,0.01079196,-0.02903962,0.02058547,-0.
 00617468,-0.03190388,-0.02043825,-0.00143219,0.07523006,0.00318103,0.0
 0025162,-0.03515442,-0.00729368,0.01048547,-0.00578792,-0.00532631,-0.
 01159005,-0.00580339,-0.00505321,-0.00041707,0.07120892,-0.02891231,-0
 .00222755,0.00869605,-0.00196146,0.00025970,0.00194433,-0.00186243,-0.
 00076123,0.00185722,0.00228202,0.00016140,0.00955388,0.04681386,-0.002
 24206,-0.00371818,0.00075489,-0.00019220,0.00105646,-0.00041825,-0.000
 29611,0.00102956,0.00073802,0.00012901,0.00048293,0.00086061,0.0029334
 0,0.01388338,0.00405923,0.00035895,-0.00599442,-0.00143774,-0.00092334
 ,-0.00260600,-0.00159366,0.00064137,-0.00258108,0.00633239,0.00056740,
 -0.00983244,-0.01650455,-0.00150725,0.08288668,-0.00546239,-0.00217413
 ,-0.00870679,-0.05836719,0.00551539,-0.00002745,-0.00279427,-0.0067112
 3,-0.00003113,-0.00544987,-0.00216531,0.00877326,-0.00106857,0.0044824
 9,0.00728714,0.11155799,-0.00968778,-0.00662442,-0.00049956,0.01664436
 ,0.00584374,0.00002790,-0.00228377,-0.01224244,0.00004023,-0.00977761,
 -0.00671035,0.00045677,0.00341860,-0.00640008,-0.00549286,-0.02622442,
 0.05525546,-0.00145417,-0.00490866,-0.00410568,-0.00001145,0.00002183,
 0.00282911,-0.00002237,-0.00002286,0.00417214,0.00149753,0.00490939,-0
 .00412400,0.00519734,-0.00727895,-0.01920914,0.00000961,-0.00003954,0.
 03466394,-0.00759672,0.00206455,-0.00870879,-0.00462577,0.00803818,-0.
 00000786,-0.05250488,-0.01580813,0.00004311,-0.00749840,0.00202031,0.0
 0865652,0.00011242,-0.00333113,0.00633851,-0.00252548,0.00093712,-0.00
 000636,0.10062916,0.00958906,-0.00461674,-0.00105739,0.00363203,-0.010
 41604,-0.00000390,-0.02691400,0.00012650,0.00002177,0.00956518,-0.0045
 6488,0.00104306,-0.00227135,-0.00765038,0.00684171,0.00108227,-0.01393
 966,-0.00002166,0.03411220,0.06586155,-0.00235117,0.00458334,-0.004143
 98,0.00000592,-0.00001567,0.00417732,0.00005713,0.00005866,0.00282361,
 0.00228377,-0.00457984,-0.00409738,0.00392635,0.00814470,-0.01938149,0
 .00004995,-0.00005967,0.00171856,-0.00006294,-0.00016677,0.03464456,0.
 00228361,0.00014410,-0.00954634,-0.00196290,0.00023782,-0.00196054,-0.
 00186282,-0.00076685,-0.00184602,-0.02893076,-0.00223283,-0.00869408,-
 0.00686692,-0.00049306,0.00593196,-0.00106300,0.00340522,-0.00526834,0
 .00012678,-0.00223760,-0.00382991,0.04685133,0.00018735,0.00046984,-0.
 00081906,-0.00021803,0.00112066,0.00040727,-0.00033374,0.00095380,-0.0
 0075491,-0.00220892,-0.00371831,-0.00077008,-0.00057427,-0.00078219,0.
 00048372,0.00445412,-0.00640678,0.00731694,-0.00329286,-0.00753032,-0.
 00800851,0.00289738,0.01382192,-0.00631653,-0.00054510,-0.00984260,0.0
 0145981,0.00092688,-0.00255882,0.00158592,-0.00066873,-0.00258596,-0.0
 0407917,-0.00035698,-0.00602124,-0.00593215,-0.00053821,-0.00819790,-0
 .00739967,0.00558854,-0.01934671,-0.00620204,-0.00664066,-0.01914053,0
 .01644712,0.00136077,0.08279341,-0.00891758,-0.00143117,0.00380078,-0.
 00296598,-0.00531393,0.00000705,-0.00390374,0.00640301,-0.00000604,-0.
 00892420,-0.00143443,-0.00379741,-0.00853661,-0.00099036,-0.01041328,-
 0.03482723,0.02356828,0.00005820,-0.02611710,-0.02655779,-0.00007909,-
 0.00857532,-0.00091103,0.01043672,0.10276774,-0.00142319,0.00717287,0.
 00033829,0.00109894,-0.00994187,-0.00001441,-0.00004164,-0.00902105,-0
 .00001377,-0.00140921,0.00717939,-0.00032033,-0.00093870,0.00209849,-0
 .00096970,0.02174081,-0.00877547,0.00002351,-0.02474023,-0.01727004,0.
 00004376,-0.00095419,0.00207140,0.00087349,0.00666741,0.02648628,-0.00
 006814,-0.00002093,-0.00040499,-0.00001166,-0.00002110,-0.00030886,-0.
 00000688,0.00000310,-0.00032074,0.00007099,0.00000941,-0.00038812,-0.0
 0873846,-0.00075555,-0.01508422,0.00004507,-0.00002181,0.00340177,-0.0
 0005016,-0.00001616,0.00339933,0.00876615,0.00078387,-0.01509965,-0.00
 000691,0.00003916,0.02480548\\0.00002964,0.00000401,0.00000654,-0.0000
 2123,0.00000366,-0.00001413,0.00002180,0.00002792,0.00000352,0.0000172
 9,-0.00000693,0.00001322,-0.00002071,0.00003920,-0.00005212,-0.0000531
 3,0.00004282,-0.00001747,-0.00001481,-0.00002928,0.00007071,-0.0000272
 8,-0.00004945,-0.00000832,0.00006843,-0.00003195,-0.00000195\\\@


 THE FIRST MORNING OF CREATION WROTE WHAT THE LAST DAWN OF
 RECKONING SHALL READ. -- OMAR KHAYYAM
 Job cpu time:  0 days  2 hours  8 minutes 23.8 seconds.
 File lengths (MBytes):  RWF=    275 Int=      0 D2E=      0 Chk=     11 Scr=      1
 Normal termination of Gaussian 03 at Fri Jun 17 19:06:10 2011.
