#INFO: **** input file is /home/ltkoanh/Al_B2LYP_6311_Gd_Cluster/Cluster/Al17-neutral-doublet/input.py ****
import numpy
from pyscf import gto, scf, dft, mp, cc
from pyscf.mp import uobmp2_mom_conv, dfuobmp2_mom_conv, uhf_mom
from pyscf.mp import  mp2, ump2
from pyscf.tools import molden
import os
from functools import reduce


mol = gto.Mole()
geom = os.environ.get('geom_txt')
mol.atom = geom
mol.basis = os.environ.get('basis', 'cc-pvdz')
mol.unit = 'A'
mol.charge = int(os.environ.get('charge', 0))
mol.spin = int(os.environ.get('spin', 0))
mol.verbose = 4
mol.build()

#################### Ground state using density fitting
### Hartree-Fock
a  = scf.UHF(mol).density_fit()
a.kernel()

### Ground state OBMP2 calculation
ob = dfuobmp2_mom_conv.DFUOBMP2(a)
ob.second_order = True
ob.thresh = 10e-6
ob.css = 1
ob.cos = 1
e_obmp2g = ob.kernel()

### Ground state O2BMP2 calculation
ob = dfuobmp2_mom_conv.DFUOBMP2(a)
ob.second_order = True
ob.thresh = 10e-6
ob.css = 0                             
ob.cos = 1.2                             
e_o2bmp2g = ob.kernel()  

#################### Ground state NOT using density fitting
### Hartree-Fock
a  = scf.UHF(mol)
a.kernel()

### Ground state OBMP2 calculation
ob = uobmp2_mom_conv.UOBMP2(a)
ob.second_order = True
ob.thresh = 10e-6
ob.css = 1
ob.cos = 1
#e_obmp2g = ob.kernel()

### Ground state O2BMP2 calculation
ob = uobmp2_mom_conv.UOBMP2(a)
ob.second_order = True
ob.thresh = 10e-6
ob.css = 0
ob.cos = 1.2   ## the cos can be vary ...                        	 
#e_o2bmp2g = ob.kernel()


## Results from density-fitting approximate with non-using density fitting 
## check results between df and non-df with small molecules before running the important molecules
#INFO: ******************** input file end ********************


System: uname_result(system='Linux', node='comphys', release='3.10.0-1160.119.1.el7.x86_64', version='#1 SMP Tue Jun 4 14:43:51 UTC 2024', machine='x86_64', processor='x86_64')  Threads 8
Python 3.7.9 (default, Dec  4 2023, 13:00:18) 
[GCC 4.8.5 20150623 (Red Hat 4.8.5-44)]
numpy 1.21.6  scipy 1.7.3
Date: Tue May 27 22:01:52 2025
PySCF version 1.7.0
PySCF path  /share/installs/pyscf/pyscf
GIT HEAD      ref: refs/heads/ob-mp2
GIT ob-mp2 branch  f0fc63383ab6c719c0c91f5e07a6895c637b700d

[CONFIG] conf_file None
[INPUT] verbose = 4
[INPUT] num. atoms = 17
[INPUT] num. electrons = 221
[INPUT] charge = 0
[INPUT] spin (= nelec alpha-beta = 2S) = 1
[INPUT] symmetry False subgroup None
[INPUT] Mole.unit = A
[INPUT]  1 Al     1.401968000000   2.295645000000   0.000000000000 AA    2.649335555404   4.338140329227   0.000000000000 Bohr
[INPUT]  2 Al     2.181110000000   0.000000000000   1.560551000000 AA    4.121700547550   0.000000000000   2.949013993416 Bohr
[INPUT]  3 Al    -1.401968000000   2.295645000000   0.000000000000 AA   -2.649335555404   4.338140329227   0.000000000000 Bohr
[INPUT]  4 Al     1.401968000000  -2.295645000000   0.000000000000 AA    2.649335555404  -4.338140329227   0.000000000000 Bohr
[INPUT]  5 Al     0.000000000000  -1.430378000000   2.263097000000 AA    0.000000000000  -2.703022674603   4.276633523325 Bohr
[INPUT]  6 Al     0.000000000000   1.430378000000  -2.263097000000 AA    0.000000000000   2.703022674603  -4.276633523325 Bohr
[INPUT]  7 Al     0.000000000000   1.430378000000   2.263097000000 AA    0.000000000000   2.703022674603   4.276633523325 Bohr
[INPUT]  8 Al     2.181110000000   0.000000000000  -1.560551000000 AA    4.121700547550   0.000000000000  -2.949013993416 Bohr
[INPUT]  9 Al    -2.181110000000   0.000000000000  -1.560551000000 AA   -4.121700547550   0.000000000000  -2.949013993416 Bohr
[INPUT] 10 Al    -1.401968000000  -2.295645000000   0.000000000000 AA   -2.649335555404  -4.338140329227   0.000000000000 Bohr
[INPUT] 11 Al     0.000000000000  -1.430378000000  -2.263097000000 AA    0.000000000000  -2.703022674603  -4.276633523325 Bohr
[INPUT] 12 Al    -2.181110000000   0.000000000000   1.560551000000 AA   -4.121700547550   0.000000000000   2.949013993416 Bohr
[INPUT] 13 Al     4.096389000000   1.321367000000   0.000000000000 AA    7.741053309681   2.497021740038   0.000000000000 Bohr
[INPUT] 14 Al    -4.096389000000  -1.321367000000   0.000000000000 AA   -7.741053309681  -2.497021740038   0.000000000000 Bohr
[INPUT] 15 Al     4.096389000000  -1.321367000000   0.000000000000 AA    7.741053309681  -2.497021740038   0.000000000000 Bohr
[INPUT] 16 Al     0.000000000000   0.000000000000   0.000000000000 AA    0.000000000000   0.000000000000   0.000000000000 Bohr
[INPUT] 17 Al    -4.096389000000   1.321367000000   0.000000000000 AA   -7.741053309681   2.497021740038   0.000000000000 Bohr

nuclear repulsion = 3204.65385227431
number of shells = 85
number of NR pGTOs = 918
number of NR cGTOs = 153
basis = sto-6g
ecp = {}
CPU time:         1.50


******** <class 'pyscf.df.df_jk.density_fit.<locals>.DFHF'> ********
method = DFHF-UHF
initial guess = minao
damping factor = 0
level_shift factor = 0
DIIS = <class 'pyscf.scf.diis.CDIIS'>
diis_start_cycle = 1
diis_space = 8
SCF conv_tol = 1e-09
SCF conv_tol_grad = None
SCF max_cycles = 50
direct_scf = True
direct_scf_tol = 1e-13
chkfile to save SCF result = /home/ltkoanh/Al_B2LYP_6311_Gd_Cluster/Cluster/Al17-neutral-doublet/tmphljxc9vq
max_memory 4000 MB (current use 60 MB)
number electrons alpha = 111  beta = 110
Set gradient conv threshold to 3.16228e-05
******** <class 'pyscf.df.df.DF'> ********
auxbasis = None
max_memory = 4000
_cderi_to_save = /home/ltkoanh/Al_B2LYP_6311_Gd_Cluster/Cluster/Al17-neutral-doublet/tmpwqqywwt_
Even tempered Gaussians are generated as DF auxbasis for  Al
init E= -4099.57897503784
  alpha nocc = 111  HOMO = -0.293830345474692  LUMO = -0.249370557923272
  beta  nocc = 110  HOMO = -0.310956855615743  LUMO = -0.293830345474692

WARN: system HOMO -0.293830345474692 >= system LUMO -0.293830345474692

cycle= 1 E= -4095.39971417217  delta_E= 4.18  |g|= 0.425  |ddm|= 4.76
  alpha nocc = 111  HOMO = 0.111017318882734  LUMO = 0.227295336085139
  beta  nocc = 110  HOMO = 0.114078733213934  LUMO = 0.201149950673467
cycle= 2 E= -4095.44500613407  delta_E= -0.0453  |g|= 0.397  |ddm|= 1.59
  alpha nocc = 111  HOMO = 0.0253672849345461  LUMO = 0.22222481232257
  beta  nocc = 110  HOMO = 0.0413057764736227  LUMO = 0.183198280176249
cycle= 3 E= -4095.58878733511  delta_E= -0.144  |g|= 0.0443  |ddm|= 0.722
  alpha nocc = 111  HOMO = 0.0132848091346092  LUMO = 0.219665878551686
  beta  nocc = 110  HOMO = 0.030695564696928  LUMO = 0.181672837108599
cycle= 4 E= -4095.59433015463  delta_E= -0.00554  |g|= 0.022  |ddm|= 0.205
  alpha nocc = 111  HOMO = 0.00938592515961437  LUMO = 0.21839986603789
  beta  nocc = 110  HOMO = 0.0293440777379349  LUMO = 0.183927449399553
cycle= 5 E= -4095.59586045931  delta_E= -0.00153  |g|= 0.0103  |ddm|= 0.11
  alpha nocc = 111  HOMO = 0.00906538242762516  LUMO = 0.219264394234229
  beta  nocc = 110  HOMO = 0.0292205644307211  LUMO = 0.185690288292912
cycle= 6 E= -4095.59636064646  delta_E= -0.0005  |g|= 0.00495  |ddm|= 0.0736
  alpha nocc = 111  HOMO = 0.00910245328771853  LUMO = 0.219031748481276
  beta  nocc = 110  HOMO = 0.0293807536810625  LUMO = 0.1871335466979
cycle= 7 E= -4095.59656845967  delta_E= -0.000208  |g|= 0.00239  |ddm|= 0.06
  alpha nocc = 111  HOMO = 0.0090308893960291  LUMO = 0.219102343511691
  beta  nocc = 110  HOMO = 0.0293471607180322  LUMO = 0.187450178240328
cycle= 8 E= -4095.59661639122  delta_E= -4.79e-05  |g|= 0.00179  |ddm|= 0.024
  alpha nocc = 111  HOMO = 0.00896042278089226  LUMO = 0.219011532472401
  beta  nocc = 110  HOMO = 0.0293448308479814  LUMO = 0.187532935522983
cycle= 9 E= -4095.59665149386  delta_E= -3.51e-05  |g|= 0.00138  |ddm|= 0.0224
  alpha nocc = 111  HOMO = 0.00903635535819622  LUMO = 0.219142656738925
  beta  nocc = 110  HOMO = 0.0294905802217952  LUMO = 0.187529460628503
cycle= 10 E= -4095.59669446309  delta_E= -4.3e-05  |g|= 0.000672  |ddm|= 0.0423
  alpha nocc = 111  HOMO = 0.00906839895419781  LUMO = 0.219164408357442
  beta  nocc = 110  HOMO = 0.0295167011885337  LUMO = 0.187444983154252
cycle= 11 E= -4095.59670471189  delta_E= -1.02e-05  |g|= 0.000323  |ddm|= 0.0239
  alpha nocc = 111  HOMO = 0.00912146162646816  LUMO = 0.219226564967194
  beta  nocc = 110  HOMO = 0.0295739856608379  LUMO = 0.187400201361454
cycle= 12 E= -4095.59670600119  delta_E= -1.29e-06  |g|= 0.000188  |ddm|= 0.00685
  alpha nocc = 111  HOMO = 0.0091133771022624  LUMO = 0.219219698570845
  beta  nocc = 110  HOMO = 0.0295754036431466  LUMO = 0.187368843238303
cycle= 13 E= -4095.59670638227  delta_E= -3.81e-07  |g|= 8.89e-05  |ddm|= 0.00409
  alpha nocc = 111  HOMO = 0.00912719755818761  LUMO = 0.219233260751041
  beta  nocc = 110  HOMO = 0.0295796860131328  LUMO = 0.187392085786177
cycle= 14 E= -4095.59670646579  delta_E= -8.35e-08  |g|= 5.32e-05  |ddm|= 0.00147
  alpha nocc = 111  HOMO = 0.00912283759721685  LUMO = 0.219230607637384
  beta  nocc = 110  HOMO = 0.0295842135601185  LUMO = 0.187385032798989
cycle= 15 E= -4095.59670648605  delta_E= -2.03e-08  |g|= 4.12e-05  |ddm|= 0.000522
  alpha nocc = 111  HOMO = 0.00912916028231825  LUMO = 0.219231304726767
  beta  nocc = 110  HOMO = 0.0295843175013143  LUMO = 0.18738501391016
cycle= 16 E= -4095.59670650237  delta_E= -1.63e-08  |g|= 3.14e-05  |ddm|= 0.000486
  alpha nocc = 111  HOMO = 0.00913133465808953  LUMO = 0.219227923858049
  beta  nocc = 110  HOMO = 0.0295872231684695  LUMO = 0.187386591867425
cycle= 17 E= -4095.59670651843  delta_E= -1.61e-08  |g|= 2.28e-05  |ddm|= 0.000654
  alpha nocc = 111  HOMO = 0.00913458907512118  LUMO = 0.219227895400254
  beta  nocc = 110  HOMO = 0.0295913482985695  LUMO = 0.187388562308783
cycle= 18 E= -4095.59670652742  delta_E= -8.99e-09  |g|= 1.78e-05  |ddm|= 0.000492
  alpha nocc = 111  HOMO = 0.00913603317232834  LUMO = 0.219227437486296
  beta  nocc = 110  HOMO = 0.0295949802516707  LUMO = 0.187390899373767
cycle= 19 E= -4095.59670653233  delta_E= -4.91e-09  |g|= 1.61e-05  |ddm|= 0.000367
  alpha nocc = 111  HOMO = 0.00913692758207054  LUMO = 0.219227547603001
  beta  nocc = 110  HOMO = 0.0295978911795438  LUMO = 0.187392445384587
cycle= 20 E= -4095.59670653501  delta_E= -2.68e-09  |g|= 1.12e-05  |ddm|= 0.000256
  alpha nocc = 111  HOMO = 0.00913940900965271  LUMO = 0.219230207809375
  beta  nocc = 110  HOMO = 0.0296028615962469  LUMO = 0.187395553423759
cycle= 21 E= -4095.59670653732  delta_E= -2.31e-09  |g|= 6.32e-06  |ddm|= 0.00035
  alpha nocc = 111  HOMO = 0.00913971655071683  LUMO = 0.219230869933606
  beta  nocc = 110  HOMO = 0.0296051126921439  LUMO = 0.187396336018878
cycle= 22 E= -4095.59670653793  delta_E= -6.1e-10  |g|= 3.96e-06  |ddm|= 0.000183
  alpha nocc = 111  HOMO = 0.0091402921111685  LUMO = 0.21923156206489
  beta  nocc = 110  HOMO = 0.0296056733035498  LUMO = 0.187396635128318
Extra cycle  E= -4095.59670653798  delta_E= -5e-11  |g|= 3.88e-06  |ddm|= 1.85e-05
converged SCF energy = -4095.59670653798  <S^2> = 0.84235856  2S+1 = 2.0903192
shift = 0
thresh = 1e-05 
eri1 (1921, 11781)
eri1 (1921, 11781)
    CPU time for making amplitude: integral transform      2.54 sec, wall time      0.24 sec
shape (1921, 6426)
1st memory: 1227.6 MiB
eri1 (1921, 11781)
eri1 (1921, 11781)
2nd memory: 861.5 MiB

========================
iter = 0  energy = -4096.700768 energy diff = 4096.700768
multiplicity <S^2> : Reference = 0.84235856 Response = 0.84236789 Projector = 0.84237723
eri1 (1921, 11781)
eri1 (1921, 11781)
    CPU time for making amplitude: integral transform      2.63 sec, wall time      0.25 sec
shape (1921, 6426)
1st memory: 1226.7 MiB
eri1 (1921, 11781)
eri1 (1921, 11781)
2nd memory: 867.9 MiB

========================
iter = 1  energy = -4096.707203 energy diff = 0.006435
multiplicity <S^2> : Reference = 0.79745726 Response = 0.79745365 Projector = 0.79745005
eri1 (1921, 11781)
eri1 (1921, 11781)
    CPU time for making amplitude: integral transform      2.44 sec, wall time      0.23 sec
shape (1921, 6426)
1st memory: 1226.6 MiB
eri1 (1921, 11781)
eri1 (1921, 11781)
2nd memory: 861.3 MiB

========================
iter = 2  energy = -4096.717885 energy diff = 0.010682
multiplicity <S^2> : Reference = 0.78379799 Response = 0.78380314 Projector = 0.78380828
eri1 (1921, 11781)
eri1 (1921, 11781)
    CPU time for making amplitude: integral transform      2.39 sec, wall time      0.22 sec
shape (1921, 6426)
1st memory: 1228.3 MiB
eri1 (1921, 11781)
eri1 (1921, 11781)
2nd memory: 867.8 MiB

========================
iter = 3  energy = -4096.723595 energy diff = 0.005710
multiplicity <S^2> : Reference = 0.77507581 Response = 0.77506406 Projector = 0.77505231
eri1 (1921, 11781)
eri1 (1921, 11781)
    CPU time for making amplitude: integral transform      2.50 sec, wall time      0.24 sec
shape (1921, 6426)
1st memory: 1229.9 MiB
eri1 (1921, 11781)
eri1 (1921, 11781)
2nd memory: 867.8 MiB

========================
iter = 4  energy = -4096.726850 energy diff = 0.003255
multiplicity <S^2> : Reference = 0.77032769 Response = 0.77033212 Projector = 0.77033655
eri1 (1921, 11781)
eri1 (1921, 11781)
    CPU time for making amplitude: integral transform      2.50 sec, wall time      0.24 sec
shape (1921, 6426)
1st memory: 1231.5 MiB
eri1 (1921, 11781)
eri1 (1921, 11781)
2nd memory: 866.2 MiB

========================
iter = 5  energy = -4096.728411 energy diff = 0.001561
multiplicity <S^2> : Reference = 0.769314 Response = 0.76931391 Projector = 0.76931382
eri1 (1921, 11781)
eri1 (1921, 11781)
    CPU time for making amplitude: integral transform      2.52 sec, wall time      0.24 sec
shape (1921, 6426)
1st memory: 1229.9 MiB
eri1 (1921, 11781)
eri1 (1921, 11781)
2nd memory: 861.4 MiB

========================
iter = 6  energy = -4096.729440 energy diff = 0.001029
multiplicity <S^2> : Reference = 0.76981786 Response = 0.76982586 Projector = 0.76983386
eri1 (1921, 11781)
eri1 (1921, 11781)
    CPU time for making amplitude: integral transform      2.64 sec, wall time      0.26 sec
shape (1921, 6426)
1st memory: 1233.1 MiB
eri1 (1921, 11781)
eri1 (1921, 11781)
2nd memory: 871.0 MiB

========================
iter = 7  energy = -4096.729791 energy diff = 0.000351
multiplicity <S^2> : Reference = 0.77089705 Response = 0.77090843 Projector = 0.77091981
eri1 (1921, 11781)
eri1 (1921, 11781)
    CPU time for making amplitude: integral transform      2.49 sec, wall time      0.24 sec
shape (1921, 6426)
1st memory: 1233.1 MiB
eri1 (1921, 11781)
eri1 (1921, 11781)
2nd memory: 869.4 MiB

========================
iter = 8  energy = -4096.729882 energy diff = 0.000090
multiplicity <S^2> : Reference = 0.77185093 Response = 0.77186577 Projector = 0.7718806
eri1 (1921, 11781)
eri1 (1921, 11781)
    CPU time for making amplitude: integral transform      2.46 sec, wall time      0.23 sec
shape (1921, 6426)
1st memory: 1229.9 MiB
eri1 (1921, 11781)
eri1 (1921, 11781)
2nd memory: 867.8 MiB

========================
iter = 9  energy = -4096.729883 energy diff = 0.000002
multiplicity <S^2> : Reference = 0.77219218 Response = 0.77220585 Projector = 0.77221952

UOB-MP2 has converged
UOB-MP2 energy =  -4096.729883237341
shift = 0
thresh = 1e-05 
eri1 (1921, 11781)
eri1 (1921, 11781)
    CPU time for making amplitude: integral transform      2.49 sec, wall time      0.24 sec
shape (1921, 6426)
1st memory: 1221.8 MiB
eri1 (1921, 11781)
eri1 (1921, 11781)
2nd memory: 856.7 MiB

========================
iter = 0  energy = -4096.321154 energy diff = 4096.321154
multiplicity <S^2> : Reference = 0.84235856 Response = 0.84236789 Projector = 0.84237723
eri1 (1921, 11781)
eri1 (1921, 11781)
    CPU time for making amplitude: integral transform      2.49 sec, wall time      0.24 sec
shape (1921, 6426)
1st memory: 1225.1 MiB
eri1 (1921, 11781)
eri1 (1921, 11781)
2nd memory: 861.5 MiB

========================
iter = 1  energy = -4096.360016 energy diff = 0.038862
multiplicity <S^2> : Reference = 0.80261541 Response = 0.80256861 Projector = 0.8025218
eri1 (1921, 11781)
eri1 (1921, 11781)
    CPU time for making amplitude: integral transform      2.48 sec, wall time      0.23 sec
shape (1921, 6426)
1st memory: 1228.3 MiB
eri1 (1921, 11781)
eri1 (1921, 11781)
2nd memory: 859.8 MiB

========================
iter = 2  energy = -4096.365226 energy diff = 0.005210
multiplicity <S^2> : Reference = 0.78836957 Response = 0.78837288 Projector = 0.78837619
eri1 (1921, 11781)
eri1 (1921, 11781)
    CPU time for making amplitude: integral transform      2.56 sec, wall time      0.25 sec
shape (1921, 6426)
1st memory: 1226.7 MiB
eri1 (1921, 11781)
eri1 (1921, 11781)
2nd memory: 864.6 MiB

========================
iter = 3  energy = -4096.367480 energy diff = 0.002254
multiplicity <S^2> : Reference = 0.77965013 Response = 0.77966691 Projector = 0.77968369
eri1 (1921, 11781)
eri1 (1921, 11781)
    CPU time for making amplitude: integral transform      2.95 sec, wall time      0.29 sec
shape (1921, 6426)
1st memory: 1229.9 MiB
eri1 (1921, 11781)
eri1 (1921, 11781)
2nd memory: 866.1 MiB

========================
iter = 4  energy = -4096.369091 energy diff = 0.001611
multiplicity <S^2> : Reference = 0.77375309 Response = 0.77375989 Projector = 0.77376669
eri1 (1921, 11781)
eri1 (1921, 11781)
    CPU time for making amplitude: integral transform      2.42 sec, wall time      0.23 sec
shape (1921, 6426)
1st memory: 1231.5 MiB
eri1 (1921, 11781)
eri1 (1921, 11781)
2nd memory: 864.6 MiB

========================
iter = 5  energy = -4096.369799 energy diff = 0.000708
multiplicity <S^2> : Reference = 0.77221428 Response = 0.77221713 Projector = 0.77221998
eri1 (1921, 11781)
eri1 (1921, 11781)
    CPU time for making amplitude: integral transform      2.50 sec, wall time      0.24 sec
shape (1921, 6426)
1st memory: 1229.9 MiB
eri1 (1921, 11781)
eri1 (1921, 11781)
2nd memory: 867.7 MiB

========================
iter = 6  energy = -4096.370305 energy diff = 0.000506
multiplicity <S^2> : Reference = 0.77224771 Response = 0.77224771 Projector = 0.77224771
eri1 (1921, 11781)
eri1 (1921, 11781)
    CPU time for making amplitude: integral transform      2.51 sec, wall time      0.24 sec
shape (1921, 6426)
1st memory: 1233.1 MiB
eri1 (1921, 11781)
eri1 (1921, 11781)
2nd memory: 870.9 MiB

========================
iter = 7  energy = -4096.370510 energy diff = 0.000205
multiplicity <S^2> : Reference = 0.77333497 Response = 0.77334354 Projector = 0.7733521
eri1 (1921, 11781)
eri1 (1921, 11781)
    CPU time for making amplitude: integral transform      2.43 sec, wall time      0.23 sec
shape (1921, 6426)
1st memory: 1233.1 MiB
eri1 (1921, 11781)
eri1 (1921, 11781)
2nd memory: 869.3 MiB

========================
iter = 8  energy = -4096.370554 energy diff = 0.000044
multiplicity <S^2> : Reference = 0.77422193 Response = 0.77421693 Projector = 0.77421193
eri1 (1921, 11781)
eri1 (1921, 11781)
    CPU time for making amplitude: integral transform      2.65 sec, wall time      0.26 sec
shape (1921, 6426)
1st memory: 1229.9 MiB
eri1 (1921, 11781)
eri1 (1921, 11781)
2nd memory: 867.7 MiB

========================
iter = 9  energy = -4096.370553 energy diff = 0.000001
multiplicity <S^2> : Reference = 0.77457377 Response = 0.77457711 Projector = 0.77458045

UOB-MP2 has converged
UOB-MP2 energy =  -4096.370553358101


******** <class 'pyscf.scf.uhf.UHF'> ********
method = UHF
initial guess = minao
damping factor = 0
level_shift factor = 0
DIIS = <class 'pyscf.scf.diis.CDIIS'>
diis_start_cycle = 1
diis_space = 8
SCF conv_tol = 1e-09
SCF conv_tol_grad = None
SCF max_cycles = 50
direct_scf = True
direct_scf_tol = 1e-13
chkfile to save SCF result = /home/ltkoanh/Al_B2LYP_6311_Gd_Cluster/Cluster/Al17-neutral-doublet/tmpa45b1vde
max_memory 4000 MB (current use 337 MB)
number electrons alpha = 111  beta = 110
Set gradient conv threshold to 3.16228e-05
init E= -4099.58191766474
  alpha nocc = 111  HOMO = -0.294067943354996  LUMO = -0.249589129203267
  beta  nocc = 110  HOMO = -0.311189627257603  LUMO = -0.294067943354996

WARN: system HOMO -0.294067943354996 >= system LUMO -0.294067943354996

cycle= 1 E= -4095.40612325303  delta_E= 4.18  |g|= 0.425  |ddm|= 4.76
  alpha nocc = 111  HOMO = 0.110970760851331  LUMO = 0.227101899373657
  beta  nocc = 110  HOMO = 0.114054210757567  LUMO = 0.200971929652233
cycle= 2 E= -4095.45134179235  delta_E= -0.0452  |g|= 0.398  |ddm|= 1.59
  alpha nocc = 111  HOMO = 0.0251417066720749  LUMO = 0.222103271792196
  beta  nocc = 110  HOMO = 0.0410903749006656  LUMO = 0.183000781069464
cycle= 3 E= -4095.59550726458  delta_E= -0.144  |g|= 0.0443  |ddm|= 0.723
  alpha nocc = 111  HOMO = 0.0130583020619039  LUMO = 0.219559942323751
  beta  nocc = 110  HOMO = 0.0304827939798362  LUMO = 0.181488382517898
cycle= 4 E= -4095.60105088246  delta_E= -0.00554  |g|= 0.022  |ddm|= 0.205
  alpha nocc = 111  HOMO = 0.00915160353986441  LUMO = 0.218284684181721
  beta  nocc = 110  HOMO = 0.0291323384631215  LUMO = 0.183742411747354
cycle= 5 E= -4095.60258003397  delta_E= -0.00153  |g|= 0.0103  |ddm|= 0.11
  alpha nocc = 111  HOMO = 0.00879364586191634  LUMO = 0.219151567405613
  beta  nocc = 110  HOMO = 0.0290151787730782  LUMO = 0.185506088002402
cycle= 6 E= -4095.60307845913  delta_E= -0.000498  |g|= 0.00495  |ddm|= 0.0735
  alpha nocc = 111  HOMO = 0.00883419181348818  LUMO = 0.218922832031539
  beta  nocc = 110  HOMO = 0.029186013320346  LUMO = 0.186953553236936
cycle= 7 E= -4095.60328482476  delta_E= -0.000206  |g|= 0.00238  |ddm|= 0.0598
  alpha nocc = 111  HOMO = 0.00880891192718511  LUMO = 0.218995188137893
  beta  nocc = 110  HOMO = 0.0291581396511542  LUMO = 0.187272873471665
cycle= 8 E= -4095.60333210424  delta_E= -4.73e-05  |g|= 0.00179  |ddm|= 0.0238
  alpha nocc = 111  HOMO = 0.00876946934492493  LUMO = 0.218907043963538
  beta  nocc = 110  HOMO = 0.0291623612125425  LUMO = 0.187358172973094
cycle= 9 E= -4095.60336660727  delta_E= -3.45e-05  |g|= 0.00137  |ddm|= 0.0222
  alpha nocc = 111  HOMO = 0.00895621325765637  LUMO = 0.219042963038084
  beta  nocc = 110  HOMO = 0.029322718220167  LUMO = 0.187361004966957
cycle= 10 E= -4095.60340911948  delta_E= -4.25e-05  |g|= 0.000675  |ddm|= 0.0419
  alpha nocc = 111  HOMO = 0.00897195516059339  LUMO = 0.219068739551894
  beta  nocc = 110  HOMO = 0.0293583836633827  LUMO = 0.187281169907834
cycle= 11 E= -4095.6034194118  delta_E= -1.03e-05  |g|= 0.000325  |ddm|= 0.0239
  alpha nocc = 111  HOMO = 0.00903772073269784  LUMO = 0.219132794609778
  beta  nocc = 110  HOMO = 0.0294198029296297  LUMO = 0.187239237420437
cycle= 12 E= -4095.60342070723  delta_E= -1.3e-06  |g|= 0.000189  |ddm|= 0.00687
  alpha nocc = 111  HOMO = 0.00901433878910114  LUMO = 0.219127633491582
  beta  nocc = 110  HOMO = 0.0294241474643454  LUMO = 0.187208804888064
cycle= 13 E= -4095.60342109003  delta_E= -3.83e-07  |g|= 9.15e-05  |ddm|= 0.00408
  alpha nocc = 111  HOMO = 0.00902095891766475  LUMO = 0.219142315479904
  beta  nocc = 110  HOMO = 0.0294302168011959  LUMO = 0.187232406138416
cycle= 14 E= -4095.60342117792  delta_E= -8.79e-08  |g|= 5.67e-05  |ddm|= 0.00147
  alpha nocc = 111  HOMO = 0.00902467612124008  LUMO = 0.219140067110357
  beta  nocc = 110  HOMO = 0.0294355774794897  LUMO = 0.187226014602753
cycle= 15 E= -4095.60342120142  delta_E= -2.35e-08  |g|= 4.5e-05  |ddm|= 0.000547
  alpha nocc = 111  HOMO = 0.00902806898977416  LUMO = 0.219141370413297
  beta  nocc = 110  HOMO = 0.029436586438143  LUMO = 0.187226368684828
cycle= 16 E= -4095.60342122184  delta_E= -2.04e-08  |g|= 3.51e-05  |ddm|= 0.000544
  alpha nocc = 111  HOMO = 0.00903449880375833  LUMO = 0.21913834761968
  beta  nocc = 110  HOMO = 0.0294410234642094  LUMO = 0.187228713847052
cycle= 17 E= -4095.60342124379  delta_E= -2.2e-08  |g|= 2.55e-05  |ddm|= 0.000791
  alpha nocc = 111  HOMO = 0.00904081591281167  LUMO = 0.21913874249175
  beta  nocc = 110  HOMO = 0.0294465497460201  LUMO = 0.187231465191329
cycle= 18 E= -4095.6034212561  delta_E= -1.23e-08  |g|= 1.96e-05  |ddm|= 0.000615
  alpha nocc = 111  HOMO = 0.00904408506433112  LUMO = 0.219138509076184
  beta  nocc = 110  HOMO = 0.0294509727697533  LUMO = 0.187234310741932
cycle= 19 E= -4095.60342126221  delta_E= -6.11e-09  |g|= 1.75e-05  |ddm|= 0.000431
  alpha nocc = 111  HOMO = 0.0090461614022059  LUMO = 0.21913869851548
  beta  nocc = 110  HOMO = 0.0294544743328497  LUMO = 0.187236202992313
cycle= 20 E= -4095.60342126535  delta_E= -3.14e-09  |g|= 1.14e-05  |ddm|= 0.000301
  alpha nocc = 111  HOMO = 0.00905096935911945  LUMO = 0.219141630610437
  beta  nocc = 110  HOMO = 0.0294596984568273  LUMO = 0.187239534706415
cycle= 21 E= -4095.60342126764  delta_E= -2.3e-09  |g|= 6.3e-06  |ddm|= 0.000358
  alpha nocc = 111  HOMO = 0.00905124560710177  LUMO = 0.219142271432052
  beta  nocc = 110  HOMO = 0.0294618157108174  LUMO = 0.187240260199185
cycle= 22 E= -4095.60342126819  delta_E= -5.44e-10  |g|= 3.74e-06  |ddm|= 0.00017
  alpha nocc = 111  HOMO = 0.00905208212497211  LUMO = 0.219142961045893
  beta  nocc = 110  HOMO = 0.0294623692260502  LUMO = 0.187240566524513
Extra cycle  E= -4095.60342126826  delta_E= -6.64e-11  |g|= 3.01e-06  |ddm|= 1.71e-05
converged SCF energy = -4095.60342126826  <S^2> = 0.84306551  2S+1 = 2.0909955
