#INFO: **** input file is /home/ltkoanh/Al_B2LYP_6311_Gd_Cluster/Cluster/Al10-neutral-singlet/input.py ****
import numpy
from pyscf import gto, scf, dft, mp, cc
from pyscf.mp import uobmp2_mom_conv, dfuobmp2_mom_conv, uhf_mom
from pyscf.mp import  mp2, ump2
from pyscf.tools import molden
import os
from functools import reduce


mol = gto.Mole()
geom = os.environ.get('geom_txt')
mol.atom = geom
mol.basis = os.environ.get('basis', 'cc-pvdz')
mol.unit = 'A'
mol.charge = int(os.environ.get('charge', 0))
mol.spin = int(os.environ.get('spin', 0))
mol.verbose = 4
mol.build()

#################### Ground state using density fitting
### Hartree-Fock
a  = scf.UHF(mol).density_fit()
a.kernel()

### Ground state OBMP2 calculation
ob = dfuobmp2_mom_conv.DFUOBMP2(a)
ob.second_order = True
ob.thresh = 10e-6
ob.css = 1
ob.cos = 1
e_obmp2g = ob.kernel()

### Ground state O2BMP2 calculation
ob = dfuobmp2_mom_conv.DFUOBMP2(a)
ob.second_order = True
ob.thresh = 10e-6
ob.css = 0                             
ob.cos = 1.2                             
e_o2bmp2g = ob.kernel()  

#################### Ground state NOT using density fitting
### Hartree-Fock
a  = scf.UHF(mol)
a.kernel()

### Ground state OBMP2 calculation
ob = uobmp2_mom_conv.UOBMP2(a)
ob.second_order = True
ob.thresh = 10e-6
ob.css = 1
ob.cos = 1
#e_obmp2g = ob.kernel()

### Ground state O2BMP2 calculation
ob = uobmp2_mom_conv.UOBMP2(a)
ob.second_order = True
ob.thresh = 10e-6
ob.css = 0
ob.cos = 1.2   ## the cos can be vary ...                        	 
#e_o2bmp2g = ob.kernel()


## Results from density-fitting approximate with non-using density fitting 
## check results between df and non-df with small molecules before running the important molecules
#INFO: ******************** input file end ********************


System: uname_result(system='Linux', node='comphys', release='3.10.0-1160.119.1.el7.x86_64', version='#1 SMP Tue Jun 4 14:43:51 UTC 2024', machine='x86_64', processor='x86_64')  Threads 8
Python 3.7.9 (default, Dec  4 2023, 13:00:18) 
[GCC 4.8.5 20150623 (Red Hat 4.8.5-44)]
numpy 1.21.6  scipy 1.7.3
Date: Tue May 27 17:02:54 2025
PySCF version 1.7.0
PySCF path  /share/installs/pyscf/pyscf
GIT HEAD      ref: refs/heads/ob-mp2
GIT ob-mp2 branch  f0fc63383ab6c719c0c91f5e07a6895c637b700d

[CONFIG] conf_file None
[INPUT] verbose = 4
[INPUT] num. atoms = 10
[INPUT] num. electrons = 130
[INPUT] charge = 0
[INPUT] spin (= nelec alpha-beta = 2S) = 0
[INPUT] symmetry False subgroup None
[INPUT] Mole.unit = A
[INPUT]  1 Al     2.075984000000  -2.104901000000  -0.000272000000 AA    3.923041198979  -3.977686409323  -0.000514005506 Bohr
[INPUT]  2 Al     1.712746000000   2.693139000000  -0.000206000000 AA    3.236620860944   5.089295125385  -0.000389283582 Bohr
[INPUT]  3 Al     2.875247000000   0.335901000000  -0.000371000000 AA    5.433429370477   0.634760894968  -0.000701088392 Bohr
[INPUT]  4 Al     0.671202000000  -0.048926000000  -1.445816000000 AA    1.268387954260  -0.092456740370  -2.732196266514 Bohr
[INPUT]  5 Al     0.671569000000  -0.048937000000   1.445640000000 AA    1.269081483748  -0.092477527358   2.731863674716 Bohr
[INPUT]  6 Al    -1.789748000000  -0.572125000000  -1.507959000000 AA   -3.382133551988  -1.081159559017  -2.849629517073 Bohr
[INPUT]  7 Al    -0.458894000000  -2.424454000000   0.000048000000 AA   -0.867183980206  -4.581554061606   0.000090706854 Bohr
[INPUT]  8 Al    -0.754460000000   1.834156000000   0.000112000000 AA   -1.425722771939   3.466052509728   0.000211649326 Bohr
[INPUT]  9 Al    -1.789364000000  -0.572154000000   1.508406000000 AA   -3.381407897156  -1.081214361074   2.850474224651 Bohr
[INPUT] 10 Al    -3.214282000000   0.908302000000   0.000418000000 AA   -6.074112667119   1.716442018395   0.000789905520 Bohr

nuclear repulsion = 1191.28046959356
number of shells = 50
number of NR pGTOs = 540
number of NR cGTOs = 90
basis = sto-6g
ecp = {}
CPU time:         1.39


******** <class 'pyscf.df.df_jk.density_fit.<locals>.DFHF'> ********
method = DFHF-UHF
initial guess = minao
damping factor = 0
level_shift factor = 0
DIIS = <class 'pyscf.scf.diis.CDIIS'>
diis_start_cycle = 1
diis_space = 8
SCF conv_tol = 1e-09
SCF conv_tol_grad = None
SCF max_cycles = 50
direct_scf = True
direct_scf_tol = 1e-13
chkfile to save SCF result = /home/ltkoanh/Al_B2LYP_6311_Gd_Cluster/Cluster/Al10-neutral-singlet/tmpjivx61ce
max_memory 4000 MB (current use 60 MB)
number electrons alpha = 65  beta = 65
Set gradient conv threshold to 3.16228e-05
******** <class 'pyscf.df.df.DF'> ********
auxbasis = None
max_memory = 4000
_cderi_to_save = /home/ltkoanh/Al_B2LYP_6311_Gd_Cluster/Cluster/Al10-neutral-singlet/tmp_4rp6b76
Even tempered Gaussians are generated as DF auxbasis for  Al
init E= -2407.52839763911
  alpha nocc = 65  HOMO = -0.578428070055225  LUMO = -0.509549770171774
  beta  nocc = 65  HOMO = -0.546434912971372  LUMO = -0.492099163800564
cycle= 1 E= -2408.54340721304  delta_E= -1.02  |g|= 0.653  |ddm|= 3.61
  alpha nocc = 65  HOMO = 0.179219297222679  LUMO = 0.275028772025134
  beta  nocc = 65  HOMO = 0.17961616084842  LUMO = 0.282104984835419
cycle= 2 E= -2408.64413610729  delta_E= -0.101  |g|= 0.655  |ddm|= 2.56
  alpha nocc = 65  HOMO = 0.0805494478567394  LUMO = 0.242316417444059
  beta  nocc = 65  HOMO = 0.0758293282186206  LUMO = 0.242076709354321
cycle= 3 E= -2409.02421891239  delta_E= -0.38  |g|= 0.123  |ddm|= 1.26
  alpha nocc = 65  HOMO = 0.0494722414378823  LUMO = 0.223940393959877
  beta  nocc = 65  HOMO = 0.0458767023561897  LUMO = 0.222843762656762
cycle= 4 E= -2409.0319650272  delta_E= -0.00775  |g|= 0.111  |ddm|= 0.436
  alpha nocc = 65  HOMO = 0.0453609579320395  LUMO = 0.226830963319643
  beta  nocc = 65  HOMO = 0.0420620671209801  LUMO = 0.225428018766349
cycle= 5 E= -2409.0455098191  delta_E= -0.0135  |g|= 0.0287  |ddm|= 0.228
  alpha nocc = 65  HOMO = 0.0429125296261917  LUMO = 0.228588281339331
  beta  nocc = 65  HOMO = 0.0402923595915187  LUMO = 0.22749457718176
cycle= 6 E= -2409.04761861503  delta_E= -0.00211  |g|= 0.0179  |ddm|= 0.107
  alpha nocc = 65  HOMO = 0.042796973536896  LUMO = 0.229745655964239
  beta  nocc = 65  HOMO = 0.0412664899020369  LUMO = 0.228954162153867
cycle= 7 E= -2409.04912679299  delta_E= -0.00151  |g|= 0.0148  |ddm|= 0.103
  alpha nocc = 65  HOMO = 0.0419991158060271  LUMO = 0.22986367986057
  beta  nocc = 65  HOMO = 0.0415576146034026  LUMO = 0.229541658595303
cycle= 8 E= -2409.05052866073  delta_E= -0.0014  |g|= 0.0127  |ddm|= 0.0998
  alpha nocc = 65  HOMO = 0.0418346876249677  LUMO = 0.229879924687914
  beta  nocc = 65  HOMO = 0.0415590572767181  LUMO = 0.229967337042458
cycle= 9 E= -2409.05105241152  delta_E= -0.000524  |g|= 0.0132  |ddm|= 0.0365
  alpha nocc = 65  HOMO = 0.0407290484737182  LUMO = 0.232081556123924
  beta  nocc = 65  HOMO = 0.0416027541433179  LUMO = 0.229097781317907
cycle= 10 E= -2409.04948944339  delta_E= 0.00156  |g|= 0.00884  |ddm|= 0.164
  alpha nocc = 65  HOMO = 0.0417127342304124  LUMO = 0.230648053055044
  beta  nocc = 65  HOMO = 0.0414163690723012  LUMO = 0.228912764771766
cycle= 11 E= -2409.04953723897  delta_E= -4.78e-05  |g|= 0.00581  |ddm|= 0.103
  alpha nocc = 65  HOMO = 0.0430710166150544  LUMO = 0.229260972029443
  beta  nocc = 65  HOMO = 0.0420018989340776  LUMO = 0.229047265872491
cycle= 12 E= -2409.04984250569  delta_E= -0.000305  |g|= 0.00406  |ddm|= 0.0801
  alpha nocc = 65  HOMO = 0.0418889087930075  LUMO = 0.230153416883249
  beta  nocc = 65  HOMO = 0.0420226995782374  LUMO = 0.229105675302794
cycle= 13 E= -2409.05000698123  delta_E= -0.000164  |g|= 0.0036  |ddm|= 0.0599
  alpha nocc = 65  HOMO = 0.0419196716034872  LUMO = 0.229743390251663
  beta  nocc = 65  HOMO = 0.0421087416207469  LUMO = 0.228756027750502
cycle= 14 E= -2409.05007985367  delta_E= -7.29e-05  |g|= 0.00294  |ddm|= 0.027
  alpha nocc = 65  HOMO = 0.0419532234926923  LUMO = 0.229703032743061
  beta  nocc = 65  HOMO = 0.0422041126464056  LUMO = 0.228730372802322
cycle= 15 E= -2409.05014448332  delta_E= -6.46e-05  |g|= 0.00287  |ddm|= 0.0216
  alpha nocc = 65  HOMO = 0.0419636175873384  LUMO = 0.229718100970697
  beta  nocc = 65  HOMO = 0.0422190496815756  LUMO = 0.228740463791267
cycle= 16 E= -2409.05013705289  delta_E= 7.43e-06  |g|= 0.00286  |ddm|= 0.00243
  alpha nocc = 65  HOMO = 0.0419627070873315  LUMO = 0.229674092838252
  beta  nocc = 65  HOMO = 0.0422371860203824  LUMO = 0.228706850428123
cycle= 17 E= -2409.05011263868  delta_E= 2.44e-05  |g|= 0.00278  |ddm|= 0.00961
  alpha nocc = 65  HOMO = 0.041885706727048  LUMO = 0.229556022569179
  beta  nocc = 65  HOMO = 0.0422873841616771  LUMO = 0.22879214352261
cycle= 18 E= -2409.05002448363  delta_E= 8.82e-05  |g|= 0.00215  |ddm|= 0.0486
  alpha nocc = 65  HOMO = 0.0420341963414889  LUMO = 0.229367188130514
  beta  nocc = 65  HOMO = 0.0422301902019308  LUMO = 0.229017658721048
cycle= 19 E= -2409.05002119456  delta_E= 3.29e-06  |g|= 0.00205  |ddm|= 0.0206
  alpha nocc = 65  HOMO = 0.0420421752892045  LUMO = 0.229351692199545
  beta  nocc = 65  HOMO = 0.0422180474334669  LUMO = 0.229062010646134
cycle= 20 E= -2409.05002764281  delta_E= -6.45e-06  |g|= 0.00208  |ddm|= 0.00352
  alpha nocc = 65  HOMO = 0.0420614970265196  LUMO = 0.229367836223398
  beta  nocc = 65  HOMO = 0.0422297001388605  LUMO = 0.228998309192457
cycle= 21 E= -2409.05001898778  delta_E= 8.66e-06  |g|= 0.00202  |ddm|= 0.00431
  alpha nocc = 65  HOMO = 0.0421490330240811  LUMO = 0.22942147386749
  beta  nocc = 65  HOMO = 0.0421842153492374  LUMO = 0.228765455004195
cycle= 22 E= -2409.04997951554  delta_E= 3.95e-05  |g|= 0.00176  |ddm|= 0.0252
  alpha nocc = 65  HOMO = 0.0422188217886838  LUMO = 0.229449607920562
  beta  nocc = 65  HOMO = 0.0421237206826156  LUMO = 0.228727752557768
cycle= 23 E= -2409.04997372152  delta_E= 5.79e-06  |g|= 0.00176  |ddm|= 0.0129
  alpha nocc = 65  HOMO = 0.0422925933428109  LUMO = 0.229481219969103
  beta  nocc = 65  HOMO = 0.0421055437327698  LUMO = 0.228725719349538
cycle= 24 E= -2409.04997184728  delta_E= 1.87e-06  |g|= 0.00162  |ddm|= 0.0115
  alpha nocc = 65  HOMO = 0.0422760088819719  LUMO = 0.229455055647373
  beta  nocc = 65  HOMO = 0.0420597711873228  LUMO = 0.228708450964726
cycle= 25 E= -2409.04997608043  delta_E= -4.23e-06  |g|= 0.00163  |ddm|= 0.00504
  alpha nocc = 65  HOMO = 0.0422733064250705  LUMO = 0.22946111336574
  beta  nocc = 65  HOMO = 0.0420634715590267  LUMO = 0.228692134008883
cycle= 26 E= -2409.04997636816  delta_E= -2.88e-07  |g|= 0.00162  |ddm|= 0.00344
  alpha nocc = 65  HOMO = 0.0422528914851548  LUMO = 0.229463787589921
  beta  nocc = 65  HOMO = 0.0420557534166289  LUMO = 0.228681442749727
cycle= 27 E= -2409.04997776466  delta_E= -1.4e-06  |g|= 0.0016  |ddm|= 0.00462
  alpha nocc = 65  HOMO = 0.0422651467271886  LUMO = 0.229462177480459
  beta  nocc = 65  HOMO = 0.0420634303339225  LUMO = 0.22869148868335
cycle= 28 E= -2409.04997849833  delta_E= -7.34e-07  |g|= 0.00161  |ddm|= 0.00153
  alpha nocc = 65  HOMO = 0.0422701411237546  LUMO = 0.229466620654865
  beta  nocc = 65  HOMO = 0.0420642767420496  LUMO = 0.228689842602175
cycle= 29 E= -2409.04997723183  delta_E= 1.27e-06  |g|= 0.00161  |ddm|= 0.0017
  alpha nocc = 65  HOMO = 0.0422475226500151  LUMO = 0.229423888375228
  beta  nocc = 65  HOMO = 0.0420658021925442  LUMO = 0.228735290335091
cycle= 30 E= -2409.04998875202  delta_E= -1.15e-05  |g|= 0.00169  |ddm|= 0.00816
  alpha nocc = 65  HOMO = 0.0423079420873734  LUMO = 0.229465538707417
  beta  nocc = 65  HOMO = 0.0420184095764423  LUMO = 0.228614000087616
cycle= 31 E= -2409.04996592172  delta_E= 2.28e-05  |g|= 0.0015  |ddm|= 0.0196
  alpha nocc = 65  HOMO = 0.0423635251393824  LUMO = 0.229507023592109
  beta  nocc = 65  HOMO = 0.0419671704492523  LUMO = 0.228598776648495
cycle= 32 E= -2409.04996197369  delta_E= 3.95e-06  |g|= 0.00142  |ddm|= 0.00934
  alpha nocc = 65  HOMO = 0.0424284770625226  LUMO = 0.229478961811565
  beta  nocc = 65  HOMO = 0.0419030985740197  LUMO = 0.228629040883618
cycle= 33 E= -2409.04996907501  delta_E= -7.1e-06  |g|= 0.00138  |ddm|= 0.011
  alpha nocc = 65  HOMO = 0.042431487158164  LUMO = 0.229469170776098
  beta  nocc = 65  HOMO = 0.0418879403759645  LUMO = 0.228625881970108
cycle= 34 E= -2409.04997483478  delta_E= -5.76e-06  |g|= 0.0014  |ddm|= 0.0051
  alpha nocc = 65  HOMO = 0.0424875064309879  LUMO = 0.229437513185161
  beta  nocc = 65  HOMO = 0.0418981906276763  LUMO = 0.228659026994494
cycle= 35 E= -2409.04996523382  delta_E= 9.6e-06  |g|= 0.00133  |ddm|= 0.0132
  alpha nocc = 65  HOMO = 0.0425004348277082  LUMO = 0.229361006050576
  beta  nocc = 65  HOMO = 0.041824104103174  LUMO = 0.228734317654777
cycle= 36 E= -2409.04996291176  delta_E= 2.32e-06  |g|= 0.00123  |ddm|= 0.0157
  alpha nocc = 65  HOMO = 0.0425182669412655  LUMO = 0.22937657517927
  beta  nocc = 65  HOMO = 0.0418142761605209  LUMO = 0.228761420890488
cycle= 37 E= -2409.04996557629  delta_E= -2.66e-06  |g|= 0.00126  |ddm|= 0.00432
  alpha nocc = 65  HOMO = 0.0425183119527168  LUMO = 0.229365513858927
  beta  nocc = 65  HOMO = 0.0418018513953387  LUMO = 0.228788027265708
cycle= 38 E= -2409.04996831689  delta_E= -2.74e-06  |g|= 0.00129  |ddm|= 0.00459
  alpha nocc = 65  HOMO = 0.042506524560489  LUMO = 0.229344456032782
  beta  nocc = 65  HOMO = 0.0418047158769325  LUMO = 0.228784447035914
cycle= 39 E= -2409.04996866815  delta_E= -3.51e-07  |g|= 0.00129  |ddm|= 0.00444
  alpha nocc = 65  HOMO = 0.0425178503261343  LUMO = 0.229370575872783
  beta  nocc = 65  HOMO = 0.0418097361928219  LUMO = 0.228758555654019
cycle= 40 E= -2409.04996017449  delta_E= 8.49e-06  |g|= 0.00119  |ddm|= 0.0094
  alpha nocc = 65  HOMO = 0.0426092586049735  LUMO = 0.229250155717605
  beta  nocc = 65  HOMO = 0.0417221869915275  LUMO = 0.228871096594113
cycle= 41 E= -2409.04996587872  delta_E= -5.7e-06  |g|= 0.00112  |ddm|= 0.0134
  alpha nocc = 65  HOMO = 0.0426267308780987  LUMO = 0.229195214866328
  beta  nocc = 65  HOMO = 0.0417018596017931  LUMO = 0.228937025888362
cycle= 42 E= -2409.04996647516  delta_E= -5.96e-07  |g|= 0.00107  |ddm|= 0.00542
  alpha nocc = 65  HOMO = 0.0426329031745061  LUMO = 0.229180503388351
  beta  nocc = 65  HOMO = 0.0417024544101048  LUMO = 0.228974020755054
cycle= 43 E= -2409.04997068178  delta_E= -4.21e-06  |g|= 0.00107  |ddm|= 0.00797
  alpha nocc = 65  HOMO = 0.0425957695313937  LUMO = 0.229142140688581
  beta  nocc = 65  HOMO = 0.0416962574666236  LUMO = 0.228993015947392
cycle= 44 E= -2409.04997055153  delta_E= 1.3e-07  |g|= 0.001  |ddm|= 0.01
  alpha nocc = 65  HOMO = 0.042585294693715  LUMO = 0.229162452106938
  beta  nocc = 65  HOMO = 0.0417311189637894  LUMO = 0.228981414910073
cycle= 45 E= -2409.04997239408  delta_E= -1.84e-06  |g|= 0.000995  |ddm|= 0.00711
  alpha nocc = 65  HOMO = 0.042581362453924  LUMO = 0.229143705556105
  beta  nocc = 65  HOMO = 0.0417203583593005  LUMO = 0.228986805758307
cycle= 46 E= -2409.04997142718  delta_E= 9.67e-07  |g|= 0.000982  |ddm|= 0.00264
  alpha nocc = 65  HOMO = 0.0425979691489146  LUMO = 0.229152641282001
  beta  nocc = 65  HOMO = 0.041738761022647  LUMO = 0.228983446243228
cycle= 47 E= -2409.04997257427  delta_E= -1.15e-06  |g|= 0.000991  |ddm|= 0.00482
  alpha nocc = 65  HOMO = 0.0426071370907177  LUMO = 0.229151683138834
  beta  nocc = 65  HOMO = 0.0417548014663079  LUMO = 0.228981006978999
cycle= 48 E= -2409.04997539878  delta_E= -2.82e-06  |g|= 0.00103  |ddm|= 0.00559
  alpha nocc = 65  HOMO = 0.0426232961479124  LUMO = 0.229175732762817
  beta  nocc = 65  HOMO = 0.0417761980278983  LUMO = 0.228965176485851
cycle= 49 E= -2409.04997050774  delta_E= 4.89e-06  |g|= 0.000986  |ddm|= 0.0084
  alpha nocc = 65  HOMO = 0.0426213174810733  LUMO = 0.229167506961651
  beta  nocc = 65  HOMO = 0.0417451872832792  LUMO = 0.22896532693845
cycle= 50 E= -2409.04996788624  delta_E= 2.62e-06  |g|= 0.000951  |ddm|= 0.00722
SCF not converged.
SCF energy = -2409.04996788624 after 50 cycles  <S^2> = 0.014398017  2S+1 = 1.028393
shift = 0
thresh = 1e-05 
eri1 (1130, 4095)
eri1 (1130, 4095)
    CPU time for making amplitude: integral transform      0.45 sec, wall time      0.03 sec
shape (1130, 2250)
1st memory: 332.0 MiB
eri1 (1130, 4095)
eri1 (1130, 4095)
2nd memory: 273.0 MiB

========================
iter = 0  energy = -2409.665711 energy diff = 2409.665711
multiplicity <S^2> : Reference = 0.014398017 Response = 0.014379552 Projector = 0.014361087
eri1 (1130, 4095)
eri1 (1130, 4095)
    CPU time for making amplitude: integral transform      0.48 sec, wall time      0.03 sec
shape (1130, 2250)
1st memory: 334.2 MiB
eri1 (1130, 4095)
eri1 (1130, 4095)
2nd memory: 274.0 MiB

========================
iter = 1  energy = -2409.677537 energy diff = 0.011826
multiplicity <S^2> : Reference = 0.009037492 Response = 0.0090364954 Projector = 0.0090354988
eri1 (1130, 4095)
eri1 (1130, 4095)
    CPU time for making amplitude: integral transform      0.59 sec, wall time      0.04 sec
shape (1130, 2250)
1st memory: 345.5 MiB
eri1 (1130, 4095)
eri1 (1130, 4095)
2nd memory: 279.0 MiB

========================
iter = 2  energy = -2409.686018 energy diff = 0.008481
multiplicity <S^2> : Reference = 0.0063007299 Response = 0.0063004615 Projector = 0.0063001931
eri1 (1130, 4095)
eri1 (1130, 4095)
    CPU time for making amplitude: integral transform      0.55 sec, wall time      0.04 sec
shape (1130, 2250)
1st memory: 341.4 MiB
eri1 (1130, 4095)
eri1 (1130, 4095)
2nd memory: 274.8 MiB

========================
iter = 3  energy = -2409.692131 energy diff = 0.006113
multiplicity <S^2> : Reference = 0.0032675233 Response = 0.003267 Projector = 0.0032664767
eri1 (1130, 4095)
eri1 (1130, 4095)
    CPU time for making amplitude: integral transform      0.59 sec, wall time      0.04 sec
shape (1130, 2250)
1st memory: 349.4 MiB
eri1 (1130, 4095)
eri1 (1130, 4095)
2nd memory: 278.5 MiB

========================
iter = 4  energy = -2409.694827 energy diff = 0.002696
multiplicity <S^2> : Reference = 0.0014867991 Response = 0.0014867125 Projector = 0.0014866259
eri1 (1130, 4095)
eri1 (1130, 4095)
    CPU time for making amplitude: integral transform      0.51 sec, wall time      0.03 sec
shape (1130, 2250)
1st memory: 340.7 MiB
eri1 (1130, 4095)
eri1 (1130, 4095)
2nd memory: 275.0 MiB

========================
iter = 5  energy = -2409.695733 energy diff = 0.000906
multiplicity <S^2> : Reference = 0.00069268067 Response = 0.00069258245 Projector = 0.00069248423
eri1 (1130, 4095)
eri1 (1130, 4095)
    CPU time for making amplitude: integral transform      0.68 sec, wall time      0.05 sec
shape (1130, 2250)
1st memory: 350.4 MiB
eri1 (1130, 4095)
eri1 (1130, 4095)
2nd memory: 280.1 MiB

========================
iter = 6  energy = -2409.696157 energy diff = 0.000425
multiplicity <S^2> : Reference = 0.00023929225 Response = 0.00023929863 Projector = 0.00023930501
eri1 (1130, 4095)
eri1 (1130, 4095)
    CPU time for making amplitude: integral transform      0.62 sec, wall time      0.04 sec
shape (1130, 2250)
1st memory: 341.5 MiB
eri1 (1130, 4095)
eri1 (1130, 4095)
2nd memory: 274.8 MiB

========================
iter = 7  energy = -2409.696229 energy diff = 0.000072
multiplicity <S^2> : Reference = 0.00010500228 Response = 0.00010499454 Projector = 0.0001049868
eri1 (1130, 4095)
eri1 (1130, 4095)
    CPU time for making amplitude: integral transform      0.56 sec, wall time      0.04 sec
shape (1130, 2250)
1st memory: 350.2 MiB
eri1 (1130, 4095)
eri1 (1130, 4095)
2nd memory: 279.9 MiB

========================
iter = 8  energy = -2409.696275 energy diff = 0.000045
multiplicity <S^2> : Reference = 4.2922086e-05 Response = 4.2920994e-05 Projector = 4.2919901e-05
eri1 (1130, 4095)
eri1 (1130, 4095)
    CPU time for making amplitude: integral transform      0.55 sec, wall time      0.04 sec
shape (1130, 2250)
1st memory: 342.0 MiB
eri1 (1130, 4095)
eri1 (1130, 4095)
2nd memory: 280.5 MiB

========================
iter = 9  energy = -2409.696279 energy diff = 0.000004
multiplicity <S^2> : Reference = 2.626684e-05 Response = 2.6266409e-05 Projector = 2.6265978e-05

UOB-MP2 has converged
UOB-MP2 energy =  -2409.696278546792
shift = 0
thresh = 1e-05 
eri1 (1130, 4095)
eri1 (1130, 4095)
    CPU time for making amplitude: integral transform      0.62 sec, wall time      0.04 sec
shape (1130, 2250)
1st memory: 332.4 MiB
eri1 (1130, 4095)
eri1 (1130, 4095)
2nd memory: 273.6 MiB

========================
iter = 0  energy = -2409.464014 energy diff = 2409.464014
multiplicity <S^2> : Reference = 0.014398017 Response = 0.014379552 Projector = 0.014361087
eri1 (1130, 4095)
eri1 (1130, 4095)
    CPU time for making amplitude: integral transform      0.63 sec, wall time      0.04 sec
shape (1130, 2250)
1st memory: 335.4 MiB
eri1 (1130, 4095)
eri1 (1130, 4095)
2nd memory: 273.0 MiB

========================
iter = 1  energy = -2409.490349 energy diff = 0.026335
multiplicity <S^2> : Reference = 0.0095274814 Response = 0.0095261897 Projector = 0.009524898
eri1 (1130, 4095)
eri1 (1130, 4095)
    CPU time for making amplitude: integral transform      0.54 sec, wall time      0.04 sec
shape (1130, 2250)
1st memory: 346.4 MiB
eri1 (1130, 4095)
eri1 (1130, 4095)
2nd memory: 273.6 MiB

========================
iter = 2  energy = -2409.495177 energy diff = 0.004828
multiplicity <S^2> : Reference = 0.0067641613 Response = 0.0067646025 Projector = 0.0067650436
eri1 (1130, 4095)
eri1 (1130, 4095)
    CPU time for making amplitude: integral transform      0.57 sec, wall time      0.04 sec
shape (1130, 2250)
1st memory: 379.2 MiB
eri1 (1130, 4095)
eri1 (1130, 4095)
2nd memory: 274.8 MiB

========================
iter = 3  energy = -2409.498364 energy diff = 0.003187
multiplicity <S^2> : Reference = 0.0039691184 Response = 0.0039685812 Projector = 0.003968044
eri1 (1130, 4095)
eri1 (1130, 4095)
    CPU time for making amplitude: integral transform      0.51 sec, wall time      0.03 sec
shape (1130, 2250)
1st memory: 349.8 MiB
eri1 (1130, 4095)
eri1 (1130, 4095)
2nd memory: 280.7 MiB

========================
iter = 4  energy = -2409.500127 energy diff = 0.001764
multiplicity <S^2> : Reference = 0.0018574794 Response = 0.0018577116 Projector = 0.0018579437
eri1 (1130, 4095)
eri1 (1130, 4095)
    CPU time for making amplitude: integral transform      0.59 sec, wall time      0.04 sec
shape (1130, 2250)
1st memory: 355.5 MiB
eri1 (1130, 4095)
eri1 (1130, 4095)
2nd memory: 279.7 MiB

========================
iter = 5  energy = -2409.500631 energy diff = 0.000503
multiplicity <S^2> : Reference = 0.00091067367 Response = 0.00091061408 Projector = 0.00091055449
eri1 (1130, 4095)
eri1 (1130, 4095)
    CPU time for making amplitude: integral transform      0.59 sec, wall time      0.04 sec
shape (1130, 2250)
1st memory: 350.9 MiB
eri1 (1130, 4095)
eri1 (1130, 4095)
2nd memory: 280.2 MiB

========================
iter = 6  energy = -2409.500843 energy diff = 0.000213
multiplicity <S^2> : Reference = 0.00033239789 Response = 0.00033241156 Projector = 0.00033242523
eri1 (1130, 4095)
eri1 (1130, 4095)
    CPU time for making amplitude: integral transform      0.48 sec, wall time      0.03 sec
shape (1130, 2250)
1st memory: 356.0 MiB
eri1 (1130, 4095)
eri1 (1130, 4095)
2nd memory: 279.4 MiB

========================
iter = 7  energy = -2409.500878 energy diff = 0.000035
multiplicity <S^2> : Reference = 0.00017627843 Response = 0.00017629877 Projector = 0.00017631911
eri1 (1130, 4095)
eri1 (1130, 4095)
    CPU time for making amplitude: integral transform      0.65 sec, wall time      0.04 sec
shape (1130, 2250)
1st memory: 349.8 MiB
eri1 (1130, 4095)
eri1 (1130, 4095)
2nd memory: 279.0 MiB

========================
iter = 8  energy = -2409.500896 energy diff = 0.000018
multiplicity <S^2> : Reference = 8.8103324e-05 Response = 8.8101161e-05 Projector = 8.8098997e-05
eri1 (1130, 4095)
eri1 (1130, 4095)
    CPU time for making amplitude: integral transform      0.63 sec, wall time      0.04 sec
shape (1130, 2250)
1st memory: 355.8 MiB
eri1 (1130, 4095)
eri1 (1130, 4095)
2nd memory: 281.1 MiB

========================
iter = 9  energy = -2409.500896 energy diff = 0.000000
multiplicity <S^2> : Reference = 6.3730923e-05 Response = 6.3725255e-05 Projector = 6.3719587e-05

UOB-MP2 has converged
UOB-MP2 energy =  -2409.500896027318


******** <class 'pyscf.scf.uhf.UHF'> ********
method = UHF
initial guess = minao
damping factor = 0
level_shift factor = 0
DIIS = <class 'pyscf.scf.diis.CDIIS'>
diis_start_cycle = 1
diis_space = 8
SCF conv_tol = 1e-09
SCF conv_tol_grad = None
SCF max_cycles = 50
direct_scf = True
direct_scf_tol = 1e-13
chkfile to save SCF result = /home/ltkoanh/Al_B2LYP_6311_Gd_Cluster/Cluster/Al10-neutral-singlet/tmpphpb9t__
max_memory 4000 MB (current use 209 MB)
number electrons alpha = 65  beta = 65
Set gradient conv threshold to 3.16228e-05
init E= -2407.53014490601
  alpha nocc = 65  HOMO = -0.57864779520147  LUMO = -0.50974312353898
  beta  nocc = 65  HOMO = -0.546634863516985  LUMO = -0.492302340010377
cycle= 1 E= -2408.54577794612  delta_E= -1.02  |g|= 0.653  |ddm|= 3.61
  alpha nocc = 65  HOMO = 0.179097392501331  LUMO = 0.274855840269578
  beta  nocc = 65  HOMO = 0.179509054951576  LUMO = 0.28192712832143
cycle= 2 E= -2408.6460785236  delta_E= -0.1  |g|= 0.656  |ddm|= 2.56
  alpha nocc = 65  HOMO = 0.0804037198811646  LUMO = 0.242190374203806
  beta  nocc = 65  HOMO = 0.075702264393239  LUMO = 0.241941298055369
cycle= 3 E= -2409.02689151716  delta_E= -0.381  |g|= 0.123  |ddm|= 1.26
  alpha nocc = 65  HOMO = 0.0492620554479964  LUMO = 0.223766045425414
  beta  nocc = 65  HOMO = 0.0456732673108446  LUMO = 0.222671245473128
cycle= 4 E= -2409.03463571655  delta_E= -0.00774  |g|= 0.111  |ddm|= 0.437
  alpha nocc = 65  HOMO = 0.0451407655666268  LUMO = 0.226646900567123
  beta  nocc = 65  HOMO = 0.0418467524625074  LUMO = 0.225238694174554
cycle= 5 E= -2409.04819942417  delta_E= -0.0136  |g|= 0.0287  |ddm|= 0.228
  alpha nocc = 65  HOMO = 0.0426860587672904  LUMO = 0.228406824115384
  beta  nocc = 65  HOMO = 0.0400691195624202  LUMO = 0.22730378933685
cycle= 6 E= -2409.05030775506  delta_E= -0.00211  |g|= 0.0179  |ddm|= 0.107
  alpha nocc = 65  HOMO = 0.0425677090966211  LUMO = 0.229559177346291
  beta  nocc = 65  HOMO = 0.0410400230609243  LUMO = 0.228753292237355
cycle= 7 E= -2409.05181605983  delta_E= -0.00151  |g|= 0.0148  |ddm|= 0.103
  alpha nocc = 65  HOMO = 0.0417682018753104  LUMO = 0.229679008149447
  beta  nocc = 65  HOMO = 0.0413282159003919  LUMO = 0.229337764369751
cycle= 8 E= -2409.05321664074  delta_E= -0.0014  |g|= 0.0126  |ddm|= 0.0997
  alpha nocc = 65  HOMO = 0.0416033732225429  LUMO = 0.229696691892691
  beta  nocc = 65  HOMO = 0.0413301104549  LUMO = 0.229765384397759
cycle= 9 E= -2409.05374207816  delta_E= -0.000525  |g|= 0.0132  |ddm|= 0.0367
  alpha nocc = 65  HOMO = 0.040500943515249  LUMO = 0.231887760245827
  beta  nocc = 65  HOMO = 0.0413705148574227  LUMO = 0.228896325842393
cycle= 10 E= -2409.05217986108  delta_E= 0.00156  |g|= 0.00885  |ddm|= 0.164
  alpha nocc = 65  HOMO = 0.0414770961835011  LUMO = 0.230463446234614
  beta  nocc = 65  HOMO = 0.0411798044563524  LUMO = 0.228715836676172
cycle= 11 E= -2409.0522235016  delta_E= -4.36e-05  |g|= 0.0058  |ddm|= 0.103
  alpha nocc = 65  HOMO = 0.0428418441886231  LUMO = 0.229063215353894
  beta  nocc = 65  HOMO = 0.0417674241416498  LUMO = 0.228843735508097
cycle= 12 E= -2409.05252716558  delta_E= -0.000304  |g|= 0.00405  |ddm|= 0.0799
  alpha nocc = 65  HOMO = 0.0416645831328125  LUMO = 0.229956134715492
  beta  nocc = 65  HOMO = 0.0417911723978772  LUMO = 0.228902777942603
cycle= 13 E= -2409.05269043897  delta_E= -0.000163  |g|= 0.0036  |ddm|= 0.0596
  alpha nocc = 65  HOMO = 0.0416950500858077  LUMO = 0.229548226550361
  beta  nocc = 65  HOMO = 0.0418792212770261  LUMO = 0.228554717527022
cycle= 14 E= -2409.05276325045  delta_E= -7.28e-05  |g|= 0.00295  |ddm|= 0.0269
  alpha nocc = 65  HOMO = 0.0417272211966486  LUMO = 0.229509908520258
  beta  nocc = 65  HOMO = 0.0419738109874782  LUMO = 0.228531718823784
cycle= 15 E= -2409.05282759588  delta_E= -6.43e-05  |g|= 0.00288  |ddm|= 0.0214
  alpha nocc = 65  HOMO = 0.0417394975260671  LUMO = 0.22952605828076
  beta  nocc = 65  HOMO = 0.0419914460995996  LUMO = 0.228540427001982
cycle= 16 E= -2409.05281874277  delta_E= 8.85e-06  |g|= 0.00287  |ddm|= 0.00287
  alpha nocc = 65  HOMO = 0.0417386608514414  LUMO = 0.229475657411274
  beta  nocc = 65  HOMO = 0.0420079247710338  LUMO = 0.228498421704097
cycle= 17 E= -2409.05278822033  delta_E= 3.05e-05  |g|= 0.00278  |ddm|= 0.0118
  alpha nocc = 65  HOMO = 0.0416734661227051  LUMO = 0.229351728638328
  beta  nocc = 65  HOMO = 0.0420410762399858  LUMO = 0.228578708805857
cycle= 18 E= -2409.05269595374  delta_E= 9.23e-05  |g|= 0.00208  |ddm|= 0.0508
  alpha nocc = 65  HOMO = 0.041842289785732  LUMO = 0.229136364105672
  beta  nocc = 65  HOMO = 0.0419750572127478  LUMO = 0.228810945187802
cycle= 19 E= -2409.05269017931  delta_E= 5.77e-06  |g|= 0.00193  |ddm|= 0.0236
  alpha nocc = 65  HOMO = 0.0418544629271479  LUMO = 0.229115363457552
  beta  nocc = 65  HOMO = 0.0419598652766439  LUMO = 0.228870557122995
cycle= 20 E= -2409.05269810556  delta_E= -7.93e-06  |g|= 0.00197  |ddm|= 0.00473
  alpha nocc = 65  HOMO = 0.0418697729488334  LUMO = 0.229127474931923
  beta  nocc = 65  HOMO = 0.0419712868063186  LUMO = 0.228814363064105
cycle= 21 E= -2409.05269200253  delta_E= 6.1e-06  |g|= 0.00193  |ddm|= 0.00339
  alpha nocc = 65  HOMO = 0.0419422163055268  LUMO = 0.229197955442037
  beta  nocc = 65  HOMO = 0.0419434103957768  LUMO = 0.22860702384276
cycle= 22 E= -2409.05266255408  delta_E= 2.94e-05  |g|= 0.00175  |ddm|= 0.0204
  alpha nocc = 65  HOMO = 0.0419881184586961  LUMO = 0.229235742479453
  beta  nocc = 65  HOMO = 0.0418971452746936  LUMO = 0.22858184299178
cycle= 23 E= -2409.05265759577  delta_E= 4.96e-06  |g|= 0.00176  |ddm|= 0.0117
  alpha nocc = 65  HOMO = 0.0420185281957491  LUMO = 0.22925101009119
  beta  nocc = 65  HOMO = 0.0418929526362072  LUMO = 0.22857888166735
cycle= 24 E= -2409.05265742357  delta_E= 1.72e-07  |g|= 0.00171  |ddm|= 0.0057
  alpha nocc = 65  HOMO = 0.0420088634061744  LUMO = 0.229245297454318
  beta  nocc = 65  HOMO = 0.0418885681913138  LUMO = 0.22856239624771
cycle= 25 E= -2409.0526595681  delta_E= -2.14e-06  |g|= 0.00172  |ddm|= 0.00231
  alpha nocc = 65  HOMO = 0.0420082764292153  LUMO = 0.229245610929183
  beta  nocc = 65  HOMO = 0.0418885161107759  LUMO = 0.228557936900601
cycle= 26 E= -2409.0526595  delta_E= 6.81e-08  |g|= 0.00171  |ddm|= 0.000969
  alpha nocc = 65  HOMO = 0.0419920099801879  LUMO = 0.229246461777902
  beta  nocc = 65  HOMO = 0.0418291541180006  LUMO = 0.228522782507535
cycle= 27 E= -2409.05264714891  delta_E= 1.24e-05  |g|= 0.00156  |ddm|= 0.0158
  alpha nocc = 65  HOMO = 0.0420889333629319  LUMO = 0.229272101137211
  beta  nocc = 65  HOMO = 0.0418510838735626  LUMO = 0.228593838180283
cycle= 28 E= -2409.05264626799  delta_E= 8.81e-07  |g|= 0.00153  |ddm|= 0.00448
  alpha nocc = 65  HOMO = 0.0420976098048695  LUMO = 0.229180816204334
  beta  nocc = 65  HOMO = 0.0417590394127902  LUMO = 0.228686762343536
cycle= 29 E= -2409.05264922775  delta_E= -2.96e-06  |g|= 0.00142  |ddm|= 0.00795
  alpha nocc = 65  HOMO = 0.0421362762410415  LUMO = 0.228999758766789
  beta  nocc = 65  HOMO = 0.0417347916226035  LUMO = 0.228856954368597
cycle= 30 E= -2409.05266683338  delta_E= -1.76e-05  |g|= 0.00149  |ddm|= 0.0143
  alpha nocc = 65  HOMO = 0.0421385480946495  LUMO = 0.229051950491643
  beta  nocc = 65  HOMO = 0.0417315992121932  LUMO = 0.228768120027998
cycle= 31 E= -2409.05265981622  delta_E= 7.02e-06  |g|= 0.0015  |ddm|= 0.00768
  alpha nocc = 65  HOMO = 0.0421263610214043  LUMO = 0.229040509207543
  beta  nocc = 65  HOMO = 0.0417374825053355  LUMO = 0.228775581593577
cycle= 32 E= -2409.05266137748  delta_E= -1.56e-06  |g|= 0.00152  |ddm|= 0.00191
  alpha nocc = 65  HOMO = 0.0421198802157766  LUMO = 0.229034739684014
  beta  nocc = 65  HOMO = 0.0417396151922671  LUMO = 0.228778038654627
cycle= 33 E= -2409.05266209262  delta_E= -7.15e-07  |g|= 0.00153  |ddm|= 0.00137
  alpha nocc = 65  HOMO = 0.042113498646736  LUMO = 0.229056404421249
  beta  nocc = 65  HOMO = 0.041728151525756  LUMO = 0.228774448308987
cycle= 34 E= -2409.05266455201  delta_E= -2.46e-06  |g|= 0.00147  |ddm|= 0.0105
  alpha nocc = 65  HOMO = 0.0421312477869548  LUMO = 0.229067124908772
  beta  nocc = 65  HOMO = 0.0417312615466959  LUMO = 0.228782147162703
cycle= 35 E= -2409.05266558513  delta_E= -1.03e-06  |g|= 0.00146  |ddm|= 0.00273
  alpha nocc = 65  HOMO = 0.0421179969602897  LUMO = 0.229071394554015
  beta  nocc = 65  HOMO = 0.0417534673103034  LUMO = 0.228788460727354
cycle= 36 E= -2409.05267064513  delta_E= -5.06e-06  |g|= 0.0015  |ddm|= 0.00397
  alpha nocc = 65  HOMO = 0.042144348968813  LUMO = 0.229097064739938
  beta  nocc = 65  HOMO = 0.0417352233174596  LUMO = 0.228798018996812
cycle= 37 E= -2409.05265971733  delta_E= 1.09e-05  |g|= 0.00141  |ddm|= 0.00852
  alpha nocc = 65  HOMO = 0.0421370482251553  LUMO = 0.229038492566389
  beta  nocc = 65  HOMO = 0.0416374063362191  LUMO = 0.228836692396576
cycle= 38 E= -2409.05265312404  delta_E= 6.59e-06  |g|= 0.0013  |ddm|= 0.00857
  alpha nocc = 65  HOMO = 0.0422002777480631  LUMO = 0.228921315374485
  beta  nocc = 65  HOMO = 0.0416309118723578  LUMO = 0.228898925087208
cycle= 39 E= -2409.05265458649  delta_E= -1.46e-06  |g|= 0.00121  |ddm|= 0.00819
  alpha nocc = 65  HOMO = 0.0422953653451289  LUMO = 0.228759470917023
  beta  nocc = 65  HOMO = 0.0415308413742182  LUMO = 0.229176145679661
cycle= 40 E= -2409.05265537776  delta_E= -7.91e-07  |g|= 0.00105  |ddm|= 0.02
  alpha nocc = 65  HOMO = 0.0422750237723216  LUMO = 0.228701663523377
  beta  nocc = 65  HOMO = 0.0415429309785902  LUMO = 0.229191003818422
cycle= 41 E= -2409.05266031624  delta_E= -4.94e-06  |g|= 0.00105  |ddm|= 0.00641
  alpha nocc = 65  HOMO = 0.0422673715639258  LUMO = 0.228706801895107
  beta  nocc = 65  HOMO = 0.0415560187931938  LUMO = 0.229183960398914
cycle= 42 E= -2409.05266337482  delta_E= -3.06e-06  |g|= 0.00106  |ddm|= 0.00374
  alpha nocc = 65  HOMO = 0.0422769050723059  LUMO = 0.228695544980427
  beta  nocc = 65  HOMO = 0.0415325304042691  LUMO = 0.229185072418891
cycle= 43 E= -2409.05265712783  delta_E= 6.25e-06  |g|= 0.00103  |ddm|= 0.00934
  alpha nocc = 65  HOMO = 0.0422908586769063  LUMO = 0.228691971734672
  beta  nocc = 65  HOMO = 0.0415556965602533  LUMO = 0.229196962100989
cycle= 44 E= -2409.052658314  delta_E= -1.19e-06  |g|= 0.00107  |ddm|= 0.00268
  alpha nocc = 65  HOMO = 0.0422869245478118  LUMO = 0.228679059837546
  beta  nocc = 65  HOMO = 0.0415657103709794  LUMO = 0.229208843168562
cycle= 45 E= -2409.05266010185  delta_E= -1.79e-06  |g|= 0.00108  |ddm|= 0.00317
  alpha nocc = 65  HOMO = 0.0423099565733941  LUMO = 0.22870822959127
  beta  nocc = 65  HOMO = 0.0415588085372116  LUMO = 0.229224470717309
cycle= 46 E= -2409.05265744879  delta_E= 2.65e-06  |g|= 0.00106  |ddm|= 0.00466
  alpha nocc = 65  HOMO = 0.042302684482729  LUMO = 0.228726455334906
  beta  nocc = 65  HOMO = 0.0415695043817144  LUMO = 0.229181724421764
cycle= 47 E= -2409.05265700797  delta_E= 4.41e-07  |g|= 0.00106  |ddm|= 0.0033
  alpha nocc = 65  HOMO = 0.042322334271103  LUMO = 0.228690581670421
  beta  nocc = 65  HOMO = 0.0415547468376659  LUMO = 0.22919864506933
cycle= 48 E= -2409.0526555301  delta_E= 1.48e-06  |g|= 0.00103  |ddm|= 0.00337
  alpha nocc = 65  HOMO = 0.0423846543268834  LUMO = 0.228609707029855
  beta  nocc = 65  HOMO = 0.0414806994802408  LUMO = 0.229309898386808
cycle= 49 E= -2409.05265123102  delta_E= 4.3e-06  |g|= 0.000915  |ddm|= 0.0125
  alpha nocc = 65  HOMO = 0.0424204857157264  LUMO = 0.228554191462494
  beta  nocc = 65  HOMO = 0.0414797138572168  LUMO = 0.229305512292824
cycle= 50 E= -2409.05265434465  delta_E= -3.11e-06  |g|= 0.000909  |ddm|= 0.00945
SCF not converged.
SCF energy = -2409.05265434465 after 50 cycles  <S^2> = 0.015296326  2S+1 = 1.0301385
