 Entering Gaussian System, Link 0=g09
 Initial command:
 /usr/local/chem/g09A2/l1.exe /temp0/tam/Gau-31762.inp -scrdir=/temp0/tam/
 Entering Link 1 = /usr/local/chem/g09A2/l1.exe PID=     31763.
  
 Copyright (c) 1988,1990,1992,1993,1995,1998,2003,2009, Gaussian, Inc.
                  All Rights Reserved.
  
 This is part of the Gaussian(R) 09 program.  It is based on
 the Gaussian(R) 03 system (copyright 2003, Gaussian, Inc.),
 the Gaussian(R) 98 system (copyright 1998, Gaussian, Inc.),
 the Gaussian(R) 94 system (copyright 1995, Gaussian, Inc.),
 the Gaussian 92(TM) system (copyright 1992, Gaussian, Inc.),
 the Gaussian 90(TM) system (copyright 1990, Gaussian, Inc.),
 the Gaussian 88(TM) system (copyright 1988, Gaussian, Inc.),
 the Gaussian 86(TM) system (copyright 1986, Carnegie Mellon
 University), and the Gaussian 82(TM) system (copyright 1983,
 Carnegie Mellon University). Gaussian is a federally registered
 trademark of Gaussian, Inc.
  
 This software contains proprietary and confidential information,
 including trade secrets, belonging to Gaussian, Inc.
  
 This software is provided under written license and may be
 used, copied, transmitted, or stored only in accord with that
 written license.
  
 The following legend is applicable only to US Government
 contracts under FAR:
  
                    RESTRICTED RIGHTS LEGEND
  
 Use, reproduction and disclosure by the US Government is
 subject to restrictions as set forth in subparagraphs (a)
 and (c) of the Commercial Computer Software - Restricted
 Rights clause in FAR 52.227-19.
  
 Gaussian, Inc.
 340 Quinnipiac St., Bldg. 40, Wallingford CT 06492
  
  
 ---------------------------------------------------------------
 Warning -- This program may not be used in any manner that
 competes with the business of Gaussian, Inc. or will provide
 assistance to any competitor of Gaussian, Inc.  The licensee
 of this program is prohibited from giving any competitor of
 Gaussian, Inc. access to this program.  By using this program,
 the user acknowledges that Gaussian, Inc. is engaged in the
 business of creating and licensing software in the field of
 computational chemistry and represents and warrants to the
 licensee that it is not a competitor of Gaussian, Inc. and that
 it will not use this program in any manner prohibited above.
 ---------------------------------------------------------------
  

 Cite this work as:
 Gaussian 09, Revision A.02,
 M. J. Frisch, G. W. Trucks, H. B. Schlegel, G. E. Scuseria, 
 M. A. Robb, J. R. Cheeseman, G. Scalmani, V. Barone, B. Mennucci, 
 G. A. Petersson, H. Nakatsuji, M. Caricato, X. Li, H. P. Hratchian, 
 A. F. Izmaylov, J. Bloino, G. Zheng, J. L. Sonnenberg, M. Hada, 
 M. Ehara, K. Toyota, R. Fukuda, J. Hasegawa, M. Ishida, T. Nakajima, 
 Y. Honda, O. Kitao, H. Nakai, T. Vreven, J. A. Montgomery, Jr., 
 J. E. Peralta, F. Ogliaro, M. Bearpark, J. J. Heyd, E. Brothers, 
 K. N. Kudin, V. N. Staroverov, R. Kobayashi, J. Normand, 
 K. Raghavachari, A. Rendell, J. C. Burant, S. S. Iyengar, J. Tomasi, 
 M. Cossi, N. Rega, J. M. Millam, M. Klene, J. E. Knox, J. B. Cross, 
 V. Bakken, C. Adamo, J. Jaramillo, R. Gomperts, R. E. Stratmann, 
 O. Yazyev, A. J. Austin, R. Cammi, C. Pomelli, J. W. Ochterski, 
 R. L. Martin, K. Morokuma, V. G. Zakrzewski, G. A. Voth, 
 P. Salvador, J. J. Dannenberg, S. Dapprich, A. D. Daniels, 
 O. Farkas, J. B. Foresman, J. V. Ortiz, J. Cioslowski, 
 and D. J. Fox, Gaussian, Inc., Wallingford CT, 2009.
 
 ******************************************
 Gaussian 09:  AM64L-G09RevA.02 11-Jun-2009
                 5-Mar-2012 
 ******************************************
 %NprocShared=8
 Will use up to    8 processors via shared memory.
 %mem=19050MB
 %chk=S9L-ne-d-01
 -----------------------
 # G4 scfcyc=500 scf=xqc
 -----------------------
 1/14=-1,18=20,19=15,26=3,38=1/1,3;
 2/9=110,12=2,17=6,18=5,40=1/2;
 3/5=35,7=104,11=2,16=1,25=1,30=1,71=1,74=-5/1,2,3;
 4//1;
 5/5=2,7=500,8=3,13=1,38=5/2,8;
 6/7=2,8=2,9=2,10=2,28=1/1;
 7//1,2,3,16;
 1/14=-1,18=20,19=15/3(2);
 2/9=110/2;
 99//99;
 2/9=110/2;
 3/5=35,7=104,11=2,16=1,25=1,30=1,71=1,74=-5/1,2,3;
 4/5=5,16=3/1;
 5/5=2,7=500,8=3,13=1,38=5/2,8;
 7//1,2,3,16;
 1/14=-1,18=20,19=15/3(-5);
 2/9=110/2;
 6/7=2,8=2,9=2,10=2,19=2,28=1/1;
 99/9=1/99;
 --------
 si9-an-d
 --------
 Symbolic Z-matrix:
 Charge = -1 Multiplicity = 2
 Si                   -1.03274   1.87508  -0.97933 
 Si                   -0.91383  -1.69178   1.40337 
 Si                    1.26072   1.06801  -0.95771 
 Si                    1.35309  -0.88196   0.8778 
 Si                   -0.84502   0.7191    1.2656 
 Si                   -0.59538  -1.37708  -0.97306 
 Si                    1.74508  -1.18928  -1.48746 
 Si                    1.49603   1.45004   1.38151 
 Si                   -2.46796   0.02787  -0.53071 
 

 GradGradGradGradGradGradGradGradGradGradGradGradGradGradGradGradGradGrad
 Berny optimization.
 Initialization pass.
                           ----------------------------
                           !    Initial Parameters    !
                           ! (Angstroms and Degrees)  !
 --------------------------                            --------------------------
 ! Name  Definition              Value          Derivative Info.                !
 --------------------------------------------------------------------------------
 ! R1    R(1,3)                  2.4314         estimate D2E/DX2                !
 ! R2    R(1,5)                  2.532          estimate D2E/DX2                !
 ! R3    R(1,9)                  2.3819         estimate D2E/DX2                !
 ! R4    R(2,4)                  2.4639         estimate D2E/DX2                !
 ! R5    R(2,5)                  2.4158         estimate D2E/DX2                !
 ! R6    R(2,6)                  2.4182         estimate D2E/DX2                !
 ! R7    R(3,4)                  2.6796         estimate D2E/DX2                !
 ! R8    R(3,7)                  2.3687         estimate D2E/DX2                !
 ! R9    R(3,8)                  2.3819         estimate D2E/DX2                !
 ! R10   R(4,5)                  2.7469         estimate D2E/DX2                !
 ! R11   R(4,6)                  2.7327         estimate D2E/DX2                !
 ! R12   R(4,7)                  2.4171         estimate D2E/DX2                !
 ! R13   R(4,8)                  2.3901         estimate D2E/DX2                !
 ! R14   R(5,8)                  2.4552         estimate D2E/DX2                !
 ! R15   R(5,9)                  2.5176         estimate D2E/DX2                !
 ! R16   R(6,7)                  2.4037         estimate D2E/DX2                !
 ! R17   R(6,9)                  2.3825         estimate D2E/DX2                !
 ! A1    A(3,1,5)               76.7407         estimate D2E/DX2                !
 ! A2    A(3,1,9)              108.0153         estimate D2E/DX2                !
 ! A3    A(5,2,6)               79.0666         estimate D2E/DX2                !
 ! A4    A(1,3,4)              106.2698         estimate D2E/DX2                !
 ! A5    A(1,3,7)              120.4789         estimate D2E/DX2                !
 ! A6    A(1,3,8)               92.7902         estimate D2E/DX2                !
 ! A7    A(7,3,8)              110.6277         estimate D2E/DX2                !
 ! A8    A(2,4,3)              110.7066         estimate D2E/DX2                !
 ! A9    A(2,4,7)              108.4299         estimate D2E/DX2                !
 ! A10   A(2,4,8)              109.3148         estimate D2E/DX2                !
 ! A11   A(3,4,5)               69.2043         estimate D2E/DX2                !
 ! A12   A(3,4,6)               69.1029         estimate D2E/DX2                !
 ! A13   A(5,4,6)               68.3244         estimate D2E/DX2                !
 ! A14   A(5,4,7)              110.0004         estimate D2E/DX2                !
 ! A15   A(6,4,8)              111.2339         estimate D2E/DX2                !
 ! A16   A(7,4,8)              108.6984         estimate D2E/DX2                !
 ! A17   A(1,5,2)              120.2692         estimate D2E/DX2                !
 ! A18   A(1,5,4)              101.552          estimate D2E/DX2                !
 ! A19   A(1,5,8)               88.661          estimate D2E/DX2                !
 ! A20   A(2,5,8)              108.7578         estimate D2E/DX2                !
 ! A21   A(2,5,9)               75.4237         estimate D2E/DX2                !
 ! A22   A(4,5,9)              104.7787         estimate D2E/DX2                !
 ! A23   A(8,5,9)              136.8922         estimate D2E/DX2                !
 ! A24   A(2,6,7)              110.4075         estimate D2E/DX2                !
 ! A25   A(2,6,9)               77.9234         estimate D2E/DX2                !
 ! A26   A(4,6,9)              109.1371         estimate D2E/DX2                !
 ! A27   A(7,6,9)              139.3742         estimate D2E/DX2                !
 ! A28   A(3,7,6)               80.0659         estimate D2E/DX2                !
 ! A29   A(3,8,5)               79.1457         estimate D2E/DX2                !
 ! A30   A(1,9,6)               87.0629         estimate D2E/DX2                !
 ! A31   A(5,9,6)               77.7436         estimate D2E/DX2                !
 ! D1    D(5,1,3,4)             20.0266         estimate D2E/DX2                !
 ! D2    D(5,1,3,7)             80.6966         estimate D2E/DX2                !
 ! D3    D(5,1,3,8)            -35.2766         estimate D2E/DX2                !
 ! D4    D(9,1,3,4)            -33.7248         estimate D2E/DX2                !
 ! D5    D(9,1,3,7)             26.9452         estimate D2E/DX2                !
 ! D6    D(9,1,3,8)            -89.028          estimate D2E/DX2                !
 ! D7    D(3,1,5,2)            -76.9871         estimate D2E/DX2                !
 ! D8    D(3,1,5,4)            -19.1057         estimate D2E/DX2                !
 ! D9    D(3,1,5,8)             34.0388         estimate D2E/DX2                !
 ! D10   D(3,1,9,6)            -14.4611         estimate D2E/DX2                !
 ! D11   D(6,2,5,1)             13.2762         estimate D2E/DX2                !
 ! D12   D(6,2,5,8)            -86.4901         estimate D2E/DX2                !
 ! D13   D(6,2,5,9)             48.6109         estimate D2E/DX2                !
 ! D14   D(5,2,6,7)             86.7748         estimate D2E/DX2                !
 ! D15   D(5,2,6,9)            -51.6885         estimate D2E/DX2                !
 ! D16   D(1,3,4,2)             17.6014         estimate D2E/DX2                !
 ! D17   D(1,3,4,5)            -19.1879         estimate D2E/DX2                !
 ! D18   D(1,3,4,6)             54.6767         estimate D2E/DX2                !
 ! D19   D(1,3,7,6)            -18.9023         estimate D2E/DX2                !
 ! D20   D(8,3,7,6)             87.4713         estimate D2E/DX2                !
 ! D21   D(1,3,8,5)             36.1764         estimate D2E/DX2                !
 ! D22   D(7,3,8,5)            -87.9455         estimate D2E/DX2                !
 ! D23   D(3,4,5,1)             18.0129         estimate D2E/DX2                !
 ! D24   D(3,4,5,9)             75.8743         estimate D2E/DX2                !
 ! D25   D(6,4,5,1)            -56.9387         estimate D2E/DX2                !
 ! D26   D(6,4,5,9)              0.9227         estimate D2E/DX2                !
 ! D27   D(7,4,5,1)            -19.8411         estimate D2E/DX2                !
 ! D28   D(7,4,5,9)             38.0202         estimate D2E/DX2                !
 ! D29   D(3,4,6,9)            -76.0939         estimate D2E/DX2                !
 ! D30   D(5,4,6,9)             -0.9979         estimate D2E/DX2                !
 ! D31   D(8,4,6,9)            -38.805          estimate D2E/DX2                !
 ! D32   D(1,5,8,3)            -34.4925         estimate D2E/DX2                !
 ! D33   D(2,5,8,3)             87.1451         estimate D2E/DX2                !
 ! D34   D(9,5,8,3)             -1.3581         estimate D2E/DX2                !
 ! D35   D(2,5,9,6)            -49.9179         estimate D2E/DX2                !
 ! D36   D(4,5,9,6)             -1.0064         estimate D2E/DX2                !
 ! D37   D(8,5,9,6)             52.1108         estimate D2E/DX2                !
 ! D38   D(2,6,7,3)            -86.1158         estimate D2E/DX2                !
 ! D39   D(9,6,7,3)              9.0958         estimate D2E/DX2                !
 ! D40   D(2,6,9,1)            111.2937         estimate D2E/DX2                !
 ! D41   D(2,6,9,5)             49.1557         estimate D2E/DX2                !
 ! D42   D(4,6,9,1)             63.1734         estimate D2E/DX2                !
 ! D43   D(4,6,9,5)              1.0354         estimate D2E/DX2                !
 ! D44   D(7,6,9,1)              3.9408         estimate D2E/DX2                !
 ! D45   D(7,6,9,5)            -58.1971         estimate D2E/DX2                !
 --------------------------------------------------------------------------------
 Trust Radius=3.00D-01 FncErr=1.00D-07 GrdErr=1.00D-06
 Number of steps in this run= 100 maximum allowed number of steps= 100.
 GradGradGradGradGradGradGradGradGradGradGradGradGradGradGradGradGradGrad

                          Input orientation:                          
 ---------------------------------------------------------------------
 Center     Atomic      Atomic             Coordinates (Angstroms)
 Number     Number       Type             X           Y           Z
 ---------------------------------------------------------------------
      1         14           0       -1.032741    1.875080   -0.979332
      2         14           0       -0.913826   -1.691784    1.403370
      3         14           0        1.260722    1.068009   -0.957712
      4         14           0        1.353089   -0.881956    0.877801
      5         14           0       -0.845017    0.719099    1.265599
      6         14           0       -0.595383   -1.377078   -0.973064
      7         14           0        1.745082   -1.189281   -1.487463
      8         14           0        1.496030    1.450044    1.381513
      9         14           0       -2.467957    0.027867   -0.530712
 ---------------------------------------------------------------------
                    Distance matrix (angstroms):
                    1          2          3          4          5
     1  Si   0.000000
     2  Si   4.291145   0.000000
     3  Si   2.431419   4.233181   0.000000
     4  Si   4.091745   2.463929   2.679553   0.000000
     5  Si   2.532045   2.415796   3.082042   2.746895   0.000000
     6  Si   3.281440   2.418241   3.069823   2.732653   3.076993
     7  Si   4.167110   3.959699   2.368671   2.417143   4.234369
     8  Si   3.485530   3.959667   2.381867   2.390059   2.455243
     9  Si   2.381869   3.018807   3.894518   4.172778   2.517632
                    6          7          8          9
     6  Si   0.000000
     7  Si   2.403674   0.000000
     8  Si   4.232098   3.906288   0.000000
     9  Si   2.382452   4.488488   4.625190   0.000000
 Stoichiometry    Si9(1-,2)
 Framework group  C1[X(Si9)]
 Deg. of freedom    21
 Full point group                 C1      NOp   1
 Largest Abelian subgroup         C1      NOp   1
 Largest concise Abelian subgroup C1      NOp   1
                         Standard orientation:                         
 ---------------------------------------------------------------------
 Center     Atomic      Atomic             Coordinates (Angstroms)
 Number     Number       Type             X           Y           Z
 ---------------------------------------------------------------------
      1         14           0       -1.032741    1.875080   -0.979332
      2         14           0       -0.913826   -1.691784    1.403370
      3         14           0        1.260722    1.068009   -0.957712
      4         14           0        1.353089   -0.881956    0.877801
      5         14           0       -0.845017    0.719099    1.265599
      6         14           0       -0.595383   -1.377078   -0.973064
      7         14           0        1.745082   -1.189281   -1.487463
      8         14           0        1.496030    1.450044    1.381513
      9         14           0       -2.467957    0.027867   -0.530712
 ---------------------------------------------------------------------
 Rotational constants (GHZ):      0.7002839      0.6158440      0.5646375
 Standard basis: GTBas3 (6D, 7F)
 There are   288 symmetry adapted basis functions of A   symmetry.
 Integral buffers will be    131072 words long.
 Raffenetti 2 integral format.
 Two-electron integral symmetry is turned on.
   288 basis functions,   612 primitive gaussians,   315 cartesian basis functions
    64 alpha electrons       63 beta electrons
       nuclear repulsion energy      1234.0096224675 Hartrees.
 NAtoms=    9 NActive=    9 NUniq=    9 SFac= 7.50D-01 NAtFMM=   80 NAOKFM=F Big=F
 One-electron integrals computed using PRISM.
 NBasis=   288 RedAO= T  NBF=   288
 NBsUse=   288 1.00D-06 NBFU=   288
 Harris functional with IExCor=  402 diagonalized for initial guess.
 ExpMin= 7.78D-02 ExpMax= 1.61D+04 ExpMxC= 2.43D+03 IAcc=2 IRadAn=         0 AccDes= 0.00D+00
 HarFok:  IExCor=  402 AccDes= 0.00D+00 IRadAn=         0 IDoV= 1
 ScaDFX=  1.000000  1.000000  1.000000  1.000000
 FoFCou: FMM=F IPFlag=           0 FMFlag=      100000 FMFlg1=           0
         NFxFlg=           0 DoJE=T BraDBF=F KetDBF=T FulRan=T
         Omega=  0.000000  0.000000  1.000000  0.000000  0.000000 ICntrl=     500 IOpCl=  0
         NMat0=    1 NMatS0=    1 NMatT0=    0 NMatD0=    1 NMtDS0=    0 NMtDT0=    0
         I1Cent=           4 NGrid=           0.
 Petite list used in FoFCou.
 Initial guess orbital symmetries:
 Alpha Orbitals:
       Occupied  (A) (A) (A) (A) (A) (A) (A) (A) (A) (A) (A) (A)
                 (A) (A) (A) (A) (A) (A) (A) (A) (A) (A) (A) (A)
                 (A) (A) (A) (A) (A) (A) (A) (A) (A) (A) (A) (A)
                 (A) (A) (A) (A) (A) (A) (A) (A) (A) (A) (A) (A)
                 (A) (A) (A) (A) (A) (A) (A) (A) (A) (A) (A) (A)
                 (A) (A) (A) (A)
       Virtual   (A) (A) (A) (A) (A) (A) (A) (A) (A) (A) (A) (A)
                 (A) (A) (A) (A) (A) (A) (A) (A) (A) (A) (A) (A)
                 (A) (A) (A) (A) (A) (A) (A) (A) (A) (A) (A) (A)
                 (A) (A) (A) (A) (A) (A) (A) (A) (A) (A) (A) (A)
                 (A) (A) (A) (A) (A) (A) (A) (A) (A) (A) (A) (A)
                 (A) (A) (A) (A) (A) (A) (A) (A) (A) (A) (A) (A)
                 (A) (A) (A) (A) (A) (A) (A) (A) (A) (A) (A) (A)
                 (A) (A) (A) (A) (A) (A) (A) (A) (A) (A) (A) (A)
                 (A) (A) (A) (A) (A) (A) (A) (A) (A) (A) (A) (A)
                 (A) (A) (A) (A) (A) (A) (A) (A) (A) (A) (A) (A)
                 (A) (A) (A) (A) (A) (A) (A) (A) (A) (A) (A) (A)
                 (A) (A) (A) (A) (A) (A) (A) (A) (A) (A) (A) (A)
                 (A) (A) (A) (A) (A) (A) (A) (A) (A) (A) (A) (A)
                 (A) (A) (A) (A) (A) (A) (A) (A) (A) (A) (A) (A)
                 (A) (A) (A) (A) (A) (A) (A) (A) (A) (A) (A) (A)
                 (A) (A) (A) (A) (A) (A) (A) (A) (A) (A) (A) (A)
                 (A) (A) (A) (A) (A) (A) (A) (A) (A) (A) (A) (A)
                 (A) (A) (A) (A) (A) (A) (A) (A) (A) (A) (A) (A)
                 (A) (A) (A) (A) (A) (A) (A) (A)
 Beta  Orbitals:
       Occupied  (A) (A) (A) (A) (A) (A) (A) (A) (A) (A) (A) (A)
                 (A) (A) (A) (A) (A) (A) (A) (A) (A) (A) (A) (A)
                 (A) (A) (A) (A) (A) (A) (A) (A) (A) (A) (A) (A)
                 (A) (A) (A) (A) (A) (A) (A) (A) (A) (A) (A) (A)
                 (A) (A) (A) (A) (A) (A) (A) (A) (A) (A) (A) (A)
                 (A) (A) (A)
       Virtual   (A) (A) (A) (A) (A) (A) (A) (A) (A) (A) (A) (A)
                 (A) (A) (A) (A) (A) (A) (A) (A) (A) (A) (A) (A)
                 (A) (A) (A) (A) (A) (A) (A) (A) (A) (A) (A) (A)
                 (A) (A) (A) (A) (A) (A) (A) (A) (A) (A) (A) (A)
                 (A) (A) (A) (A) (A) (A) (A) (A) (A) (A) (A) (A)
                 (A) (A) (A) (A) (A) (A) (A) (A) (A) (A) (A) (A)
                 (A) (A) (A) (A) (A) (A) (A) (A) (A) (A) (A) (A)
                 (A) (A) (A) (A) (A) (A) (A) (A) (A) (A) (A) (A)
                 (A) (A) (A) (A) (A) (A) (A) (A) (A) (A) (A) (A)
                 (A) (A) (A) (A) (A) (A) (A) (A) (A) (A) (A) (A)
                 (A) (A) (A) (A) (A) (A) (A) (A) (A) (A) (A) (A)
                 (A) (A) (A) (A) (A) (A) (A) (A) (A) (A) (A) (A)
                 (A) (A) (A) (A) (A) (A) (A) (A) (A) (A) (A) (A)
                 (A) (A) (A) (A) (A) (A) (A) (A) (A) (A) (A) (A)
                 (A) (A) (A) (A) (A) (A) (A) (A) (A) (A) (A) (A)
                 (A) (A) (A) (A) (A) (A) (A) (A) (A) (A) (A) (A)
                 (A) (A) (A) (A) (A) (A) (A) (A) (A) (A) (A) (A)
                 (A) (A) (A) (A) (A) (A) (A) (A) (A) (A) (A) (A)
                 (A) (A) (A) (A) (A) (A) (A) (A) (A)
 The electronic state of the initial guess is 2-A.
 Initial guess <Sx>= 0.0000 <Sy>= 0.0000 <Sz>= 0.5000 <S**2>= 0.7500 S= 0.5000
 Requested convergence on RMS density matrix=1.00D-08 within 128 cycles.
 Requested convergence on MAX density matrix=1.00D-06.
 Requested convergence on             energy=1.00D-06.
 No special actions if energy rises.
 Keep R1 and R2 ints in memory in canonical form, NReq=2493271738.
 Integral accuracy reduced to 1.0D-05 until final iterations.
 Initial convergence to 1.0D-05 achieved.  Increase integral accuracy.
 SCF Done:  E(UB3LYP) =  -2605.49351467     A.U. after   22 cycles
             Convg  =    0.9206D-08             -V/T =  2.0035
 <Sx>= 0.0000 <Sy>= 0.0000 <Sz>= 0.5000 <S**2>= 0.7585 S= 0.5043
 <L.S>= 0.000000000000E+00
 Annihilation of the first spin contaminant:
 S**2 before annihilation     0.7585,   after     0.7501
 QCSCF skips out because SCF is already converged.

 **********************************************************************

            Population analysis using the SCF density.

 **********************************************************************

 Orbital symmetries:
 Alpha Orbitals:
       Occupied  (A) (A) (A) (A) (A) (A) (A) (A) (A) (A) (A) (A)
                 (A) (A) (A) (A) (A) (A) (A) (A) (A) (A) (A) (A)
                 (A) (A) (A) (A) (A) (A) (A) (A) (A) (A) (A) (A)
                 (A) (A) (A) (A) (A) (A) (A) (A) (A) (A) (A) (A)
                 (A) (A) (A) (A) (A) (A) (A) (A) (A) (A) (A) (A)
                 (A) (A) (A) (A)
       Virtual   (A) (A) (A) (A) (A) (A) (A) (A) (A) (A) (A) (A)
                 (A) (A) (A) (A) (A) (A) (A) (A) (A) (A) (A) (A)
                 (A) (A) (A) (A) (A) (A) (A) (A) (A) (A) (A) (A)
                 (A) (A) (A) (A) (A) (A) (A) (A) (A) (A) (A) (A)
                 (A) (A) (A) (A) (A) (A) (A) (A) (A) (A) (A) (A)
                 (A) (A) (A) (A) (A) (A) (A) (A) (A) (A) (A) (A)
                 (A) (A) (A) (A) (A) (A) (A) (A) (A) (A) (A) (A)
                 (A) (A) (A) (A) (A) (A) (A) (A) (A) (A) (A) (A)
                 (A) (A) (A) (A) (A) (A) (A) (A) (A) (A) (A) (A)
                 (A) (A) (A) (A) (A) (A) (A) (A) (A) (A) (A) (A)
                 (A) (A) (A) (A) (A) (A) (A) (A) (A) (A) (A) (A)
                 (A) (A) (A) (A) (A) (A) (A) (A) (A) (A) (A) (A)
                 (A) (A) (A) (A) (A) (A) (A) (A) (A) (A) (A) (A)
                 (A) (A) (A) (A) (A) (A) (A) (A) (A) (A) (A) (A)
                 (A) (A) (A) (A) (A) (A) (A) (A) (A) (A) (A) (A)
                 (A) (A) (A) (A) (A) (A) (A) (A) (A) (A) (A) (A)
                 (A) (A) (A) (A) (A) (A) (A) (A) (A) (A) (A) (A)
                 (A) (A) (A) (A) (A) (A) (A) (A) (A) (A) (A) (A)
                 (A) (A) (A) (A) (A) (A) (A) (A)
 Beta  Orbitals:
       Occupied  (A) (A) (A) (A) (A) (A) (A) (A) (A) (A) (A) (A)
                 (A) (A) (A) (A) (A) (A) (A) (A) (A) (A) (A) (A)
                 (A) (A) (A) (A) (A) (A) (A) (A) (A) (A) (A) (A)
                 (A) (A) (A) (A) (A) (A) (A) (A) (A) (A) (A) (A)
                 (A) (A) (A) (A) (A) (A) (A) (A) (A) (A) (A) (A)
                 (A) (A) (A)
       Virtual   (A) (A) (A) (A) (A) (A) (A) (A) (A) (A) (A) (A)
                 (A) (A) (A) (A) (A) (A) (A) (A) (A) (A) (A) (A)
                 (A) (A) (A) (A) (A) (A) (A) (A) (A) (A) (A) (A)
                 (A) (A) (A) (A) (A) (A) (A) (A) (A) (A) (A) (A)
                 (A) (A) (A) (A) (A) (A) (A) (A) (A) (A) (A) (A)
                 (A) (A) (A) (A) (A) (A) (A) (A) (A) (A) (A) (A)
                 (A) (A) (A) (A) (A) (A) (A) (A) (A) (A) (A) (A)
                 (A) (A) (A) (A) (A) (A) (A) (A) (A) (A) (A) (A)
                 (A) (A) (A) (A) (A) (A) (A) (A) (A) (A) (A) (A)
                 (A) (A) (A) (A) (A) (A) (A) (A) (A) (A) (A) (A)
                 (A) (A) (A) (A) (A) (A) (A) (A) (A) (A) (A) (A)
                 (A) (A) (A) (A) (A) (A) (A) (A) (A) (A) (A) (A)
                 (A) (A) (A) (A) (A) (A) (A) (A) (A) (A) (A) (A)
                 (A) (A) (A) (A) (A) (A) (A) (A) (A) (A) (A) (A)
                 (A) (A) (A) (A) (A) (A) (A) (A) (A) (A) (A) (A)
                 (A) (A) (A) (A) (A) (A) (A) (A) (A) (A) (A) (A)
                 (A) (A) (A) (A) (A) (A) (A) (A) (A) (A) (A) (A)
                 (A) (A) (A) (A) (A) (A) (A) (A) (A) (A) (A) (A)
                 (A) (A) (A) (A) (A) (A) (A) (A) (A)
 The electronic state is 2-A.
 Alpha  occ. eigenvalues --  -66.01105 -66.00653 -66.00313 -65.99915 -65.99882
 Alpha  occ. eigenvalues --  -65.99799 -65.99518 -65.99350 -65.98977  -5.15519
 Alpha  occ. eigenvalues --   -5.15171  -5.14766  -5.14483  -5.14469  -5.14322
 Alpha  occ. eigenvalues --   -5.14066  -5.13883  -5.13576  -3.51530  -3.51298
 Alpha  occ. eigenvalues --   -3.51208  -3.51203  -3.50972  -3.50821  -3.50750
 Alpha  occ. eigenvalues --   -3.50559  -3.50517  -3.50511  -3.50480  -3.50249
 Alpha  occ. eigenvalues --   -3.50246  -3.50237  -3.50187  -3.50160  -3.50150
 Alpha  occ. eigenvalues --   -3.49992  -3.49952  -3.49874  -3.49798  -3.49744
 Alpha  occ. eigenvalues --   -3.49680  -3.49581  -3.49454  -3.49421  -3.49274
 Alpha  occ. eigenvalues --   -0.51032  -0.41827  -0.39922  -0.37935  -0.28180
 Alpha  occ. eigenvalues --   -0.27391  -0.25865  -0.24291  -0.20065  -0.16359
 Alpha  occ. eigenvalues --   -0.12217  -0.11620  -0.10404  -0.10244  -0.09447
 Alpha  occ. eigenvalues --   -0.09263  -0.08485  -0.07083  -0.04299
 Alpha virt. eigenvalues --    0.04503   0.04860   0.06081   0.07573   0.08879
 Alpha virt. eigenvalues --    0.09980   0.10707   0.12103   0.13036   0.14132
 Alpha virt. eigenvalues --    0.15364   0.15606   0.16178   0.16712   0.18344
 Alpha virt. eigenvalues --    0.21063   0.22400   0.25579   0.26074   0.26434
 Alpha virt. eigenvalues --    0.27378   0.28182   0.29024   0.29617   0.29775
 Alpha virt. eigenvalues --    0.30271   0.30705   0.30995   0.31269   0.31737
 Alpha virt. eigenvalues --    0.32412   0.33060   0.33379   0.34672   0.34976
 Alpha virt. eigenvalues --    0.36457   0.36668   0.38860   0.39505   0.39921
 Alpha virt. eigenvalues --    0.40517   0.41142   0.42228   0.43102   0.43304
 Alpha virt. eigenvalues --    0.43810   0.44012   0.45148   0.45754   0.45917
 Alpha virt. eigenvalues --    0.47488   0.47557   0.49070   0.49804   0.49953
 Alpha virt. eigenvalues --    0.51443   0.52969   0.53629   0.54093   0.55062
 Alpha virt. eigenvalues --    0.55974   0.56497   0.57149   0.58871   0.60510
 Alpha virt. eigenvalues --    0.61588   0.62922   0.64397   0.64812   0.65838
 Alpha virt. eigenvalues --    0.66776   0.67562   0.67725   0.68289   0.68901
 Alpha virt. eigenvalues --    0.70854   0.71621   0.73022   0.73271   0.75159
 Alpha virt. eigenvalues --    0.75366   0.78091   0.78327   0.79758   0.81457
 Alpha virt. eigenvalues --    0.82137   0.82447   0.83278   0.83854   0.84281
 Alpha virt. eigenvalues --    0.84816   0.85353   0.86775   0.87737   0.88621
 Alpha virt. eigenvalues --    0.89113   0.90170   0.91399   0.98049   0.98861
 Alpha virt. eigenvalues --    0.99927   1.01256   1.01965   1.03565   1.06062
 Alpha virt. eigenvalues --    1.06546   1.06905   1.07264   1.08504   1.10600
 Alpha virt. eigenvalues --    1.12189   1.12782   1.13453   1.14855   1.15849
 Alpha virt. eigenvalues --    1.16526   1.17131   1.18083   1.19622   1.19820
 Alpha virt. eigenvalues --    1.21013   1.21368   1.22387   1.23399   1.25404
 Alpha virt. eigenvalues --    1.26308   1.28163   1.28580   1.30216   1.32219
 Alpha virt. eigenvalues --    1.32521   1.33139   1.34225   1.35678   1.36561
 Alpha virt. eigenvalues --    1.38258   1.38601   1.40351   1.41416   1.42765
 Alpha virt. eigenvalues --    1.43476   1.44103   1.46734   1.48259   1.50518
 Alpha virt. eigenvalues --    1.50539   1.51031   1.51908   1.54004   1.54454
 Alpha virt. eigenvalues --    1.55418   1.55828   1.57372   1.59051   1.59774
 Alpha virt. eigenvalues --    1.60178   1.61112   1.61830   1.62907   1.63329
 Alpha virt. eigenvalues --    1.64057   1.64997   1.65239   1.67503   1.67776
 Alpha virt. eigenvalues --    1.69826   1.70741   1.74466   1.80661   1.84241
 Alpha virt. eigenvalues --    1.85894   1.87368   1.88869   1.92031   1.93041
 Alpha virt. eigenvalues --    1.93324   1.93664   1.94667   1.95484   1.96094
 Alpha virt. eigenvalues --    1.97745   1.98696   2.00674   2.02109   2.02441
 Alpha virt. eigenvalues --    2.04392   2.05619   2.07093   2.07266   2.07625
 Alpha virt. eigenvalues --    2.09513   2.11359   2.11998   2.12963   2.13373
 Alpha virt. eigenvalues --    2.15036   2.16089   2.17381   2.18603   2.20886
 Alpha virt. eigenvalues --    2.21344   2.23720   2.24527   2.26822   2.28211
 Alpha virt. eigenvalues --    2.29884   2.30791   2.31908   2.32471   2.34194
 Alpha virt. eigenvalues --    2.35293   2.36422   2.38144   2.41724   2.46321
 Alpha virt. eigenvalues --    2.65519   2.89769   2.93492   2.96931   3.05524
 Alpha virt. eigenvalues --    3.13106   3.20922   3.25470   3.30779
  Beta  occ. eigenvalues --  -66.01087 -66.00616 -66.00306 -65.99891 -65.99762
  Beta  occ. eigenvalues --  -65.99732 -65.99502 -65.99331 -65.98944  -5.15494
  Beta  occ. eigenvalues --   -5.15130  -5.14758  -5.14451  -5.14303  -5.14282
  Beta  occ. eigenvalues --   -5.14049  -5.13862  -5.13540  -3.51507  -3.51256
  Beta  occ. eigenvalues --   -3.51199  -3.51173  -3.50849  -3.50794  -3.50754
  Beta  occ. eigenvalues --   -3.50526  -3.50479  -3.50471  -3.50224  -3.50206
  Beta  occ. eigenvalues --   -3.50196  -3.50150  -3.50075  -3.50062  -3.49987
  Beta  occ. eigenvalues --   -3.49929  -3.49903  -3.49825  -3.49785  -3.49722
  Beta  occ. eigenvalues --   -3.49604  -3.49578  -3.49410  -3.49347  -3.49236
  Beta  occ. eigenvalues --   -0.50766  -0.41519  -0.39360  -0.37420  -0.27628
  Beta  occ. eigenvalues --   -0.27023  -0.25300  -0.23826  -0.19616  -0.15617
  Beta  occ. eigenvalues --   -0.11603  -0.11358  -0.10182  -0.09784  -0.09180
  Beta  occ. eigenvalues --   -0.08874  -0.08184  -0.06702
  Beta virt. eigenvalues --    0.01188   0.04727   0.05205   0.06562   0.07800
  Beta virt. eigenvalues --    0.09070   0.10271   0.10875   0.12516   0.13413
  Beta virt. eigenvalues --    0.14533   0.15514   0.15861   0.16596   0.17055
  Beta virt. eigenvalues --    0.19003   0.21302   0.22653   0.25745   0.26229
  Beta virt. eigenvalues --    0.26718   0.27579   0.28432   0.29229   0.29816
  Beta virt. eigenvalues --    0.30030   0.30459   0.30901   0.31158   0.31461
  Beta virt. eigenvalues --    0.32080   0.32669   0.33302   0.33805   0.35037
  Beta virt. eigenvalues --    0.35259   0.37057   0.37231   0.39246   0.39629
  Beta virt. eigenvalues --    0.40145   0.40843   0.41560   0.42535   0.43262
  Beta virt. eigenvalues --    0.43682   0.44032   0.44168   0.45365   0.45943
  Beta virt. eigenvalues --    0.46345   0.47726   0.47875   0.49295   0.50088
  Beta virt. eigenvalues --    0.50425   0.51649   0.53247   0.53884   0.54331
  Beta virt. eigenvalues --    0.55397   0.56273   0.56667   0.57520   0.59383
  Beta virt. eigenvalues --    0.60966   0.61906   0.63179   0.64595   0.65106
  Beta virt. eigenvalues --    0.66072   0.67075   0.67819   0.67947   0.68599
  Beta virt. eigenvalues --    0.69207   0.71284   0.71835   0.73306   0.73499
  Beta virt. eigenvalues --    0.75511   0.75605   0.78213   0.78577   0.80089
  Beta virt. eigenvalues --    0.81707   0.82317   0.82707   0.83510   0.84092
  Beta virt. eigenvalues --    0.84557   0.85019   0.85642   0.87025   0.87915
  Beta virt. eigenvalues --    0.88832   0.89341   0.90504   0.91770   0.98465
  Beta virt. eigenvalues --    0.99148   1.00161   1.01493   1.02222   1.03921
  Beta virt. eigenvalues --    1.06368   1.06964   1.07204   1.07546   1.08993
  Beta virt. eigenvalues --    1.10859   1.12682   1.13039   1.13839   1.15261
  Beta virt. eigenvalues --    1.16145   1.16829   1.17500   1.18429   1.19919
  Beta virt. eigenvalues --    1.20033   1.21182   1.21663   1.22787   1.23756
  Beta virt. eigenvalues --    1.25635   1.26597   1.28340   1.28795   1.30616
  Beta virt. eigenvalues --    1.32625   1.32856   1.33442   1.34620   1.35942
  Beta virt. eigenvalues --    1.36973   1.38534   1.39166   1.40600   1.41701
  Beta virt. eigenvalues --    1.43012   1.43771   1.44341   1.47104   1.48532
  Beta virt. eigenvalues --    1.50729   1.50840   1.51237   1.52299   1.54157
  Beta virt. eigenvalues --    1.54649   1.55640   1.56074   1.57626   1.59278
  Beta virt. eigenvalues --    1.60011   1.60403   1.61317   1.62065   1.63041
  Beta virt. eigenvalues --    1.63493   1.64285   1.65156   1.65510   1.67673
  Beta virt. eigenvalues --    1.68114   1.70056   1.71138   1.74609   1.80773
  Beta virt. eigenvalues --    1.84441   1.86072   1.87575   1.89190   1.92121
  Beta virt. eigenvalues --    1.93143   1.93486   1.93764   1.94864   1.95602
  Beta virt. eigenvalues --    1.96250   1.97869   1.98804   2.00906   2.02325
  Beta virt. eigenvalues --    2.02747   2.04542   2.05707   2.07362   2.07624
  Beta virt. eigenvalues --    2.07741   2.09656   2.11490   2.12113   2.13069
  Beta virt. eigenvalues --    2.13517   2.15174   2.16181   2.17635   2.18713
  Beta virt. eigenvalues --    2.21048   2.21509   2.23881   2.24747   2.26981
  Beta virt. eigenvalues --    2.28299   2.29979   2.30904   2.32048   2.32562
  Beta virt. eigenvalues --    2.34370   2.35372   2.36547   2.38246   2.41938
  Beta virt. eigenvalues --    2.46454   2.65758   2.90051   2.93628   2.97102
  Beta virt. eigenvalues --    3.05785   3.13266   3.21027   3.25616   3.30853
          Condensed to atoms (all electrons):
              1          2          3          4          5          6
     1  Si  13.706055  -0.012290   0.188917   0.001131   0.121275  -0.015516
     2  Si  -0.012290  13.694298  -0.000681   0.174831   0.206633   0.201162
     3  Si   0.188917  -0.000681  13.460434  -0.007830  -0.016774  -0.028508
     4  Si   0.001131   0.174831  -0.007830  13.449773  -0.046532   0.002868
     5  Si   0.121275   0.206633  -0.016774  -0.046532  13.442895  -0.024589
     6  Si  -0.015516   0.201162  -0.028508   0.002868  -0.024589  13.442526
     7  Si  -0.019399  -0.029992   0.229053   0.221141  -0.001057   0.209133
     8  Si  -0.014615  -0.041112   0.234892   0.222664   0.187433  -0.001175
     9  Si   0.189930   0.004545  -0.011914   0.000346   0.119264   0.203013
              7          8          9
     1  Si  -0.019399  -0.014615   0.189930
     2  Si  -0.029992  -0.041112   0.004545
     3  Si   0.229053   0.234892  -0.011914
     4  Si   0.221141   0.222664   0.000346
     5  Si  -0.001057   0.187433   0.119264
     6  Si   0.209133  -0.001175   0.203013
     7  Si  13.685539  -0.043605  -0.019614
     8  Si  -0.043605  13.659262  -0.008000
     9  Si  -0.019614  -0.008000  13.709162
 Mulliken atomic charges:
              1
     1  Si  -0.145487
     2  Si  -0.197395
     3  Si  -0.047589
     4  Si  -0.018392
     5  Si   0.011453
     6  Si   0.011086
     7  Si  -0.231200
     8  Si  -0.195745
     9  Si  -0.186732
 Sum of Mulliken atomic charges =  -1.00000
 Mulliken charges with hydrogens summed into heavy atoms:
              1
     1  Si  -0.145487
     2  Si  -0.197395
     3  Si  -0.047589
     4  Si  -0.018392
     5  Si   0.011453
     6  Si   0.011086
     7  Si  -0.231200
     8  Si  -0.195745
     9  Si  -0.186732
 Sum of Mulliken charges with hydrogens summed into heavy atoms =  -1.00000
          Atomic-Atomic Spin Densities.
              1          2          3          4          5          6
     1  Si   0.497386   0.004707  -0.006979   0.001434  -0.003952  -0.033564
     2  Si   0.004707   0.066198   0.000412   0.032329  -0.038453   0.014091
     3  Si  -0.006979   0.000412   0.097515   0.002502   0.004174  -0.019493
     4  Si   0.001434   0.032329   0.002502   0.041416  -0.036018  -0.003448
     5  Si  -0.003952  -0.038453   0.004174  -0.036018   0.093309   0.002930
     6  Si  -0.033564   0.014091  -0.019493  -0.003448   0.002930   0.130931
     7  Si  -0.013010   0.000238  -0.027110   0.001951  -0.002378   0.024886
     8  Si   0.012453  -0.011402  -0.011221  -0.019799   0.026497  -0.000057
     9  Si   0.012131  -0.008955   0.006147   0.002964  -0.001738  -0.002582
              7          8          9
     1  Si  -0.013010   0.012453   0.012131
     2  Si   0.000238  -0.011402  -0.008955
     3  Si  -0.027110  -0.011221   0.006147
     4  Si   0.001951  -0.019799   0.002964
     5  Si  -0.002378   0.026497  -0.001738
     6  Si   0.024886  -0.000057  -0.002582
     7  Si   0.112046  -0.002064  -0.000027
     8  Si  -0.002064   0.062707  -0.000134
     9  Si  -0.000027  -0.000134   0.083570
 Mulliken atomic spin densities:
              1
     1  Si   0.470605
     2  Si   0.059164
     3  Si   0.045946
     4  Si   0.023331
     5  Si   0.044370
     6  Si   0.113694
     7  Si   0.094533
     8  Si   0.056980
     9  Si   0.091377
 Sum of Mulliken atomic spin densities =   1.00000
 Electronic spatial extent (au):  <R**2>=           2488.2691
 Charge=             -1.0000 electrons
 Dipole moment (field-independent basis, Debye):
    X=              0.2273    Y=              0.0118    Z=             -0.3509  Tot=              0.4183
 Quadrupole moment (field-independent basis, Debye-Ang):
   XX=           -142.3749   YY=           -139.4966   ZZ=           -135.7421
   XY=             -0.0361   XZ=              1.5537   YZ=             -0.1825
 Traceless Quadrupole moment (field-independent basis, Debye-Ang):
   XX=             -3.1704   YY=             -0.2921   ZZ=              3.4624
   XY=             -0.0361   XZ=              1.5537   YZ=             -0.1825
 Octapole moment (field-independent basis, Debye-Ang**2):
  XXX=             15.2631  YYY=             -7.6931  ZZZ=             -6.4200  XYY=             -0.2082
  XXY=              2.0652  XXZ=              4.9160  XZZ=             -8.5638  YZZ=              4.2705
  YYZ=             -3.6204  XYZ=            -17.9006
 Hexadecapole moment (field-independent basis, Debye-Ang**3):
 XXXX=          -1862.4514 YYYY=          -1529.6144 ZZZZ=          -1256.7798 XXXY=              2.8325
 XXXZ=             10.9104 YYYX=              2.2087 YYYZ=              9.7361 ZZZX=             16.2375
 ZZZY=             -9.7339 XXYY=           -573.1830 XXZZ=           -532.3586 YYZZ=           -491.2844
 XXYZ=             -9.0243 YYXZ=              1.3049 ZZXY=             -1.7196
 N-N= 1.234009622468D+03 E-N=-1.302186371854D+04  KE= 3.893913908553D+03
                          Isotropic Fermi Contact Couplings
        Atom                 a.u.       MegaHertz       Gauss      10(-4) cm-1
     1  Si(29)             0.05127     -45.56212     -16.25770     -15.19789
     2  Si(29)            -0.00157       1.39439       0.49755       0.46512
     3  Si(29)             0.07421     -65.95119     -23.53302     -21.99895
     4  Si(29)             0.00952      -8.45662      -3.01753      -2.82082
     5  Si(29)             0.05820     -51.72794     -18.45781     -17.25458
     6  Si(29)             0.00276      -2.45292      -0.87526      -0.81820
     7  Si(29)             0.00987      -8.77559      -3.13135      -2.92722
     8  Si(29)            -0.00134       1.19354       0.42588       0.39812
     9  Si(29)            -0.01168      10.37771       3.70302       3.46163
 --------------------------------------------------------
       Center         ----  Spin Dipole Couplings  ----
                      3XX-RR        3YY-RR        3ZZ-RR
 --------------------------------------------------------
     1   Atom       -0.420722      0.459753     -0.039031
     2   Atom       -0.022744     -0.014171      0.036915
     3   Atom       -0.026553      0.033858     -0.007305
     4   Atom        0.017110     -0.026210      0.009100
     5   Atom       -0.024406     -0.056914      0.081320
     6   Atom       -0.082758      0.097972     -0.015214
     7   Atom       -0.062068      0.126135     -0.064068
     8   Atom       -0.037529      0.094639     -0.057109
     9   Atom       -0.120099      0.251096     -0.130997
 --------------------------------------------------------
                        XY            XZ            YZ
 --------------------------------------------------------
     1   Atom        0.055258      0.036232      0.574192
     2   Atom        0.066474      0.079081      0.090525
     3   Atom       -0.028599      0.028839     -0.079362
     4   Atom        0.029995     -0.045833     -0.021278
     5   Atom        0.004667      0.017114     -0.002913
     6   Atom       -0.095906      0.054302     -0.150993
     7   Atom       -0.094700      0.040675     -0.098045
     8   Atom        0.052449     -0.014960     -0.045773
     9   Atom        0.073247     -0.006012     -0.082312
 --------------------------------------------------------


 ---------------------------------------------------------------------------------
              Anisotropic Spin Dipole Couplings in Principal Axis System
 ---------------------------------------------------------------------------------

       Atom             a.u.   MegaHertz   Gauss  10(-4) cm-1        Axes

              Baa    -0.4242    44.999    16.057    15.010  0.9986 -0.0444 -0.0277
     1 Si(29) Bbb    -0.4157    44.094    15.734    14.708 -0.0012 -0.5484  0.8362
              Bcc     0.8398   -89.093   -31.791   -29.718  0.0523  0.8350  0.5477
 
              Baa    -0.0862     9.145     3.263     3.050 -0.5315  0.8084 -0.2530
     2 Si(29) Bbb    -0.0766     8.128     2.900     2.711  0.6937  0.2440 -0.6777
              Bcc     0.1628   -17.274    -6.164    -5.762  0.4861  0.5357  0.6904
 
              Baa    -0.0696     7.379     2.633     2.461 -0.1579  0.5733  0.8040
     3 Si(29) Bbb    -0.0378     4.013     1.432     1.338  0.9445  0.3253 -0.0465
              Bcc     0.1074   -11.392    -4.065    -3.800 -0.2882  0.7520 -0.5928
 
              Baa    -0.0418     4.431     1.581     1.478 -0.5207  0.8460 -0.1152
     4 Si(29) Bbb    -0.0308     3.272     1.167     1.091  0.4866  0.4049  0.7741
              Bcc     0.0726    -7.703    -2.749    -2.569  0.7015  0.3470 -0.6225
 
              Baa    -0.0578     6.130     2.187     2.045 -0.1585  0.9865  0.0402
     5 Si(29) Bbb    -0.0263     2.787     0.994     0.930  0.9751  0.1628 -0.1507
              Bcc     0.0841    -8.917    -3.182    -2.974  0.1552 -0.0153  0.9878
 
              Baa    -0.1295    13.734     4.901     4.581  0.6747  0.5841  0.4512
     6 Si(29) Bbb    -0.1105    11.725     4.184     3.911 -0.6640  0.2135  0.7166
              Bcc     0.2400   -25.459    -9.084    -8.492 -0.3222  0.7831 -0.5319
 
              Baa    -0.1056    11.205     3.998     3.738 -0.1172  0.3459  0.9309
     7 Si(29) Bbb    -0.1015    10.764     3.841     3.591  0.9265  0.3756 -0.0229
              Bcc     0.2071   -21.969    -7.839    -7.328 -0.3576  0.8598 -0.3645
 
              Baa    -0.0699     7.411     2.644     2.472  0.0226  0.2613  0.9650
     8 Si(29) Bbb    -0.0558     5.915     2.111     1.973  0.9481 -0.3117  0.0622
              Bcc     0.1256   -13.325    -4.755    -4.445  0.3171  0.9135 -0.2548
 
              Baa    -0.1521    16.134     5.757     5.382 -0.4177  0.2540  0.8724
     9 Si(29) Bbb    -0.1293    13.712     4.893     4.574  0.8908 -0.0746  0.4482
              Bcc     0.2813   -29.845   -10.650    -9.955  0.1789  0.9643 -0.1951
 

 ---------------------------------------------------------------------------------

 Calling FoFJK, ICntrl=      2127 FMM=F ISym2X=0 I1Cent= 0 IOpClX= 1 NMat=1 NMatS=1 NMatT=0.
 ***** Axes restored to original set *****
 -------------------------------------------------------------------
 Center     Atomic                   Forces (Hartrees/Bohr)
 Number     Number              X              Y              Z
 -------------------------------------------------------------------
      1       14           0.000407554   -0.001178683    0.001313039
      2       14          -0.000869328    0.000726287   -0.001369106
      3       14          -0.000476681   -0.002322153    0.001325017
      4       14          -0.001954062    0.001554895   -0.001787016
      5       14           0.001026068   -0.000877370   -0.001365069
      6       14           0.001609431    0.002243059    0.001152025
      7       14          -0.000302568    0.000105221    0.000548119
      8       14          -0.001139085    0.000193566   -0.001386029
      9       14           0.001698672   -0.000444822    0.001569019
 -------------------------------------------------------------------
 Cartesian Forces:  Max     0.002322153 RMS     0.001292155

 GradGradGradGradGradGradGradGradGradGradGradGradGradGradGradGradGradGrad
 Berny optimization.
 Internal  Forces:  Max     0.001609050 RMS     0.000484068
 Search for a local minimum.
 Step number   1 out of a maximum of  100
 All quantities printed in internal units (Hartrees-Bohrs-Radians)
 Mixed Optimization -- En-DIIS/RFO-DIIS
 Second derivative matrix not updated -- first step.
     Eigenvalues ---    0.02749   0.03792   0.05344   0.06839   0.07524
     Eigenvalues ---    0.07829   0.09045   0.09318   0.09575   0.10366
     Eigenvalues ---    0.10505   0.11040   0.11288   0.11329   0.11851
     Eigenvalues ---    0.12015   0.13477   0.14051   0.14331   0.15849
     Eigenvalues ---    0.184541000.000001000.000001000.000001000.00000
     Eigenvalues --- 1000.000001000.000001000.000001000.000001000.00000
     Eigenvalues --- 1000.000001000.000001000.000001000.000001000.00000
     Eigenvalues --- 1000.000001000.000001000.000001000.000001000.00000
     Eigenvalues --- 1000.000001000.000001000.000001000.000001000.00000
     Eigenvalues --- 1000.000001000.000001000.000001000.000001000.00000
     Eigenvalues --- 1000.000001000.000001000.000001000.000001000.00000
     Eigenvalues --- 1000.000001000.000001000.000001000.000001000.00000
     Eigenvalues --- 1000.000001000.000001000.000001000.000001000.00000
     Eigenvalues --- 1000.000001000.000001000.000001000.000001000.00000
     Eigenvalues --- 1000.000001000.000001000.000001000.000001000.00000
     Eigenvalues --- 1000.000001000.000001000.000001000.000001000.00000
     Eigenvalues --- 1000.000001000.000001000.000001000.000001000.00000
     Eigenvalues --- 1000.000001000.000001000.000001000.000001000.00000
     Eigenvalues --- 1000.000001000.000001000.00000
 RFO step:  Lambda=-2.58103510D-04 EMin= 2.74876552D-02
 Linear search not attempted -- first point.
 Iteration  1 RMS(Cart)=  0.00466171 RMS(Int)=  0.00002873
 Iteration  2 RMS(Cart)=  0.00001623 RMS(Int)=  0.00001353
 Iteration  3 RMS(Cart)=  0.00000000 RMS(Int)=  0.00001353
 Variable       Old X    -DE/DX   Delta X   Delta X   Delta X     New X
                                 (Linear)    (Quad)   (Total)
    R1        4.59472  -0.00073   0.00000  -0.00447  -0.00448   4.59024
    R2        4.78487  -0.00115   0.00000  -0.01253  -0.01253   4.77234
    R3        4.50108  -0.00076   0.00000  -0.00622  -0.00622   4.49486
    R4        4.65615   0.00020   0.00000  -0.00014  -0.00013   4.65602
    R5        4.56519  -0.00085   0.00000  -0.00534  -0.00535   4.55985
    R6        4.56981  -0.00093   0.00000  -0.00835  -0.00835   4.56146
    R7        5.06362  -0.00161   0.00000  -0.01724  -0.01724   5.04638
    R8        4.47614  -0.00055   0.00000  -0.00810  -0.00810   4.46803
    R9        4.50108  -0.00083   0.00000  -0.00892  -0.00891   4.49216
   R10        5.19088  -0.00088   0.00000  -0.01679  -0.01679   5.17409
   R11        5.16397  -0.00155   0.00000  -0.01756  -0.01760   5.14637
   R12        4.56774  -0.00021   0.00000  -0.00503  -0.00499   4.56274
   R13        4.51656  -0.00015   0.00000  -0.00089  -0.00091   4.51565
   R14        4.63974  -0.00089   0.00000  -0.00751  -0.00750   4.63224
   R15        4.75763  -0.00127   0.00000  -0.01714  -0.01712   4.74051
   R16        4.54229  -0.00048   0.00000  -0.00723  -0.00723   4.53505
   R17        4.50218  -0.00105   0.00000  -0.00794  -0.00794   4.49424
    A1        1.33938   0.00021   0.00000   0.00035   0.00034   1.33972
    A2        1.88522  -0.00003   0.00000  -0.00165  -0.00167   1.88356
    A3        1.37997   0.00000   0.00000  -0.00164  -0.00167   1.37831
    A4        1.85476  -0.00014   0.00000  -0.00172  -0.00172   1.85304
    A5        2.10275   0.00028   0.00000   0.00460   0.00458   2.10734
    A6        1.61949  -0.00043   0.00000  -0.00381  -0.00381   1.61569
    A7        1.93082   0.00044   0.00000   0.00366   0.00366   1.93448
    A8        1.93220  -0.00010   0.00000  -0.00028  -0.00029   1.93190
    A9        1.89246  -0.00001   0.00000  -0.00012  -0.00013   1.89232
   A10        1.90790  -0.00006   0.00000   0.00287   0.00286   1.91076
   A11        1.20784   0.00023   0.00000   0.00234   0.00234   1.21019
   A12        1.20607  -0.00020   0.00000  -0.00328  -0.00329   1.20279
   A13        1.19248   0.00006   0.00000   0.00112   0.00111   1.19359
   A14        1.91987   0.00042   0.00000   0.00506   0.00505   1.92491
   A15        1.94140  -0.00024   0.00000  -0.00193  -0.00194   1.93945
   A16        1.89714   0.00010   0.00000   0.00006   0.00005   1.89720
   A17        2.09909  -0.00035   0.00000  -0.00301  -0.00301   2.09608
   A18        1.77242  -0.00023   0.00000   0.00006   0.00006   1.77248
   A19        1.54743  -0.00031   0.00000  -0.00224  -0.00224   1.54518
   A20        1.89818   0.00048   0.00000   0.00643   0.00643   1.90461
   A21        1.31639  -0.00046   0.00000  -0.00553  -0.00554   1.31085
   A22        1.82873  -0.00015   0.00000   0.00018   0.00017   1.82890
   A23        2.38922  -0.00014   0.00000   0.00080   0.00079   2.39001
   A24        1.92697   0.00043   0.00000   0.00319   0.00320   1.93017
   A25        1.36002  -0.00050   0.00000  -0.00684  -0.00684   1.35318
   A26        1.90480  -0.00001   0.00000  -0.00190  -0.00190   1.90291
   A27        2.43254   0.00070   0.00000   0.00918   0.00917   2.44170
   A28        1.39741  -0.00057   0.00000  -0.00687  -0.00687   1.39055
   A29        1.38135   0.00019   0.00000   0.00029   0.00027   1.38163
   A30        1.51954  -0.00036   0.00000  -0.00477  -0.00477   1.51477
   A31        1.35688   0.00009   0.00000   0.00041   0.00039   1.35727
    D1        0.34953  -0.00008   0.00000  -0.00187  -0.00187   0.34766
    D2        1.40842   0.00010   0.00000  -0.00053  -0.00053   1.40789
    D3       -0.61569  -0.00023   0.00000  -0.00394  -0.00394  -0.61963
    D4       -0.58861  -0.00014   0.00000  -0.00079  -0.00079  -0.58940
    D5        0.47028   0.00005   0.00000   0.00054   0.00054   0.47082
    D6       -1.55383  -0.00029   0.00000  -0.00286  -0.00287  -1.55670
    D7       -1.34368  -0.00006   0.00000  -0.00190  -0.00190  -1.34557
    D8       -0.33346   0.00013   0.00000   0.00166   0.00166  -0.33180
    D9        0.59409   0.00024   0.00000   0.00368   0.00367   0.59776
   D10       -0.25239  -0.00004   0.00000  -0.00242  -0.00239  -0.25479
   D11        0.23171   0.00041   0.00000   0.00687   0.00686   0.23858
   D12       -1.50954   0.00064   0.00000   0.00681   0.00682  -1.50271
   D13        0.84842   0.00037   0.00000   0.00625   0.00625   0.85467
   D14        1.51451   0.00028   0.00000   0.00328   0.00329   1.51780
   D15       -0.90214  -0.00035   0.00000  -0.00468  -0.00466  -0.90680
   D16        0.30720   0.00034   0.00000   0.00627   0.00625   0.31345
   D17       -0.33489   0.00012   0.00000   0.00185   0.00185  -0.33304
   D18        0.95429   0.00017   0.00000   0.00335   0.00333   0.95762
   D19       -0.32991   0.00013   0.00000   0.00376   0.00373  -0.32618
   D20        1.52666   0.00005   0.00000   0.00409   0.00408   1.53074
   D21        0.63140   0.00021   0.00000   0.00336   0.00335   0.63475
   D22       -1.53494  -0.00003   0.00000  -0.00105  -0.00104  -1.53598
   D23        0.31438  -0.00008   0.00000  -0.00103  -0.00103   0.31336
   D24        1.32426  -0.00004   0.00000   0.00091   0.00091   1.32517
   D25       -0.99377   0.00023   0.00000   0.00367   0.00367  -0.99010
   D26        0.01610   0.00027   0.00000   0.00560   0.00561   0.02171
   D27       -0.34629  -0.00002   0.00000   0.00079   0.00078  -0.34551
   D28        0.66358   0.00002   0.00000   0.00272   0.00272   0.66630
   D29       -1.32809  -0.00060   0.00000  -0.00932  -0.00931  -1.33740
   D30       -0.01742  -0.00029   0.00000  -0.00602  -0.00600  -0.02342
   D31       -0.67727  -0.00051   0.00000  -0.01048  -0.01045  -0.68773
   D32       -0.60201  -0.00027   0.00000  -0.00445  -0.00445  -0.60646
   D33        1.52097  -0.00068   0.00000  -0.00737  -0.00738   1.51359
   D34       -0.02370  -0.00045   0.00000  -0.00615  -0.00615  -0.02985
   D35       -0.87123  -0.00040   0.00000  -0.00599  -0.00598  -0.87721
   D36       -0.01757  -0.00029   0.00000  -0.00609  -0.00608  -0.02365
   D37        0.90951  -0.00017   0.00000  -0.00235  -0.00234   0.90716
   D38       -1.50300  -0.00032   0.00000  -0.00633  -0.00635  -1.50935
   D39        0.15875  -0.00027   0.00000  -0.00909  -0.00912   0.14963
   D40        1.94244   0.00045   0.00000   0.00767   0.00766   1.95010
   D41        0.85793   0.00039   0.00000   0.00662   0.00663   0.86456
   D42        1.10258   0.00036   0.00000   0.00731   0.00728   1.10987
   D43        0.01807   0.00030   0.00000   0.00626   0.00625   0.02432
   D44        0.06878   0.00027   0.00000   0.00936   0.00940   0.07818
   D45       -1.01573   0.00021   0.00000   0.00831   0.00836  -1.00737
         Item               Value     Threshold  Converged?
 Maximum Force            0.001609     0.000450     NO 
 RMS     Force            0.000484     0.000300     NO 
 Maximum Displacement     0.018008     0.001800     NO 
 RMS     Displacement     0.004660     0.001200     NO 
 Predicted change in Energy=-1.295488D-04
 GradGradGradGradGradGradGradGradGradGradGradGradGradGradGradGradGradGrad

                          Input orientation:                          
 ---------------------------------------------------------------------
 Center     Atomic      Atomic             Coordinates (Angstroms)
 Number     Number       Type             X           Y           Z
 ---------------------------------------------------------------------
      1         14           0       -1.031573    1.870548   -0.974482
      2         14           0       -0.919683   -1.690745    1.395402
      3         14           0        1.258506    1.060901   -0.957246
      4         14           0        1.347817   -0.878790    0.876008
      5         14           0       -0.842613    0.717426    1.264338
      6         14           0       -0.590128   -1.367548   -0.973875
      7         14           0        1.748141   -1.191340   -1.484471
      8         14           0        1.492894    1.453490    1.375517
      9         14           0       -2.463361    0.026059   -0.521191
 ---------------------------------------------------------------------
                    Distance matrix (angstroms):
                    1          2          3          4          5
     1  Si   0.000000
     2  Si   4.279214   0.000000
     3  Si   2.429051   4.225047   0.000000
     4  Si   4.079787   2.463858   2.670431   0.000000
     5  Si   2.525413   2.412967   3.077030   2.738009   0.000000
     6  Si   3.268048   2.413821   3.052064   2.723340   3.069278
     7  Si   4.166780   3.957317   2.364382   2.414500   4.232181
     8  Si   3.474099   3.963224   2.377151   2.389579   2.451274
     9  Si   2.378577   3.000615   3.887588   4.158845   2.508571
                    6          7          8          9
     6  Si   0.000000
     7  Si   2.399846   0.000000
     8  Si   4.221005   3.903820   0.000000
     9  Si   2.378248   4.488510   4.613786   0.000000
 Stoichiometry    Si9(1-,2)
 Framework group  C1[X(Si9)]
 Deg. of freedom    21
 Full point group                 C1      NOp   1
 Largest Abelian subgroup         C1      NOp   1
 Largest concise Abelian subgroup C1      NOp   1
                         Standard orientation:                         
 ---------------------------------------------------------------------
 Center     Atomic      Atomic             Coordinates (Angstroms)
 Number     Number       Type             X           Y           Z
 ---------------------------------------------------------------------
      1         14           0       -1.022896    1.861456   -1.000685
      2         14           0       -0.931628   -1.676987    1.404053
      3         14           0        1.266640    1.051262   -0.957152
      4         14           0        1.340328   -0.870792    0.895273
      5         14           0       -0.852525    0.729792    1.250541
      6         14           0       -0.582783   -1.376630   -0.965467
      7         14           0        1.759612   -1.206092   -1.458784
      8         14           0        1.482304    1.466123    1.373561
      9         14           0       -2.459053    0.021867   -0.541341
 ---------------------------------------------------------------------
 Rotational constants (GHZ):      0.7037819      0.6182942      0.5663620
 Standard basis: GTBas3 (6D, 7F)
 There are   288 symmetry adapted basis functions of A   symmetry.
 Integral buffers will be    131072 words long.
 Raffenetti 2 integral format.
 Two-electron integral symmetry is turned on.
   288 basis functions,   612 primitive gaussians,   315 cartesian basis functions
    64 alpha electrons       63 beta electrons
       nuclear repulsion energy      1236.5530517034 Hartrees.
 NAtoms=    9 NActive=    9 NUniq=    9 SFac= 7.50D-01 NAtFMM=   80 NAOKFM=F Big=F
 One-electron integrals computed using PRISM.
 NBasis=   288 RedAO= T  NBF=   288
 NBsUse=   288 1.00D-06 NBFU=   288
 Initial guess read from the read-write file.
 B after Tr=     0.000000    0.000000    0.000000
         Rot=    1.000000    0.000000    0.000000    0.000000 Ang=   0.00 deg.
 Initial guess orbital symmetries:
 Alpha Orbitals:
       Occupied  (A) (A) (A) (A) (A) (A) (A) (A) (A) (A) (A) (A)
                 (A) (A) (A) (A) (A) (A) (A) (A) (A) (A) (A) (A)
                 (A) (A) (A) (A) (A) (A) (A) (A) (A) (A) (A) (A)
                 (A) (A) (A) (A) (A) (A) (A) (A) (A) (A) (A) (A)
                 (A) (A) (A) (A) (A) (A) (A) (A) (A) (A) (A) (A)
                 (A) (A) (A) (A)
       Virtual   (A) (A) (A) (A) (A) (A) (A) (A) (A) (A) (A) (A)
                 (A) (A) (A) (A) (A) (A) (A) (A) (A) (A) (A) (A)
                 (A) (A) (A) (A) (A) (A) (A) (A) (A) (A) (A) (A)
                 (A) (A) (A) (A) (A) (A) (A) (A) (A) (A) (A) (A)
                 (A) (A) (A) (A) (A) (A) (A) (A) (A) (A) (A) (A)
                 (A) (A) (A) (A) (A) (A) (A) (A) (A) (A) (A) (A)
                 (A) (A) (A) (A) (A) (A) (A) (A) (A) (A) (A) (A)
                 (A) (A) (A) (A) (A) (A) (A) (A) (A) (A) (A) (A)
                 (A) (A) (A) (A) (A) (A) (A) (A) (A) (A) (A) (A)
                 (A) (A) (A) (A) (A) (A) (A) (A) (A) (A) (A) (A)
                 (A) (A) (A) (A) (A) (A) (A) (A) (A) (A) (A) (A)
                 (A) (A) (A) (A) (A) (A) (A) (A) (A) (A) (A) (A)
                 (A) (A) (A) (A) (A) (A) (A) (A) (A) (A) (A) (A)
                 (A) (A) (A) (A) (A) (A) (A) (A) (A) (A) (A) (A)
                 (A) (A) (A) (A) (A) (A) (A) (A) (A) (A) (A) (A)
                 (A) (A) (A) (A) (A) (A) (A) (A) (A) (A) (A) (A)
                 (A) (A) (A) (A) (A) (A) (A) (A) (A) (A) (A) (A)
                 (A) (A) (A) (A) (A) (A) (A) (A) (A) (A) (A) (A)
                 (A) (A) (A) (A) (A) (A) (A) (A)
 Beta  Orbitals:
       Occupied  (A) (A) (A) (A) (A) (A) (A) (A) (A) (A) (A) (A)
                 (A) (A) (A) (A) (A) (A) (A) (A) (A) (A) (A) (A)
                 (A) (A) (A) (A) (A) (A) (A) (A) (A) (A) (A) (A)
                 (A) (A) (A) (A) (A) (A) (A) (A) (A) (A) (A) (A)
                 (A) (A) (A) (A) (A) (A) (A) (A) (A) (A) (A) (A)
                 (A) (A) (A)
       Virtual   (A) (A) (A) (A) (A) (A) (A) (A) (A) (A) (A) (A)
                 (A) (A) (A) (A) (A) (A) (A) (A) (A) (A) (A) (A)
                 (A) (A) (A) (A) (A) (A) (A) (A) (A) (A) (A) (A)
                 (A) (A) (A) (A) (A) (A) (A) (A) (A) (A) (A) (A)
                 (A) (A) (A) (A) (A) (A) (A) (A) (A) (A) (A) (A)
                 (A) (A) (A) (A) (A) (A) (A) (A) (A) (A) (A) (A)
                 (A) (A) (A) (A) (A) (A) (A) (A) (A) (A) (A) (A)
                 (A) (A) (A) (A) (A) (A) (A) (A) (A) (A) (A) (A)
                 (A) (A) (A) (A) (A) (A) (A) (A) (A) (A) (A) (A)
                 (A) (A) (A) (A) (A) (A) (A) (A) (A) (A) (A) (A)
                 (A) (A) (A) (A) (A) (A) (A) (A) (A) (A) (A) (A)
                 (A) (A) (A) (A) (A) (A) (A) (A) (A) (A) (A) (A)
                 (A) (A) (A) (A) (A) (A) (A) (A) (A) (A) (A) (A)
                 (A) (A) (A) (A) (A) (A) (A) (A) (A) (A) (A) (A)
                 (A) (A) (A) (A) (A) (A) (A) (A) (A) (A) (A) (A)
                 (A) (A) (A) (A) (A) (A) (A) (A) (A) (A) (A) (A)
                 (A) (A) (A) (A) (A) (A) (A) (A) (A) (A) (A) (A)
                 (A) (A) (A) (A) (A) (A) (A) (A) (A) (A) (A) (A)
                 (A) (A) (A) (A) (A) (A) (A) (A) (A)
 Initial guess <Sx>= 0.0000 <Sy>= 0.0000 <Sz>= 0.5000 <S**2>= 0.7585 S= 0.5042
 Requested convergence on RMS density matrix=1.00D-08 within 128 cycles.
 Requested convergence on MAX density matrix=1.00D-06.
 Requested convergence on             energy=1.00D-06.
 No special actions if energy rises.
 Keep R1 and R2 ints in memory in canonical form, NReq=2493271738.
 SCF Done:  E(UB3LYP) =  -2605.49372582     A.U. after   15 cycles
             Convg  =    0.6380D-08             -V/T =  2.0035
 <Sx>= 0.0000 <Sy>= 0.0000 <Sz>= 0.5000 <S**2>= 0.7585 S= 0.5042
 <L.S>= 0.000000000000E+00
 Annihilation of the first spin contaminant:
 S**2 before annihilation     0.7585,   after     0.7501
 QCSCF skips out because SCF is already converged.
 Calling FoFJK, ICntrl=      2127 FMM=F ISym2X=0 I1Cent= 0 IOpClX= 1 NMat=1 NMatS=1 NMatT=0.
 ***** Axes restored to original set *****
 -------------------------------------------------------------------
 Center     Atomic                   Forces (Hartrees/Bohr)
 Number     Number              X              Y              Z
 -------------------------------------------------------------------
      1       14           0.000258945   -0.000242013    0.000713505
      2       14          -0.000947459    0.000387524   -0.000673365
      3       14          -0.000135502   -0.001605091    0.000507772
      4       14          -0.001132735    0.001034114   -0.000884310
      5       14           0.000860185   -0.000489172   -0.000384538
      6       14           0.001335982    0.001535036    0.000270939
      7       14          -0.000077724   -0.000206119    0.000091311
      8       14          -0.000692327    0.000345544   -0.000688555
      9       14           0.000530635   -0.000759822    0.001047241
 -------------------------------------------------------------------
 Cartesian Forces:  Max     0.001605091 RMS     0.000782918

 GradGradGradGradGradGradGradGradGradGradGradGradGradGradGradGradGradGrad
 Berny optimization.
 Using GEDIIS/GDIIS optimizer.
 Internal  Forces:  Max     0.001027970 RMS     0.000310358
 Search for a local minimum.
 Step number   2 out of a maximum of  100
 All quantities printed in internal units (Hartrees-Bohrs-Radians)
 Mixed Optimization -- En-DIIS/RFO-DIIS
 Swaping is turned off.
 Update second derivatives using D2CorX and points    1    2
 DE= -2.11D-04 DEPred=-1.30D-04 R= 1.63D+00
 SS=  1.41D+00  RLast= 5.93D-02 DXNew= 5.0454D-01 1.7805D-01
 Trust test= 1.63D+00 RLast= 5.93D-02 DXMaxT set to 3.00D-01
     Eigenvalues ---    0.01986   0.02931   0.04883   0.05382   0.07132
     Eigenvalues ---    0.07512   0.08987   0.09474   0.09727   0.10359
     Eigenvalues ---    0.10567   0.11204   0.11262   0.11406   0.11840
     Eigenvalues ---    0.12022   0.13115   0.13888   0.14390   0.15830
     Eigenvalues ---    0.183751000.000001000.000001000.000001000.00000
     Eigenvalues --- 1000.000001000.000001000.000001000.000001000.00000
     Eigenvalues --- 1000.000001000.000001000.000001000.000001000.00000
     Eigenvalues --- 1000.000001000.000001000.000001000.000001000.00000
     Eigenvalues --- 1000.000001000.000001000.000001000.000001000.00000
     Eigenvalues --- 1000.000001000.000001000.000001000.000001000.00000
     Eigenvalues --- 1000.000001000.000001000.000001000.000001000.00000
     Eigenvalues --- 1000.000001000.000001000.000001000.000001000.00000
     Eigenvalues --- 1000.000001000.000001000.000001000.000001000.00000
     Eigenvalues --- 1000.000001000.000001000.000001000.000001000.00000
     Eigenvalues --- 1000.000001000.000001000.000001000.000001000.00000
     Eigenvalues --- 1000.000001000.000001000.000001000.000001000.00000
     Eigenvalues --- 1000.000001000.000001000.000001000.000001000.00000
     Eigenvalues --- 1000.000001000.000001000.000001000.000001000.00000
     Eigenvalues --- 1000.000001000.000001000.00000
 En-DIIS/RFO-DIIS IScMMF=        0 using points:     2    1
 RFO step:  Lambda=-5.25789357D-05.
 DIIS coeffs:      2.67373     -1.67373
 Iteration  1 RMS(Cart)=  0.00974632 RMS(Int)=  0.00016924
 Iteration  2 RMS(Cart)=  0.00008557 RMS(Int)=  0.00009906
 Iteration  3 RMS(Cart)=  0.00000002 RMS(Int)=  0.00009906
 Variable       Old X    -DE/DX   Delta X   Delta X   Delta X     New X
                                  (DIIS)     (GDIIS)  (Total)
    R1        4.59024  -0.00025  -0.00749   0.00553  -0.00198   4.58826
    R2        4.77234  -0.00054  -0.02098   0.00014  -0.02087   4.75147
    R3        4.49486  -0.00014  -0.01041   0.00720  -0.00321   4.49165
    R4        4.65602   0.00035  -0.00023   0.00544   0.00524   4.66126
    R5        4.55985  -0.00054  -0.00895  -0.00065  -0.00960   4.55024
    R6        4.56146  -0.00036  -0.01398   0.00444  -0.00954   4.55192
    R7        5.04638  -0.00103  -0.02885  -0.00241  -0.03124   5.01514
    R8        4.46803  -0.00018  -0.01357   0.00015  -0.01347   4.45456
    R9        4.49216  -0.00029  -0.01492   0.00266  -0.01222   4.47994
   R10        5.17409  -0.00052  -0.02811  -0.00500  -0.03316   5.14093
   R11        5.14637  -0.00096  -0.02945  -0.00163  -0.03136   5.11501
   R12        4.56274   0.00013  -0.00836   0.00412  -0.00400   4.55874
   R13        4.51565   0.00002  -0.00152   0.00199   0.00041   4.51606
   R14        4.63224  -0.00054  -0.01255  -0.00019  -0.01266   4.61957
   R15        4.74051  -0.00053  -0.02866   0.00308  -0.02545   4.71506
   R16        4.53505  -0.00029  -0.01211  -0.00278  -0.01490   4.52016
   R17        4.49424  -0.00052  -0.01330   0.00149  -0.01181   4.48243
    A1        1.33972   0.00015   0.00057   0.00024   0.00074   1.34046
    A2        1.88356  -0.00008  -0.00279  -0.00229  -0.00516   1.87839
    A3        1.37831   0.00005  -0.00279   0.00039  -0.00256   1.37575
    A4        1.85304  -0.00013  -0.00288  -0.00156  -0.00444   1.84860
    A5        2.10734   0.00022   0.00767   0.00338   0.01096   2.11830
    A6        1.61569  -0.00036  -0.00637  -0.00326  -0.00962   1.60607
    A7        1.93448   0.00034   0.00613   0.00129   0.00748   1.94196
    A8        1.93190  -0.00006  -0.00049  -0.00079  -0.00138   1.93053
    A9        1.89232  -0.00001  -0.00022  -0.00074  -0.00103   1.89129
   A10        1.91076  -0.00006   0.00478   0.00151   0.00618   1.91694
   A11        1.21019   0.00022   0.00392   0.00204   0.00596   1.21614
   A12        1.20279  -0.00015  -0.00550  -0.00278  -0.00833   1.19446
   A13        1.19359   0.00010   0.00185   0.00176   0.00356   1.19716
   A14        1.92491   0.00036   0.00845   0.00320   0.01152   1.93644
   A15        1.93945  -0.00013  -0.00326  -0.00080  -0.00419   1.93526
   A16        1.89720   0.00013   0.00009   0.00024   0.00026   1.89746
   A17        2.09608  -0.00027  -0.00504  -0.00190  -0.00692   2.08916
   A18        1.77248  -0.00018   0.00011   0.00054   0.00068   1.77317
   A19        1.54518  -0.00023  -0.00376  -0.00127  -0.00504   1.54015
   A20        1.90461   0.00038   0.01076   0.00404   0.01479   1.91940
   A21        1.31085  -0.00040  -0.00928  -0.00467  -0.01400   1.29685
   A22        1.82890  -0.00016   0.00029  -0.00080  -0.00057   1.82833
   A23        2.39001  -0.00011   0.00133  -0.00030   0.00099   2.39100
   A24        1.93017   0.00035   0.00536   0.00170   0.00712   1.93729
   A25        1.35318  -0.00045  -0.01146  -0.00548  -0.01693   1.33624
   A26        1.90291  -0.00003  -0.00317  -0.00141  -0.00455   1.89835
   A27        2.44170   0.00057   0.01534   0.00669   0.02195   2.46366
   A28        1.39055  -0.00042  -0.01149  -0.00354  -0.01506   1.37549
   A29        1.38163   0.00017   0.00046   0.00079   0.00115   1.38278
   A30        1.51477  -0.00028  -0.00798  -0.00286  -0.01081   1.50395
   A31        1.35727   0.00008   0.00064   0.00024   0.00072   1.35798
    D1        0.34766  -0.00009  -0.00313  -0.00234  -0.00545   0.34221
    D2        1.40789   0.00007  -0.00089  -0.00163  -0.00252   1.40537
    D3       -0.61963  -0.00017  -0.00660  -0.00212  -0.00873  -0.62837
    D4       -0.58940  -0.00016  -0.00133  -0.00359  -0.00492  -0.59432
    D5        0.47082  -0.00001   0.00091  -0.00287  -0.00199   0.46884
    D6       -1.55670  -0.00024  -0.00480  -0.00336  -0.00820  -1.56489
    D7       -1.34557  -0.00005  -0.00317  -0.00101  -0.00417  -1.34974
    D8       -0.33180   0.00012   0.00277   0.00186   0.00463  -0.32717
    D9        0.59776   0.00021   0.00615   0.00257   0.00871   0.60647
   D10       -0.25479  -0.00001  -0.00401   0.00032  -0.00348  -0.25827
   D11        0.23858   0.00036   0.01149   0.00544   0.01688   0.25546
   D12       -1.50271   0.00052   0.01142   0.00525   0.01678  -1.48593
   D13        0.85467   0.00029   0.01046   0.00377   0.01416   0.86883
   D14        1.51780   0.00018   0.00551   0.00103   0.00662   1.52441
   D15       -0.90680  -0.00032  -0.00780  -0.00456  -0.01225  -0.91904
   D16        0.31345   0.00028   0.01046   0.00535   0.01568   0.32914
   D17       -0.33304   0.00010   0.00309   0.00214   0.00521  -0.32784
   D18        0.95762   0.00020   0.00557   0.00428   0.00968   0.96730
   D19       -0.32618   0.00012   0.00624   0.00417   0.01020  -0.31597
   D20        1.53074   0.00002   0.00682   0.00282   0.00955   1.54029
   D21        0.63475   0.00018   0.00561   0.00217   0.00775   0.64250
   D22       -1.53598   0.00000  -0.00174  -0.00040  -0.00208  -1.53806
   D23        0.31336  -0.00008  -0.00172  -0.00144  -0.00316   0.31019
   D24        1.32517  -0.00003   0.00153   0.00001   0.00156   1.32672
   D25       -0.99010   0.00018   0.00614   0.00277   0.00888  -0.98122
   D26        0.02171   0.00023   0.00938   0.00422   0.01360   0.03531
   D27       -0.34551  -0.00004   0.00131  -0.00013   0.00113  -0.34438
   D28        0.66630   0.00000   0.00455   0.00131   0.00585   0.67215
   D29       -1.33740  -0.00051  -0.01558  -0.00716  -0.02264  -1.36004
   D30       -0.02342  -0.00025  -0.01005  -0.00455  -0.01452  -0.03794
   D31       -0.68773  -0.00042  -0.01750  -0.00820  -0.02553  -0.71326
   D32       -0.60646  -0.00022  -0.00745  -0.00298  -0.01046  -0.61692
   D33        1.51359  -0.00053  -0.01236  -0.00478  -0.01722   1.49637
   D34       -0.02985  -0.00029  -0.01029  -0.00197  -0.01223  -0.04208
   D35       -0.87721  -0.00034  -0.01001  -0.00475  -0.01469  -0.89190
   D36       -0.02365  -0.00025  -0.01018  -0.00460  -0.01473  -0.03838
   D37        0.90716  -0.00020  -0.00392  -0.00366  -0.00756   0.89960
   D38       -1.50935  -0.00019  -0.01062  -0.00309  -0.01381  -1.52316
   D39        0.14963  -0.00022  -0.01526  -0.00670  -0.02216   0.12747
   D40        1.95010   0.00030   0.01283   0.00262   0.01533   1.96543
   D41        0.86456   0.00028   0.01109   0.00329   0.01437   0.87893
   D42        1.10987   0.00027   0.01219   0.00404   0.01604   1.12590
   D43        0.02432   0.00026   0.01046   0.00470   0.01508   0.03940
   D44        0.07818   0.00020   0.01574   0.00549   0.02149   0.09968
   D45       -1.00737   0.00018   0.01400   0.00616   0.02054  -0.98683
         Item               Value     Threshold  Converged?
 Maximum Force            0.001028     0.000450     NO 
 RMS     Force            0.000310     0.000300     NO 
 Maximum Displacement     0.037299     0.001800     NO 
 RMS     Displacement     0.009742     0.001200     NO 
 Predicted change in Energy=-1.655732D-04
 GradGradGradGradGradGradGradGradGradGradGradGradGradGradGradGradGradGrad

                          Input orientation:                          
 ---------------------------------------------------------------------
 Center     Atomic      Atomic             Coordinates (Angstroms)
 Number     Number       Type             X           Y           Z
 ---------------------------------------------------------------------
      1         14           0       -1.030729    1.864270   -0.963351
      2         14           0       -0.934518   -1.688461    1.379334
      3         14           0        1.255153    1.045791   -0.958491
      4         14           0        1.337593   -0.872138    0.873972
      5         14           0       -0.837336    0.714718    1.264471
      6         14           0       -0.577849   -1.347811   -0.978405
      7         14           0        1.756261   -1.197918   -1.479359
      8         14           0        1.488072    1.462094    1.363702
      9         14           0       -2.456648    0.019454   -0.501874
 ---------------------------------------------------------------------
                    Distance matrix (angstroms):
                    1          2          3          4          5
     1  Si   0.000000
     2  Si   4.256681   0.000000
     3  Si   2.428001   4.211439   0.000000
     4  Si   4.058650   2.466630   2.653897   0.000000
     5  Si   2.514371   2.407885   3.070778   2.720463   0.000000
     6  Si   3.243886   2.408773   3.014900   2.706748   3.058080
     7  Si   4.172598   3.956394   2.357253   2.412382   4.232437
     8  Si   3.452721   3.974315   2.370683   2.389794   2.444573
     9  Si   2.376879   2.961891   3.878058   4.133299   2.495103
                    6          7          8          9
     6  Si   0.000000
     7  Si   2.391964   0.000000
     8  Si   4.201078   3.902638   0.000000
     9  Si   2.372000   4.492892   4.595912   0.000000
 Stoichiometry    Si9(1-,2)
 Framework group  C1[X(Si9)]
 Deg. of freedom    21
 Full point group                 C1      NOp   1
 Largest Abelian subgroup         C1      NOp   1
 Largest concise Abelian subgroup C1      NOp   1
                         Standard orientation:                         
 ---------------------------------------------------------------------
 Center     Atomic      Atomic             Coordinates (Angstroms)
 Number     Number       Type             X           Y           Z
 ---------------------------------------------------------------------
      1         14           0       -1.003688    1.832062   -1.049815
      2         14           0       -0.971216   -1.641810    1.409959
      3         14           0        1.280298    1.013175   -0.960263
      4         14           0        1.313974   -0.843538    0.935694
      5         14           0       -0.868106    0.756253    1.218734
      6         14           0       -0.554659   -1.378979   -0.947919
      7         14           0        1.791551   -1.246659   -1.394327
      8         14           0        1.455002    1.505459    1.352155
      9         14           0       -2.443157    0.004036   -0.564219
 ---------------------------------------------------------------------
 Rotational constants (GHZ):      0.7098852      0.6221353      0.5688155
 Standard basis: GTBas3 (6D, 7F)
 There are   288 symmetry adapted basis functions of A   symmetry.
 Integral buffers will be    131072 words long.
 Raffenetti 2 integral format.
 Two-electron integral symmetry is turned on.
   288 basis functions,   612 primitive gaussians,   315 cartesian basis functions
    64 alpha electrons       63 beta electrons
       nuclear repulsion energy      1240.6487246079 Hartrees.
 NAtoms=    9 NActive=    9 NUniq=    9 SFac= 7.50D-01 NAtFMM=   80 NAOKFM=F Big=F
 One-electron integrals computed using PRISM.
 NBasis=   288 RedAO= T  NBF=   288
 NBsUse=   288 1.00D-06 NBFU=   288
 Initial guess read from the read-write file.
 B after Tr=     0.000000    0.000000    0.000000
         Rot=    1.000000    0.000000    0.000000    0.000000 Ang=   0.00 deg.
 Initial guess orbital symmetries:
 Alpha Orbitals:
       Occupied  (A) (A) (A) (A) (A) (A) (A) (A) (A) (A) (A) (A)
                 (A) (A) (A) (A) (A) (A) (A) (A) (A) (A) (A) (A)
                 (A) (A) (A) (A) (A) (A) (A) (A) (A) (A) (A) (A)
                 (A) (A) (A) (A) (A) (A) (A) (A) (A) (A) (A) (A)
                 (A) (A) (A) (A) (A) (A) (A) (A) (A) (A) (A) (A)
                 (A) (A) (A) (A)
       Virtual   (A) (A) (A) (A) (A) (A) (A) (A) (A) (A) (A) (A)
                 (A) (A) (A) (A) (A) (A) (A) (A) (A) (A) (A) (A)
                 (A) (A) (A) (A) (A) (A) (A) (A) (A) (A) (A) (A)
                 (A) (A) (A) (A) (A) (A) (A) (A) (A) (A) (A) (A)
                 (A) (A) (A) (A) (A) (A) (A) (A) (A) (A) (A) (A)
                 (A) (A) (A) (A) (A) (A) (A) (A) (A) (A) (A) (A)
                 (A) (A) (A) (A) (A) (A) (A) (A) (A) (A) (A) (A)
                 (A) (A) (A) (A) (A) (A) (A) (A) (A) (A) (A) (A)
                 (A) (A) (A) (A) (A) (A) (A) (A) (A) (A) (A) (A)
                 (A) (A) (A) (A) (A) (A) (A) (A) (A) (A) (A) (A)
                 (A) (A) (A) (A) (A) (A) (A) (A) (A) (A) (A) (A)
                 (A) (A) (A) (A) (A) (A) (A) (A) (A) (A) (A) (A)
                 (A) (A) (A) (A) (A) (A) (A) (A) (A) (A) (A) (A)
                 (A) (A) (A) (A) (A) (A) (A) (A) (A) (A) (A) (A)
                 (A) (A) (A) (A) (A) (A) (A) (A) (A) (A) (A) (A)
                 (A) (A) (A) (A) (A) (A) (A) (A) (A) (A) (A) (A)
                 (A) (A) (A) (A) (A) (A) (A) (A) (A) (A) (A) (A)
                 (A) (A) (A) (A) (A) (A) (A) (A) (A) (A) (A) (A)
                 (A) (A) (A) (A) (A) (A) (A) (A)
 Beta  Orbitals:
       Occupied  (A) (A) (A) (A) (A) (A) (A) (A) (A) (A) (A) (A)
                 (A) (A) (A) (A) (A) (A) (A) (A) (A) (A) (A) (A)
                 (A) (A) (A) (A) (A) (A) (A) (A) (A) (A) (A) (A)
                 (A) (A) (A) (A) (A) (A) (A) (A) (A) (A) (A) (A)
                 (A) (A) (A) (A) (A) (A) (A) (A) (A) (A) (A) (A)
                 (A) (A) (A)
       Virtual   (A) (A) (A) (A) (A) (A) (A) (A) (A) (A) (A) (A)
                 (A) (A) (A) (A) (A) (A) (A) (A) (A) (A) (A) (A)
                 (A) (A) (A) (A) (A) (A) (A) (A) (A) (A) (A) (A)
                 (A) (A) (A) (A) (A) (A) (A) (A) (A) (A) (A) (A)
                 (A) (A) (A) (A) (A) (A) (A) (A) (A) (A) (A) (A)
                 (A) (A) (A) (A) (A) (A) (A) (A) (A) (A) (A) (A)
                 (A) (A) (A) (A) (A) (A) (A) (A) (A) (A) (A) (A)
[...]
  Beta virt. eigenvalues --    5.03261   5.05647   5.06027   5.06126   5.06598
  Beta virt. eigenvalues --    5.07496   5.09246   5.10013   5.10261   5.10661
  Beta virt. eigenvalues --    5.10706   5.13127   5.13502   5.14336   5.16201
  Beta virt. eigenvalues --    5.17652   5.18644   5.19737   5.20170   5.20730
  Beta virt. eigenvalues --    5.22933   5.23812   5.25293   5.26515   5.27789
  Beta virt. eigenvalues --    5.28708   5.29953   5.30650   5.32122   5.34042
  Beta virt. eigenvalues --    5.35009   5.37534   5.40455   5.41134   5.43180
  Beta virt. eigenvalues --    5.43530   5.45062   5.46922   5.48768   5.50598
  Beta virt. eigenvalues --    5.51313   5.53776   5.56012   5.57648   5.60300
  Beta virt. eigenvalues --    5.61871   5.62441   5.63616   5.65272   5.69159
  Beta virt. eigenvalues --    5.72165   5.80258   5.93572   5.95607   6.06603
  Beta virt. eigenvalues --    6.06762   6.16920   6.68290   6.68653   6.72362
  Beta virt. eigenvalues --    6.76425   6.88140   6.88964   6.92959   6.96517
  Beta virt. eigenvalues --    6.97993   6.99224   7.03167   7.04281   7.05383
  Beta virt. eigenvalues --    7.08311   7.09573   7.10753   7.12208   7.13252
  Beta virt. eigenvalues --    7.15969   7.18136   7.20221   7.21559   7.23371
  Beta virt. eigenvalues --    7.23944   7.24121   7.26372   7.28281   7.29113
  Beta virt. eigenvalues --    7.30739   7.32441   7.35459   7.37540   7.39069
  Beta virt. eigenvalues --    7.40476   7.42539   7.44390   7.45852   7.47795
  Beta virt. eigenvalues --    7.52215   7.60286   7.64700   7.67421   7.68638
  Beta virt. eigenvalues --    7.74046   7.93092  14.01885  14.10877  14.15421
  Beta virt. eigenvalues --   14.20764  14.21090  14.22906  14.24837  14.28909
  Beta virt. eigenvalues --   14.29966  14.33675  14.36431  14.41142  14.43497
  Beta virt. eigenvalues --   14.44376  14.54438  14.59559  14.72663  14.73148
  Beta virt. eigenvalues --   14.78599  14.83270  14.88161  14.98673  15.01591
  Beta virt. eigenvalues --   15.03232  15.11095  15.22962  15.32094  41.59689
  Beta virt. eigenvalues --   41.92769  42.05476  42.19222  43.14840  43.26895
  Beta virt. eigenvalues --   44.40874  44.83195  45.43294
          Condensed to atoms (all electrons):
              1          2          3          4          5          6
     1  Si  13.590639   0.015730   0.197306  -0.007039   0.163520   0.006552
     2  Si   0.015730  13.509938  -0.004322   0.230788   0.244767   0.255851
     3  Si   0.197306  -0.004322  13.129700   0.045770   0.059403   0.001793
     4  Si  -0.007039   0.230788   0.045770  13.056528   0.005689   0.009870
     5  Si   0.163520   0.244767   0.059403   0.005689  13.092630   0.016596
     6  Si   0.006552   0.255851   0.001793   0.009870   0.016596  13.107687
     7  Si  -0.008427   0.001205   0.301628   0.271292   0.008703   0.244162
     8  Si   0.022537  -0.007427   0.245137   0.337479   0.174637   0.018433
     9  Si   0.238171   0.027470  -0.001185   0.014916   0.133247   0.284734
              7          8          9
     1  Si  -0.008427   0.022537   0.238171
     2  Si   0.001205  -0.007427   0.027470
     3  Si   0.301628   0.245137  -0.001185
     4  Si   0.271292   0.337479   0.014916
     5  Si   0.008703   0.174637   0.133247
     6  Si   0.244162   0.018433   0.284734
     7  Si  13.481768  -0.011259  -0.018493
     8  Si  -0.011259  13.494518   0.001209
     9  Si  -0.018493   0.001209  13.495713
 Mulliken atomic charges:
              1
     1  Si  -0.218989
     2  Si  -0.274000
     3  Si   0.024771
     4  Si   0.034708
     5  Si   0.100809
     6  Si   0.054324
     7  Si  -0.270578
     8  Si  -0.275264
     9  Si  -0.175780
 Sum of Mulliken atomic charges =  -1.00000
 Mulliken charges with hydrogens summed into heavy atoms:
              1
     1  Si  -0.218989
     2  Si  -0.274000
     3  Si   0.024771
     4  Si   0.034708
     5  Si   0.100809
     6  Si   0.054324
     7  Si  -0.270578
     8  Si  -0.275264
     9  Si  -0.175780
 Sum of Mulliken charges with hydrogens summed into heavy atoms =  -1.00000
          Atomic-Atomic Spin Densities.
              1          2          3          4          5          6
     1  Si   0.608882   0.014222  -0.067284  -0.007579  -0.059146  -0.014846
     2  Si   0.014222   0.012076  -0.000580   0.035756  -0.061217   0.005685
     3  Si  -0.067284  -0.000580   0.084294   0.026928   0.012252  -0.030317
     4  Si  -0.007579   0.035756   0.026928   0.031018  -0.024722  -0.045313
     5  Si  -0.059146  -0.061217   0.012252  -0.024722   0.233980   0.020671
     6  Si  -0.014846   0.005685  -0.030317  -0.045313   0.020671   0.231939
     7  Si  -0.012278  -0.004621  -0.030604  -0.023831   0.007759  -0.000730
     8  Si   0.038460  -0.005336  -0.045642   0.002117   0.001615   0.001345
     9  Si   0.044794  -0.024131   0.008305   0.014437   0.004354  -0.053517
              7          8          9
     1  Si  -0.012278   0.038460   0.044794
     2  Si  -0.004621  -0.005336  -0.024131
     3  Si  -0.030604  -0.045642   0.008305
     4  Si  -0.023831   0.002117   0.014437
     5  Si   0.007759   0.001615   0.004354
     6  Si  -0.000730   0.001345  -0.053517
     7  Si   0.125503   0.007684   0.017289
     8  Si   0.007684   0.070858  -0.004548
     9  Si   0.017289  -0.004548   0.106586
 Mulliken atomic spin densities:
              1
     1  Si   0.545226
     2  Si  -0.028146
     3  Si  -0.042648
     4  Si   0.008812
     5  Si   0.135546
     6  Si   0.114917
     7  Si   0.086172
     8  Si   0.066553
     9  Si   0.113568
 Sum of Mulliken atomic spin densities =   1.00000
 Electronic spatial extent (au):  <R**2>=           2478.0634
 Charge=             -1.0000 electrons
 Dipole moment (field-independent basis, Debye):
    X=              0.4653    Y=             -0.1722    Z=             -0.7929  Tot=              0.9354
 Quadrupole moment (field-independent basis, Debye-Ang):
   XX=           -148.5481   YY=           -145.7312   ZZ=           -141.0628
   XY=              0.0684   XZ=              0.6768   YZ=              1.0295
 Traceless Quadrupole moment (field-independent basis, Debye-Ang):
   XX=             -3.4340   YY=             -0.6171   ZZ=              4.0512
   XY=              0.0684   XZ=              0.6768   YZ=              1.0295
 Octapole moment (field-independent basis, Debye-Ang**2):
  XXX=             18.4381  YYY=            -14.9412  ZZZ=            -11.9733  XYY=             -3.3790
  XXY=              6.5570  XXZ=              5.5141  XZZ=             -4.2421  YZZ=              2.6056
  YYZ=             -5.0121  XYZ=            -26.3635
 Hexadecapole moment (field-independent basis, Debye-Ang**3):
 XXXX=          -1981.7496 YYYY=          -1624.2457 ZZZZ=          -1306.4794 XXXY=              2.8688
 XXXZ=              7.4049 YYYX=              4.6079 YYYZ=             10.8036 ZZZX=             11.3678
 ZZZY=              7.6392 XXYY=           -614.9604 XXZZ=           -564.2917 YYZZ=           -525.9713
 XXYZ=             -8.8879 YYXZ=             -1.6872 ZZXY=             -1.1310
 N-N= 1.240864113354D+03 E-N=-1.304563464484D+04  KE= 3.900074127772D+03
                          Isotropic Fermi Contact Couplings
        Atom                 a.u.       MegaHertz       Gauss      10(-4) cm-1
     1  Si(29)             0.03783     -33.62226     -11.99726     -11.21518
     2  Si(29)             0.00268      -2.38225      -0.85004      -0.79463
     3  Si(29)             0.05992     -53.25199     -19.00163     -17.76295
     4  Si(29)             0.00439      -3.90472      -1.39330      -1.30248
     5  Si(29)             0.10785     -95.85240     -34.20252     -31.97292
     6  Si(29)            -0.00199       1.76726       0.63060       0.58949
     7  Si(29)             0.01340     -11.91184      -4.25044      -3.97336
     8  Si(29)            -0.00340       3.02235       1.07845       1.00815
     9  Si(29)            -0.04705      41.81895      14.92204      13.94930
 --------------------------------------------------------
       Center         ----  Spin Dipole Couplings  ----
                      3XX-RR        3YY-RR        3ZZ-RR
 --------------------------------------------------------
     1   Atom       -0.512143      0.745812     -0.233669
     2   Atom       -0.013810      0.004491      0.009319
     3   Atom       -0.070402      0.059831      0.010570
     4   Atom       -0.037871     -0.027796      0.065666
     5   Atom       -0.057200     -0.190165      0.247365
     6   Atom       -0.080687      0.035066      0.045621
     7   Atom       -0.034380      0.093736     -0.059356
     8   Atom       -0.100775      0.162041     -0.061265
     9   Atom       -0.176525      0.363237     -0.186712
 --------------------------------------------------------
                        XY            XZ            YZ
 --------------------------------------------------------
     1   Atom        0.163079      0.020583      0.647350
     2   Atom        0.079896     -0.009606      0.073205
     3   Atom        0.005310      0.109679     -0.087454
     4   Atom        0.084061     -0.073502     -0.077534
     5   Atom       -0.061412     -0.090918      0.104563
     6   Atom       -0.121212      0.058940     -0.335719
     7   Atom       -0.025503      0.090862     -0.165584
     8   Atom        0.021291     -0.007198     -0.066861
     9   Atom        0.108043     -0.030250     -0.161716
 --------------------------------------------------------


 ---------------------------------------------------------------------------------
              Anisotropic Spin Dipole Couplings in Principal Axis System
 ---------------------------------------------------------------------------------

       Atom             a.u.   MegaHertz   Gauss  10(-4) cm-1        Axes

              Baa    -0.5972    63.358    22.608    21.134  0.6078 -0.4035  0.6840
     1 Si(29) Bbb    -0.4857    51.522    18.384    17.186  0.7882  0.2013 -0.5816
              Bcc     1.0829  -114.880   -40.992   -38.320  0.0969  0.8926  0.4404
 
              Baa    -0.1134    12.028     4.292     4.012 -0.5852  0.6754 -0.4488
     2 Si(29) Bbb     0.0083    -0.880    -0.314    -0.294 -0.6748 -0.0988  0.7314
              Bcc     0.1051   -11.148    -3.978    -3.719  0.4496  0.7308  0.5136
 
              Baa    -0.1614    17.126     6.111     5.713  0.7494 -0.2589 -0.6095
     3 Si(29) Bbb     0.0138    -1.459    -0.521    -0.487  0.5764  0.7080  0.4080
              Bcc     0.1477   -15.666    -5.590    -5.226  0.3259 -0.6570  0.6798
 
              Baa    -0.1170    12.417     4.431     4.142  0.7293 -0.6842  0.0030
     4 Si(29) Bbb    -0.0486     5.151     1.838     1.718  0.4982  0.5340  0.6831
              Bcc     0.1656   -17.567    -6.268    -5.860 -0.4690 -0.4967  0.7303
 
              Baa    -0.2247    23.835     8.505     7.951  0.2619  0.9517 -0.1604
     5 Si(29) Bbb    -0.0759     8.048     2.872     2.684  0.9245 -0.1997  0.3247
              Bcc     0.3005   -31.883   -11.377   -10.635 -0.2769  0.2333  0.9321
 
              Baa    -0.3055    32.409    11.564    10.810  0.2183  0.7234  0.6550
     6 Si(29) Bbb    -0.1037    11.005     3.927     3.671  0.9427  0.0173 -0.3332
              Bcc     0.4092   -43.414   -15.491   -14.481 -0.2524  0.6902 -0.6782
 
              Baa    -0.1924    20.408     7.282     6.807 -0.3957  0.4333  0.8097
     7 Si(29) Bbb    -0.0276     2.924     1.043     0.975  0.8756  0.4439  0.1903
              Bcc     0.2199   -23.332    -8.325    -7.783 -0.2770  0.7843 -0.5551
 
              Baa    -0.1026    10.887     3.885     3.631  0.9954 -0.0614  0.0740
     8 Si(29) Bbb    -0.0797     8.453     3.016     2.820 -0.0548  0.2707  0.9611
              Bcc     0.1823   -19.340    -6.901    -6.451  0.0790  0.9607 -0.2661
 
              Baa    -0.2308    24.480     8.735     8.166  0.0233  0.2587  0.9657
     9 Si(29) Bbb    -0.1973    20.933     7.469     6.983  0.9829 -0.1822  0.0251
              Bcc     0.4281   -45.413   -16.204   -15.148  0.1825  0.9486 -0.2585
 

 ---------------------------------------------------------------------------------

 1\1\GINC-NODE190\SP\UHF\GFHFB2\Si9(1-,2)\TAM\06-Mar-2012\0\\#N Geom=Al
 lCheck Guess=TCheck SCRF=Check HF/GFHFB2 SCF=Tight\\si9-an-d\\-1,2\Si,
 0,-1.0772901429,1.8873154589,-0.9312980765\Si,0,-1.0105036289,-1.64289
 08613,1.3552099249\Si,0,1.2162551436,1.0363780459,-0.9723627588\Si,0,1
 .3179962475,-0.8887235639,0.884664138\Si,0,-0.8070819115,0.7552120509,
 1.2785373791\Si,0,-0.5344683102,-1.3528690836,-1.0204334484\Si,0,1.793
 565445,-1.19762596,-1.4642296765\Si,0,1.5252383617,1.4447705607,1.3460
 972952\Si,0,-2.4237112143,-0.0415666677,-0.476184777\\Version=AM64L-G0
 9RevA.02\State=2-A\HF=-2600.4155806\S2=0.852022\S2-1=0.\S2A=0.758962\R
 MSD=5.386e-09\Dipole=0.1684009,-0.0371037,-0.3250945\Quadrupole=-2.496
 0987,-0.5776349,3.0737336,0.0315702,0.7609022,0.3949641\PG=C01 [X(Si9)
 ]\\@


 THE RED LIGHT IS ALWAYS LONGER THAN THE GREEN LIGHT.

                     -- PETER'S THEORY OF RELATIVITY
 Diagonal vibrational polarizability:
        0.0000000       0.0000000       0.0000000

 Temperature=              298.150000 Pressure=                      1.000000
 E(ZPE)=                     0.012918 E(Thermal)=                    0.025769
 E(CCSD(T))=             -2601.077092 E(Empiric)=                   -0.130745
 DE(Plus)=                  -0.022778 DE(2DF)=                      -0.318150
 E(Delta-G3XP)=             -2.826385 DE(HF)=                       -0.059635
 G4(0 K)=                -2604.421866 G4 Energy=                 -2604.409015
 G4 Enthalpy=            -2604.408071 G4 Free Energy=            -2604.462313
 1\1\GINC-NODE190\Mixed\G4\G4\Si9(1-,2)\TAM\06-Mar-2012\0\\# G4 scfcyc=
 500 scf=xqc\\si9-an-d\\-1,2\Si,0,-1.0772901429,1.8873154589,-0.9312980
 765\Si,0,-1.0105036289,-1.6428908613,1.3552099249\Si,0,1.2162551436,1.
 0363780459,-0.9723627588\Si,0,1.3179962475,-0.8887235639,0.884664138\S
 i,0,-0.8070819115,0.7552120509,1.2785373791\Si,0,-0.5344683102,-1.3528
 690836,-1.0204334484\Si,0,1.793565445,-1.19762596,-1.4642296765\Si,0,1
 .5252383617,1.4447705607,1.3460972952\Si,0,-2.4237112143,-0.0415666677
 ,-0.476184777\\Version=AM64L-G09RevA.02\State=2-A\MP2/GTBas1=-2601.004
 3492\MP4/GTBas1=-2601.1204867\CCSD(T)/G3Bas1=-2601.0770915\MP2/GTBas2=
 -2601.0246484\MP4/GTBas2=-2601.1432643\MP2/GTBas3=-2601.293215\MP4/GTB
 as3=-2601.438637\HF/GTLargeXP=-2600.3580248\MP2/GTLargeXP=-2604.139898
 8\HF/GFHFB1=-2600.4070465\HF/GFHFB2=-2600.4155806\G4=-2604.4218658\Fre
 qCoord=-2.0357833358,3.5665093437,-1.7598983126,-1.9095751149,-3.10461
 3794,2.5609756106,2.2983891292,1.9584706769,-1.8374993159,2.4906519519
 ,-1.6794441436,1.6717729405,-1.5251637795,1.4271439485,2.4160854971,-1
 .009998733,-2.5565520616,-1.9283397544,3.3893474924,-2.2631850741,-2.7
 669930842,2.882282791,2.7302206845,2.5437552361,-4.5801504202,-0.07854
 96182,-0.8998588171\PG=C01 [X(Si9)]\NImag=0\\0.06481432,-0.00225828,0.
 06474666,0.00163103,-0.02729193,0.04148018,-0.00606180,0.00773007,0.00
 243788,0.04113336,-0.00035099,-0.00490962,-0.00168754,0.02635614,0.080
 64122,0.00355259,0.00198987,-0.00494630,-0.02055126,-0.02833923,0.0657
 0127,-0.03820735,0.01665860,-0.00031281,-0.00151411,-0.00269401,0.0022
 2903,0.06569869,0.01840788,-0.01017011,-0.00278282,-0.00836990,-0.0034
 8889,0.00269736,-0.02093307,0.09052792,-0.00053014,-0.00243001,-0.0020
 0813,0.00268417,0.00735468,-0.00009224,0.00342459,0.01197900,0.0890462
 2,-0.00222689,0.00068170,-0.00349677,-0.02504066,-0.00926803,0.0074269
 9,-0.00715297,0.00282577,-0.00202490,0.06713722,0.00556219,-0.00686134
 ,0.00460815,-0.01346207,-0.00680385,0.00457529,-0.00171573,-0.00805063
 ,0.01589606,0.00337713,0.08634355,-0.00592960,0.00498046,-0.00193939,0
 .00781627,0.00356536,-0.00609171,-0.00039369,0.01609400,-0.00590078,-0
 .00189817,0.00547254,0.08520831,0.00150958,0.00528154,-0.00537306,-0.0
 0256799,-0.01042999,-0.00227708,-0.00111576,-0.00058011,0.00843018,-0.
 00773714,0.01092429,0.00024520,0.07464962,0.00483366,-0.00765913,0.016
 18630,-0.00398252,-0.05291964,0.00375218,0.00282473,-0.00402206,-0.003
 77399,0.01240998,-0.00061992,-0.00206560,0.01242604,0.07556686,-0.0035
 3596,0.01459249,-0.02850943,-0.00029233,0.00701142,-0.00350677,0.00656
 769,0.00130368,0.00014665,0.00352644,-0.00050060,-0.00842988,0.0152979
 1,0.00304269,0.06297557,0.00383546,0.00249277,-0.00135639,-0.00299623,
 -0.00546768,0.01010494,0.00289491,-0.00631060,0.00006239,-0.00800500,0
 .00517203,-0.00933833,-0.00036798,-0.00077732,-0.00355259,0.11845508,-
 0.00118061,-0.00144078,-0.00426317,-0.00132990,-0.00588282,0.00853260,
 -0.01010472,-0.00105657,0.00214825,-0.00129707,-0.00227160,-0.00385144
 ,0.00094068,-0.00370335,-0.00899013,-0.02233098,0.03694519,-0.00308336
 ,0.00117605,0.00336294,0.00603965,0.00974202,-0.04503461,-0.00144749,-
 0.00074929,-0.00984836,-0.01445242,-0.00599246,-0.00556966,0.00435566,
 -0.00578532,-0.00115809,-0.02088892,0.01211708,0.07042928,-0.00093977,
 -0.00030892,0.00223304,-0.00203722,0.00228590,0.00016597,-0.01095525,0
 .01634794,0.00109610,-0.00639891,-0.00074741,0.00762782,-0.00449649,0.
 00078667,0.00479756,-0.05949841,0.00556687,0.01873859,0.08680076,0.001
 61169,-0.00158562,-0.00122180,-0.00328350,-0.00007372,0.00304256,0.020
 93857,-0.05490795,-0.01927783,-0.00060157,-0.00758393,-0.00597136,0.00
 138218,-0.00319735,-0.00414004,0.00007071,-0.00157976,0.00429216,-0.02
 194246,0.07393222,0.00041667,0.00158568,0.00029621,0.00169268,-0.00343
 282,-0.00259518,0.00101929,-0.01233579,-0.00790329,0.01557973,-0.01268
 392,-0.05097192,0.00411481,-0.00379807,-0.00394060,0.00964720,0.003268
 09,-0.00332306,-0.03210825,0.02590380,0.07411328,-0.00059082,-0.003320
 09,-0.00040735,-0.00390439,0.00148426,-0.00073033,-0.00384008,0.000279
 80,-0.01004770,-0.00448147,-0.00579038,0.00220845,-0.04186832,-0.02118
 877,-0.00671290,-0.00274156,-0.00190063,-0.00313736,-0.00016084,0.0036
 6083,0.00247079,0.06153149,-0.00134210,0.00026225,0.00394642,-0.000957
 16,-0.00294194,-0.00131506,-0.00029020,-0.00682706,-0.00931353,-0.0125
 5203,-0.05482133,-0.01803159,-0.01104187,-0.00328566,-0.00101163,-0.00
 458075,-0.00586797,-0.00540101,-0.00248307,-0.00250840,0.00080377,0.02
 842380,0.07908858,0.00074641,0.00045921,-0.00226156,0.00141846,0.00234
 594,-0.00067920,-0.01350242,-0.01892495,-0.06351250,0.00104147,-0.0103
 9481,-0.00776402,-0.00699491,0.00128353,0.00143752,-0.00120666,-0.0039
 1238,-0.00319102,-0.00299623,-0.00201617,-0.00386188,0.01652679,0.0318
 1058,0.08011436,-0.02213273,-0.02695739,0.00464443,0.00298905,-0.00191
 560,0.00007916,-0.00580808,-0.00166769,-0.00309469,-0.00609417,-0.0033
 2004,-0.00033794,-0.01800552,-0.00733247,-0.01609581,-0.05157628,0.031
 63637,0.01387566,-0.00231388,-0.00183645,-0.00283293,-0.00394401,0.004
 82339,0.00496710,0.10688562,-0.02528343,-0.03238231,0.01250639,-0.0027
 0115,-0.00362074,0.00506443,-0.00468416,-0.00200466,-0.00258265,0.0044
 2412,0.00066906,-0.00019235,-0.00890276,-0.00015975,-0.01130789,0.0317
 3182,-0.01514233,-0.00939923,0.00049447,-0.00249548,0.00068927,-0.0016
 4882,-0.00309846,-0.00065094,0.00656989,0.05823466,0.00673237,0.004938
 19,-0.00547453,-0.00124552,0.00344017,-0.00275525,0.00241581,0.0027188
 1,0.00007242,-0.00570237,-0.00098025,0.00145906,-0.01779870,-0.0088417
 2,-0.01901497,0.01652838,-0.00504889,-0.00566742,0.00044540,-0.0006113
 1,-0.00181356,-0.00017039,-0.00148794,-0.00028170,-0.00120498,0.005872
 96,0.03347595\\-0.00000761,-0.00000094,0.00003458,-0.00000643,0.000012
 91,0.00002208,-0.00001154,0.00000073,-0.00001439,-0.00001700,0.0000475
 4,-0.00003436,0.00001389,-0.00003494,0.00002793,-0.00001393,-0.0000097
 3,-0.00002015,0.00001316,-0.00002796,0.00000710,0.00000915,-0.00002995
 ,-0.00001241,0.00002033,0.00004234,-0.00001039\\\@
 Job cpu time:  3 days 22 hours 52 minutes  1.3 seconds.
 File lengths (MBytes):  RWF= 221351 Int=      0 D2E=      0 Chk=     52 Scr=      1
 Normal termination of Gaussian 09 at Tue Mar  6 13:28:33 2012.
