 Entering Gaussian System, Link 0=g09
 Initial command:
 /usr/local/chem/g09A2/l1.exe /temp0/tam/Gau-26321.inp -scrdir=/temp0/tam/
 Entering Link 1 = /usr/local/chem/g09A2/l1.exe PID=     26322.
  
 Copyright (c) 1988,1990,1992,1993,1995,1998,2003,2009, Gaussian, Inc.
                  All Rights Reserved.
  
 This is part of the Gaussian(R) 09 program.  It is based on
 the Gaussian(R) 03 system (copyright 2003, Gaussian, Inc.),
 the Gaussian(R) 98 system (copyright 1998, Gaussian, Inc.),
 the Gaussian(R) 94 system (copyright 1995, Gaussian, Inc.),
 the Gaussian 92(TM) system (copyright 1992, Gaussian, Inc.),
 the Gaussian 90(TM) system (copyright 1990, Gaussian, Inc.),
 the Gaussian 88(TM) system (copyright 1988, Gaussian, Inc.),
 the Gaussian 86(TM) system (copyright 1986, Carnegie Mellon
 University), and the Gaussian 82(TM) system (copyright 1983,
 Carnegie Mellon University). Gaussian is a federally registered
 trademark of Gaussian, Inc.
  
 This software contains proprietary and confidential information,
 including trade secrets, belonging to Gaussian, Inc.
  
 This software is provided under written license and may be
 used, copied, transmitted, or stored only in accord with that
 written license.
  
 The following legend is applicable only to US Government
 contracts under FAR:
  
                    RESTRICTED RIGHTS LEGEND
  
 Use, reproduction and disclosure by the US Government is
 subject to restrictions as set forth in subparagraphs (a)
 and (c) of the Commercial Computer Software - Restricted
 Rights clause in FAR 52.227-19.
  
 Gaussian, Inc.
 340 Quinnipiac St., Bldg. 40, Wallingford CT 06492
  
  
 ---------------------------------------------------------------
 Warning -- This program may not be used in any manner that
 competes with the business of Gaussian, Inc. or will provide
 assistance to any competitor of Gaussian, Inc.  The licensee
 of this program is prohibited from giving any competitor of
 Gaussian, Inc. access to this program.  By using this program,
 the user acknowledges that Gaussian, Inc. is engaged in the
 business of creating and licensing software in the field of
 computational chemistry and represents and warrants to the
 licensee that it is not a competitor of Gaussian, Inc. and that
 it will not use this program in any manner prohibited above.
 ---------------------------------------------------------------
  

 Cite this work as:
 Gaussian 09, Revision A.02,
 M. J. Frisch, G. W. Trucks, H. B. Schlegel, G. E. Scuseria, 
 M. A. Robb, J. R. Cheeseman, G. Scalmani, V. Barone, B. Mennucci, 
 G. A. Petersson, H. Nakatsuji, M. Caricato, X. Li, H. P. Hratchian, 
 A. F. Izmaylov, J. Bloino, G. Zheng, J. L. Sonnenberg, M. Hada, 
 M. Ehara, K. Toyota, R. Fukuda, J. Hasegawa, M. Ishida, T. Nakajima, 
 Y. Honda, O. Kitao, H. Nakai, T. Vreven, J. A. Montgomery, Jr., 
 J. E. Peralta, F. Ogliaro, M. Bearpark, J. J. Heyd, E. Brothers, 
 K. N. Kudin, V. N. Staroverov, R. Kobayashi, J. Normand, 
 K. Raghavachari, A. Rendell, J. C. Burant, S. S. Iyengar, J. Tomasi, 
 M. Cossi, N. Rega, J. M. Millam, M. Klene, J. E. Knox, J. B. Cross, 
 V. Bakken, C. Adamo, J. Jaramillo, R. Gomperts, R. E. Stratmann, 
 O. Yazyev, A. J. Austin, R. Cammi, C. Pomelli, J. W. Ochterski, 
 R. L. Martin, K. Morokuma, V. G. Zakrzewski, G. A. Voth, 
 P. Salvador, J. J. Dannenberg, S. Dapprich, A. D. Daniels, 
 O. Farkas, J. B. Foresman, J. V. Ortiz, J. Cioslowski, 
 and D. J. Fox, Gaussian, Inc., Wallingford CT, 2009.
 
 ******************************************
 Gaussian 09:  AM64L-G09RevA.02 11-Jun-2009
                 5-Mar-2012 
 ******************************************
 %NprocShared=8
 Will use up to    8 processors via shared memory.
 %mem=18050MB
 %chk=S9L-ne-d-01
 ---------------------------------------
 # G4 opt=(Cartesian) scfcyc=500 scf=xqc
 ---------------------------------------
 1/10=7,14=-1,18=10,26=3,38=1/1,3;
 2/12=2,17=6,18=5,29=2,40=1/2;
 3/5=35,7=104,11=2,16=1,25=1,30=1,71=1,74=-5/1,2,3;
 4//1;
 5/5=2,7=500,8=3,13=1,38=5/2,8;
 6/7=2,8=2,9=2,10=2,28=1/1;
 7/7=1,29=1/1,2,3,16;
 1/10=7,14=-1,18=10/3(2);
 2/29=1/2;
 99/12=1/99;
 2/29=1/2;
 3/5=35,7=104,11=2,16=1,25=1,30=1,71=1,74=-5/1,2,3;
 4/5=5,16=3/1;
 5/5=2,7=500,8=3,13=1,38=5/2,8;
 7/7=1/1,2,3,16;
 1/14=-1,18=10/3(-5);
 2/29=1/2;
 6/7=2,8=2,9=2,10=2,19=2,28=1/1;
 99/9=1,12=1/99;
 -------
 si4-a-d
 -------
 Symbolic Z-matrix:
 Charge = -1 Multiplicity = 2
 Si                    1.18811   0.        0. 
 Si                    0.       -2.01054   0. 
 Si                   -1.18811   0.        0. 
 Si                    0.        2.01054   0. 
 

 GradGradGradGradGradGradGradGradGradGradGradGradGradGradGradGradGradGrad
 Berny optimization.
 Initialization pass.
 No Z-matrix variables, so optimization will use Cartesian coordinates.
 Trust Radius=3.00D-01 FncErr=1.00D-07 GrdErr=1.00D-06
 Number of steps in this run=  22 maximum allowed number of steps= 100.
 GradGradGradGradGradGradGradGradGradGradGradGradGradGradGradGradGradGrad

 ---------------------------------------------------------------------------------------------------
                            Z-MATRIX (ANGSTROMS AND DEGREES)
   CD    Cent   Atom    N1       Length/X        N2       Alpha/Y        N3        Beta/Z          J
 ---------------------------------------------------------------------------------------------------
      1      1  Si       0   1.188109          0.000000          0.000000
      2      2  Si       0   0.000000         -2.010545          0.000000
      3      3  Si       0  -1.188109          0.000000          0.000000
      4      4  Si       0   0.000000          2.010545          0.000000
 ---------------------------------------------------------------------------------------------------
                         Z-Matrix orientation:                         
 ---------------------------------------------------------------------
 Center     Atomic      Atomic             Coordinates (Angstroms)
 Number     Number       Type             X           Y           Z
 ---------------------------------------------------------------------
      1         14           0        1.188109    0.000000    0.000000
      2         14           0        0.000000   -2.010545    0.000000
      3         14           0       -1.188109    0.000000    0.000000
      4         14           0        0.000000    2.010545    0.000000
 ---------------------------------------------------------------------
                    Distance matrix (angstroms):
                    1          2          3          4
     1  Si   0.000000
     2  Si   2.335357   0.000000
     3  Si   2.376217   2.335357   0.000000
     4  Si   2.335357   4.021090   2.335357   0.000000
 Stoichiometry    Si4(1-,2)
 Framework group  D2H[C2'(Si.Si),C2"(Si.Si)]
 Deg. of freedom     2
 Full point group                 D2H     NOp   8
 Largest Abelian subgroup         D2H     NOp   8
 Largest concise Abelian subgroup D2      NOp   4
                         Standard orientation:                         
 ---------------------------------------------------------------------
 Center     Atomic      Atomic             Coordinates (Angstroms)
 Number     Number       Type             X           Y           Z
 ---------------------------------------------------------------------
      1         14           0        0.000000    1.188109    0.000000
      2         14           0        0.000000    0.000000    2.010545
      3         14           0        0.000000   -1.188109    0.000000
      4         14           0        0.000000    0.000000   -2.010545
 ---------------------------------------------------------------------
 Rotational constants (GHZ):      6.3984517      2.2343934      1.6560772
 Standard basis: GTBas3 (6D, 7F)
 There are    30 symmetry adapted basis functions of AG  symmetry.
 There are    10 symmetry adapted basis functions of B1G symmetry.
 There are    10 symmetry adapted basis functions of B2G symmetry.
 There are    14 symmetry adapted basis functions of B3G symmetry.
 There are     6 symmetry adapted basis functions of AU  symmetry.
 There are    22 symmetry adapted basis functions of B1U symmetry.
 There are    22 symmetry adapted basis functions of B2U symmetry.
 There are    14 symmetry adapted basis functions of B3U symmetry.
 Integral buffers will be    131072 words long.
 Raffenetti 2 integral format.
 Two-electron integral symmetry is turned on.
   128 basis functions,   272 primitive gaussians,   140 cartesian basis functions
    29 alpha electrons       28 beta electrons
       nuclear repulsion energy       247.0918279374 Hartrees.
 NAtoms=    4 NActive=    4 NUniq=    2 SFac= 3.00D+00 NAtFMM=   80 NAOKFM=F Big=F
 One-electron integrals computed using PRISM.
 NBasis=   128 RedAO= T  NBF=    30    10    10    14     6    22    22    14
 NBsUse=   128 1.00D-06 NBFU=    30    10    10    14     6    22    22    14
 Harris functional with IExCor=  402 diagonalized for initial guess.
 ExpMin= 7.78D-02 ExpMax= 1.61D+04 ExpMxC= 2.43D+03 IAcc=2 IRadAn=         0 AccDes= 0.00D+00
 HarFok:  IExCor=  402 AccDes= 0.00D+00 IRadAn=         0 IDoV= 1
 ScaDFX=  1.000000  1.000000  1.000000  1.000000
 FoFCou: FMM=F IPFlag=           0 FMFlag=      100000 FMFlg1=           0
         NFxFlg=           0 DoJE=T BraDBF=F KetDBF=T FulRan=T
         Omega=  0.000000  0.000000  1.000000  0.000000  0.000000 ICntrl=     500 IOpCl=  0
         NMat0=    1 NMatS0=    1 NMatT0=    0 NMatD0=    1 NMtDS0=    0 NMtDT0=    0
         I1Cent=           4 NGrid=           0.
 Petite list used in FoFCou.
 Initial guess orbital symmetries:
 Alpha Orbitals:
       Occupied  (B2U) (AG) (AG) (B1U) (AG) (B2U) (B1U) (AG) (B3G)
                 (B1U) (AG) (B2U) (B1G) (B3U) (AG) (B1U) (B2U)
                 (B3G) (B2G) (B3U) (AG) (B1U) (B2U) (AG) (B3U)
                 (B3G) (AG) (B1U) (B2G)
       Virtual   (B1G) (B2U) (B3U) (AG) (B2U) (B1U) (B3G) (AG)
                 (B3U) (B1U) (B2G) (AU) (AG) (B3G) (B1U) (AG) (B2U)
                 (B2U) (B1G) (B3U) (AG) (B2G) (B3U) (B1U) (B2U)
                 (B1G) (AG) (B3G) (B1U) (B2U) (B3U) (B3G) (AU)
                 (B1U) (B1G) (AG) (B2G) (AG) (AG) (B3G) (B2U) (B2U)
                 (B1U) (AG) (B2G) (B1U) (B3U) (B3G) (B1U) (B3U)
                 (B1G) (B2U) (AG) (B1U) (AG) (AU) (B2U) (B2G) (B2U)
                 (AG) (B3U) (B3G) (B2U) (AG) (B1G) (B3G) (B1U)
                 (AG) (AU) (B3U) (B2G) (B1G) (B3G) (B1U) (B2U)
                 (AU) (B3U) (B2G) (B1U) (B2U) (AG) (B3G) (AG) (B1G)
                 (B2U) (B3U) (B1G) (AU) (B1U) (B2G) (AG) (B1U)
                 (B2U) (B3G) (AG) (AG) (B1U) (B2U) (AG)
 Beta  Orbitals:
       Occupied  (B2U) (AG) (AG) (B1U) (AG) (B2U) (B1U) (AG) (B3G)
                 (B1U) (AG) (B2U) (B1G) (B3U) (AG) (B1U) (B2U)
                 (B3G) (B2G) (B3U) (AG) (B1U) (B2U) (AG) (B3U)
                 (B3G) (AG) (B1U)
       Virtual   (B2G) (B1G) (B2U) (B3U) (AG) (B2U) (B1U) (B3G)
                 (AG) (B3U) (B1U) (B2G) (AU) (AG) (B3G) (B1U) (AG)
                 (B2U) (B2U) (B1G) (B3U) (AG) (B2G) (B3U) (B1U)
                 (B2U) (B1G) (AG) (B3G) (B1U) (B2U) (B3U) (B3G)
                 (AU) (B1U) (B1G) (AG) (B2G) (AG) (AG) (B3G) (B2U)
                 (B2U) (B1U) (AG) (B2G) (B1U) (B3U) (B3G) (B1U)
                 (B3U) (B1G) (B2U) (AG) (B1U) (AG) (AU) (B2U) (B2G)
                 (B2U) (AG) (B3U) (B3G) (B2U) (AG) (B1G) (B3G)
                 (B1U) (AG) (AU) (B3U) (B2G) (B1G) (B3G) (B1U)
                 (B2U) (AU) (B3U) (B2G) (B1U) (B2U) (AG) (B3G)
                 (AG) (B1G) (B2U) (B3U) (B1G) (AU) (B1U) (B2G)
                 (AG) (B1U) (B2U) (B3G) (AG) (AG) (B1U) (B2U) (AG)
 The electronic state of the initial guess is 2-B2G.
 Initial guess <Sx>= 0.0000 <Sy>= 0.0000 <Sz>= 0.5000 <S**2>= 0.7500 S= 0.5000
 Requested convergence on RMS density matrix=1.00D-08 within 128 cycles.
 Requested convergence on MAX density matrix=1.00D-06.
 Requested convergence on             energy=1.00D-06.
 No special actions if energy rises.
 Keep R1 and R2 ints in memory in canonical form, NReq=99477857.
 Integral accuracy reduced to 1.0D-05 until final iterations.
 Initial convergence to 1.0D-05 achieved.  Increase integral accuracy.
 SCF Done:  E(UB3LYP) =  -1157.97561800     A.U. after   13 cycles
             Convg  =    0.4564D-08             -V/T =  2.0034
 <Sx>= 0.0000 <Sy>= 0.0000 <Sz>= 0.5000 <S**2>= 0.7701 S= 0.5100
 <L.S>= 0.000000000000E+00
 Annihilation of the first spin contaminant:
 S**2 before annihilation     0.7701,   after     0.7501
 QCSCF skips out because SCF is already converged.

 **********************************************************************

            Population analysis using the SCF density.

 **********************************************************************

 Orbital symmetries:
 Alpha Orbitals:
       Occupied  (B2U) (AG) (AG) (B1U) (AG) (B2U) (B1U) (AG) (B3U)
                 (B1G) (AG) (B2U) (B1U) (B3G) (B2G) (B3U) (B2U)
                 (B3G) (AG) (B1U) (AG) (B1U) (B2U) (AG) (B3U) (B3G)
                 (AG) (B1U) (B2G)
       Virtual   (B1G) (B2U) (B3U) (B2U) (AG) (B1U) (B3G) (AG)
                 (B1U) (AG) (B3U) (B1U) (AG) (B2G) (B3G) (AU) (B2U)
                 (B2U) (B1G) (B2G) (B3U) (B3U) (B2U) (AG) (B1U)
                 (B3G) (AG) (B1G) (B1U) (B2U) (B3U) (B3G) (AU)
                 (B1U) (B1G) (AG) (B2G) (AG) (AG) (B2U) (B3G) (B2U)
                 (AG) (B1U) (B2G) (B1U) (B3U) (B1U) (B3G) (B3U)
                 (B2U) (B1G) (AG) (AG) (B1U) (AU) (B2U) (B2G) (B2U)
                 (AG) (B3U) (B3G) (B2U) (AG) (B3G) (B1U) (B1G)
                 (AG) (B3U) (AU) (B2G) (B1G) (B3G) (B1U) (B2U)
                 (AU) (B3U) (B2G) (B1U) (B2U) (AG) (AG) (B3G) (B1G)
                 (B2U) (B3U) (B1G) (AU) (B1U) (B2G) (AG) (B1U)
                 (B2U) (B3G) (AG) (AG) (B1U) (B2U) (AG)
 Beta  Orbitals:
       Occupied  (B2U) (AG) (AG) (B1U) (AG) (B2U) (B1U) (AG) (B3U)
                 (B1G) (AG) (B2U) (B1U) (B3G) (B2U) (B3G) (B2G)
                 (B3U) (AG) (B1U) (AG) (B1U) (B2U) (AG) (B3U) (B3G)
                 (AG) (B1U)
       Virtual   (B2G) (B1G) (B2U) (B3U) (B2U) (AG) (B1U) (B3G)
                 (AG) (B1U) (AG) (B3U) (AG) (B3G) (B1U) (B2G) (B2U)
                 (AU) (B2U) (B1G) (B3U) (B2G) (B2U) (B3U) (AG)
                 (B1U) (B3G) (AG) (B1G) (B1U) (B2U) (B3U) (B3G)
                 (AU) (B1U) (B1G) (AG) (B2G) (AG) (AG) (B2U) (B3G)
                 (B2U) (AG) (B1U) (B2G) (B1U) (B3U) (B1U) (B3G)
                 (B2U) (B3U) (B1G) (AG) (AG) (B1U) (AU) (B2U) (B2G)
                 (B2U) (AG) (B3G) (B3U) (B2U) (AG) (B3G) (B1G)
                 (B1U) (AG) (B3U) (AU) (B2G) (B1G) (B3G) (B1U)
                 (B2U) (AU) (B3U) (B2G) (B1U) (B2U) (AG) (B3G)
                 (AG) (B1G) (B2U) (B3U) (B1G) (AU) (B1U) (B2G)
                 (AG) (B1U) (B2U) (B3G) (AG) (AG) (B1U) (B2U) (AG)
 The electronic state is 2-B2G.
 Alpha  occ. eigenvalues --  -65.95665 -65.95665 -65.95259 -65.95259  -5.10506
 Alpha  occ. eigenvalues --   -5.10498  -5.10006  -5.10005  -3.46565  -3.46563
 Alpha  occ. eigenvalues --   -3.46249  -3.46207  -3.46091  -3.46089  -3.46054
 Alpha  occ. eigenvalues --   -3.46053  -3.45873  -3.45863  -3.45554  -3.45551
 Alpha  occ. eigenvalues --   -0.41928  -0.30084  -0.22622  -0.15931  -0.08931
 Alpha  occ. eigenvalues --   -0.06994  -0.06043  -0.04771  -0.00578
 Alpha virt. eigenvalues --    0.08675   0.09131   0.12122   0.16911   0.17185
 Alpha virt. eigenvalues --    0.19670   0.22292   0.25735   0.31054   0.32110
 Alpha virt. eigenvalues --    0.32506   0.34723   0.34761   0.35704   0.35922
 Alpha virt. eigenvalues --    0.37137   0.38303   0.39115   0.42628   0.43565
 Alpha virt. eigenvalues --    0.43657   0.45861   0.45951   0.46455   0.48181
 Alpha virt. eigenvalues --    0.48500   0.48795   0.49052   0.54840   0.57444
 Alpha virt. eigenvalues --    0.63643   0.65103   0.66035   0.66157   0.67853
 Alpha virt. eigenvalues --    0.68187   0.70250   0.71473   0.83653   0.86436
 Alpha virt. eigenvalues --    0.86901   0.89550   0.92695   0.94192   1.02153
 Alpha virt. eigenvalues --    1.02623   1.05829   1.07874   1.08038   1.10960
 Alpha virt. eigenvalues --    1.11213   1.11864   1.13989   1.15530   1.17499
 Alpha virt. eigenvalues --    1.19846   1.19952   1.20679   1.23693   1.29248
 Alpha virt. eigenvalues --    1.31224   1.31899   1.40859   1.42106   1.43055
 Alpha virt. eigenvalues --    1.43753   1.44159   1.46714   1.47466   1.48794
 Alpha virt. eigenvalues --    1.53135   1.56452   1.63741   1.67442   1.72580
 Alpha virt. eigenvalues --    1.82927   1.86625   1.87032   1.89324   1.91204
 Alpha virt. eigenvalues --    1.93216   1.93438   1.93677   1.93740   1.97521
 Alpha virt. eigenvalues --    2.02923   2.06116   2.09583   2.10857   2.13230
 Alpha virt. eigenvalues --    2.19688   2.23197   2.26966   2.33128   2.39079
 Alpha virt. eigenvalues --    2.59260   2.77647   2.90886   2.94506
  Beta  occ. eigenvalues --  -65.95691 -65.95691 -65.95110 -65.95110  -5.10534
  Beta  occ. eigenvalues --   -5.10526  -5.09840  -5.09840  -3.46633  -3.46632
  Beta  occ. eigenvalues --   -3.46270  -3.46228  -3.46116  -3.46113  -3.45781
  Beta  occ. eigenvalues --   -3.45773  -3.45514  -3.45513  -3.45468  -3.45465
  Beta  occ. eigenvalues --   -0.41473  -0.28513  -0.22674  -0.14770  -0.07384
  Beta  occ. eigenvalues --   -0.06605  -0.06124  -0.04253
  Beta virt. eigenvalues --    0.06368   0.08477   0.09504   0.14668   0.16879
  Beta virt. eigenvalues --    0.17512   0.19990   0.22427   0.26268   0.31507
  Beta virt. eigenvalues --    0.32050   0.32879   0.34909   0.36065   0.36224
  Beta virt. eigenvalues --    0.37207   0.38229   0.38589   0.39109   0.42438
  Beta virt. eigenvalues --    0.44512   0.45403   0.45989   0.46556   0.47554
  Beta virt. eigenvalues --    0.48544   0.48628   0.49724   0.50850   0.55135
  Beta virt. eigenvalues --    0.57435   0.64990   0.65311   0.67044   0.67549
  Beta virt. eigenvalues --    0.67788   0.68253   0.71351   0.71755   0.84164
  Beta virt. eigenvalues --    0.86403   0.86884   0.89841   0.93060   0.94811
  Beta virt. eigenvalues --    1.03104   1.03604   1.06862   1.08186   1.09351
  Beta virt. eigenvalues --    1.11330   1.11559   1.12576   1.14093   1.15586
  Beta virt. eigenvalues --    1.17902   1.20568   1.20796   1.22691   1.24149
  Beta virt. eigenvalues --    1.30989   1.32176   1.32394   1.40971   1.42227
  Beta virt. eigenvalues --    1.43714   1.43961   1.44602   1.46882   1.48329
  Beta virt. eigenvalues --    1.49377   1.54136   1.57143   1.63678   1.67488
  Beta virt. eigenvalues --    1.72632   1.83642   1.86712   1.87463   1.90280
  Beta virt. eigenvalues --    1.91076   1.93363   1.93639   1.94028   1.94648
  Beta virt. eigenvalues --    1.97545   2.03650   2.05989   2.09955   2.10942
  Beta virt. eigenvalues --    2.13982   2.19694   2.23496   2.26997   2.33247
  Beta virt. eigenvalues --    2.39175   2.59562   2.78354   2.90856   2.94999
          Condensed to atoms (all electrons):
              1          2          3          4
     1  Si  13.414568   0.305746   0.124781   0.305746
     2  Si   0.305746  13.800972   0.305746  -0.063303
     3  Si   0.124781   0.305746  13.414568   0.305746
     4  Si   0.305746  -0.063303   0.305746  13.800972
 Mulliken atomic charges:
              1
     1  Si  -0.150840
     2  Si  -0.349160
     3  Si  -0.150840
     4  Si  -0.349160
 Sum of Mulliken atomic charges =  -1.00000
 Mulliken charges with hydrogens summed into heavy atoms:
              1
     1  Si  -0.150840
     2  Si  -0.349160
     3  Si  -0.150840
     4  Si  -0.349160
 Sum of Mulliken charges with hydrogens summed into heavy atoms =  -1.00000
          Atomic-Atomic Spin Densities.
              1          2          3          4
     1  Si  -0.063323   0.005464  -0.015402   0.005464
     2  Si   0.005464   0.574493   0.005464  -0.017623
     3  Si  -0.015402   0.005464  -0.063323   0.005464
     4  Si   0.005464  -0.017623   0.005464   0.574493
 Mulliken atomic spin densities:
              1
     1  Si  -0.067798
     2  Si   0.567798
     3  Si  -0.067798
     4  Si   0.567798
 Sum of Mulliken atomic spin densities =   1.00000
 Electronic spatial extent (au):  <R**2>=            697.0259
 Charge=             -1.0000 electrons
 Dipole moment (field-independent basis, Debye):
    X=              0.0000    Y=              0.0000    Z=              0.0000  Tot=              0.0000
 Quadrupole moment (field-independent basis, Debye-Ang):
   XX=            -58.7550   YY=            -64.4592   ZZ=            -80.8170
   XY=              0.0000   XZ=              0.0000   YZ=              0.0000
 Traceless Quadrupole moment (field-independent basis, Debye-Ang):
   XX=              9.2554   YY=              3.5512   ZZ=            -12.8066
   XY=              0.0000   XZ=              0.0000   YZ=              0.0000
 Octapole moment (field-independent basis, Debye-Ang**2):
  XXX=              0.0000  YYY=              0.0000  ZZZ=              0.0000  XYY=              0.0000
  XXY=              0.0000  XXZ=              0.0000  XZZ=              0.0000  YZZ=              0.0000
  YYZ=              0.0000  XYZ=              0.0000
 Hexadecapole moment (field-independent basis, Debye-Ang**3):
 XXXX=           -120.6782 YYYY=           -401.1379 ZZZZ=          -1053.1082 XXXY=              0.0000
 XXXZ=              0.0000 YYYX=              0.0000 YYYZ=              0.0000 ZZZX=              0.0000
 ZZZY=              0.0000 XXYY=            -80.4503 XXZZ=           -174.8937 YYZZ=           -210.6556
 XXYZ=              0.0000 YYXZ=              0.0000 ZZXY=              0.0000
 N-N= 2.470918279374D+02 E-N=-4.885880629960D+03  KE= 1.730675073008D+03
 Symmetry AG   KE= 7.163276650261D+02
 Symmetry B1G  KE= 3.642984576386D+01
 Symmetry B2G  KE= 3.731921565333D+01
 Symmetry B3G  KE= 7.602074379981D+01
 Symmetry AU   KE= 1.953152727071D-32
 Symmetry B1U  KE= 3.964104056020D+02
 Symmetry B2U  KE= 3.929039661354D+02
 Symmetry B3U  KE= 7.526323102784D+01
                          Isotropic Fermi Contact Couplings
        Atom                 a.u.       MegaHertz       Gauss      10(-4) cm-1
     1  Si(29)            -0.01878      16.69306       5.95650       5.56821
     2  Si(29)             0.01688     -15.00338      -5.35358      -5.00459
     3  Si(29)            -0.01878      16.69306       5.95650       5.56821
     4  Si(29)             0.01688     -15.00338      -5.35358      -5.00459
 --------------------------------------------------------
       Center         ----  Spin Dipole Couplings  ----
                      3XX-RR        3YY-RR        3ZZ-RR
 --------------------------------------------------------
     1   Atom       -0.090309      0.047973      0.042336
     2   Atom        0.850996     -0.418097     -0.432899
     3   Atom       -0.090309      0.047973      0.042336
     4   Atom        0.850996     -0.418097     -0.432899
 --------------------------------------------------------
                        XY            XZ            YZ
 --------------------------------------------------------
     1   Atom        0.000000      0.000000      0.000000
     2   Atom        0.000000      0.000000      0.000000
     3   Atom        0.000000      0.000000      0.000000
     4   Atom        0.000000      0.000000      0.000000
 --------------------------------------------------------


 ---------------------------------------------------------------------------------
              Anisotropic Spin Dipole Couplings in Principal Axis System
 ---------------------------------------------------------------------------------

       Atom             a.u.   MegaHertz   Gauss  10(-4) cm-1        Axes

              Baa    -0.0903     9.580     3.418     3.196  1.0000  0.0000  0.0000
     1 Si(29) Bbb     0.0423    -4.491    -1.603    -1.498  0.0000  0.0000  1.0000
              Bcc     0.0480    -5.089    -1.816    -1.698  0.0000  1.0000  0.0000
 
              Baa    -0.4329    45.924    16.387    15.318  0.0000  0.0000  1.0000
     2 Si(29) Bbb    -0.4181    44.353    15.826    14.795  0.0000  1.0000  0.0000
              Bcc     0.8510   -90.277   -32.213   -30.113  1.0000  0.0000  0.0000
 
              Baa    -0.0903     9.580     3.418     3.196  1.0000  0.0000  0.0000
     3 Si(29) Bbb     0.0423    -4.491    -1.603    -1.498  0.0000  0.0000  1.0000
              Bcc     0.0480    -5.089    -1.816    -1.698  0.0000  1.0000  0.0000
 
              Baa    -0.4329    45.924    16.387    15.318  0.0000  0.0000  1.0000
     4 Si(29) Bbb    -0.4181    44.353    15.826    14.795  0.0000  1.0000  0.0000
              Bcc     0.8510   -90.277   -32.213   -30.113  1.0000  0.0000  0.0000
 

 ---------------------------------------------------------------------------------

 Calling FoFJK, ICntrl=      2127 FMM=F ISym2X=1 I1Cent= 0 IOpClX= 1 NMat=1 NMatS=1 NMatT=0.
 ***** Axes restored to original set *****
 -------------------------------------------------------------------
 Center     Atomic                   Forces (Hartrees/Bohr)
 Number     Number              X              Y              Z
 -------------------------------------------------------------------
      1       14          -0.003187610    0.000000000    0.000000000
      2       14           0.000000000    0.001667155    0.000000000
      3       14           0.003187610    0.000000000    0.000000000
      4       14           0.000000000   -0.001667155    0.000000000
 -------------------------------------------------------------------
 Cartesian Forces:  Max     0.003187610 RMS     0.001468574

 GradGradGradGradGradGradGradGradGradGradGradGradGradGradGradGradGradGrad
 Berny optimization.
 Search for a local minimum.
 Step number   1 out of a maximum of   22
 All quantities printed in internal units (Hartrees-Bohrs-Radians)
 Second derivative matrix not updated -- first step.
 The second derivative matrix:
                          X1        Y1        Z1        X2        Y2
           X1           0.26769
           Y1           0.00000   0.23649
           Z1           0.00000   0.00000   0.02392
           X2          -0.06334  -0.07498   0.00000   0.10765
           Y2          -0.03077  -0.10961   0.00000   0.00000   0.22586
           Z2           0.00000   0.00000  -0.00575   0.00000   0.00000
           X3          -0.14101   0.00000   0.00000  -0.06334   0.03077
           Y3           0.00000  -0.01728   0.00000   0.07498  -0.10961
           Z3           0.00000   0.00000  -0.01242   0.00000   0.00000
           X4          -0.06334   0.07498   0.00000   0.01903   0.00000
           Y4           0.03077  -0.10961   0.00000   0.00000  -0.00664
           Z4           0.00000   0.00000  -0.00575   0.00000   0.00000
                          Z2        X3        Y3        Z3        X4
           Z2           0.00575
           X3           0.00000   0.26769
           Y3           0.00000   0.00000   0.23649
           Z3          -0.00575   0.00000   0.00000   0.02392
           X4           0.00000  -0.06334  -0.07498   0.00000   0.10765
           Y4           0.00000  -0.03077  -0.10961   0.00000   0.00000
           Z4           0.00575   0.00000   0.00000  -0.00575   0.00000
                          Y4        Z4
           Y4           0.22586
           Z4           0.00000   0.00575
     Eigenvalues ---    0.02299   0.21314   0.25335   0.34239   0.42807
     Eigenvalues ---    0.43843
 RFO step:  Lambda=-6.23489895D-05 EMin= 2.29896863D-02
 ClnCor:  largest displacement from symmetrization is 1.26D-13 for atom     3.
 Linear search not attempted -- first point.
 ClnCor:  largest displacement from symmetrization is 3.55D-30 for atom     3.
 TrRot=  0.000000  0.000000  0.000000  0.000000  0.000000  0.000000
 Variable       Old X    -DE/DX   Delta X   Delta X   Delta X     New X
                                 (Linear)    (Quad)   (Total)
    X1        2.24520  -0.00319   0.00000  -0.00700  -0.00700   2.23820
    Y1        0.00000   0.00000   0.00000   0.00000   0.00000   0.00000
    Z1        0.00000   0.00000   0.00000   0.00000   0.00000   0.00000
    X2        0.00000   0.00000   0.00000   0.00000   0.00000   0.00000
    Y2       -3.79938   0.00167   0.00000   0.00532   0.00532  -3.79406
    Z2        0.00000   0.00000   0.00000   0.00000   0.00000   0.00000
    X3       -2.24520   0.00319   0.00000   0.00700   0.00700  -2.23820
    Y3        0.00000   0.00000   0.00000   0.00000   0.00000   0.00000
    Z3        0.00000   0.00000   0.00000   0.00000   0.00000   0.00000
    X4        0.00000   0.00000   0.00000   0.00000   0.00000   0.00000
    Y4        3.79938  -0.00167   0.00000  -0.00532  -0.00532   3.79406
    Z4        0.00000   0.00000   0.00000   0.00000   0.00000   0.00000
         Item               Value     Threshold  Converged?
 Maximum Force            0.003188     0.000450     NO 
 RMS     Force            0.001469     0.000300     NO 
 Maximum Displacement     0.006998     0.001800     NO 
 RMS     Displacement     0.003588     0.001200     NO 
 Predicted change in Energy=-3.117449D-05
 GradGradGradGradGradGradGradGradGradGradGradGradGradGradGradGradGradGrad

                          Input orientation:                          
 ---------------------------------------------------------------------
 Center     Atomic      Atomic             Coordinates (Angstroms)
 Number     Number       Type             X           Y           Z
 ---------------------------------------------------------------------
      1         14           0        1.184406    0.000000    0.000000
      2         14           0        0.000000   -2.007731    0.000000
      3         14           0       -1.184406    0.000000    0.000000
      4         14           0        0.000000    2.007731    0.000000
 ---------------------------------------------------------------------
                    Distance matrix (angstroms):
                    1          2          3          4
     1  Si   0.000000
     2  Si   2.331052   0.000000
     3  Si   2.368811   2.331052   0.000000
     4  Si   2.331052   4.015463   2.331052   0.000000
 Stoichiometry    Si4(1-,2)
 Framework group  D2H[C2'(Si.Si),C2"(Si.Si)]
 Deg. of freedom     2
 Full point group                 D2H     NOp   8
 Largest Abelian subgroup         D2H     NOp   8
 Largest concise Abelian subgroup D2      NOp   4
                         Standard orientation:                         
 ---------------------------------------------------------------------
 Center     Atomic      Atomic             Coordinates (Angstroms)
 Number     Number       Type             X           Y           Z
 ---------------------------------------------------------------------
      1         14           0        0.000000    1.184406    0.000000
      2         14           0        0.000000    0.000000    2.007731
      3         14           0        0.000000   -1.184406    0.000000
      4         14           0        0.000000    0.000000   -2.007731
 ---------------------------------------------------------------------
 Rotational constants (GHZ):      6.4385234      2.2406600      1.6622004
 Standard basis: GTBas3 (6D, 7F)
 There are    30 symmetry adapted basis functions of AG  symmetry.
 There are    10 symmetry adapted basis functions of B1G symmetry.
 There are    10 symmetry adapted basis functions of B2G symmetry.
 There are    14 symmetry adapted basis functions of B3G symmetry.
 There are     6 symmetry adapted basis functions of AU  symmetry.
 There are    22 symmetry adapted basis functions of B1U symmetry.
 There are    22 symmetry adapted basis functions of B2U symmetry.
 There are    14 symmetry adapted basis functions of B3U symmetry.
 Integral buffers will be    131072 words long.
 Raffenetti 2 integral format.
 Two-electron integral symmetry is turned on.
   128 basis functions,   272 primitive gaussians,   140 cartesian basis functions
    29 alpha electrons       28 beta electrons
       nuclear repulsion energy       247.5925556872 Hartrees.
 NAtoms=    4 NActive=    4 NUniq=    2 SFac= 3.00D+00 NAtFMM=   80 NAOKFM=F Big=F
 One-electron integrals computed using PRISM.
 NBasis=   128 RedAO= T  NBF=    30    10    10    14     6    22    22    14
 NBsUse=   128 1.00D-06 NBFU=    30    10    10    14     6    22    22    14
 Initial guess read from the read-write file.
 B after Tr=     0.000000    0.000000    0.000000
         Rot=    1.000000    0.000000    0.000000    0.000000 Ang=   0.00 deg.
 Initial guess orbital symmetries:
 Alpha Orbitals:
       Occupied  (B2U) (AG) (AG) (B1U) (AG) (B2U) (B1U) (AG) (B3U)
                 (B1G) (AG) (B2U) (B1U) (B3G) (B2G) (B3U) (B2U)
                 (B3G) (AG) (B1U) (AG) (B1U) (B2U) (AG) (B3U) (B3G)
                 (AG) (B1U) (B2G)
       Virtual   (B1G) (B2U) (B3U) (B2U) (AG) (B1U) (B3G) (AG)
                 (B1U) (AG) (B3U) (B1U) (AG) (B2G) (B3G) (AU) (B2U)
                 (B2U) (B1G) (B2G) (B3U) (B3U) (B2U) (AG) (B1U)
                 (B3G) (AG) (B1G) (B1U) (B2U) (B3U) (B3G) (AU)
                 (B1U) (B1G) (AG) (B2G) (AG) (AG) (B2U) (B3G) (B2U)
                 (AG) (B1U) (B2G) (B1U) (B3U) (B1U) (B3G) (B3U)
                 (B2U) (B1G) (AG) (AG) (B1U) (AU) (B2U) (B2G) (B2U)
                 (AG) (B3U) (B3G) (B2U) (AG) (B3G) (B1U) (B1G)
                 (AG) (B3U) (AU) (B2G) (B1G) (B3G) (B1U) (B2U)
                 (AU) (B3U) (B2G) (B1U) (B2U) (AG) (AG) (B3G) (B1G)
                 (B2U) (B3U) (B1G) (AU) (B1U) (B2G) (AG) (B1U)
                 (B2U) (B3G) (AG) (AG) (B1U) (B2U) (AG)
 Beta  Orbitals:
       Occupied  (B2U) (AG) (AG) (B1U) (AG) (B2U) (B1U) (AG) (B3U)
                 (B1G) (AG) (B2U) (B1U) (B3G) (B2U) (B3G) (B2G)
                 (B3U) (AG) (B1U) (AG) (B1U) (B2U) (AG) (B3U) (B3G)
                 (AG) (B1U)
       Virtual   (B2G) (B1G) (B2U) (B3U) (B2U) (AG) (B1U) (B3G)
                 (AG) (B1U) (AG) (B3U) (AG) (B3G) (B1U) (B2G) (B2U)
                 (AU) (B2U) (B1G) (B3U) (B2G) (B2U) (B3U) (AG)
                 (B1U) (B3G) (AG) (B1G) (B1U) (B2U) (B3U) (B3G)
                 (AU) (B1U) (B1G) (AG) (B2G) (AG) (AG) (B2U) (B3G)
                 (B2U) (AG) (B1U) (B2G) (B1U) (B3U) (B1U) (B3G)
                 (B2U) (B3U) (B1G) (AG) (AG) (B1U) (AU) (B2U) (B2G)
                 (B2U) (AG) (B3G) (B3U) (B2U) (AG) (B3G) (B1G)
                 (B1U) (AG) (B3U) (AU) (B2G) (B1G) (B3G) (B1U)
                 (B2U) (AU) (B3U) (B2G) (B1U) (B2U) (AG) (B3G)
                 (AG) (B1G) (B2U) (B3U) (B1G) (AU) (B1U) (B2G)
                 (AG) (B1U) (B2U) (B3G) (AG) (AG) (B1U) (B2U) (AG)
 Initial guess <Sx>= 0.0000 <Sy>= 0.0000 <Sz>= 0.5000 <S**2>= 0.7701 S= 0.5100
 Requested convergence on RMS density matrix=1.00D-08 within 128 cycles.
 Requested convergence on MAX density matrix=1.00D-06.
 Requested convergence on             energy=1.00D-06.
 No special actions if energy rises.
 Keep R1 and R2 ints in memory in canonical form, NReq=99477857.
 SCF Done:  E(UB3LYP) =  -1157.97566279     A.U. after    8 cycles
             Convg  =    0.7570D-08             -V/T =  2.0034
 <Sx>= 0.0000 <Sy>= 0.0000 <Sz>= 0.5000 <S**2>= 0.7699 S= 0.5099
 <L.S>= 0.000000000000E+00
 Annihilation of the first spin contaminant:
 S**2 before annihilation     0.7699,   after     0.7501
 QCSCF skips out because SCF is already converged.
 Calling FoFJK, ICntrl=      2127 FMM=F ISym2X=1 I1Cent= 0 IOpClX= 1 NMat=1 NMatS=1 NMatT=0.
 ***** Axes restored to original set *****
 -------------------------------------------------------------------
 Center     Atomic                   Forces (Hartrees/Bohr)
 Number     Number              X              Y              Z
 -------------------------------------------------------------------
      1       14          -0.001500286    0.000000000    0.000000000
      2       14           0.000000000    0.000575922    0.000000000
      3       14           0.001500286    0.000000000    0.000000000
      4       14           0.000000000   -0.000575922    0.000000000
 -------------------------------------------------------------------
 Cartesian Forces:  Max     0.001500286 RMS     0.000656067

 GradGradGradGradGradGradGradGradGradGradGradGradGradGradGradGradGradGrad
 Berny optimization.
 Search for a local minimum.
 Step number   2 out of a maximum of   22
 All quantities printed in internal units (Hartrees-Bohrs-Radians)
 Update second derivatives using D2CorN and points    1    2
 DE= -4.48D-05 DEPred=-3.12D-05 R= 1.44D+00
 SS=  1.41D+00  RLast= 1.24D-02 DXNew= 5.0454D-01 3.7286D-02
 Trust test= 1.44D+00 RLast= 1.24D-02 DXMaxT set to 3.00D-01
 The second derivative matrix:
                          X1        Y1        Z1        X2        Y2
           X1           0.19974
           Y1           0.00000   0.23649
           Z1           0.00000   0.00000   0.02392
           X2          -0.06334  -0.07498   0.00000   0.10765
           Y2           0.00808  -0.10961   0.00000   0.00000   0.20605
           Z2           0.00000   0.00000  -0.00575   0.00000   0.00000
           X3          -0.07307   0.00000   0.00000  -0.06334  -0.00808
           Y3           0.00000  -0.01728   0.00000   0.07498  -0.10961
           Z3           0.00000   0.00000  -0.01242   0.00000   0.00000
           X4          -0.06334   0.07498   0.00000   0.01903   0.00000
           Y4          -0.00808  -0.10961   0.00000   0.00000   0.01317
           Z4           0.00000   0.00000  -0.00575   0.00000   0.00000
                          Z2        X3        Y3        Z3        X4
           Z2           0.00575
           X3           0.00000   0.19974
           Y3           0.00000   0.00000   0.23649
           Z3          -0.00575   0.00000   0.00000   0.02392
           X4           0.00000  -0.06334  -0.07498   0.00000   0.10765
           Y4           0.00000   0.00808  -0.10961   0.00000   0.00000
           Z4           0.00575   0.00000   0.00000  -0.00575   0.00000
                          Y4        Z4
           Y4           0.20605
           Z4           0.00000   0.00575
     Eigenvalues ---    0.02299   0.18974   0.25335   0.27595   0.34239
     Eigenvalues ---    0.43843
 RFO step:  Lambda=-9.72234965D-07 EMin= 2.29896863D-02
 ClnCor:  largest displacement from symmetrization is 2.36D-13 for atom     3.
 Quartic linear search produced a step of  0.75666.
 ClnCor:  largest displacement from symmetrization is 3.60D-17 for atom     2.
 TrRot=  0.000000  0.000000  0.000000  0.000000  0.000000  0.000000
 Variable       Old X    -DE/DX   Delta X   Delta X   Delta X     New X
                                 (Linear)    (Quad)   (Total)
    X1        2.23820  -0.00150  -0.00529  -0.00066  -0.00596   2.23224
    Y1        0.00000   0.00000   0.00000   0.00000   0.00000   0.00000
    Z1        0.00000   0.00000   0.00000   0.00000   0.00000   0.00000
    X2        0.00000   0.00000   0.00000   0.00000   0.00000   0.00000
    Y2       -3.79406   0.00058   0.00402  -0.00132   0.00270  -3.79136
    Z2        0.00000   0.00000   0.00000   0.00000   0.00000   0.00000
    X3       -2.23820   0.00150   0.00529   0.00066   0.00596  -2.23224
    Y3        0.00000   0.00000   0.00000   0.00000   0.00000   0.00000
    Z3        0.00000   0.00000   0.00000   0.00000   0.00000   0.00000
    X4        0.00000   0.00000   0.00000   0.00000   0.00000   0.00000
    Y4        3.79406  -0.00058  -0.00402   0.00132  -0.00270   3.79136
    Z4        0.00000   0.00000   0.00000   0.00000   0.00000   0.00000
         Item               Value     Threshold  Converged?
 Maximum Force            0.001500     0.000450     NO 
 RMS     Force            0.000656     0.000300     NO 
 Maximum Displacement     0.005957     0.001800     NO 
 RMS     Displacement     0.002670     0.001200     NO 
 Predicted change in Energy=-1.041665D-05
 GradGradGradGradGradGradGradGradGradGradGradGradGradGradGradGradGradGrad

                          Input orientation:                          
 ---------------------------------------------------------------------
 Center     Atomic      Atomic             Coordinates (Angstroms)
 Number     Number       Type             X           Y           Z
 ---------------------------------------------------------------------
      1         14           0        1.181253    0.000000    0.000000
      2         14           0        0.000000   -2.006303    0.000000
      3         14           0       -1.181253    0.000000    0.000000
      4         14           0        0.000000    2.006303    0.000000
 ---------------------------------------------------------------------
                    Distance matrix (angstroms):
                    1          2          3          4
     1  Si   0.000000
     2  Si   2.328220   0.000000
     3  Si   2.362506   2.328220   0.000000
     4  Si   2.328220   4.012606   2.328220   0.000000
 Stoichiometry    Si4(1-,2)
 Framework group  D2H[C2'(Si.Si),C2"(Si.Si)]
 Deg. of freedom     2
 Full point group                 D2H     NOp   8
 Largest Abelian subgroup         D2H     NOp   8
 Largest concise Abelian subgroup D2      NOp   4
                         Standard orientation:                         
 ---------------------------------------------------------------------
 Center     Atomic      Atomic             Coordinates (Angstroms)
 Number     Number       Type             X           Y           Z
 ---------------------------------------------------------------------
      1         14           0        0.000000    1.181253    0.000000
      2         14           0        0.000000    0.000000    2.006303
      3         14           0        0.000000   -1.181253    0.000000
      4         14           0        0.000000    0.000000   -2.006303
 ---------------------------------------------------------------------
 Rotational constants (GHZ):      6.4729355      2.2438515      1.6662454
 Standard basis: GTBas3 (6D, 7F)
 There are    30 symmetry adapted basis functions of AG  symmetry.
 There are    10 symmetry adapted basis functions of B1G symmetry.
 There are    10 symmetry adapted basis functions of B2G symmetry.
 There are    14 symmetry adapted basis functions of B3G symmetry.
 There are     6 symmetry adapted basis functions of AU  symmetry.
 There are    22 symmetry adapted basis functions of B1U symmetry.
 There are    22 symmetry adapted basis functions of B2U symmetry.
 There are    14 symmetry adapted basis functions of B3U symmetry.
 Integral buffers will be    131072 words long.
 Raffenetti 2 integral format.
 Two-electron integral symmetry is turned on.
   128 basis functions,   272 primitive gaussians,   140 cartesian basis functions
    29 alpha electrons       28 beta electrons
       nuclear repulsion energy       247.9442221397 Hartrees.
 NAtoms=    4 NActive=    4 NUniq=    2 SFac= 3.00D+00 NAtFMM=   80 NAOKFM=F Big=F
 One-electron integrals computed using PRISM.
 NBasis=   128 RedAO= T  NBF=    30    10    10    14     6    22    22    14
 NBsUse=   128 1.00D-06 NBFU=    30    10    10    14     6    22    22    14
 Initial guess read from the read-write file.
 B after Tr=     0.000000    0.000000    0.000000
         Rot=    1.000000    0.000000    0.000000    0.000000 Ang=   0.00 deg.
 Initial guess orbital symmetries:
 Alpha Orbitals:
       Occupied  (B2U) (AG) (AG) (B1U) (AG) (B2U) (B1U) (AG) (B3U)
                 (B1G) (AG) (B2U) (B1U) (B3G) (B2G) (B3U) (B2U)
                 (B3G) (AG) (B1U) (AG) (B1U) (B2U) (AG) (B3U) (B3G)
                 (AG) (B1U) (B2G)
       Virtual   (B1G) (B2U) (B3U) (B2U) (AG) (B1U) (B3G) (AG)
                 (B1U) (AG) (B3U) (B1U) (AG) (B2G) (B3G) (AU) (B2U)
                 (B2U) (B1G) (B2G) (B3U) (B3U) (B2U) (AG) (B1U)
                 (B3G) (AG) (B1G) (B1U) (B2U) (B3U) (B3G) (AU)
                 (B1U) (B1G) (AG) (B2G) (AG) (AG) (B2U) (B3G) (B2U)
                 (AG) (B1U) (B2G) (B1U) (B3U) (B1U) (B3G) (B3U)
                 (B2U) (B1G) (AG) (AG) (B1U) (AU) (B2U) (B2G) (B2U)
                 (AG) (B3U) (B3G) (B2U) (AG) (B3G) (B1U) (B1G)
                 (AG) (B3U) (AU) (B2G) (B1G) (B3G) (B1U) (B2U)
                 (AU) (B3U) (B2G) (B1U) (B2U) (AG) (AG) (B3G) (B1G)
                 (B2U) (B3U) (B1G) (AU) (B1U) (B2G) (AG) (B1U)
                 (B2U) (B3G) (AG) (AG) (B1U) (B2U) (AG)
 Beta  Orbitals:
       Occupied  (B2U) (AG) (AG) (B1U) (AG) (B2U) (B1U) (AG) (B3U)
                 (B1G) (AG) (B2U) (B1U) (B3G) (B2U) (B3G) (B2G)
                 (B3U) (AG) (B1U) (AG) (B1U) (B2U) (AG) (B3U) (B3G)
                 (AG) (B1U)
       Virtual   (B2G) (B1G) (B2U) (B3U) (B2U) (AG) (B1U) (B3G)
                 (AG) (B1U) (AG) (B3U) (AG) (B3G) (B1U) (B2G) (B2U)
                 (AU) (B2U) (B1G) (B3U) (B2G) (B2U) (B3U) (AG)
                 (B1U) (B3G) (AG) (B1G) (B1U) (B2U) (B3U) (B3G)
                 (AU) (B1U) (B1G) (AG) (B2G) (AG) (AG) (B2U) (B3G)
                 (B2U) (AG) (B1U) (B2G) (B1U) (B3U) (B1U) (B3G)
                 (B2U) (B3U) (B1G) (AG) (AG) (B1U) (AU) (B2U) (B2G)
                 (B2U) (AG) (B3G) (B3U) (B2U) (AG) (B3G) (B1G)
                 (B1U) (AG) (B3U) (AU) (B2G) (B1G) (B3G) (B1U)
                 (B2U) (AU) (B3U) (B2G) (B1U) (B2U) (AG) (B3G)
                 (AG) (B1G) (B2U) (B3U) (B1G) (AU) (B1U) (B2G)
                 (AG) (B1U) (B2U) (B3G) (AG) (AG) (B1U) (B2U) (AG)
 Initial guess <Sx>= 0.0000 <Sy>= 0.0000 <Sz>= 0.5000 <S**2>= 0.7699 S= 0.5099
 Requested convergence on RMS density matrix=1.00D-08 within 128 cycles.
 Requested convergence on MAX density matrix=1.00D-06.
 Requested convergence on             energy=1.00D-06.
 No special actions if energy rises.
 Keep R1 and R2 ints in memory in canonical form, NReq=99477857.
 SCF Done:  E(UB3LYP) =  -1157.97567373     A.U. after    8 cycles
             Convg  =    0.5255D-08             -V/T =  2.0034
 <Sx>= 0.0000 <Sy>= 0.0000 <Sz>= 0.5000 <S**2>= 0.7698 S= 0.5098
 <L.S>= 0.000000000000E+00
 Annihilation of the first spin contaminant:
 S**2 before annihilation     0.7698,   after     0.7501
 QCSCF skips out because SCF is already converged.
 Calling FoFJK, ICntrl=      2127 FMM=F ISym2X=1 I1Cent= 0 IOpClX= 1 NMat=1 NMatS=1 NMatT=0.
 ***** Axes restored to original set *****
 -------------------------------------------------------------------
 Center     Atomic                   Forces (Hartrees/Bohr)
 Number     Number              X              Y              Z
 -------------------------------------------------------------------
      1       14          -0.000105354    0.000000000    0.000000000
      2       14           0.000000000   -0.000080306    0.000000000
      3       14           0.000105354    0.000000000    0.000000000
      4       14           0.000000000    0.000080306    0.000000000
 -------------------------------------------------------------------
 Cartesian Forces:  Max     0.000105354 RMS     0.000054081

 GradGradGradGradGradGradGradGradGradGradGradGradGradGradGradGradGradGrad
 Berny optimization.
 Search for a local minimum.
 Step number   3 out of a maximum of   22
 All quantities printed in internal units (Hartrees-Bohrs-Radians)
 Update second derivatives using D2CorN and points    1    2    3
 DE= -1.09D-05 DEPred=-1.04D-05 R= 1.05D+00
 SS=  1.41D+00  RLast= 9.25D-03 DXNew= 5.0454D-01 2.7748D-02
 Trust test= 1.05D+00 RLast= 9.25D-03 DXMaxT set to 3.00D-01
 The second derivative matrix:
                          X1        Y1        Z1        X2        Y2
           X1           0.18410
           Y1           0.00000   0.23649
           Z1           0.00000   0.00000   0.02392
           X2          -0.06334  -0.07498   0.00000   0.10765
           Y2           0.00112  -0.10961   0.00000   0.00000   0.21814
           Z2           0.00000   0.00000  -0.00575   0.00000   0.00000
           X3          -0.05743   0.00000   0.00000  -0.06334  -0.00112
           Y3           0.00000  -0.01728   0.00000   0.07498  -0.10961
           Z3           0.00000   0.00000  -0.01242   0.00000   0.00000
           X4          -0.06334   0.07498   0.00000   0.01903   0.00000
           Y4          -0.00112  -0.10961   0.00000   0.00000   0.00108
           Z4           0.00000   0.00000  -0.00575   0.00000   0.00000
                          Z2        X3        Y3        Z3        X4
           Z2           0.00575
           X3           0.00000   0.18410
           Y3           0.00000   0.00000   0.23649
           Z3          -0.00575   0.00000   0.00000   0.02392
           X4           0.00000  -0.06334  -0.07498   0.00000   0.10765
           Y4           0.00000   0.00112  -0.10961   0.00000   0.00000
           Z4           0.00575   0.00000   0.00000  -0.00575   0.00000
                          Y4        Z4
           Y4           0.21814
           Z4           0.00000   0.00575
     Eigenvalues ---    0.02299   0.21686   0.24173   0.25335   0.34239
     Eigenvalues ---    0.43843
 RFO step:  Lambda=-1.24178317D-07 EMin= 2.29896863D-02
 ClnCor:  largest displacement from symmetrization is 1.43D-13 for atom     3.
 Quartic linear search produced a step of  0.04038.
 ClnCor:  largest displacement from symmetrization is 1.93D-18 for atom     1.
 TrRot=  0.000000  0.000000  0.000000  0.000000  0.000000  0.000000
 Variable       Old X    -DE/DX   Delta X   Delta X   Delta X     New X
                                 (Linear)    (Quad)   (Total)
    X1        2.23224  -0.00011  -0.00024  -0.00020  -0.00044   2.23181
    Y1        0.00000   0.00000   0.00000   0.00000   0.00000   0.00000
    Z1        0.00000   0.00000   0.00000   0.00000   0.00000   0.00000
    X2        0.00000   0.00000   0.00000   0.00000   0.00000   0.00000
    Y2       -3.79136  -0.00008   0.00011  -0.00049  -0.00038  -3.79175
    Z2        0.00000   0.00000   0.00000   0.00000   0.00000   0.00000
    X3       -2.23224   0.00011   0.00024   0.00020   0.00044  -2.23181
    Y3        0.00000   0.00000   0.00000   0.00000   0.00000   0.00000
    Z3        0.00000   0.00000   0.00000   0.00000   0.00000   0.00000
    X4        0.00000   0.00000   0.00000   0.00000   0.00000   0.00000
    Y4        3.79136   0.00008  -0.00011   0.00049   0.00038   3.79175
    Z4        0.00000   0.00000   0.00000   0.00000   0.00000   0.00000
         Item               Value     Threshold  Converged?
 Maximum Force            0.000105     0.000450     YES
 RMS     Force            0.000054     0.000300     YES
 Maximum Displacement     0.000437     0.001800     YES
 RMS     Displacement     0.000237     0.001200     YES
 Predicted change in Energy=-7.488657D-08
 Optimization completed.
    -- Stationary point found.
 GradGradGradGradGradGradGradGradGradGradGradGradGradGradGradGradGradGrad

                          Input orientation:                          
 ---------------------------------------------------------------------
 Center     Atomic      Atomic             Coordinates (Angstroms)
 Number     Number       Type             X           Y           Z
 ---------------------------------------------------------------------
      1         14           0        1.181253    0.000000    0.000000
      2         14           0        0.000000   -2.006303    0.000000
      3         14           0       -1.181253    0.000000    0.000000
      4         14           0        0.000000    2.006303    0.000000
 ---------------------------------------------------------------------
                    Distance matrix (angstroms):
                    1          2          3          4
     1  Si   0.000000
     2  Si   2.328220   0.000000
     3  Si   2.362506   2.328220   0.000000
     4  Si   2.328220   4.012606   2.328220   0.000000
 Stoichiometry    Si4(1-,2)
 Framework group  D2H[C2'(Si.Si),C2"(Si.Si)]
 Deg. of freedom     2
 Full point group                 D2H     NOp   8
 Largest Abelian subgroup         D2H     NOp   8
 Largest concise Abelian subgroup D2      NOp   4
                         Standard orientation:                         
 ---------------------------------------------------------------------
 Center     Atomic      Atomic             Coordinates (Angstroms)
 Number     Number       Type             X           Y           Z
 ---------------------------------------------------------------------
      1         14           0        0.000000    1.181253    0.000000
      2         14           0        0.000000    0.000000    2.006303
      3         14           0        0.000000   -1.181253    0.000000
      4         14           0        0.000000    0.000000   -2.006303
 ---------------------------------------------------------------------
 Rotational constants (GHZ):      6.4729355      2.2438515      1.6662454

 **********************************************************************

            Population analysis using the SCF density.

 **********************************************************************

 Orbital symmetries:
 Alpha Orbitals:
       Occupied  (B2U) (AG) (AG) (B1U) (AG) (B2U) (B1U) (AG) (B3U)
                 (B1G) (AG) (B2U) (B1U) (B3G) (B2G) (B3U) (B2U)
                 (B3G) (AG) (B1U) (AG) (B1U) (B2U) (AG) (B3U) (B3G)
                 (AG) (B1U) (B2G)
       Virtual   (B1G) (B2U) (B3U) (B2U) (AG) (B1U) (B3G) (AG)
                 (B1U) (AG) (B3U) (B1U) (AG) (B2G) (B3G) (AU) (B2U)
                 (B2U) (B1G) (B2G) (B3U) (B3U) (B2U) (AG) (B1U)
                 (B3G) (AG) (B1G) (B1U) (B2U) (B3U) (B3G) (AU)
                 (B1U) (B1G) (AG) (B2G) (AG) (AG) (B2U) (B3G) (B2U)
                 (AG) (B1U) (B2G) (B1U) (B3U) (B1U) (B3G) (B3U)
                 (B2U) (B1G) (AG) (AG) (B1U) (B2U) (AU) (B2G) (B2U)
                 (AG) (B3U) (B3G) (B2U) (AG) (B3G) (B1U) (B1G)
                 (AG) (B3U) (AU) (B2G) (B1G) (B3G) (B1U) (B2U)
                 (AU) (B3U) (B2G) (B1U) (B2U) (AG) (AG) (B3G) (B1G)
                 (B2U) (B3U) (B1G) (AU) (B1U) (B2G) (AG) (B1U)
                 (B2U) (B3G) (AG) (AG) (B1U) (B2U) (AG)
 Beta  Orbitals:
       Occupied  (B2U) (AG) (AG) (B1U) (AG) (B2U) (B1U) (AG) (B3U)
                 (B1G) (AG) (B2U) (B1U) (B3G) (B2U) (B3G) (B2G)
                 (B3U) (AG) (B1U) (AG) (B1U) (B2U) (AG) (B3U) (B3G)
                 (AG) (B1U)
       Virtual   (B2G) (B1G) (B2U) (B3U) (B2U) (AG) (B1U) (B3G)
                 (AG) (B1U) (AG) (B3U) (AG) (B3G) (B1U) (B2G) (B2U)
                 (AU) (B2U) (B1G) (B3U) (B2G) (B2U) (B3U) (AG)
                 (B3G) (B1U) (AG) (B1G) (B1U) (B2U) (B3U) (B3G)
                 (AU) (B1U) (B1G) (AG) (B2G) (AG) (AG) (B2U) (B3G)
                 (B2U) (AG) (B1U) (B2G) (B1U) (B3U) (B1U) (B3G)
                 (B2U) (B3U) (B1G) (AG) (AG) (B1U) (AU) (B2U) (B2G)
                 (B2U) (AG) (B3G) (B3U) (B2U) (AG) (B3G) (B1G)
                 (B1U) (AG) (B3U) (AU) (B2G) (B1G) (B3G) (B1U)
                 (B2U) (AU) (B3U) (B2G) (B1U) (B2U) (AG) (B3G)
                 (AG) (B1G) (B2U) (B3U) (B1G) (AU) (B1U) (B2G)
                 (AG) (B1U) (B2U) (B3G) (AG) (AG) (B1U) (B2U) (AG)
 The electronic state is 2-B2G.
 Alpha  occ. eigenvalues --  -65.95565 -65.95565 -65.95207 -65.95207  -5.10431
 Alpha  occ. eigenvalues --   -5.10422  -5.09965  -5.09964  -3.46489  -3.46487
 Alpha  occ. eigenvalues --   -3.46174  -3.46128  -3.46016  -3.46014  -3.46013
 Alpha  occ. eigenvalues --   -3.46012  -3.45829  -3.45819  -3.45514  -3.45510
 Alpha  occ. eigenvalues --   -0.42111  -0.30160  -0.22572  -0.15897  -0.09021
 Alpha  occ. eigenvalues --   -0.07000  -0.06013  -0.04794  -0.00588
 Alpha virt. eigenvalues --    0.08742   0.09217   0.12176   0.17014   0.17214
 Alpha virt. eigenvalues --    0.19765   0.22369   0.25695   0.30990   0.32098
 Alpha virt. eigenvalues --    0.32444   0.34753   0.34784   0.35643   0.35982
 Alpha virt. eigenvalues --    0.37149   0.38419   0.39133   0.42658   0.43622
 Alpha virt. eigenvalues --    0.43711   0.45919   0.46045   0.46587   0.48350
 Alpha virt. eigenvalues --    0.48554   0.48843   0.49135   0.54889   0.57611
 Alpha virt. eigenvalues --    0.63709   0.65280   0.66207   0.66243   0.68093
 Alpha virt. eigenvalues --    0.68356   0.70464   0.71546   0.83859   0.86839
 Alpha virt. eigenvalues --    0.87116   0.89852   0.92663   0.94512   1.02141
 Alpha virt. eigenvalues --    1.02567   1.06043   1.08022   1.08093   1.11113
 Alpha virt. eigenvalues --    1.11423   1.12045   1.14166   1.15475   1.17731
 Alpha virt. eigenvalues --    1.20088   1.20135   1.20813   1.23799   1.29324
 Alpha virt. eigenvalues --    1.31335   1.32196   1.41279   1.42375   1.43339
 Alpha virt. eigenvalues --    1.44077   1.44481   1.47114   1.47742   1.49031
 Alpha virt. eigenvalues --    1.53431   1.56886   1.64182   1.67727   1.72899
 Alpha virt. eigenvalues --    1.83113   1.87028   1.87286   1.89364   1.91209
 Alpha virt. eigenvalues --    1.93265   1.93565   1.93590   1.93853   1.96489
 Alpha virt. eigenvalues --    2.02922   2.05973   2.09695   2.10713   2.13116
 Alpha virt. eigenvalues --    2.20181   2.23778   2.27774   2.33321   2.39969
 Alpha virt. eigenvalues --    2.59308   2.77707   2.91008   2.94556
  Beta  occ. eigenvalues --  -65.95591 -65.95591 -65.95058 -65.95058  -5.10459
  Beta  occ. eigenvalues --   -5.10450  -5.09799  -5.09799  -3.46557  -3.46555
  Beta  occ. eigenvalues --   -3.46195  -3.46149  -3.46041  -3.46038  -3.45738
  Beta  occ. eigenvalues --   -3.45729  -3.45474  -3.45473  -3.45428  -3.45425
  Beta  occ. eigenvalues --   -0.41655  -0.28593  -0.22618  -0.14737  -0.07473
  Beta  occ. eigenvalues --   -0.06608  -0.06094  -0.04274
  Beta virt. eigenvalues --    0.06357   0.08553   0.09588   0.14719   0.16983
  Beta virt. eigenvalues --    0.17540   0.20085   0.22503   0.26233   0.31448
  Beta virt. eigenvalues --    0.32038   0.32817   0.34931   0.36125   0.36254
  Beta virt. eigenvalues --    0.37147   0.38354   0.38607   0.39121   0.42471
  Beta virt. eigenvalues --    0.44590   0.45457   0.46085   0.46590   0.47680
  Beta virt. eigenvalues --    0.48681   0.48712   0.49783   0.50934   0.55178
  Beta virt. eigenvalues --    0.57601   0.65057   0.65492   0.67215   0.67642
  Beta virt. eigenvalues --    0.68027   0.68415   0.71569   0.71833   0.84364
  Beta virt. eigenvalues --    0.86803   0.87101   0.90156   0.93030   0.95128
  Beta virt. eigenvalues --    1.03092   1.03562   1.07114   1.08332   1.09406
  Beta virt. eigenvalues --    1.11545   1.11680   1.12761   1.14256   1.15548
  Beta virt. eigenvalues --    1.18127   1.20861   1.20941   1.22822   1.24246
  Beta virt. eigenvalues --    1.31064   1.32486   1.32507   1.41387   1.42486
  Beta virt. eigenvalues --    1.43989   1.44290   1.44927   1.47297   1.48604
  Beta virt. eigenvalues --    1.49613   1.54434   1.57573   1.64120   1.67772
  Beta virt. eigenvalues --    1.72953   1.83832   1.87117   1.87721   1.90322
  Beta virt. eigenvalues --    1.91083   1.93412   1.93552   1.94151   1.94761
  Beta virt. eigenvalues --    1.96508   2.03648   2.05847   2.10065   2.10797
  Beta virt. eigenvalues --    2.13869   2.20189   2.24077   2.27809   2.33442
  Beta virt. eigenvalues --    2.40068   2.59608   2.78414   2.90980   2.95053
          Condensed to atoms (all electrons):
              1          2          3          4
     1  Si  13.409677   0.307801   0.124938   0.307801
     2  Si   0.307801  13.798481   0.307801  -0.064302
     3  Si   0.124938   0.307801  13.409677   0.307801
     4  Si   0.307801  -0.064302   0.307801  13.798481
 Mulliken atomic charges:
              1
     1  Si  -0.150218
     2  Si  -0.349782
     3  Si  -0.150218
     4  Si  -0.349782
 Sum of Mulliken atomic charges =  -1.00000
 Mulliken charges with hydrogens summed into heavy atoms:
              1
     1  Si  -0.150218
     2  Si  -0.349782
     3  Si  -0.150218
     4  Si  -0.349782
 Sum of Mulliken charges with hydrogens summed into heavy atoms =  -1.00000
          Atomic-Atomic Spin Densities.
              1          2          3          4
     1  Si  -0.062173   0.005452  -0.015349   0.005452
     2  Si   0.005452   0.573441   0.005452  -0.017729
     3  Si  -0.015349   0.005452  -0.062173   0.005452
     4  Si   0.005452  -0.017729   0.005452   0.573441
 Mulliken atomic spin densities:
              1
     1  Si  -0.066617
     2  Si   0.566617
     3  Si  -0.066617
     4  Si   0.566617
 Sum of Mulliken atomic spin densities =   1.00000
 Electronic spatial extent (au):  <R**2>=            693.5686
 Charge=             -1.0000 electrons
 Dipole moment (field-independent basis, Debye):
    X=              0.0000    Y=              0.0000    Z=              0.0000  Tot=              0.0000
 Quadrupole moment (field-independent basis, Debye-Ang):
   XX=            -58.6786   YY=            -64.4584   ZZ=            -80.7201
   XY=              0.0000   XZ=              0.0000   YZ=              0.0000
 Traceless Quadrupole moment (field-independent basis, Debye-Ang):
   XX=              9.2737   YY=              3.4940   ZZ=            -12.7677
   XY=              0.0000   XZ=              0.0000   YZ=              0.0000
 Octapole moment (field-independent basis, Debye-Ang**2):
  XXX=              0.0000  YYY=              0.0000  ZZZ=              0.0000  XYY=              0.0000
  XXY=              0.0000  XXZ=              0.0000  XZZ=              0.0000  YZZ=              0.0000
  YYZ=              0.0000  XYZ=              0.0000
 Hexadecapole moment (field-independent basis, Debye-Ang**3):
 XXXX=           -120.3453 YYYY=           -398.3498 ZZZZ=          -1048.7859 XXXY=              0.0000
 XXXZ=              0.0000 YYYX=              0.0000 YYYZ=              0.0000 ZZZX=              0.0000
 ZZZY=              0.0000 XXYY=            -79.9460 XXZZ=           -174.1486 YYZZ=           -209.6636
 XXYZ=              0.0000 YYXZ=              0.0000 ZZXY=              0.0000
 N-N= 2.479442221397D+02 E-N=-4.888487563793D+03  KE= 1.730713271037D+03
 Symmetry AG   KE= 7.163452611847D+02
 Symmetry B1G  KE= 3.642847932291D+01
 Symmetry B2G  KE= 3.731915000856D+01
 Symmetry B3G  KE= 7.602868696459D+01
 Symmetry AU   KE= 7.892077055193D-22
 Symmetry B1U  KE= 3.964232030021D+02
 Symmetry B2U  KE= 3.928991691261D+02
 Symmetry B3U  KE= 7.526932142758D+01
                          Isotropic Fermi Contact Couplings
        Atom                 a.u.       MegaHertz       Gauss      10(-4) cm-1
     1  Si(29)            -0.01885      16.75525       5.97869       5.58895
     2  Si(29)             0.01703     -15.13311      -5.39987      -5.04786
     3  Si(29)            -0.01885      16.75525       5.97869       5.58895
     4  Si(29)             0.01703     -15.13311      -5.39987      -5.04786
 --------------------------------------------------------
       Center         ----  Spin Dipole Couplings  ----
                      3XX-RR        3YY-RR        3ZZ-RR
 --------------------------------------------------------
     1   Atom       -0.089563      0.047372      0.042190
     2   Atom        0.850306     -0.417666     -0.432641
     3   Atom       -0.089563      0.047372      0.042190
     4   Atom        0.850306     -0.417666     -0.432641
 --------------------------------------------------------
                        XY            XZ            YZ
 --------------------------------------------------------
     1   Atom        0.000000      0.000000      0.000000
     2   Atom        0.000000      0.000000      0.000000
     3   Atom        0.000000      0.000000      0.000000
     4   Atom        0.000000      0.000000      0.000000
 --------------------------------------------------------


 ---------------------------------------------------------------------------------
              Anisotropic Spin Dipole Couplings in Principal Axis System
 ---------------------------------------------------------------------------------

       Atom             a.u.   MegaHertz   Gauss  10(-4) cm-1        Axes

              Baa    -0.0896     9.501     3.390     3.169  1.0000  0.0000  0.0000
     1 Si(29) Bbb     0.0422    -4.476    -1.597    -1.493  0.0000  0.0000  1.0000
              Bcc     0.0474    -5.025    -1.793    -1.676  0.0000  1.0000  0.0000
 
              Baa    -0.4326    45.896    16.377    15.309  0.0000  0.0000  1.0000
     2 Si(29) Bbb    -0.4177    44.308    15.810    14.779  0.0000  1.0000  0.0000
              Bcc     0.8503   -90.204   -32.187   -30.089  1.0000  0.0000  0.0000
 
              Baa    -0.0896     9.501     3.390     3.169  1.0000  0.0000  0.0000
     3 Si(29) Bbb     0.0422    -4.476    -1.597    -1.493  0.0000  0.0000  1.0000
              Bcc     0.0474    -5.025    -1.793    -1.676  0.0000  1.0000  0.0000
 
              Baa    -0.4326    45.896    16.377    15.309  0.0000  0.0000  1.0000
     4 Si(29) Bbb    -0.4177    44.308    15.810    14.779  0.0000  1.0000  0.0000
              Bcc     0.8503   -90.204   -32.187   -30.089  1.0000  0.0000  0.0000
 

 ---------------------------------------------------------------------------------

 1\1\GINC-NODE194\FOpt\UB3LYP\GTBas3\Si4(1-,2)\TAM\05-Mar-2012\0\\# G4 
 opt=(Cartesian) scfcyc=500 scf=xqc\\si4-a-d\\-1,2\Si,1.1812530585,0.,0
 .\Si,0.,-2.0063030278,0.\Si,-1.1812530585,0.,0.\Si,0.,2.0063030278,0.\
 \Version=AM64L-G09RevA.02\State=2-B2G\HF=-1157.9756737\S2=0.769777\S2-
 1=0.\S2A=0.750139\RMSD=5.255e-09\RMSF=5.408e-05\Dipole=0.,0.,0.\Quadru
 pole=2.5977012,-9.4924732,6.894772,0.,0.,0.\PG=D02H [C2'(Si1.Si1),C2"(
 Si1.Si1)]\\@


 IN SO FAR AS QUANTUM MECHANICS IS CORRECT, CHEMICAL 
 QUESTIONS ARE PROBLEMS IN APPLIED MATHEMATICS.

                    -- EYRING, WALTER, & KIMBALL, 1944
 Job cpu time:  0 days  0 hours  3 minutes 59.0 seconds.
 File lengths (MBytes):  RWF=     18 Int=      0 D2E=      0 Chk=      2 Scr=      1
 Normal termination of Gaussian 09 at Mon Mar  5 11:50:34 2012.
 Link1:  Proceeding to internal job step number  2.
 ----------------------------------------------------------
 #N Geom=AllCheck Guess=TCheck SCRF=Check B3LYP/GTBas3 Freq
 ----------------------------------------------------------
 1/10=4,29=7,30=1,38=1,40=1/1,3;
 2/12=2,40=1/2;
 3/5=35,11=2,14=-4,16=1,25=1,30=1,70=2,71=2,74=-5,116=-2/1,2,3;
 4/5=101/1;
 5/5=2,7=500,8=3,13=1,98=1/2,8;
 8/6=4,10=90,11=11/1;
 11/6=1,8=1,9=11,15=111,16=1/1,2,10;
 10/6=1/2;
 6/7=2,8=2,9=2,10=2,18=1,28=1/1;
 7/8=1,10=1,25=1/1,2,3,16;
 1/10=4,30=1/3;
 99//99;
 -------
 si4-a-d
 -------
 No Z-matrix found on checkpoint file.
 Cartesian coordinates read from the checkpoint file:
 S9L-ne-d-01.chk
 Charge = -1 Multiplicity = 2
  Si                                                1.181253058515      0.000000000000      0.000000000000
  Si                                                0.000000000000     -2.006303027815      0.000000000000
  Si                                               -1.181253058515      0.000000000000      0.000000000000
  Si                                                0.000000000000      2.006303027815      0.000000000000
 Recover connectivity data from disk.

 GradGradGradGradGradGradGradGradGradGradGradGradGradGradGradGradGradGrad
 Berny optimization.
 Initialization pass.
 Trust Radius=3.00D-01 FncErr=1.00D-07 GrdErr=1.00D-07
 Number of steps in this run=   2 maximum allowed number of steps=   2.
 GradGradGradGradGradGradGradGradGradGradGradGradGradGradGradGradGradGrad

                          Input orientation:                          
 ---------------------------------------------------------------------
 Center     Atomic      Atomic             Coordinates (Angstroms)
 Number     Number       Type             X           Y           Z
 ---------------------------------------------------------------------
      1         14           0        1.181253    0.000000    0.000000
      2         14           0        0.000000   -2.006303    0.000000
      3         14           0       -1.181253    0.000000    0.000000
      4         14           0        0.000000    2.006303    0.000000
 ---------------------------------------------------------------------
                    Distance matrix (angstroms):
                    1          2          3          4
     1  Si   0.000000
     2  Si   2.328220   0.000000
     3  Si   2.362506   2.328220   0.000000
     4  Si   2.328220   4.012606   2.328220   0.000000
 Stoichiometry    Si4(1-,2)
 Framework group  D2H[C2'(Si.Si),C2"(Si.Si)]
 Deg. of freedom     2
 Full point group                 D2H     NOp   8
 Largest Abelian subgroup         D2H     NOp   8
 Largest concise Abelian subgroup D2      NOp   4
                         Standard orientation:                         
 ---------------------------------------------------------------------
 Center     Atomic      Atomic             Coordinates (Angstroms)
 Number     Number       Type             X           Y           Z
 ---------------------------------------------------------------------
      1         14           0        0.000000    1.181253    0.000000
      2         14           0        0.000000    0.000000    2.006303
      3         14           0        0.000000   -1.181253    0.000000
      4         14           0        0.000000    0.000000   -2.006303
 ---------------------------------------------------------------------
 Rotational constants (GHZ):      6.4729355      2.2438515      1.6662454
 Standard basis: GTBas3 (6D, 7F)
 There are    30 symmetry adapted basis functions of AG  symmetry.
 There are    10 symmetry adapted basis functions of B1G symmetry.
 There are    10 symmetry adapted basis functions of B2G symmetry.
 There are    14 symmetry adapted basis functions of B3G symmetry.
 There are     6 symmetry adapted basis functions of AU  symmetry.
 There are    22 symmetry adapted basis functions of B1U symmetry.
 There are    22 symmetry adapted basis functions of B2U symmetry.
 There are    14 symmetry adapted basis functions of B3U symmetry.
 Integral buffers will be    131072 words long.
 Raffenetti 2 integral format.
 Two-electron integral symmetry is turned on.
   128 basis functions,   272 primitive gaussians,   140 cartesian basis functions
    29 alpha electrons       28 beta electrons
       nuclear repulsion energy       247.9442221397 Hartrees.
 NAtoms=    4 NActive=    4 NUniq=    2 SFac= 3.00D+00 NAtFMM=   80 NAOKFM=F Big=F
 One-electron integrals computed using PRISM.
 NBasis=   128 RedAO= T  NBF=    30    10    10    14     6    22    22    14
 NBsUse=   128 1.00D-06 NBFU=    30    10    10    14     6    22    22    14
 Initial guess read from the checkpoint file:  S9L-ne-d-01.chk
 B after Tr=     0.000000    0.000000    0.000000
         Rot=    1.000000    0.000000    0.000000    0.000000 Ang=   0.00 deg.
 Initial guess orbital symmetries:
 Alpha Orbitals:
       Occupied  (B2U) (AG) (AG) (B1U) (AG) (B2U) (B1U) (AG) (B3U)
                 (B1G) (AG) (B2U) (B1U) (B3G) (B2G) (B3U) (B2U)
                 (B3G) (AG) (B1U) (AG) (B1U) (B2U) (AG) (B3U) (B3G)
                 (AG) (B1U) (B2G)
       Virtual   (B1G) (B2U) (B3U) (B2U) (AG) (B1U) (B3G) (AG)
                 (B1U) (AG) (B3U) (B1U) (AG) (B2G) (B3G) (AU) (B2U)
                 (B2U) (B1G) (B2G) (B3U) (B3U) (B2U) (AG) (B1U)
                 (B3G) (AG) (B1G) (B1U) (B2U) (B3U) (B3G) (AU)
                 (B1U) (B1G) (AG) (B2G) (AG) (AG) (B2U) (B3G) (B2U)
                 (AG) (B1U) (B2G) (B1U) (B3U) (B1U) (B3G) (B3U)
                 (B2U) (B1G) (AG) (AG) (B1U) (B2U) (AU) (B2G) (B2U)
                 (AG) (B3U) (B3G) (B2U) (AG) (B3G) (B1U) (B1G)
                 (AG) (B3U) (AU) (B2G) (B1G) (B3G) (B1U) (B2U)
                 (AU) (B3U) (B2G) (B1U) (B2U) (AG) (AG) (B3G) (B1G)
                 (B2U) (B3U) (B1G) (AU) (B1U) (B2G) (AG) (B1U)
                 (B2U) (B3G) (AG) (AG) (B1U) (B2U) (AG)
 Beta  Orbitals:
       Occupied  (B2U) (AG) (AG) (B1U) (AG) (B2U) (B1U) (AG) (B3U)
                 (B1G) (AG) (B2U) (B1U) (B3G) (B2U) (B3G) (B2G)
                 (B3U) (AG) (B1U) (AG) (B1U) (B2U) (AG) (B3U) (B3G)
                 (AG) (B1U)
       Virtual   (B2G) (B1G) (B2U) (B3U) (B2U) (AG) (B1U) (B3G)
                 (AG) (B1U) (AG) (B3U) (AG) (B3G) (B1U) (B2G) (B2U)
                 (AU) (B2U) (B1G) (B3U) (B2G) (B2U) (B3U) (AG)
                 (B3G) (B1U) (AG) (B1G) (B1U) (B2U) (B3U) (B3G)
                 (AU) (B1U) (B1G) (AG) (B2G) (AG) (AG) (B2U) (B3G)
                 (B2U) (AG) (B1U) (B2G) (B1U) (B3U) (B1U) (B3G)
                 (B2U) (B3U) (B1G) (AG) (AG) (B1U) (AU) (B2U) (B2G)
                 (B2U) (AG) (B3G) (B3U) (B2U) (AG) (B3G) (B1G)
                 (B1U) (AG) (B3U) (AU) (B2G) (B1G) (B3G) (B1U)
                 (B2U) (AU) (B3U) (B2G) (B1U) (B2U) (AG) (B3G)
                 (AG) (B1G) (B2U) (B3U) (B1G) (AU) (B1U) (B2G)
                 (AG) (B1U) (B2U) (B3G) (AG) (AG) (B1U) (B2U) (AG)
 Initial guess <Sx>= 0.0000 <Sy>= 0.0000 <Sz>= 0.5000 <S**2>= 0.7698 S= 0.5098
 Requested convergence on RMS density matrix=1.00D-08 within 128 cycles.
 Requested convergence on MAX density matrix=1.00D-06.
 Requested convergence on             energy=1.00D-06.
 No special actions if energy rises.
 Keep R1 and R2 ints in memory in canonical form, NReq=99477857.
 SCF Done:  E(UB3LYP) =  -1157.97567373     A.U. after    1 cycles
             Convg  =    0.4256D-09             -V/T =  2.0034
 <Sx>= 0.0000 <Sy>= 0.0000 <Sz>= 0.5000 <S**2>= 0.7698 S= 0.5098
 <L.S>= 0.000000000000E+00
 Annihilation of the first spin contaminant:
 S**2 before annihilation     0.7698,   after     0.7501
 QCSCF skips out because SCF is already converged.
 Range of M.O.s used for correlation:     1   128
 NBasis=   128 NAE=    29 NBE=    28 NFC=     0 NFV=     0
 NROrb=    128 NOA=    29 NOB=    28 NVA=    99 NVB=   100

 **** Warning!!: The smallest alpha delta epsilon is  0.93294268D-01

 Symmetrizing basis deriv contribution to polar:
 IMax=3 JMax=2 DiffMx= 0.00D+00
 G2DrvN: will do     5 centers at a time, making    1 passes doing MaxLOS=3.
 Calling FoFCou, ICntrl=  3107 FMM=F I1Cent=   0 AccDes= 0.00D+00.
 FoFDir/FoFCou used for L=0 through L=3.
 End of G2Drv Frequency-dependent properties file   721 does not exist.
 End of G2Drv Frequency-dependent properties file   722 does not exist.
          IDoAtm=1111
          Differentiating once with respect to electric field.
                with respect to dipole field.
          Differentiating once with respect to nuclear coordinates.
          Keep R1 and R2 ints in memory in canonical form, NReq=99369745.
          There are     9 degrees of freedom in the 1st order CPHF.  IDoFFX=4.
      9 vectors produced by pass  0 Test12= 6.30D-14 1.11D-08 XBig12= 1.62D+03 2.28D+01.
 AX will form     9 AO Fock derivatives at one time.
      9 vectors produced by pass  1 Test12= 6.30D-14 1.11D-08 XBig12= 8.68D+02 9.98D+00.
      9 vectors produced by pass  2 Test12= 6.30D-14 1.11D-08 XBig12= 2.18D+01 1.67D+00.
      9 vectors produced by pass  3 Test12= 6.30D-14 1.11D-08 XBig12= 2.05D+00 3.90D-01.
      9 vectors produced by pass  4 Test12= 6.30D-14 1.11D-08 XBig12= 7.83D-02 7.94D-02.
      9 vectors produced by pass  5 Test12= 6.30D-14 1.11D-08 XBig12= 2.06D-03 1.19D-02.
      9 vectors produced by pass  6 Test12= 6.30D-14 1.11D-08 XBig12= 1.73D-05 9.79D-04.
      9 vectors produced by pass  7 Test12= 6.30D-14 1.11D-08 XBig12= 3.53D-07 2.17D-04.
      9 vectors produced by pass  8 Test12= 6.30D-14 1.11D-08 XBig12= 9.09D-09 2.05D-05.
      6 vectors produced by pass  9 Test12= 6.30D-14 1.11D-08 XBig12= 1.23D-10 2.11D-06.
      3 vectors produced by pass 10 Test12= 6.30D-14 1.11D-08 XBig12= 1.17D-12 4.23D-07.
      3 vectors produced by pass 11 Test12= 6.30D-14 1.11D-08 XBig12= 9.80D-15 2.22D-08.
 Inverted reduced A of dimension    93 with in-core refinement.
 Isotropic polarizability for W=    0.000000      146.06 Bohr**3.
 End of Minotr Frequency-dependent properties file   721 does not exist.
 End of Minotr Frequency-dependent properties file   722 does not exist.

 **********************************************************************

            Population analysis using the SCF density.

 **********************************************************************

 Orbital symmetries:
 Alpha Orbitals:
       Occupied  (B2U) (AG) (AG) (B1U) (AG) (B2U) (B1U) (AG) (B3U)
                 (B1G) (AG) (B2U) (B1U) (B3G) (B2G) (B3U) (B2U)
                 (B3G) (AG) (B1U) (AG) (B1U) (B2U) (AG) (B3U) (B3G)
                 (AG) (B1U) (B2G)
       Virtual   (B1G) (B2U) (B3U) (B2U) (AG) (B1U) (B3G) (AG)
                 (B1U) (AG) (B3U) (B1U) (AG) (B2G) (B3G) (AU) (B2U)
                 (B2U) (B1G) (B2G) (B3U) (B3U) (B2U) (AG) (B1U)
                 (B3G) (AG) (B1G) (B1U) (B2U) (B3U) (B3G) (AU)
                 (B1U) (B1G) (AG) (B2G) (AG) (AG) (B2U) (B3G) (B2U)
                 (AG) (B1U) (B2G) (B1U) (B3U) (B1U) (B3G) (B3U)
                 (B2U) (B1G) (AG) (AG) (B1U) (B2U) (AU) (B2G) (B2U)
                 (AG) (B3U) (B3G) (B2U) (AG) (B3G) (B1U) (B1G)
                 (AG) (B3U) (AU) (B2G) (B1G) (B3G) (B1U) (B2U)
                 (AU) (B3U) (B2G) (B1U) (B2U) (AG) (AG) (B3G) (B1G)
                 (B2U) (B3U) (B1G) (AU) (B1U) (B2G) (AG) (B1U)
                 (B2U) (B3G) (AG) (AG) (B1U) (B2U) (AG)
 Beta  Orbitals:
       Occupied  (B2U) (AG) (AG) (B1U) (AG) (B2U) (B1U) (AG) (B3U)
                 (B1G) (AG) (B2U) (B1U) (B3G) (B2U) (B3G) (B2G)
                 (B3U) (AG) (B1U) (AG) (B1U) (B2U) (AG) (B3U) (B3G)
                 (AG) (B1U)
       Virtual   (B2G) (B1G) (B2U) (B3U) (B2U) (AG) (B1U) (B3G)
                 (AG) (B1U) (AG) (B3U) (AG) (B3G) (B1U) (B2G) (B2U)
                 (AU) (B2U) (B1G) (B3U) (B2G) (B2U) (B3U) (AG)
                 (B3G) (B1U) (AG) (B1G) (B1U) (B2U) (B3U) (B3G)
                 (AU) (B1U) (B1G) (AG) (B2G) (AG) (AG) (B2U) (B3G)
                 (B2U) (AG) (B1U) (B2G) (B1U) (B3U) (B1U) (B3G)
                 (B2U) (B3U) (B1G) (AG) (AG) (B1U) (AU) (B2U) (B2G)
                 (B2U) (AG) (B3G) (B3U) (B2U) (AG) (B3G) (B1G)
                 (B1U) (AG) (B3U) (AU) (B2G) (B1G) (B3G) (B1U)
                 (B2U) (AU) (B3U) (B2G) (B1U) (B2U) (AG) (B3G)
                 (AG) (B1G) (B2U) (B3U) (B1G) (AU) (B1U) (B2G)
                 (AG) (B1U) (B2U) (B3G) (AG) (AG) (B1U) (B2U) (AG)
 The electronic state is 2-B2G.
 Alpha  occ. eigenvalues --  -65.95565 -65.95565 -65.95207 -65.95207  -5.10431
 Alpha  occ. eigenvalues --   -5.10422  -5.09965  -5.09964  -3.46489  -3.46487
 Alpha  occ. eigenvalues --   -3.46174  -3.46128  -3.46016  -3.46014  -3.46013
 Alpha  occ. eigenvalues --   -3.46012  -3.45829  -3.45819  -3.45514  -3.45510
 Alpha  occ. eigenvalues --   -0.42111  -0.30160  -0.22572  -0.15897  -0.09021
 Alpha  occ. eigenvalues --   -0.07000  -0.06013  -0.04794  -0.00588
 Alpha virt. eigenvalues --    0.08742   0.09217   0.12176   0.17014   0.17214
 Alpha virt. eigenvalues --    0.19765   0.22369   0.25695   0.30990   0.32098
 Alpha virt. eigenvalues --    0.32444   0.34753   0.34784   0.35643   0.35982
 Alpha virt. eigenvalues --    0.37149   0.38419   0.39133   0.42658   0.43622
 Alpha virt. eigenvalues --    0.43711   0.45919   0.46045   0.46587   0.48350
 Alpha virt. eigenvalues --    0.48554   0.48843   0.49135   0.54889   0.57611
 Alpha virt. eigenvalues --    0.63709   0.65280   0.66207   0.66243   0.68093
 Alpha virt. eigenvalues --    0.68356   0.70464   0.71546   0.83859   0.86839
 Alpha virt. eigenvalues --    0.87116   0.89852   0.92663   0.94512   1.02141
 Alpha virt. eigenvalues --    1.02567   1.06043   1.08022   1.08093   1.11113
 Alpha virt. eigenvalues --    1.11423   1.12045   1.14166   1.15475   1.17731
 Alpha virt. eigenvalues --    1.20088   1.20135   1.20813   1.23799   1.29324
 Alpha virt. eigenvalues --    1.31335   1.32196   1.41279   1.42375   1.43339
 Alpha virt. eigenvalues --    1.44077   1.44481   1.47114   1.47742   1.49031
 Alpha virt. eigenvalues --    1.53431   1.56886   1.64182   1.67727   1.72899
 Alpha virt. eigenvalues --    1.83113   1.87028   1.87286   1.89364   1.91209
 Alpha virt. eigenvalues --    1.93265   1.93565   1.93590   1.93853   1.96489
 Alpha virt. eigenvalues --    2.02922   2.05973   2.09695   2.10713   2.13116
 Alpha virt. eigenvalues --    2.20181   2.23778   2.27774   2.33321   2.39969
[...]
 Alpha virt. eigenvalues --    0.60123   0.60449   0.60962   0.61894   0.63816
 Alpha virt. eigenvalues --    0.64311   0.64518   0.66398   0.69896   0.72033
 Alpha virt. eigenvalues --    0.73640   0.73955   0.76332   0.76697   0.76864
 Alpha virt. eigenvalues --    0.77018   0.78133   0.79172   0.79762   0.82253
 Alpha virt. eigenvalues --    0.84686   0.86020   0.87170   0.89427   0.90165
 Alpha virt. eigenvalues --    0.91348   0.92030   0.93485   0.93552   0.94954
 Alpha virt. eigenvalues --    0.96685   0.98760   0.99710   0.99772   1.00060
 Alpha virt. eigenvalues --    1.00656   1.02200   1.03086   1.06473   1.07196
 Alpha virt. eigenvalues --    1.07295   1.07891   1.08554   1.08851   1.10413
 Alpha virt. eigenvalues --    1.10494   1.12075   1.12141   1.13007   1.13500
 Alpha virt. eigenvalues --    1.13638   1.15432   1.15568   1.15612   1.18837
 Alpha virt. eigenvalues --    1.21211   1.21383   1.22084   1.23025   1.23445
 Alpha virt. eigenvalues --    1.24048   1.24747   1.26880   1.29285   1.38581
 Alpha virt. eigenvalues --    1.40026   1.40693   1.41760   1.44093   1.44755
 Alpha virt. eigenvalues --    1.50570   1.53161   1.53457   1.54563   1.58881
 Alpha virt. eigenvalues --    1.62693   1.62975   1.64788   1.67181   1.67850
 Alpha virt. eigenvalues --    1.71674   1.71926   1.72491   1.73208   1.74568
 Alpha virt. eigenvalues --    1.77217   1.78204   1.79844   1.81210   1.81254
 Alpha virt. eigenvalues --    1.81608   1.84740   1.85701   1.85836   1.86542
 Alpha virt. eigenvalues --    1.87133   1.88893   1.89410   1.93706   1.95982
 Alpha virt. eigenvalues --    1.96755   1.96834   1.97968   1.98297   2.00162
 Alpha virt. eigenvalues --    2.01444   2.02782   2.03507   2.03655   2.04829
 Alpha virt. eigenvalues --    2.05867   2.06662   2.07274   2.08535   2.09515
 Alpha virt. eigenvalues --    2.11328   2.11766   2.13289   2.14301   2.15798
 Alpha virt. eigenvalues --    2.16839   2.17577   2.17795   2.18018   2.18775
 Alpha virt. eigenvalues --    2.20969   2.22456   2.23566   2.24126   2.25101
 Alpha virt. eigenvalues --    2.30291   2.30733   2.30879   2.32095   2.32857
 Alpha virt. eigenvalues --    2.39263   2.41236   2.42033   2.42135   2.44422
 Alpha virt. eigenvalues --    2.57387   2.58196   2.62882   2.66713   2.71793
 Alpha virt. eigenvalues --    2.77188   2.78902   2.79314   2.83562   2.93444
 Alpha virt. eigenvalues --    2.99931   3.06691   3.08969   3.11374   3.11768
 Alpha virt. eigenvalues --    3.12361   3.16406   3.17374   3.21637   3.24172
 Alpha virt. eigenvalues --    3.31101   3.31479   3.32624   3.32929   3.37454
 Alpha virt. eigenvalues --    3.38032   3.40337   3.44381   3.45219   3.45703
 Alpha virt. eigenvalues --    3.48944   3.51137   3.51701   3.52005   3.52894
 Alpha virt. eigenvalues --    3.53090   3.53266   3.53680   3.57089   3.58335
 Alpha virt. eigenvalues --    3.60127   3.62726   3.64022   3.65531   3.66518
 Alpha virt. eigenvalues --    3.66839   3.66922   3.67582   3.69258   3.70769
 Alpha virt. eigenvalues --    3.71179   3.71707   3.71747   3.73013   3.73479
 Alpha virt. eigenvalues --    3.73886   3.75147   3.77686   3.78190   3.79820
 Alpha virt. eigenvalues --    3.81250   3.82824   3.83581   3.84865   3.88504
 Alpha virt. eigenvalues --    3.88605   3.90095   3.92001   3.93270   3.93955
 Alpha virt. eigenvalues --    3.93999   3.94030   3.95024   3.95301   3.97006
 Alpha virt. eigenvalues --    3.99370   4.03438   4.05947   4.07649   4.07714
 Alpha virt. eigenvalues --    4.08401   4.11291   4.22478   4.24353   4.24551
 Alpha virt. eigenvalues --    4.25380   4.26682   4.26789   4.26913   4.27580
 Alpha virt. eigenvalues --    4.28984   4.30852   4.33686   4.33950   4.34309
 Alpha virt. eigenvalues --    4.35702   4.35872   4.37254   4.38919   4.40153
 Alpha virt. eigenvalues --    4.42197   4.43896   4.45653   4.45785   4.46425
 Alpha virt. eigenvalues --    4.50554   4.51379   4.54338   4.54773   4.59355
 Alpha virt. eigenvalues --    4.59554   4.59840   4.61820   4.64378   4.67955
 Alpha virt. eigenvalues --    4.69268   4.70835   4.72110   4.75920   4.79399
 Alpha virt. eigenvalues --    4.79960   4.80448   4.82146   4.82378   4.86215
 Alpha virt. eigenvalues --    4.88723   4.89347   4.94012   4.96489   5.01233
 Alpha virt. eigenvalues --    5.01383   5.08413   5.09874   5.12422   5.15876
 Alpha virt. eigenvalues --    5.18424   5.19712   5.25863   5.29549   5.40707
 Alpha virt. eigenvalues --    5.47697   5.53018   5.56216   5.63970   5.70147
 Alpha virt. eigenvalues --    5.74503   6.42272   6.45104   6.50099   6.75600
 Alpha virt. eigenvalues --    6.77463   6.81249   6.99161   7.06564   7.09862
 Alpha virt. eigenvalues --    7.11686   7.16585   7.18281   7.20239   7.26009
 Alpha virt. eigenvalues --    7.32581   7.33395   7.36274   7.52680   7.62353
 Alpha virt. eigenvalues --    7.71521  13.22928  13.47946  13.58046  13.59513
 Alpha virt. eigenvalues --   13.88697  13.96110  13.97187  14.38509  14.85203
 Alpha virt. eigenvalues --   14.91859  15.18817  15.29371  39.21007  39.59947
 Alpha virt. eigenvalues --   40.65147  40.92141
  Beta  occ. eigenvalues --  -68.61666 -68.61666 -68.61141 -68.61141  -5.96431
  Beta  occ. eigenvalues --   -5.96414  -5.95660  -5.95659  -4.06880  -4.06874
  Beta  occ. eigenvalues --   -4.06748  -4.06682  -4.06657  -4.06649  -4.05964
  Beta  occ. eigenvalues --   -4.05963  -4.05943  -4.05940  -4.05269  -4.05269
  Beta  occ. eigenvalues --   -0.62206  -0.43438  -0.36552  -0.24951  -0.14483
  Beta  occ. eigenvalues --   -0.14479  -0.14422  -0.12928
  Beta virt. eigenvalues --    0.11877   0.12019   0.12377   0.13811   0.14180
  Beta virt. eigenvalues --    0.14248   0.14288   0.14557   0.15483   0.16708
  Beta virt. eigenvalues --    0.16739   0.18308   0.18604   0.18969   0.18992
  Beta virt. eigenvalues --    0.19420   0.21823   0.23387   0.23515   0.26552
  Beta virt. eigenvalues --    0.27899   0.27976   0.28683   0.30212   0.31695
  Beta virt. eigenvalues --    0.33681   0.35667   0.37289   0.37629   0.38928
  Beta virt. eigenvalues --    0.39450   0.40033   0.41175   0.42192   0.42319
  Beta virt. eigenvalues --    0.44320   0.44789   0.45642   0.46242   0.48349
  Beta virt. eigenvalues --    0.49319   0.50383   0.50671   0.53464   0.53848
  Beta virt. eigenvalues --    0.56381   0.59749   0.60155   0.62157   0.62268
  Beta virt. eigenvalues --    0.63961   0.65041   0.65835   0.67012   0.70254
  Beta virt. eigenvalues --    0.72046   0.73868   0.74307   0.76891   0.77033
  Beta virt. eigenvalues --    0.77255   0.77649   0.78294   0.79836   0.80970
  Beta virt. eigenvalues --    0.83112   0.85672   0.87257   0.88745   0.90065
  Beta virt. eigenvalues --    0.90464   0.91300   0.92131   0.93139   0.94521
  Beta virt. eigenvalues --    0.96111   0.97879   0.99231   0.99592   1.00174
  Beta virt. eigenvalues --    1.00660   1.01306   1.02138   1.03111   1.06937
  Beta virt. eigenvalues --    1.07229   1.08521   1.08981   1.09028   1.09061
  Beta virt. eigenvalues --    1.10044   1.11545   1.12380   1.13375   1.13473
  Beta virt. eigenvalues --    1.13479   1.14520   1.15894   1.15916   1.16141
  Beta virt. eigenvalues --    1.19409   1.21185   1.21490   1.22284   1.23056
  Beta virt. eigenvalues --    1.24164   1.24321   1.25003   1.27570   1.29396
  Beta virt. eigenvalues --    1.38798   1.40796   1.41002   1.42912   1.43935
  Beta virt. eigenvalues --    1.44680   1.50935   1.53360   1.53887   1.55220
  Beta virt. eigenvalues --    1.59056   1.62462   1.63117   1.65395   1.68402
  Beta virt. eigenvalues --    1.68418   1.72093   1.72617   1.73346   1.74048
  Beta virt. eigenvalues --    1.76023   1.78147   1.78598   1.80125   1.81142
  Beta virt. eigenvalues --    1.81723   1.82513   1.85573   1.86397   1.86700
  Beta virt. eigenvalues --    1.87372   1.87415   1.89414   1.89508   1.93894
  Beta virt. eigenvalues --    1.95810   1.96537   1.97456   1.98561   1.99008
  Beta virt. eigenvalues --    2.00456   2.01504   2.02832   2.03921   2.04435
  Beta virt. eigenvalues --    2.05027   2.06195   2.06552   2.07785   2.08520
  Beta virt. eigenvalues --    2.09753   2.11664   2.12112   2.13563   2.14562
  Beta virt. eigenvalues --    2.15685   2.17178   2.17594   2.17995   2.18520
  Beta virt. eigenvalues --    2.18830   2.21393   2.22951   2.24215   2.24439
  Beta virt. eigenvalues --    2.25291   2.30549   2.31095   2.31441   2.32172
  Beta virt. eigenvalues --    2.32859   2.39721   2.41489   2.42036   2.42496
  Beta virt. eigenvalues --    2.44472   2.57917   2.58299   2.63089   2.67071
  Beta virt. eigenvalues --    2.72059   2.77069   2.78942   2.79701   2.83582
  Beta virt. eigenvalues --    2.93687   3.00099   3.06620   3.08982   3.11668
  Beta virt. eigenvalues --    3.12097   3.12325   3.16330   3.17891   3.21683
  Beta virt. eigenvalues --    3.24241   3.31113   3.31549   3.32772   3.32980
  Beta virt. eigenvalues --    3.37929   3.38442   3.41668   3.44591   3.45153
  Beta virt. eigenvalues --    3.45754   3.49312   3.51393   3.52134   3.52394
  Beta virt. eigenvalues --    3.53383   3.53486   3.53734   3.54179   3.57467
  Beta virt. eigenvalues --    3.58834   3.60184   3.63298   3.63991   3.65649
  Beta virt. eigenvalues --    3.67196   3.67384   3.67658   3.68330   3.69316
  Beta virt. eigenvalues --    3.71342   3.71785   3.71891   3.72413   3.73326
  Beta virt. eigenvalues --    3.73934   3.74668   3.75313   3.77402   3.78330
  Beta virt. eigenvalues --    3.79971   3.81309   3.83416   3.83630   3.85045
  Beta virt. eigenvalues --    3.88708   3.88889   3.90229   3.92278   3.93418
  Beta virt. eigenvalues --    3.94062   3.94083   3.94616   3.95049   3.95782
  Beta virt. eigenvalues --    3.97142   3.99558   4.03381   4.05975   4.07865
  Beta virt. eigenvalues --    4.08015   4.08796   4.11550   4.22571   4.24739
  Beta virt. eigenvalues --    4.25378   4.26077   4.26818   4.27355   4.27368
  Beta virt. eigenvalues --    4.27818   4.29244   4.31367   4.33804   4.34147
  Beta virt. eigenvalues --    4.34722   4.35747   4.35970   4.37714   4.39178
  Beta virt. eigenvalues --    4.40136   4.42538   4.44177   4.45935   4.45955
  Beta virt. eigenvalues --    4.46486   4.50578   4.51200   4.54332   4.54989
  Beta virt. eigenvalues --    4.59761   4.59768   4.59878   4.61800   4.64481
  Beta virt. eigenvalues --    4.68104   4.69553   4.71120   4.72206   4.76075
  Beta virt. eigenvalues --    4.79460   4.79935   4.80536   4.82360   4.82484
  Beta virt. eigenvalues --    4.86247   4.88821   4.89464   4.94305   4.96824
  Beta virt. eigenvalues --    5.01238   5.01387   5.08672   5.10008   5.12458
  Beta virt. eigenvalues --    5.15830   5.18478   5.19770   5.26023   5.29669
  Beta virt. eigenvalues --    5.40876   5.47711   5.53107   5.56377   5.64010
  Beta virt. eigenvalues --    5.70096   5.74521   6.42600   6.45132   6.50262
  Beta virt. eigenvalues --    6.75997   6.77816   6.81523   6.99056   7.06832
  Beta virt. eigenvalues --    7.09899   7.11580   7.16591   7.18352   7.20441
  Beta virt. eigenvalues --    7.26097   7.32624   7.33441   7.36314   7.52677
  Beta virt. eigenvalues --    7.62348   7.71501  13.23285  13.48961  13.58454
  Beta virt. eigenvalues --   13.59255  13.88677  13.96141  13.97298  14.38667
  Beta virt. eigenvalues --   14.85287  14.91793  15.18797  15.29391  39.21302
  Beta virt. eigenvalues --   39.60247  40.65066  40.92060
          Condensed to atoms (all electrons):
              1          2          3          4
     1  Si  13.285584   0.329643   0.219414   0.329643
     2  Si   0.329643  13.742565   0.329643  -0.066135
     3  Si   0.219414   0.329643  13.285584   0.329643
     4  Si   0.329643  -0.066135   0.329643  13.742565
 Mulliken atomic charges:
              1
     1  Si  -0.164284
     2  Si  -0.335716
     3  Si  -0.164284
     4  Si  -0.335716
 Sum of Mulliken atomic charges =  -1.00000
 Mulliken charges with hydrogens summed into heavy atoms:
              1
     1  Si  -0.164284
     2  Si  -0.335716
     3  Si  -0.164284
     4  Si  -0.335716
 Sum of Mulliken charges with hydrogens summed into heavy atoms =  -1.00000
          Atomic-Atomic Spin Densities.
              1          2          3          4
     1  Si  -0.181468  -0.026399  -0.052173  -0.026399
     2  Si  -0.026399   0.891639  -0.026399  -0.052400
     3  Si  -0.052173  -0.026399  -0.181468  -0.026399
     4  Si  -0.026399  -0.052400  -0.026399   0.891639
 Mulliken atomic spin densities:
              1
     1  Si  -0.286440
     2  Si   0.786440
     3  Si  -0.286440
     4  Si   0.786440
 Sum of Mulliken atomic spin densities =   1.00000
 Electronic spatial extent (au):  <R**2>=            702.1012
 Charge=             -1.0000 electrons
 Dipole moment (field-independent basis, Debye):
    X=              0.0000    Y=              0.0000    Z=              0.0000  Tot=              0.0000
 Quadrupole moment (field-independent basis, Debye-Ang):
   XX=            -62.3955   YY=            -67.4245   ZZ=            -85.5137
   XY=              0.0000   XZ=              0.0000   YZ=              0.0000
 Traceless Quadrupole moment (field-independent basis, Debye-Ang):
   XX=              9.3824   YY=              4.3534   ZZ=            -13.7358
   XY=              0.0000   XZ=              0.0000   YZ=              0.0000
 Octapole moment (field-independent basis, Debye-Ang**2):
  XXX=              0.0000  YYY=              0.0000  ZZZ=              0.0000  XYY=              0.0000
  XXY=              0.0000  XXZ=              0.0000  XZZ=              0.0000  YZZ=              0.0000
  YYZ=              0.0000  XYZ=              0.0000
 Hexadecapole moment (field-independent basis, Debye-Ang**3):
 XXXX=           -154.1749 YYYY=           -443.6929 ZZZZ=          -1151.0272 XXXY=              0.0000
 XXXZ=              0.0000 YYYX=              0.0000 YYYZ=              0.0000 ZZZX=              0.0000
 ZZZY=              0.0000 XXYY=            -91.2768 XXZZ=           -198.1601 YYZZ=           -228.2516
 XXYZ=              0.0000 YYXZ=              0.0000 ZZXY=              0.0000
 N-N= 2.479442221397D+02 E-N=-4.889603338410D+03  KE= 1.733166480730D+03
 Symmetry AG   KE= 7.170620935551D+02
 Symmetry B1G  KE= 3.653188618821D+01
 Symmetry B2G  KE= 3.737281333980D+01
 Symmetry B3G  KE= 7.629158485215D+01
 Symmetry AU   KE=-2.447314877632D-20
 Symmetry B1U  KE= 3.970429224451D+02
 Symmetry B2U  KE= 3.936184146512D+02
 Symmetry B3U  KE= 7.524676569800D+01
                          Isotropic Fermi Contact Couplings
        Atom                 a.u.       MegaHertz       Gauss      10(-4) cm-1
     1  Si(29)            -0.05495      48.83413      17.42523      16.28931
     2  Si(29)             0.04911     -43.64880     -15.57498     -14.55967
     3  Si(29)            -0.05495      48.83413      17.42523      16.28931
     4  Si(29)             0.04911     -43.64880     -15.57498     -14.55967
 --------------------------------------------------------
       Center         ----  Spin Dipole Couplings  ----
                      3XX-RR        3YY-RR        3ZZ-RR
 --------------------------------------------------------
     1   Atom       -0.235757      0.134702      0.101055
     2   Atom        1.068037     -0.504647     -0.563390
     3   Atom       -0.235757      0.134702      0.101055
     4   Atom        1.068037     -0.504647     -0.563390
 --------------------------------------------------------
                        XY            XZ            YZ
 --------------------------------------------------------
     1   Atom        0.000000      0.000000      0.000000
     2   Atom        0.000000      0.000000      0.000000
     3   Atom        0.000000      0.000000      0.000000
     4   Atom        0.000000      0.000000      0.000000
 --------------------------------------------------------


 ---------------------------------------------------------------------------------
              Anisotropic Spin Dipole Couplings in Principal Axis System
 ---------------------------------------------------------------------------------

       Atom             a.u.   MegaHertz   Gauss  10(-4) cm-1        Axes

              Baa    -0.2358    25.010     8.924     8.342  1.0000  0.0000  0.0000
     1 Si(29) Bbb     0.1011   -10.720    -3.825    -3.576  0.0000  0.0000  1.0000
              Bcc     0.1347   -14.290    -5.099    -4.767  0.0000  1.0000  0.0000
 
              Baa    -0.5634    59.767    21.326    19.936  0.0000  0.0000  1.0000
     2 Si(29) Bbb    -0.5046    53.535    19.103    17.857  0.0000  1.0000  0.0000
              Bcc     1.0680  -113.302   -40.429   -37.793  1.0000  0.0000  0.0000
 
              Baa    -0.2358    25.010     8.924     8.342  1.0000  0.0000  0.0000
     3 Si(29) Bbb     0.1011   -10.720    -3.825    -3.576  0.0000  0.0000  1.0000
              Bcc     0.1347   -14.290    -5.099    -4.767  0.0000  1.0000  0.0000
 
              Baa    -0.5634    59.767    21.326    19.936  0.0000  0.0000  1.0000
     4 Si(29) Bbb    -0.5046    53.535    19.103    17.857  0.0000  1.0000  0.0000
              Bcc     1.0680  -113.302   -40.429   -37.793  1.0000  0.0000  0.0000
 

 ---------------------------------------------------------------------------------

 1\1\GINC-NODE194\SP\UHF\GFHFB2\Si4(1-,2)\TAM\05-Mar-2012\0\\#N Geom=Al
 lCheck Guess=TCheck SCRF=Check HF/GFHFB2 SCF=Tight\\si4-a-d\\-1,2\Si,1
 .1812530585,0.,0.\Si,0.,-2.0063030278,0.\Si,-1.1812530585,0.,0.\Si,0.,
 2.0063030278,0.\\Version=AM64L-G09RevA.02\State=2-B2G\HF=-1155.7370666
 \S2=0.891042\S2-1=0.\S2A=0.756764\RMSD=3.755e-09\Dipole=0.,0.,0.\Quadr
 upole=3.236647,-10.2122312,6.9755842,0.,0.,0.\PG=D02H [C2'(Si1.Si1),C2
 "(Si1.Si1)]\\@


 FIREWORKS ENDED
 AND SPECTATORS GONE AWAY....
 AH, HOW VAST AND DARK
                     SHIKI
 Diagonal vibrational polarizability:
        0.0000000       0.0000000       0.0000000

 Temperature=              298.150000 Pressure=                      1.000000
 E(ZPE)=                     0.004481 E(Thermal)=                    0.009746
 E(CCSD(T))=             -1156.000702 E(Empiric)=                   -0.059465
 DE(Plus)=                  -0.011388 DE(2DF)=                      -0.122810
 E(Delta-G3XP)=             -1.255027 DE(HF)=                       -0.027161
 G4(0 K)=                -1157.472070 G4 Energy=                 -1157.466805
 G4 Enthalpy=            -1157.465861 G4 Free Energy=            -1157.501155
 1\1\GINC-NODE194\Mixed\G4\G4\Si4(1-,2)\TAM\05-Mar-2012\0\\# G4 opt=(Ca
 rtesian) scfcyc=500 scf=xqc\\si4-a-d\\-1,2\Si,1.1812530585,0.,0.\Si,0.
 ,-2.0063030278,0.\Si,-1.1812530585,0.,0.\Si,0.,2.0063030278,0.\\Versio
 n=AM64L-G09RevA.02\State=2-B2G\MP2/GTBas1=-1155.9466707\MP4/GTBas1=-11
 56.0011746\CCSD(T)/G3Bas1=-1156.0007017\MP2/GTBas2=-1155.9576456\MP4/G
 TBas2=-1156.0125622\MP2/GTBas3=-1156.0578208\MP4/GTBas3=-1156.1239843\
 HF/GTLargeXP=-1155.7107098\MP2/GTLargeXP=-1157.3238223\HF/GFHFB1=-1155
 .7337671\HF/GFHFB2=-1155.7370666\G4=-1157.4720701\FreqCoord=2.23224477
 42,0.,0.,0.,-3.7913632622,0.,-2.2322447742,0.,0.,0.,3.7913632622,0.\PG
 =D02H [C2'(Si1.Si1),C2"(Si1.Si1)]\NImag=0\\0.12353884,0.,0.09717612,0.
 ,0.,0.00562448,-0.01433280,-0.02506553,0.,0.02904436,-0.01979095,-0.05
 444272,0.,0.,0.13303501,0.,0.,-0.00562862,0.,0.,0.00560656,-0.09487324
 ,0.,0.,-0.01433280,0.01979095,0.,0.12353884,0.,0.01170932,0.,0.0250655
 3,-0.05444272,0.,0.,0.09717612,0.,0.,0.00563276,0.,0.,-0.00562862,0.,0
 .,0.00562448,-0.01433280,0.02506553,0.,-0.00037876,0.,0.,-0.01433280,-
 0.02506553,0.,0.02904436,0.01979095,-0.05444272,0.,0.,-0.02414958,0.,-
 0.01979095,-0.05444272,0.,0.,0.13303501,0.,0.,-0.00562862,0.,0.,0.0056
 5068,0.,0.,-0.00562862,0.,0.,0.00560656\\0.00010536,0.,0.,0.,0.0000803
 0,0.,-0.00010536,0.,0.,0.,-0.00008030,0.\\\@
 Job cpu time:  0 days  0 hours 54 minutes 37.4 seconds.
 File lengths (MBytes):  RWF=    148 Int=      0 D2E=      0 Chk=     12 Scr=      1
 Normal termination of Gaussian 09 at Mon Mar  5 12:03:06 2012.
