 Entering Gaussian System, Link 0=g09
 Initial command:
 /usr/local/chem/g09A2/l1.exe /temp0/tam/Gau-24962.inp -scrdir=/temp0/tam/
 Entering Link 1 = /usr/local/chem/g09A2/l1.exe PID=     24963.
  
 Copyright (c) 1988,1990,1992,1993,1995,1998,2003,2009, Gaussian, Inc.
                  All Rights Reserved.
  
 This is part of the Gaussian(R) 09 program.  It is based on
 the Gaussian(R) 03 system (copyright 2003, Gaussian, Inc.),
 the Gaussian(R) 98 system (copyright 1998, Gaussian, Inc.),
 the Gaussian(R) 94 system (copyright 1995, Gaussian, Inc.),
 the Gaussian 92(TM) system (copyright 1992, Gaussian, Inc.),
 the Gaussian 90(TM) system (copyright 1990, Gaussian, Inc.),
 the Gaussian 88(TM) system (copyright 1988, Gaussian, Inc.),
 the Gaussian 86(TM) system (copyright 1986, Carnegie Mellon
 University), and the Gaussian 82(TM) system (copyright 1983,
 Carnegie Mellon University). Gaussian is a federally registered
 trademark of Gaussian, Inc.
  
 This software contains proprietary and confidential information,
 including trade secrets, belonging to Gaussian, Inc.
  
 This software is provided under written license and may be
 used, copied, transmitted, or stored only in accord with that
 written license.
  
 The following legend is applicable only to US Government
 contracts under FAR:
  
                    RESTRICTED RIGHTS LEGEND
  
 Use, reproduction and disclosure by the US Government is
 subject to restrictions as set forth in subparagraphs (a)
 and (c) of the Commercial Computer Software - Restricted
 Rights clause in FAR 52.227-19.
  
 Gaussian, Inc.
 340 Quinnipiac St., Bldg. 40, Wallingford CT 06492
  
  
 ---------------------------------------------------------------
 Warning -- This program may not be used in any manner that
 competes with the business of Gaussian, Inc. or will provide
 assistance to any competitor of Gaussian, Inc.  The licensee
 of this program is prohibited from giving any competitor of
 Gaussian, Inc. access to this program.  By using this program,
 the user acknowledges that Gaussian, Inc. is engaged in the
 business of creating and licensing software in the field of
 computational chemistry and represents and warrants to the
 licensee that it is not a competitor of Gaussian, Inc. and that
 it will not use this program in any manner prohibited above.
 ---------------------------------------------------------------
  

 Cite this work as:
 Gaussian 09, Revision A.02,
 M. J. Frisch, G. W. Trucks, H. B. Schlegel, G. E. Scuseria, 
 M. A. Robb, J. R. Cheeseman, G. Scalmani, V. Barone, B. Mennucci, 
 G. A. Petersson, H. Nakatsuji, M. Caricato, X. Li, H. P. Hratchian, 
 A. F. Izmaylov, J. Bloino, G. Zheng, J. L. Sonnenberg, M. Hada, 
 M. Ehara, K. Toyota, R. Fukuda, J. Hasegawa, M. Ishida, T. Nakajima, 
 Y. Honda, O. Kitao, H. Nakai, T. Vreven, J. A. Montgomery, Jr., 
 J. E. Peralta, F. Ogliaro, M. Bearpark, J. J. Heyd, E. Brothers, 
 K. N. Kudin, V. N. Staroverov, R. Kobayashi, J. Normand, 
 K. Raghavachari, A. Rendell, J. C. Burant, S. S. Iyengar, J. Tomasi, 
 M. Cossi, N. Rega, J. M. Millam, M. Klene, J. E. Knox, J. B. Cross, 
 V. Bakken, C. Adamo, J. Jaramillo, R. Gomperts, R. E. Stratmann, 
 O. Yazyev, A. J. Austin, R. Cammi, C. Pomelli, J. W. Ochterski, 
 R. L. Martin, K. Morokuma, V. G. Zakrzewski, G. A. Voth, 
 P. Salvador, J. J. Dannenberg, S. Dapprich, A. D. Daniels, 
 O. Farkas, J. B. Foresman, J. V. Ortiz, J. Cioslowski, 
 and D. J. Fox, Gaussian, Inc., Wallingford CT, 2009.
 
 ******************************************
 Gaussian 09:  AM64L-G09RevA.02 11-Jun-2009
                20-Dec-2011 
 ******************************************
 %NprocShared=12
 Will use up to   12 processors via shared memory.
 %mem=70050MB
 %chk=S9L-ne-d-01
 -----------------------
 # G4 scfcyc=500 scf=xqc
 -----------------------
 1/14=-1,18=20,19=15,26=3,38=1/1,3;
 2/9=110,12=2,17=6,18=5,40=1/2;
 3/5=35,7=104,11=2,16=1,25=1,30=1,71=1,74=-5/1,2,3;
 4//1;
 5/5=2,7=500,8=3,13=1,38=5/2,8;
 6/7=2,8=2,9=2,10=2,28=1/1;
 7//1,2,3,16;
 1/14=-1,18=20,19=15/3(2);
 2/9=110/2;
 99//99;
 2/9=110/2;
 3/5=35,7=104,11=2,16=1,25=1,30=1,71=1,74=-5/1,2,3;
 4/5=5,16=3/1;
 5/5=2,7=500,8=3,13=1,38=5/2,8;
 7//1,2,3,16;
 1/14=-1,18=20,19=15/3(-5);
 2/9=110/2;
 6/7=2,8=2,9=2,10=2,19=2,28=1/1;
 99/9=1/99;
 -----
 si9-c
 -----
 Symbolic Z-matrix:
 Charge =  1 Multiplicity = 2
 Si                    1.28622  -0.01618   1.25761 
 Si                    0.02603   2.04292   1.72779 
 Si                   -0.02603  -2.04292   1.72779 
 Si                   -1.28622   0.01618   1.25761 
 Si                    2.07567  -0.02871  -1.10431 
 Si                    0.01874   1.45269  -0.59062 
 Si                   -0.01874  -1.45269  -0.59062 
 Si                   -2.07567   0.02871  -1.10431 
 Si                    0.        0.       -2.58094 
 

 GradGradGradGradGradGradGradGradGradGradGradGradGradGradGradGradGradGrad
 Berny optimization.
 Initialization pass.
                           ----------------------------
                           !    Initial Parameters    !
                           ! (Angstroms and Degrees)  !
 --------------------------                            --------------------------
 ! Name  Definition              Value          Derivative Info.                !
 --------------------------------------------------------------------------------
 ! R1    R(1,2)                  2.4595         estimate D2E/DX2                !
 ! R2    R(1,3)                  2.4598         estimate D2E/DX2                !
 ! R3    R(1,4)                  2.5726         estimate D2E/DX2                !
 ! R4    R(1,5)                  2.4904         estimate D2E/DX2                !
 ! R5    R(1,6)                  2.6796         estimate D2E/DX2                !
 ! R6    R(1,7)                  2.68           estimate D2E/DX2                !
 ! R7    R(2,4)                  2.4598         estimate D2E/DX2                !
 ! R8    R(2,6)                  2.3924         estimate D2E/DX2                !
 ! R9    R(3,4)                  2.4595         estimate D2E/DX2                !
 ! R10   R(3,7)                  2.3924         estimate D2E/DX2                !
 ! R11   R(4,6)                  2.68           estimate D2E/DX2                !
 ! R12   R(4,7)                  2.6796         estimate D2E/DX2                !
 ! R13   R(4,8)                  2.4904         estimate D2E/DX2                !
 ! R14   R(5,6)                  2.5864         estimate D2E/DX2                !
 ! R15   R(5,7)                  2.5842         estimate D2E/DX2                !
 ! R16   R(5,9)                  2.5475         estimate D2E/DX2                !
 ! R17   R(6,7)                  2.9056         estimate D2E/DX2                !
 ! R18   R(6,8)                  2.5842         estimate D2E/DX2                !
 ! R19   R(6,9)                  2.4641         estimate D2E/DX2                !
 ! R20   R(7,8)                  2.5864         estimate D2E/DX2                !
 ! R21   R(7,9)                  2.4641         estimate D2E/DX2                !
 ! R22   R(8,9)                  2.5475         estimate D2E/DX2                !
 ! A1    A(2,1,3)              112.329          estimate D2E/DX2                !
 ! A2    A(2,1,5)              110.3618         estimate D2E/DX2                !
 ! A3    A(2,1,7)              109.3358         estimate D2E/DX2                !
 ! A4    A(3,1,5)              110.2581         estimate D2E/DX2                !
 ! A5    A(3,1,6)              109.3393         estimate D2E/DX2                !
 ! A6    A(4,1,5)              108.4838         estimate D2E/DX2                !
 ! A7    A(1,4,8)              108.4838         estimate D2E/DX2                !
 ! A8    A(2,4,3)              112.329          estimate D2E/DX2                !
 ! A9    A(2,4,7)              109.3393         estimate D2E/DX2                !
 ! A10   A(2,4,8)              110.2581         estimate D2E/DX2                !
 ! A11   A(3,4,6)              109.3358         estimate D2E/DX2                !
 ! A12   A(3,4,8)              110.3618         estimate D2E/DX2                !
 ! A13   A(1,5,9)              106.9415         estimate D2E/DX2                !
 ! A14   A(1,6,8)              102.6159         estimate D2E/DX2                !
 ! A15   A(1,6,9)              103.742          estimate D2E/DX2                !
 ! A16   A(2,6,5)              109.3512         estimate D2E/DX2                !
 ! A17   A(2,6,7)              104.2844         estimate D2E/DX2                !
 ! A18   A(2,6,8)              109.3329         estimate D2E/DX2                !
 ! A19   A(2,6,9)              158.1573         estimate D2E/DX2                !
 ! A20   A(4,6,5)              102.5452         estimate D2E/DX2                !
 ! A21   A(4,6,9)              103.7291         estimate D2E/DX2                !
 ! A22   A(5,6,8)              106.8258         estimate D2E/DX2                !
 ! A23   A(1,7,8)              102.5452         estimate D2E/DX2                !
 ! A24   A(1,7,9)              103.7291         estimate D2E/DX2                !
 ! A25   A(3,7,5)              109.3329         estimate D2E/DX2                !
 ! A26   A(3,7,6)              104.2844         estimate D2E/DX2                !
 ! A27   A(3,7,8)              109.3512         estimate D2E/DX2                !
 ! A28   A(3,7,9)              158.1573         estimate D2E/DX2                !
 ! A29   A(4,7,5)              102.6159         estimate D2E/DX2                !
 ! A30   A(4,7,9)              103.742          estimate D2E/DX2                !
 ! A31   A(5,7,8)              106.8258         estimate D2E/DX2                !
 ! A32   A(4,8,9)              106.9415         estimate D2E/DX2                !
 ! A33   A(5,9,8)              109.1492         estimate D2E/DX2                !
 ! D1    D(5,1,4,8)             -0.1261         estimate D2E/DX2                !
 ! D2    D(2,1,5,9)            -62.2558         estimate D2E/DX2                !
 ! D3    D(3,1,5,9)             62.4211         estimate D2E/DX2                !
 ! D4    D(4,1,5,9)              0.0993         estimate D2E/DX2                !
 ! D5    D(3,1,6,8)             -0.7786         estimate D2E/DX2                !
 ! D6    D(3,1,6,9)            -63.1434         estimate D2E/DX2                !
 ! D7    D(2,1,7,8)              0.8422         estimate D2E/DX2                !
 ! D8    D(2,1,7,9)             63.1621         estimate D2E/DX2                !
 ! D9    D(3,4,6,5)              0.8422         estimate D2E/DX2                !
 ! D10   D(3,4,6,9)             63.1621         estimate D2E/DX2                !
 ! D11   D(2,4,7,5)             -0.7786         estimate D2E/DX2                !
 ! D12   D(2,4,7,9)            -63.1434         estimate D2E/DX2                !
 ! D13   D(1,4,8,9)              0.0993         estimate D2E/DX2                !
 ! D14   D(2,4,8,9)             62.4211         estimate D2E/DX2                !
 ! D15   D(3,4,8,9)            -62.2558         estimate D2E/DX2                !
 ! D16   D(1,5,9,8)             -0.0387         estimate D2E/DX2                !
 ! D17   D(2,6,7,3)             -0.0156         estimate D2E/DX2                !
 ! D18   D(4,8,9,5)             -0.0387         estimate D2E/DX2                !
 --------------------------------------------------------------------------------
 Trust Radius=3.00D-01 FncErr=1.00D-07 GrdErr=1.00D-06
 Number of steps in this run=  83 maximum allowed number of steps= 100.
 GradGradGradGradGradGradGradGradGradGradGradGradGradGradGradGradGradGrad

                          Input orientation:                          
 ---------------------------------------------------------------------
 Center     Atomic      Atomic             Coordinates (Angstroms)
 Number     Number       Type             X           Y           Z
 ---------------------------------------------------------------------
      1         14           0        1.286221   -0.016180    1.257606
      2         14           0        0.026035    2.042924    1.727795
      3         14           0       -0.026035   -2.042924    1.727795
      4         14           0       -1.286221    0.016180    1.257606
      5         14           0        2.075670   -0.028711   -1.104311
      6         14           0        0.018737    1.452687   -0.590618
      7         14           0       -0.018737   -1.452687   -0.590618
      8         14           0       -2.075670    0.028711   -1.104311
      9         14           0        0.000000    0.000000   -2.580941
 ---------------------------------------------------------------------
                    Distance matrix (angstroms):
                    1          2          3          4          5
     1  Si   0.000000
     2  Si   2.459483   0.000000
     3  Si   2.459834   4.086180   0.000000
     4  Si   2.572645   2.459834   2.459483   0.000000
     5  Si   2.490389   4.063681   4.061409   4.108890   0.000000
     6  Si   2.679555   2.392378   4.194799   2.679999   2.586386
     7  Si   2.679999   4.194799   2.392378   2.679555   2.584207
     8  Si   4.108890   4.061409   4.063681   2.490389   4.151737
     9  Si   4.048341   4.768586   4.768586   4.048341   2.547482
                    6          7          8          9
     6  Si   0.000000
     7  Si   2.905615   0.000000
     8  Si   2.584207   2.586386   0.000000
     9  Si   2.464149   2.464149   2.547482   0.000000
 Stoichiometry    Si9(1+,2)
 Framework group  C2[C2(Si),X(Si8)]
 Deg. of freedom    11
 Full point group                 C2      NOp   2
 Largest Abelian subgroup         C2      NOp   2
 Largest concise Abelian subgroup C2      NOp   2
                         Standard orientation:                         
 ---------------------------------------------------------------------
 Center     Atomic      Atomic             Coordinates (Angstroms)
 Number     Number       Type             X           Y           Z
 ---------------------------------------------------------------------
      1         14           0        0.000000    1.286322   -1.257606
      2         14           0        2.043090    0.000335   -1.727795
      3         14           0       -2.043090   -0.000335   -1.727795
      4         14           0        0.000000   -1.286322   -1.257606
      5         14           0       -0.002599    2.075867    1.104311
      6         14           0        1.452807    0.000463    0.590618
      7         14           0       -1.452807   -0.000463    0.590618
      8         14           0        0.002599   -2.075867    1.104311
      9         14           0        0.000000    0.000000    2.580941
 ---------------------------------------------------------------------
 Rotational constants (GHZ):      0.7373885      0.5853725      0.5734380
 Standard basis: GTBas3 (6D, 7F)
 There are   146 symmetry adapted basis functions of A   symmetry.
 There are   142 symmetry adapted basis functions of B   symmetry.
 Integral buffers will be    131072 words long.
 Raffenetti 2 integral format.
 Two-electron integral symmetry is turned on.
   288 basis functions,   612 primitive gaussians,   315 cartesian basis functions
    63 alpha electrons       62 beta electrons
       nuclear repulsion energy      1242.7527695053 Hartrees.
 NAtoms=    9 NActive=    9 NUniq=    5 SFac= 2.43D+00 NAtFMM=   80 NAOKFM=F Big=F
 One-electron integrals computed using PRISM.
 NBasis=   288 RedAO= T  NBF=   146   142
 NBsUse=   288 1.00D-06 NBFU=   146   142
 Harris functional with IExCor=  402 diagonalized for initial guess.
 ExpMin= 7.78D-02 ExpMax= 1.61D+04 ExpMxC= 2.43D+03 IAcc=2 IRadAn=         0 AccDes= 0.00D+00
 HarFok:  IExCor=  402 AccDes= 0.00D+00 IRadAn=         0 IDoV= 1
 ScaDFX=  1.000000  1.000000  1.000000  1.000000
 FoFCou: FMM=F IPFlag=           0 FMFlag=      100000 FMFlg1=           0
         NFxFlg=           0 DoJE=T BraDBF=F KetDBF=T FulRan=T
         Omega=  0.000000  0.000000  1.000000  0.000000  0.000000 ICntrl=     500 IOpCl=  0
         NMat0=    1 NMatS0=    1 NMatT0=    0 NMatD0=    1 NMtDS0=    0 NMtDT0=    0
         I1Cent=           4 NGrid=           0.
 Petite list used in FoFCou.
 Initial guess orbital symmetries:
 Alpha Orbitals:
       Occupied  (A) (B) (A) (B) (A) (B) (A) (B) (A) (A) (B) (A)
                 (B) (A) (B) (A) (B) (A) (B) (A) (A) (B) (A) (B)
                 (A) (A) (B) (B) (A) (B) (A) (B) (B) (A) (B) (A)
                 (B) (A) (B) (B) (A) (B) (A) (B) (A) (A) (A) (B)
                 (B) (A) (B) (B) (A) (A) (A) (A) (B) (B) (A) (B)
                 (B) (A) (A)
       Virtual   (B) (B) (A) (B) (B) (A) (B) (A) (A) (B) (A) (B)
                 (A) (B) (A) (B) (A) (B) (A) (B) (A) (B) (B) (A)
                 (A) (A) (A) (A) (B) (B) (A) (A) (B) (B) (A) (B)
                 (A) (A) (B) (B) (A) (B) (B) (B) (A) (A) (B) (A)
                 (A) (B) (A) (B) (A) (B) (B) (B) (A) (B) (A) (B)
                 (B) (B) (B) (A) (A) (A) (A) (B) (A) (B) (A) (A)
                 (A) (B) (B) (A) (B) (A) (B) (A) (B) (B) (A) (A)
                 (A) (B) (B) (A) (A) (B) (A) (B) (A) (B) (B) (B)
                 (A) (B) (A) (B) (B) (A) (A) (B) (A) (A) (B) (B)
                 (B) (A) (A) (B) (B) (B) (A) (A) (A) (B) (B) (A)
                 (B) (A) (A) (A) (B) (A) (A) (B) (B) (A) (B) (A)
                 (A) (B) (B) (A) (B) (A) (A) (B) (B) (A) (B) (A)
                 (A) (A) (B) (B) (B) (A) (A) (A) (B) (A) (B) (A)
                 (B) (B) (B) (A) (A) (B) (B) (A) (B) (A) (B) (B)
                 (B) (A) (A) (A) (A) (A) (B) (B) (A) (B) (A) (A)
                 (B) (B) (B) (A) (A) (B) (B) (A) (B) (B) (A) (A)
                 (B) (A) (B) (B) (A) (B) (A) (A) (A) (B) (A) (B)
                 (B) (A) (B) (A) (A) (B) (B) (B) (A) (A) (B) (A)
                 (A) (A) (B) (B) (A) (B) (B) (A) (A)
 Beta  Orbitals:
       Occupied  (A) (B) (A) (B) (A) (B) (A) (B) (A) (A) (B) (A)
                 (B) (A) (B) (A) (B) (A) (B) (A) (A) (B) (A) (B)
                 (A) (A) (B) (B) (A) (B) (A) (B) (B) (A) (B) (A)
                 (B) (A) (B) (B) (A) (B) (A) (B) (A) (A) (A) (B)
                 (B) (A) (B) (B) (A) (A) (A) (A) (B) (B) (A) (B)
                 (B) (A)
       Virtual   (A) (B) (B) (A) (B) (B) (A) (B) (A) (A) (B) (A)
                 (B) (A) (B) (A) (B) (A) (B) (A) (B) (A) (B) (B)
                 (A) (A) (A) (A) (A) (B) (B) (A) (A) (B) (B) (A)
                 (B) (A) (A) (B) (B) (A) (B) (B) (B) (A) (A) (B)
                 (A) (A) (B) (A) (B) (A) (B) (B) (B) (A) (B) (A)
                 (B) (B) (B) (B) (A) (A) (A) (A) (B) (A) (B) (A)
                 (A) (A) (B) (B) (A) (B) (A) (B) (A) (B) (B) (A)
                 (A) (A) (B) (B) (A) (A) (B) (A) (B) (A) (B) (B)
                 (B) (A) (B) (A) (B) (B) (A) (A) (B) (A) (A) (B)
                 (B) (B) (A) (A) (B) (B) (B) (A) (A) (A) (B) (B)
                 (A) (B) (A) (A) (A) (B) (A) (A) (B) (B) (A) (B)
                 (A) (A) (B) (B) (A) (B) (A) (A) (B) (B) (A) (B)
                 (A) (A) (A) (B) (B) (B) (A) (A) (A) (B) (A) (B)
                 (A) (B) (B) (B) (A) (A) (B) (B) (A) (B) (A) (B)
                 (B) (B) (A) (A) (A) (A) (A) (B) (B) (A) (B) (A)
                 (A) (B) (B) (B) (A) (A) (B) (B) (A) (B) (B) (A)
                 (A) (B) (A) (B) (B) (A) (B) (A) (A) (A) (B) (A)
                 (B) (B) (A) (B) (A) (A) (B) (B) (B) (A) (A) (B)
                 (A) (A) (A) (B) (B) (A) (B) (B) (A) (A)
 The electronic state of the initial guess is 2-A.
 Initial guess <Sx>= 0.0000 <Sy>= 0.0000 <Sz>= 0.5000 <S**2>= 0.7500 S= 0.5000
 Requested convergence on RMS density matrix=1.00D-08 within 128 cycles.
 Requested convergence on MAX density matrix=1.00D-06.
 Requested convergence on             energy=1.00D-06.
 No special actions if energy rises.
 Keep R1 and R2 ints in memory in canonical form, NReq=2493273356.
 Integral accuracy reduced to 1.0D-05 until final iterations.
 EnCoef did     2 forward-backward iterations
 Initial convergence to 1.0D-05 achieved.  Increase integral accuracy.
 SCF Done:  E(UB3LYP) =  -2605.15078901     A.U. after   19 cycles
             Convg  =    0.6616D-08             -V/T =  2.0035
 <Sx>= 0.0000 <Sy>= 0.0000 <Sz>= 0.5000 <S**2>= 0.7595 S= 0.5047
 <L.S>= 0.000000000000E+00
 Annihilation of the first spin contaminant:
 S**2 before annihilation     0.7595,   after     0.7501
 QCSCF skips out because SCF is already converged.

 **********************************************************************

            Population analysis using the SCF density.

 **********************************************************************

 Orbital symmetries:
 Alpha Orbitals:
       Occupied  (A) (B) (B) (A) (A) (A) (B) (A) (B) (A) (A) (B)
                 (B) (A) (B) (A) (A) (B) (B) (A) (B) (B) (A) (A)
                 (B) (A) (B) (B) (A) (B) (A) (A) (B) (B) (A) (A)
                 (B) (A) (B) (A) (B) (A) (B) (A) (B) (A) (A) (B)
                 (B) (A) (B) (B) (A) (A) (A) (A) (B) (B) (A) (B)
                 (B) (A) (A)
       Virtual   (B) (B) (A) (B) (B) (A) (B) (A) (B) (A) (A) (B)
                 (A) (B) (A) (B) (A) (B) (A) (B) (A) (B) (B) (A)
                 (A) (A) (A) (B) (A) (A) (A) (B) (B) (B) (A) (B)
                 (A) (B) (B) (A) (A) (B) (B) (A) (B) (B) (A) (A)
                 (B) (A) (A) (B) (A) (B) (B) (B) (A) (B) (A) (B)
                 (B) (B) (B) (A) (A) (A) (A) (A) (B) (A) (A) (B)
                 (A) (B) (B) (A) (B) (A) (A) (B) (B) (B) (A) (A)
                 (A) (B) (B) (A) (A) (A) (B) (B) (A) (B) (B) (B)
                 (A) (B) (A) (B) (B) (A) (A) (B) (A) (A) (B) (B)
                 (B) (A) (A) (B) (A) (B) (B) (A) (A) (B) (B) (A)
                 (B) (A) (B) (A) (A) (A) (A) (B) (B) (A) (B) (A)
                 (A) (B) (B) (A) (A) (B) (A) (B) (B) (A) (B) (A)
                 (A) (A) (B) (B) (A) (B) (A) (A) (B) (A) (B) (A)
                 (B) (B) (A) (B) (A) (B) (B) (A) (B) (A) (B) (B)
                 (B) (A) (A) (A) (A) (A) (B) (B) (A) (A) (B) (B)
                 (A) (B) (B) (A) (B) (B) (A) (A) (B) (B) (A) (A)
                 (B) (A) (B) (B) (B) (A) (A) (A) (A) (B) (A) (B)
                 (B) (A) (B) (A) (A) (B) (B) (B) (A) (A) (B) (A)
                 (A) (A) (B) (B) (A) (B) (B) (A) (A)
 Beta  Orbitals:
       Occupied  (A) (B) (A) (B) (A) (A) (B) (A) (B) (A) (A) (B)
                 (B) (A) (B) (A) (A) (B) (B) (A) (B) (A) (B) (A)
                 (B) (B) (A) (B) (A) (A) (B) (B) (B) (A) (A) (A)
                 (B) (A) (B) (A) (B) (A) (B) (A) (B) (A) (A) (B)
                 (B) (A) (B) (B) (A) (A) (A) (A) (B) (B) (A) (B)
                 (A) (B)
       Virtual   (A) (B) (B) (A) (B) (B) (A) (A) (B) (B) (A) (B)
                 (A) (A) (B) (A) (B) (A) (B) (A) (B) (A) (B) (B)
                 (A) (A) (A) (A) (A) (B) (A) (A) (B) (B) (B) (A)
                 (B) (A) (B) (B) (A) (A) (B) (A) (B) (B) (A) (B)
                 (A) (B) (A) (A) (B) (A) (B) (B) (B) (A) (B) (A)
                 (B) (B) (B) (B) (A) (A) (A) (A) (A) (B) (A) (A)
                 (B) (A) (B) (B) (A) (B) (A) (A) (B) (B) (B) (A)
                 (A) (A) (B) (B) (A) (A) (B) (A) (B) (A) (B) (B)
                 (B) (A) (B) (A) (B) (B) (A) (A) (B) (A) (A) (B)
                 (B) (B) (A) (A) (B) (A) (B) (B) (A) (A) (B) (A)
                 (B) (B) (A) (B) (A) (A) (A) (A) (B) (B) (A) (B)
                 (A) (A) (B) (B) (A) (A) (B) (A) (B) (B) (A) (B)
                 (A) (A) (A) (B) (B) (A) (B) (A) (A) (B) (A) (B)
                 (A) (B) (B) (B) (A) (A) (B) (B) (A) (B) (A) (B)
                 (B) (B) (A) (A) (A) (A) (A) (B) (B) (A) (A) (B)
                 (A) (B) (B) (B) (A) (B) (B) (A) (A) (B) (B) (A)
                 (A) (B) (A) (B) (B) (B) (A) (A) (A) (A) (B) (A)
                 (B) (B) (A) (B) (A) (A) (B) (B) (B) (A) (A) (B)
                 (A) (A) (A) (B) (B) (A) (B) (B) (A) (A)
 The electronic state is 2-A.
 Alpha  occ. eigenvalues --  -66.32568 -66.31559 -66.31558 -66.31558 -66.31558
 Alpha  occ. eigenvalues --  -66.31412 -66.31411 -66.30993 -66.30993  -5.46756
 Alpha  occ. eigenvalues --   -5.45966  -5.45965  -5.45907  -5.45906  -5.45844
 Alpha  occ. eigenvalues --   -5.45843  -5.45426  -5.45423  -3.82632  -3.82536
 Alpha  occ. eigenvalues --   -3.82466  -3.81962  -3.81959  -3.81889  -3.81888
 Alpha  occ. eigenvalues --   -3.81871  -3.81871  -3.81825  -3.81821  -3.81650
 Alpha  occ. eigenvalues --   -3.81649  -3.81615  -3.81613  -3.81602  -3.81602
 Alpha  occ. eigenvalues --   -3.81549  -3.81548  -3.81487  -3.81487  -3.81363
 Alpha  occ. eigenvalues --   -3.81352  -3.81247  -3.81245  -3.81185  -3.81181
 Alpha  occ. eigenvalues --   -0.83477  -0.73515  -0.70242  -0.69074  -0.57922
 Alpha  occ. eigenvalues --   -0.57226  -0.56119  -0.54983  -0.51248  -0.46711
 Alpha  occ. eigenvalues --   -0.42466  -0.41768  -0.40659  -0.39981  -0.39029
 Alpha  occ. eigenvalues --   -0.38913  -0.38796  -0.37214
 Alpha virt. eigenvalues --   -0.26494  -0.26347  -0.25502  -0.21767  -0.19718
 Alpha virt. eigenvalues --   -0.19266  -0.18057  -0.17854  -0.17316  -0.17186
 Alpha virt. eigenvalues --   -0.14563  -0.14523  -0.13301  -0.12872  -0.12762
 Alpha virt. eigenvalues --   -0.08439  -0.07896  -0.06310  -0.03311  -0.01842
 Alpha virt. eigenvalues --   -0.01343  -0.00593   0.00405   0.01036   0.02259
 Alpha virt. eigenvalues --    0.02548   0.03121   0.03824   0.03871   0.04249
 Alpha virt. eigenvalues --    0.05230   0.05418   0.05806   0.06911   0.07764
 Alpha virt. eigenvalues --    0.08341   0.09318   0.10521   0.10899   0.11596
 Alpha virt. eigenvalues --    0.12054   0.12982   0.14152   0.14345   0.14634
 Alpha virt. eigenvalues --    0.15354   0.15384   0.16014   0.17134   0.17467
 Alpha virt. eigenvalues --    0.17565   0.19020   0.19738   0.20225   0.21244
 Alpha virt. eigenvalues --    0.22182   0.22994   0.23523   0.24503   0.24900
 Alpha virt. eigenvalues --    0.25581   0.27618   0.28733   0.29976   0.30272
 Alpha virt. eigenvalues --    0.31707   0.32164   0.33745   0.34575   0.36256
 Alpha virt. eigenvalues --    0.36625   0.36705   0.37140   0.38561   0.40706
 Alpha virt. eigenvalues --    0.41064   0.41429   0.42929   0.43345   0.43645
 Alpha virt. eigenvalues --    0.46492   0.47013   0.48123   0.49351   0.50052
 Alpha virt. eigenvalues --    0.50916   0.51179   0.52929   0.53292   0.53852
 Alpha virt. eigenvalues --    0.54042   0.54686   0.54810   0.57081   0.58647
 Alpha virt. eigenvalues --    0.58827   0.61671   0.64021   0.66335   0.68147
 Alpha virt. eigenvalues --    0.68846   0.69013   0.70229   0.73377   0.74875
 Alpha virt. eigenvalues --    0.75048   0.75722   0.75942   0.76891   0.77218
 Alpha virt. eigenvalues --    0.81040   0.83258   0.84815   0.85641   0.85786
 Alpha virt. eigenvalues --    0.86718   0.87959   0.88051   0.88455   0.88470
 Alpha virt. eigenvalues --    0.90495   0.91157   0.92845   0.94134   0.94178
 Alpha virt. eigenvalues --    0.94842   0.96013   0.99217   0.99629   1.00166
 Alpha virt. eigenvalues --    1.01679   1.03030   1.04022   1.05280   1.05297
 Alpha virt. eigenvalues --    1.06202   1.07578   1.07931   1.08473   1.08880
 Alpha virt. eigenvalues --    1.12737   1.13290   1.14075   1.16270   1.17046
 Alpha virt. eigenvalues --    1.17390   1.17785   1.20239   1.21231   1.21390
 Alpha virt. eigenvalues --    1.22251   1.25263   1.27610   1.28527   1.29220
 Alpha virt. eigenvalues --    1.30170   1.30815   1.31879   1.32693   1.32693
 Alpha virt. eigenvalues --    1.32904   1.34812   1.35688   1.36567   1.37447
 Alpha virt. eigenvalues --    1.37592   1.39476   1.43246   1.46825   1.50443
 Alpha virt. eigenvalues --    1.54371   1.60884   1.62218   1.62417   1.63021
 Alpha virt. eigenvalues --    1.63286   1.64470   1.66679   1.67198   1.67996
 Alpha virt. eigenvalues --    1.68032   1.68272   1.69090   1.71126   1.73269
 Alpha virt. eigenvalues --    1.73470   1.73829   1.74230   1.75348   1.76124
 Alpha virt. eigenvalues --    1.77445   1.80047   1.80454   1.81235   1.82636
 Alpha virt. eigenvalues --    1.82702   1.84393   1.86068   1.86321   1.86351
 Alpha virt. eigenvalues --    1.87370   1.88152   1.90891   1.91953   1.92180
 Alpha virt. eigenvalues --    1.93500   1.96780   2.00216   2.00455   2.02576
 Alpha virt. eigenvalues --    2.06788   2.07643   2.10547   2.10621   2.15304
 Alpha virt. eigenvalues --    2.21542   2.33150   2.64551   2.66370   2.76138
 Alpha virt. eigenvalues --    2.77676   2.83931   2.88361   2.97000   3.05199
  Beta  occ. eigenvalues --  -66.32587 -66.31503 -66.31502 -66.31493 -66.31493
  Beta  occ. eigenvalues --  -66.31387 -66.31386 -66.30966 -66.30966  -5.46776
  Beta  occ. eigenvalues --   -5.45939  -5.45938  -5.45845  -5.45844  -5.45772
  Beta  occ. eigenvalues --   -5.45772  -5.45402  -5.45398  -3.82667  -3.82560
  Beta  occ. eigenvalues --   -3.82499  -3.81881  -3.81880  -3.81768  -3.81767
  Beta  occ. eigenvalues --   -3.81752  -3.81748  -3.81619  -3.81618  -3.81588
  Beta  occ. eigenvalues --   -3.81584  -3.81583  -3.81582  -3.81580  -3.81580
  Beta  occ. eigenvalues --   -3.81516  -3.81515  -3.81454  -3.81452  -3.81364
  Beta  occ. eigenvalues --   -3.81353  -3.81176  -3.81172  -3.81112  -3.81110
  Beta  occ. eigenvalues --   -0.83107  -0.73025  -0.69597  -0.68426  -0.57694
  Beta  occ. eigenvalues --   -0.56210  -0.55211  -0.54855  -0.50878  -0.45041
  Beta  occ. eigenvalues --   -0.42408  -0.41549  -0.40177  -0.39859  -0.38766
  Beta  occ. eigenvalues --   -0.38588  -0.38506
  Beta virt. eigenvalues --   -0.31947  -0.25746  -0.25449  -0.25347  -0.21629
  Beta virt. eigenvalues --   -0.19386  -0.19237  -0.17699  -0.17663  -0.17121
  Beta virt. eigenvalues --   -0.17084  -0.13788  -0.13735  -0.13146  -0.12119
  Beta virt. eigenvalues --   -0.12065  -0.08311  -0.07611  -0.06203  -0.02443
  Beta virt. eigenvalues --   -0.01685  -0.01018  -0.00356   0.00620   0.01109
  Beta virt. eigenvalues --    0.02308   0.03258   0.03305   0.03888   0.03932
  Beta virt. eigenvalues --    0.04906   0.05347   0.05568   0.05903   0.07239
  Beta virt. eigenvalues --    0.07919   0.08580   0.09491   0.10900   0.11312
  Beta virt. eigenvalues --    0.11676   0.12674   0.13164   0.14541   0.14665
  Beta virt. eigenvalues --    0.15158   0.15451   0.15646   0.16411   0.17420
  Beta virt. eigenvalues --    0.17703   0.17808   0.19419   0.19788   0.20623
  Beta virt. eigenvalues --    0.21410   0.22323   0.23466   0.24118   0.24548
  Beta virt. eigenvalues --    0.25038   0.26005   0.27725   0.29057   0.30251
  Beta virt. eigenvalues --    0.30666   0.31839   0.32323   0.34211   0.34903
  Beta virt. eigenvalues --    0.36815   0.36857   0.36901   0.37340   0.38685
  Beta virt. eigenvalues --    0.40890   0.41207   0.41666   0.43439   0.43482
  Beta virt. eigenvalues --    0.43844   0.46720   0.47379   0.48230   0.49497
  Beta virt. eigenvalues --    0.50481   0.51272   0.51383   0.53136   0.53451
  Beta virt. eigenvalues --    0.54201   0.54500   0.55022   0.55031   0.57303
  Beta virt. eigenvalues --    0.58782   0.59050   0.61784   0.64217   0.66459
  Beta virt. eigenvalues --    0.68574   0.69278   0.69392   0.70866   0.73654
  Beta virt. eigenvalues --    0.74956   0.75512   0.76016   0.76376   0.77166
  Beta virt. eigenvalues --    0.77331   0.81211   0.83856   0.85188   0.86031
  Beta virt. eigenvalues --    0.86147   0.87321   0.88443   0.88483   0.88952
  Beta virt. eigenvalues --    0.89116   0.91050   0.91673   0.93091   0.94316
  Beta virt. eigenvalues --    0.94616   0.94996   0.96224   0.99466   0.99931
  Beta virt. eigenvalues --    1.00407   1.02022   1.03230   1.04549   1.05464
  Beta virt. eigenvalues --    1.05505   1.06520   1.07765   1.08116   1.08835
  Beta virt. eigenvalues --    1.09047   1.12992   1.13634   1.14049   1.16335
  Beta virt. eigenvalues --    1.17551   1.17635   1.18233   1.20555   1.21265
  Beta virt. eigenvalues --    1.21811   1.22825   1.25684   1.27962   1.28992
  Beta virt. eigenvalues --    1.29486   1.30662   1.30998   1.32346   1.32989
  Beta virt. eigenvalues --    1.33045   1.33142   1.35147   1.35846   1.36743
  Beta virt. eigenvalues --    1.37522   1.37587   1.39465   1.43400   1.46931
  Beta virt. eigenvalues --    1.50500   1.54602   1.61028   1.62389   1.62752
  Beta virt. eigenvalues --    1.63248   1.63431   1.64720   1.66694   1.67442
  Beta virt. eigenvalues --    1.68238   1.68306   1.68514   1.69299   1.71440
  Beta virt. eigenvalues --    1.73459   1.73803   1.73829   1.74246   1.75558
  Beta virt. eigenvalues --    1.76199   1.77686   1.80036   1.80527   1.81341
  Beta virt. eigenvalues --    1.82837   1.82884   1.84515   1.86198   1.86377
  Beta virt. eigenvalues --    1.86567   1.87376   1.88258   1.91119   1.92120
  Beta virt. eigenvalues --    1.92382   1.93541   1.96906   2.00487   2.00717
  Beta virt. eigenvalues --    2.02724   2.06821   2.07723   2.10585   2.10860
  Beta virt. eigenvalues --    2.15480   2.21717   2.33363   2.64824   2.66618
  Beta virt. eigenvalues --    2.76343   2.77685   2.84083   2.88479   2.97109
  Beta virt. eigenvalues --    3.05372
          Condensed to atoms (all electrons):
              1          2          3          4          5          6
     1  Si  13.519198   0.112658   0.112646   0.034805   0.103602   0.022377
     2  Si   0.112658  13.529801  -0.020427   0.112646  -0.006534   0.114900
     3  Si   0.112646  -0.020427  13.529801   0.112658  -0.006597   0.016934
     4  Si   0.034805   0.112646   0.112658  13.519198   0.011285   0.022301
     5  Si   0.103602  -0.006534  -0.006597   0.011285  13.583216   0.056682
     6  Si   0.022377   0.114900   0.016934   0.022301   0.056682  13.539625
     7  Si   0.022301   0.016934   0.114900   0.022377   0.056848   0.017615
     8  Si   0.011285  -0.006597  -0.006534   0.103602   0.003187   0.056848
     9  Si   0.014152  -0.006755  -0.006755   0.014152   0.061995   0.054930
              7          8          9
     1  Si   0.022301   0.011285   0.014152
     2  Si   0.016934  -0.006597  -0.006755
     3  Si   0.114900  -0.006534  -0.006755
     4  Si   0.022377   0.103602   0.014152
     5  Si   0.056848   0.003187   0.061995
     6  Si   0.017615   0.056848   0.054930
     7  Si  13.539625   0.056682   0.054930
     8  Si   0.056682  13.583216   0.061995
     9  Si   0.054930   0.061995  13.620258
 Mulliken atomic charges:
              1
     1  Si   0.046975
     2  Si   0.153373
     3  Si   0.153373
     4  Si   0.046975
     5  Si   0.136315
     6  Si   0.097788
     7  Si   0.097788
     8  Si   0.136315
     9  Si   0.131096
 Sum of Mulliken atomic charges =   1.00000
 Mulliken charges with hydrogens summed into heavy atoms:
              1
     1  Si   0.046975
     2  Si   0.153373
     3  Si   0.153373
     4  Si   0.046975
     5  Si   0.136315
     6  Si   0.097788
     7  Si   0.097788
     8  Si   0.136315
     9  Si   0.131096
 Sum of Mulliken charges with hydrogens summed into heavy atoms =   1.00000
          Atomic-Atomic Spin Densities.
              1          2          3          4          5          6
     1  Si   0.064123   0.031857   0.031852  -0.005794  -0.013993  -0.010535
     2  Si   0.031857   0.143513  -0.001302   0.031852  -0.004904  -0.016046
     3  Si   0.031852  -0.001302   0.143513   0.031857  -0.004908   0.001909
     4  Si  -0.005794   0.031852   0.031857   0.064123   0.002505  -0.010358
     5  Si  -0.013993  -0.004904  -0.004908   0.002505   0.132257   0.028304
     6  Si  -0.010535  -0.016046   0.001909  -0.010358   0.028304   0.069826
     7  Si  -0.010358   0.001909  -0.016046  -0.010535   0.028174  -0.005233
     8  Si   0.002505  -0.004908  -0.004904  -0.013993  -0.002371   0.028174
     9  Si   0.000943   0.000155   0.000155   0.000943   0.000498  -0.004263
              7          8          9
     1  Si  -0.010358   0.002505   0.000943
     2  Si   0.001909  -0.004908   0.000155
     3  Si  -0.016046  -0.004904   0.000155
     4  Si  -0.010535  -0.013993   0.000943
     5  Si   0.028174  -0.002371   0.000498
     6  Si  -0.005233   0.028174  -0.004263
     7  Si   0.069826   0.028304  -0.004263
     8  Si   0.028304   0.132257   0.000498
     9  Si  -0.004263   0.000498  -0.034794
 Mulliken atomic spin densities:
              1
     1  Si   0.090599
     2  Si   0.182126
     3  Si   0.182126
     4  Si   0.090599
     5  Si   0.165563
     6  Si   0.081776
     7  Si   0.081776
     8  Si   0.165563
     9  Si  -0.040128
 Sum of Mulliken atomic spin densities =   1.00000
 Electronic spatial extent (au):  <R**2>=           2389.6972
 Charge=              1.0000 electrons
 Dipole moment (field-independent basis, Debye):
    X=              0.0000    Y=              0.0000    Z=              0.1319  Tot=              0.1319
 Quadrupole moment (field-independent basis, Debye-Ang):
   XX=            -99.2526   YY=           -101.0152   ZZ=            -93.5756
   XY=             -0.0028   XZ=              0.0000   YZ=              0.0000
 Traceless Quadrupole moment (field-independent basis, Debye-Ang):
   XX=             -1.3048   YY=             -3.0674   ZZ=              4.3722
   XY=             -0.0028   XZ=              0.0000   YZ=              0.0000
 Octapole moment (field-independent basis, Debye-Ang**2):
  XXX=              0.0000  YYY=              0.0000  ZZZ=              4.7555  XYY=              0.0000
  XXY=              0.0000  XXZ=             -9.0292  XZZ=              0.0000  YZZ=              0.0000
  YYZ=              0.7111  XYZ=             -0.0130
 Hexadecapole moment (field-independent basis, Debye-Ang**3):
 XXXX=          -1079.4364 YYYY=          -1041.2132 ZZZZ=          -1469.4531 XXXY=              0.2946
 XXXZ=              0.0000 YYYX=              0.2776 YYYZ=              0.0000 ZZZX=              0.0000
 ZZZY=              0.0000 XXYY=           -347.9819 XXZZ=           -408.9315 YYZZ=           -431.1664
 XXYZ=              0.0000 YYXZ=              0.0000 ZZXY=              0.1086
 N-N= 1.242752769505D+03 E-N=-1.298806976133D+04  KE= 3.893412101943D+03
 Symmetry A    KE= 2.088965036340D+03
 Symmetry B    KE= 1.804447065602D+03
                          Isotropic Fermi Contact Couplings
        Atom                 a.u.       MegaHertz       Gauss      10(-4) cm-1
     1  Si(29)            -0.05664      50.33715      17.96155      16.79067
     2  Si(29)            -0.00263       2.33306       0.83249       0.77822
     3  Si(29)            -0.00263       2.33306       0.83249       0.77822
     4  Si(29)            -0.05664      50.33715      17.96155      16.79067
     5  Si(29)             0.00152      -1.35067      -0.48195      -0.45054
     6  Si(29)            -0.00875       7.77935       2.77587       2.59491
     7  Si(29)            -0.00875       7.77935       2.77587       2.59491
     8  Si(29)             0.00152      -1.35067      -0.48195      -0.45054
     9  Si(29)             0.00232      -2.06234      -0.73589      -0.68792
 --------------------------------------------------------
       Center         ----  Spin Dipole Couplings  ----
                      3XX-RR        3YY-RR        3ZZ-RR
 --------------------------------------------------------
     1   Atom        0.253329     -0.116992     -0.136337
     2   Atom       -0.199347      0.383963     -0.184616
     3   Atom       -0.199347      0.383963     -0.184616
     4   Atom        0.253329     -0.116992     -0.136337
     5   Atom        0.335179     -0.173368     -0.161811
     6   Atom       -0.093324      0.180068     -0.086743
     7   Atom       -0.093324      0.180068     -0.086743
     8   Atom        0.335179     -0.173368     -0.161811
     9   Atom       -0.015079     -0.006938      0.022017
 --------------------------------------------------------
                        XY            XZ            YZ
 --------------------------------------------------------
     1   Atom        0.000725      0.000988      0.024361
     2   Atom        0.001084     -0.000901     -0.000561
     3   Atom        0.001084      0.000901      0.000561
     4   Atom        0.000725     -0.000988     -0.024361
     5   Atom        0.001969      0.001162      0.006313
     6   Atom        0.001031     -0.001805      0.000667
     7   Atom        0.001031      0.001805     -0.000667
     8   Atom        0.001969     -0.001162     -0.006313
     9   Atom       -0.000206      0.000000      0.000000
 --------------------------------------------------------


 ---------------------------------------------------------------------------------
              Anisotropic Spin Dipole Couplings in Principal Axis System
 ---------------------------------------------------------------------------------

       Atom             a.u.   MegaHertz   Gauss  10(-4) cm-1        Axes

              Baa    -0.1529    16.218     5.787     5.410 -0.0010 -0.5617  0.8274
     1 Si(29) Bbb    -0.1005    10.657     3.803     3.555 -0.0033  0.8274  0.5617
              Bcc     0.2533   -26.875    -9.590    -8.964  1.0000  0.0021  0.0027
 
              Baa    -0.1994    21.154     7.548     7.056  0.9982 -0.0018  0.0608
     2 Si(29) Bbb    -0.1846    19.579     6.986     6.531 -0.0608  0.0011  0.9982
              Bcc     0.3840   -40.733   -14.534   -13.587  0.0019  1.0000 -0.0010
 
              Baa    -0.1994    21.154     7.548     7.056  0.9982 -0.0018 -0.0608
     3 Si(29) Bbb    -0.1846    19.579     6.986     6.531  0.0608 -0.0011  0.9982
              Bcc     0.3840   -40.733   -14.534   -13.587  0.0019  1.0000  0.0010
 
              Baa    -0.1529    16.218     5.787     5.410  0.0010  0.5617  0.8274
     4 Si(29) Bbb    -0.1005    10.657     3.803     3.555 -0.0033  0.8274 -0.5617
              Bcc     0.2533   -26.875    -9.590    -8.964  1.0000  0.0021 -0.0027
 
              Baa    -0.1762    18.687     6.668     6.233 -0.0026  0.9153 -0.4027
     5 Si(29) Bbb    -0.1590    16.871     6.020     5.628 -0.0038  0.4027  0.9153
              Bcc     0.3352   -35.558   -12.688   -11.861  1.0000  0.0039  0.0024
 
              Baa    -0.0938     9.950     3.550     3.319  0.9686 -0.0043  0.2484
     6 Si(29) Bbb    -0.0863     9.153     3.266     3.053 -0.2484 -0.0015  0.9686
              Bcc     0.1801   -19.103    -6.816    -6.372  0.0038  1.0000  0.0025
 
              Baa    -0.0938     9.950     3.550     3.319  0.9686 -0.0043 -0.2484
     7 Si(29) Bbb    -0.0863     9.153     3.266     3.053  0.2484  0.0015  0.9686
              Bcc     0.1801   -19.103    -6.816    -6.372  0.0038  1.0000 -0.0025
 
              Baa    -0.1762    18.687     6.668     6.233 -0.0026  0.9153  0.4027
     8 Si(29) Bbb    -0.1590    16.871     6.020     5.628  0.0038 -0.4027  0.9153
              Bcc     0.3352   -35.558   -12.688   -11.861  1.0000  0.0039 -0.0024
 
              Baa    -0.0151     1.600     0.571     0.534  0.9997  0.0252  0.0000
     9 Si(29) Bbb    -0.0069     0.735     0.262     0.245 -0.0252  0.9997  0.0000
              Bcc     0.0220    -2.336    -0.833    -0.779  0.0000  0.0000  1.0000
 

 ---------------------------------------------------------------------------------

 Calling FoFJK, ICntrl=      2127 FMM=F ISym2X=1 I1Cent= 0 IOpClX= 1 NMat=1 NMatS=1 NMatT=0.
 ***** Axes restored to original set *****
 -------------------------------------------------------------------
 Center     Atomic                   Forces (Hartrees/Bohr)
 Number     Number              X              Y              Z
 -------------------------------------------------------------------
      1       14          -0.001680808   -0.000031197   -0.000078724
      2       14          -0.000031971   -0.001610997   -0.001022914
      3       14           0.000031971    0.001610997   -0.001022914
      4       14           0.001680808    0.000031197   -0.000078724
      5       14          -0.001975831    0.000085878   -0.000356643
      6       14           0.000048933   -0.000351711   -0.000058282
      7       14          -0.000048933    0.000351711   -0.000058282
      8       14           0.001975831   -0.000085878   -0.000356643
      9       14           0.000000000    0.000000000    0.003033126
 -------------------------------------------------------------------
 Cartesian Forces:  Max     0.003033126 RMS     0.001062592

 GradGradGradGradGradGradGradGradGradGradGradGradGradGradGradGradGradGrad
 Berny optimization.
 Internal  Forces:  Max     0.001241599 RMS     0.000380614
 Search for a local minimum.
 Step number   1 out of a maximum of   83
 All quantities printed in internal units (Hartrees-Bohrs-Radians)
 Mixed Optimization -- En-DIIS/RFO-DIIS
 Second derivative matrix not updated -- first step.
     Eigenvalues ---    0.05018   0.05400   0.07208   0.07677   0.07684
     Eigenvalues ---    0.08041   0.08644   0.09310   0.09659   0.09697
     Eigenvalues ---    0.09895   0.09999   0.10652   0.10906   0.11645
     Eigenvalues ---    0.11978   0.12460   0.12496   0.13543   0.14052
     Eigenvalues ---    0.144041000.000001000.000001000.000001000.00000
     Eigenvalues --- 1000.000001000.000001000.000001000.000001000.00000
     Eigenvalues --- 1000.000001000.000001000.000001000.000001000.00000
     Eigenvalues --- 1000.000001000.000001000.000001000.000001000.00000
     Eigenvalues --- 1000.000001000.000001000.000001000.000001000.00000
     Eigenvalues --- 1000.000001000.000001000.000001000.000001000.00000
     Eigenvalues --- 1000.000001000.000001000.000001000.000001000.00000
     Eigenvalues --- 1000.000001000.000001000.000001000.000001000.00000
     Eigenvalues --- 1000.000001000.000001000.000001000.000001000.00000
     Eigenvalues --- 1000.000001000.000001000.000001000.000001000.00000
     Eigenvalues --- 1000.000001000.000001000.00000
 RFO step:  Lambda=-1.08016050D-04 EMin= 5.01800845D-02
 Linear search not attempted -- first point.
 Iteration  1 RMS(Cart)=  0.00234128 RMS(Int)=  0.00000166
 Iteration  2 RMS(Cart)=  0.00000058 RMS(Int)=  0.00000127
 ClnCor:  largest displacement from symmetrization is 6.16D-13 for atom     7.
 Variable       Old X    -DE/DX   Delta X   Delta X   Delta X     New X
                                 (Linear)    (Quad)   (Total)
    R1        4.64775  -0.00081   0.00000  -0.00778  -0.00778   4.63997
    R2        4.64841  -0.00083   0.00000  -0.00801  -0.00801   4.64040
    R3        4.86159  -0.00070   0.00000  -0.00829  -0.00829   4.85331
    R4        4.70615  -0.00021   0.00000  -0.00181  -0.00181   4.70435
    R5        5.06363  -0.00016   0.00000  -0.00273  -0.00273   5.06089
    R6        5.06446  -0.00016   0.00000  -0.00282  -0.00282   5.06165
    R7        4.64841  -0.00083   0.00000  -0.00801  -0.00801   4.64040
    R8        4.52094  -0.00070   0.00000  -0.00601  -0.00600   4.51493
    R9        4.64775  -0.00081   0.00000  -0.00778  -0.00778   4.63997
   R10        4.52094  -0.00070   0.00000  -0.00601  -0.00600   4.51493
   R11        5.06446  -0.00016   0.00000  -0.00282  -0.00282   5.06165
   R12        5.06363  -0.00016   0.00000  -0.00273  -0.00273   5.06089
   R13        4.70615  -0.00021   0.00000  -0.00181  -0.00181   4.70435
   R14        4.88756  -0.00054   0.00000  -0.00712  -0.00712   4.88044
   R15        4.88344  -0.00048   0.00000  -0.00629  -0.00629   4.87715
   R16        4.81404  -0.00124   0.00000  -0.01309  -0.01309   4.80096
   R17        5.49082   0.00027   0.00000  -0.00030  -0.00030   5.49051
   R18        4.88344  -0.00048   0.00000  -0.00629  -0.00629   4.87715
   R19        4.65657  -0.00082   0.00000  -0.00837  -0.00837   4.64819
   R20        4.88756  -0.00054   0.00000  -0.00712  -0.00712   4.88044
   R21        4.65657  -0.00082   0.00000  -0.00837  -0.00837   4.64819
   R22        4.81404  -0.00124   0.00000  -0.01309  -0.01309   4.80096
    A1        1.96051   0.00001   0.00000   0.00039   0.00039   1.96090
    A2        1.92618  -0.00009   0.00000  -0.00101  -0.00101   1.92517
    A3        1.90827   0.00002   0.00000   0.00028   0.00028   1.90855
    A4        1.92437  -0.00007   0.00000  -0.00070  -0.00070   1.92367
    A5        1.90833   0.00002   0.00000   0.00032   0.00032   1.90865
    A6        1.89340  -0.00007   0.00000  -0.00082  -0.00082   1.89258
    A7        1.89340  -0.00007   0.00000  -0.00082  -0.00082   1.89258
    A8        1.96051   0.00001   0.00000   0.00039   0.00039   1.96090
    A9        1.90833   0.00002   0.00000   0.00032   0.00032   1.90865
   A10        1.92437  -0.00007   0.00000  -0.00070  -0.00070   1.92367
   A11        1.90827   0.00002   0.00000   0.00028   0.00028   1.90855
   A12        1.92618  -0.00009   0.00000  -0.00101  -0.00101   1.92517
   A13        1.86648  -0.00003   0.00000   0.00000   0.00000   1.86648
   A14        1.79099  -0.00014   0.00000  -0.00113  -0.00113   1.78985
   A15        1.81064  -0.00017   0.00000  -0.00113  -0.00114   1.80950
   A16        1.90854  -0.00003   0.00000   0.00006   0.00006   1.90860
   A17        1.82011  -0.00014   0.00000  -0.00101  -0.00101   1.81910
   A18        1.90822  -0.00003   0.00000   0.00005   0.00005   1.90827
   A19        2.76037  -0.00031   0.00000  -0.00228  -0.00228   2.75808
   A20        1.78975  -0.00013   0.00000  -0.00090  -0.00090   1.78885
   A21        1.81041  -0.00017   0.00000  -0.00111  -0.00111   1.80930
   A22        1.86446  -0.00022   0.00000  -0.00206  -0.00206   1.86240
   A23        1.78975  -0.00013   0.00000  -0.00090  -0.00090   1.78885
   A24        1.81041  -0.00017   0.00000  -0.00111  -0.00111   1.80930
   A25        1.90822  -0.00003   0.00000   0.00005   0.00005   1.90827
   A26        1.82011  -0.00014   0.00000  -0.00101  -0.00101   1.81910
   A27        1.90854  -0.00003   0.00000   0.00006   0.00006   1.90860
   A28        2.76037  -0.00031   0.00000  -0.00228  -0.00228   2.75808
   A29        1.79099  -0.00014   0.00000  -0.00113  -0.00113   1.78985
   A30        1.81064  -0.00017   0.00000  -0.00113  -0.00114   1.80950
   A31        1.86446  -0.00022   0.00000  -0.00206  -0.00206   1.86240
   A32        1.86648  -0.00003   0.00000   0.00000   0.00000   1.86648
   A33        1.90501   0.00020   0.00000   0.00164   0.00164   1.90665
    D1       -0.00220   0.00002   0.00000   0.00039   0.00039  -0.00181
    D2       -1.08657   0.00004   0.00000   0.00012   0.00012  -1.08645
    D3        1.08945  -0.00007   0.00000  -0.00058  -0.00058   1.08887
    D4        0.00173  -0.00002   0.00000  -0.00031  -0.00031   0.00143
    D5       -0.01359  -0.00005   0.00000  -0.00046  -0.00046  -0.01405
    D6       -1.10206   0.00014   0.00000   0.00132   0.00132  -1.10074
    D7        0.01470   0.00005   0.00000   0.00031   0.00031   0.01501
    D8        1.10239  -0.00013   0.00000  -0.00131  -0.00131   1.10107
    D9        0.01470   0.00005   0.00000   0.00031   0.00031   0.01501
   D10        1.10239  -0.00013   0.00000  -0.00131  -0.00131   1.10107
   D11       -0.01359  -0.00005   0.00000  -0.00046  -0.00046  -0.01405
   D12       -1.10206   0.00014   0.00000   0.00132   0.00132  -1.10074
   D13        0.00173  -0.00002   0.00000  -0.00031  -0.00031   0.00143
   D14        1.08945  -0.00007   0.00000  -0.00058  -0.00058   1.08887
   D15       -1.08657   0.00004   0.00000   0.00012   0.00012  -1.08645
   D16       -0.00068   0.00001   0.00000   0.00012   0.00012  -0.00056
   D17       -0.00027  -0.00001   0.00000  -0.00004  -0.00004  -0.00032
   D18       -0.00068   0.00001   0.00000   0.00012   0.00012  -0.00056
         Item               Value     Threshold  Converged?
 Maximum Force            0.001242     0.000450     NO 
 RMS     Force            0.000381     0.000300     NO 
 Maximum Displacement     0.010510     0.001800     NO 
 RMS     Displacement     0.002342     0.001200     NO 
 Predicted change in Energy=-5.406320D-05
 GradGradGradGradGradGradGradGradGradGradGradGradGradGradGradGradGradGrad

                          Input orientation:                          
 ---------------------------------------------------------------------
 Center     Atomic      Atomic             Coordinates (Angstroms)
 Number     Number       Type             X           Y           Z
 ---------------------------------------------------------------------
      1         14           0        1.284027   -0.016284    1.257197
      2         14           0        0.026086    2.039723    1.725441
      3         14           0       -0.026086   -2.039723    1.725441
      4         14           0       -1.284027    0.016284    1.257197
      5         14           0        2.071238   -0.028405   -1.104461
      6         14           0        0.018839    1.452606   -0.590487
      7         14           0       -0.018839   -1.452606   -0.590487
      8         14           0       -2.071238    0.028405   -1.104461
      9         14           0        0.000000    0.000000   -2.575379
 ---------------------------------------------------------------------
                    Distance matrix (angstroms):
                    1          2          3          4          5
     1  Si   0.000000
     2  Si   2.455368   0.000000
     3  Si   2.455596   4.079780   0.000000
     4  Si   2.568260   2.455596   2.455368   0.000000
     5  Si   2.489433   4.058096   4.056170   4.103319   0.000000
     6  Si   2.678110   2.389200   4.190692   2.678509   2.582616
     7  Si   2.678509   4.190692   2.389200   2.678110   2.580879
     8  Si   4.103319   4.056170   4.058096   2.489433   4.142865
     9  Si   4.041983   4.760063   4.760063   4.041983   2.540557
                    6          7          8          9
     6  Si   0.000000
     7  Si   2.905455   0.000000
     8  Si   2.580879   2.582616   0.000000
     9  Si   2.459719   2.459719   2.540557   0.000000
 Stoichiometry    Si9(1+,2)
 Framework group  C2[C2(Si),X(Si8)]
 Deg. of freedom    11
 Full point group                 C2      NOp   2
 Largest Abelian subgroup         C2      NOp   2
 Largest concise Abelian subgroup C2      NOp   2
                         Standard orientation:                         
 ---------------------------------------------------------------------
 Center     Atomic      Atomic             Coordinates (Angstroms)
 Number     Number       Type             X           Y           Z
 ---------------------------------------------------------------------
      1         14           0        0.000000    1.284130   -1.257197
      2         14           0        2.039890    0.000218   -1.725441
      3         14           0       -2.039890   -0.000218   -1.725441
      4         14           0        0.000000   -1.284130   -1.257197
      5         14           0       -0.002137    2.071432    1.104461
      6         14           0        1.452728    0.000416    0.590487
      7         14           0       -1.452728   -0.000416    0.590487
      8         14           0        0.002137   -2.071432    1.104461
      9         14           0        0.000000    0.000000    2.575379
 ---------------------------------------------------------------------
 Rotational constants (GHZ):      0.7396428      0.5871738      0.5747750
 Standard basis: GTBas3 (6D, 7F)
 There are   146 symmetry adapted basis functions of A   symmetry.
 There are   142 symmetry adapted basis functions of B   symmetry.
 Integral buffers will be    131072 words long.
 Raffenetti 2 integral format.
 Two-electron integral symmetry is turned on.
   288 basis functions,   612 primitive gaussians,   315 cartesian basis functions
    63 alpha electrons       62 beta electrons
       nuclear repulsion energy      1244.4418504126 Hartrees.
 NAtoms=    9 NActive=    9 NUniq=    5 SFac= 2.43D+00 NAtFMM=   80 NAOKFM=F Big=F
 One-electron integrals computed using PRISM.
 NBasis=   288 RedAO= T  NBF=   146   142
 NBsUse=   288 1.00D-06 NBFU=   146   142
 Initial guess read from the read-write file.
 B after Tr=     0.000000    0.000000    0.000000
         Rot=    1.000000    0.000000    0.000000    0.000000 Ang=   0.00 deg.
 Initial guess orbital symmetries:
 Alpha Orbitals:
       Occupied  (A) (B) (B) (A) (A) (A) (B) (A) (B) (A) (A) (B)
                 (B) (A) (B) (A) (A) (B) (B) (A) (B) (B) (A) (A)
                 (B) (A) (B) (B) (A) (B) (A) (A) (B) (B) (A) (A)
                 (B) (A) (B) (A) (B) (A) (B) (A) (B) (A) (A) (B)
                 (B) (A) (B) (B) (A) (A) (A) (A) (B) (B) (A) (B)
                 (B) (A) (A)
       Virtual   (B) (B) (A) (B) (B) (A) (B) (A) (B) (A) (A) (B)
                 (A) (B) (A) (B) (A) (B) (A) (B) (A) (B) (B) (A)
                 (A) (A) (A) (B) (A) (A) (A) (B) (B) (B) (A) (B)
                 (A) (B) (B) (A) (A) (B) (B) (A) (B) (B) (A) (A)
                 (B) (A) (A) (B) (A) (B) (B) (B) (A) (B) (A) (B)
                 (B) (B) (B) (A) (A) (A) (A) (A) (B) (A) (A) (B)
                 (A) (B) (B) (A) (B) (A) (A) (B) (B) (B) (A) (A)
                 (A) (B) (B) (A) (A) (A) (B) (B) (A) (B) (B) (B)
                 (A) (B) (A) (B) (B) (A) (A) (B) (A) (A) (B) (B)
                 (B) (A) (A) (B) (A) (B) (B) (A) (A) (B) (B) (A)
                 (B) (A) (B) (A) (A) (A) (A) (B) (B) (A) (B) (A)
                 (A) (B) (B) (A) (A) (B) (A) (B) (B) (A) (B) (A)
                 (A) (A) (B) (B) (A) (B) (A) (A) (B) (A) (B) (A)
                 (B) (B) (A) (B) (A) (B) (B) (A) (B) (A) (B) (B)
                 (B) (A) (A) (A) (A) (A) (B) (B) (A) (A) (B) (B)
                 (A) (B) (B) (A) (B) (B) (A) (A) (B) (B) (A) (A)
                 (B) (A) (B) (B) (B) (A) (A) (A) (A) (B) (A) (B)
                 (B) (A) (B) (A) (A) (B) (B) (B) (A) (A) (B) (A)
                 (A) (A) (B) (B) (A) (B) (B) (A) (A)
 Beta  Orbitals:
       Occupied  (A) (B) (A) (B) (A) (A) (B) (A) (B) (A) (A) (B)
                 (B) (A) (B) (A) (A) (B) (B) (A) (B) (A) (B) (A)
                 (B) (B) (A) (B) (A) (A) (B) (B) (B) (A) (A) (A)
                 (B) (A) (B) (A) (B) (A) (B) (A) (B) (A) (A) (B)
                 (B) (A) (B) (B) (A) (A) (A) (A) (B) (B) (A) (B)
                 (A) (B)
       Virtual   (A) (B) (B) (A) (B) (B) (A) (A) (B) (B) (A) (B)
                 (A) (A) (B) (A) (B) (A) (B) (A) (B) (A) (B) (B)
                 (A) (A) (A) (A) (A) (B) (A) (A) (B) (B) (B) (A)
                 (B) (A) (B) (B) (A) (A) (B) (A) (B) (B) (A) (B)
                 (A) (B) (A) (A) (B) (A) (B) (B) (B) (A) (B) (A)
                 (B) (B) (B) (B) (A) (A) (A) (A) (A) (B) (A) (A)
                 (B) (A) (B) (B) (A) (B) (A) (A) (B) (B) (B) (A)
                 (A) (A) (B) (B) (A) (A) (B) (A) (B) (A) (B) (B)
                 (B) (A) (B) (A) (B) (B) (A) (A) (B) (A) (A) (B)
                 (B) (B) (A) (A) (B) (A) (B) (B) (A) (A) (B) (A)
                 (B) (B) (A) (B) (A) (A) (A) (A) (B) (B) (A) (B)
                 (A) (A) (B) (B) (A) (A) (B) (A) (B) (B) (A) (B)
                 (A) (A) (A) (B) (B) (A) (B) (A) (A) (B) (A) (B)
                 (A) (B) (B) (B) (A) (A) (B) (B) (A) (B) (A) (B)
                 (B) (B) (A) (A) (A) (A) (A) (B) (B) (A) (A) (B)
                 (A) (B) (B) (B) (A) (B) (B) (A) (A) (B) (B) (A)
                 (A) (B) (A) (B) (B) (B) (A) (A) (A) (A) (B) (A)
                 (B) (B) (A) (B) (A) (A) (B) (B) (B) (A) (A) (B)
                 (A) (A) (A) (B) (B) (A) (B) (B) (A) (A)
 Initial guess <Sx>= 0.0000 <Sy>= 0.0000 <Sz>= 0.5000 <S**2>= 0.7595 S= 0.5047
 Requested convergence on RMS density matrix=1.00D-08 within 128 cycles.
 Requested convergence on MAX density matrix=1.00D-06.
 Requested convergence on             energy=1.00D-06.
 No special actions if energy rises.
 Keep R1 and R2 ints in memory in canonical form, NReq=2493273356.
 SCF Done:  E(UB3LYP) =  -2605.15087356     A.U. after   13 cycles
             Convg  =    0.4003D-08             -V/T =  2.0035
 <Sx>= 0.0000 <Sy>= 0.0000 <Sz>= 0.5000 <S**2>= 0.7594 S= 0.5047
 <L.S>= 0.000000000000E+00
 Annihilation of the first spin contaminant:
 S**2 before annihilation     0.7594,   after     0.7501
 QCSCF skips out because SCF is already converged.
 Calling FoFJK, ICntrl=      2127 FMM=F ISym2X=1 I1Cent= 0 IOpClX= 1 NMat=1 NMatS=1 NMatT=0.
 ***** Axes restored to original set *****
 -------------------------------------------------------------------
 Center     Atomic                   Forces (Hartrees/Bohr)
 Number     Number              X              Y              Z
 -------------------------------------------------------------------
      1       14          -0.001047042   -0.000026232    0.000018568
      2       14          -0.000018626   -0.000911449   -0.000440278
      3       14           0.000018626    0.000911449   -0.000440278
      4       14           0.001047042    0.000026232    0.000018568
      5       14          -0.001076270    0.000061868   -0.000385582
      6       14           0.000042873    0.000062848   -0.000099808
      7       14          -0.000042873   -0.000062848   -0.000099808
      8       14           0.001076270   -0.000061868   -0.000385582
      9       14           0.000000000    0.000000000    0.001814200
 -------------------------------------------------------------------
 Cartesian Forces:  Max     0.001814200 RMS     0.000614307

 GradGradGradGradGradGradGradGradGradGradGradGradGradGradGradGradGradGrad
 Berny optimization.
 Using GEDIIS/GDIIS optimizer.
 Internal  Forces:  Max     0.000782768 RMS     0.000220197
 Search for a local minimum.
 Step number   2 out of a maximum of   83
 All quantities printed in internal units (Hartrees-Bohrs-Radians)
 Mixed Optimization -- En-DIIS/RFO-DIIS
 Swaping is turned off.
 Update second derivatives using D2CorX and points    1    2
 DE= -8.45D-05 DEPred=-5.41D-05 R= 1.56D+00
 SS=  1.41D+00  RLast= 3.37D-02 DXNew= 5.0454D-01 1.0117D-01
 Trust test= 1.56D+00 RLast= 3.37D-02 DXMaxT set to 3.00D-01
     Eigenvalues ---    0.03977   0.05009   0.05403   0.07390   0.07680
     Eigenvalues ---    0.07680   0.08645   0.08673   0.09481   0.09658
     Eigenvalues ---    0.09696   0.09997   0.10651   0.10691   0.11558
     Eigenvalues ---    0.11991   0.12420   0.12500   0.13546   0.14060
     Eigenvalues ---    0.143371000.000001000.000001000.000001000.00000
     Eigenvalues --- 1000.000001000.000001000.000001000.000001000.00000
     Eigenvalues --- 1000.000001000.000001000.000001000.000001000.00000
     Eigenvalues --- 1000.000001000.000001000.000001000.000001000.00000
     Eigenvalues --- 1000.000001000.000001000.000001000.000001000.00000
     Eigenvalues --- 1000.000001000.000001000.000001000.000001000.00000
     Eigenvalues --- 1000.000001000.000001000.000001000.000001000.00000
     Eigenvalues --- 1000.000001000.000001000.000001000.000001000.00000
     Eigenvalues --- 1000.000001000.000001000.000001000.000001000.00000
     Eigenvalues --- 1000.000001000.000001000.000001000.000001000.00000
     Eigenvalues --- 1000.000001000.000001000.00000
 En-DIIS/RFO-DIIS IScMMF=        0 using points:     2    1
 RFO step:  Lambda=-1.72301580D-05.
 DIIS coeffs:      2.29457     -1.29457
 Iteration  1 RMS(Cart)=  0.00318958 RMS(Int)=  0.00000552
 Iteration  2 RMS(Cart)=  0.00000203 RMS(Int)=  0.00000442
 Iteration  3 RMS(Cart)=  0.00000000 RMS(Int)=  0.00000442
 ClnCor:  largest displacement from symmetrization is 2.92D-12 for atom     7.
 Variable       Old X    -DE/DX   Delta X   Delta X   Delta X     New X
                                  (DIIS)     (GDIIS)  (Total)
    R1        4.63997  -0.00046  -0.01007  -0.00038  -0.01045   4.62952
    R2        4.64040  -0.00047  -0.01037  -0.00046  -0.01082   4.62958
    R3        4.85331  -0.00046  -0.01073  -0.00146  -0.01218   4.84113
    R4        4.70435  -0.00002  -0.00234   0.00241   0.00007   4.70441
    R5        5.06089  -0.00007  -0.00354   0.00056  -0.00298   5.05792
    R6        5.06165  -0.00007  -0.00365   0.00051  -0.00314   5.05851
    R7        4.64040  -0.00047  -0.01037  -0.00046  -0.01082   4.62958
    R8        4.51493  -0.00029  -0.00777   0.00146  -0.00631   4.50863
    R9        4.63997  -0.00046  -0.01007  -0.00038  -0.01045   4.62952
   R10        4.51493  -0.00029  -0.00777   0.00146  -0.00631   4.50863
   R11        5.06165  -0.00007  -0.00365   0.00051  -0.00314   5.05851
   R12        5.06089  -0.00007  -0.00354   0.00056  -0.00298   5.05792
   R13        4.70435  -0.00002  -0.00234   0.00241   0.00007   4.70441
   R14        4.88044  -0.00026  -0.00922   0.00057  -0.00866   4.87178
   R15        4.87715  -0.00022  -0.00814   0.00105  -0.00709   4.87006
   R16        4.80096  -0.00078  -0.01694  -0.00253  -0.01947   4.78149
   R17        5.49051   0.00028  -0.00039   0.00328   0.00288   5.49339
   R18        4.87715  -0.00022  -0.00814   0.00105  -0.00709   4.87006
   R19        4.64819  -0.00045  -0.01084   0.00041  -0.01043   4.63777
   R20        4.88044  -0.00026  -0.00922   0.00057  -0.00866   4.87178
   R21        4.64819  -0.00045  -0.01084   0.00041  -0.01043   4.63777
   R22        4.80096  -0.00078  -0.01694  -0.00253  -0.01947   4.78149
    A1        1.96090   0.00000   0.00051  -0.00013   0.00038   1.96128
    A2        1.92517  -0.00003  -0.00131   0.00025  -0.00106   1.92410
    A3        1.90855   0.00005   0.00036   0.00070   0.00106   1.90961
    A4        1.92367  -0.00002  -0.00090   0.00044  -0.00047   1.92320
    A5        1.90865   0.00005   0.00042   0.00070   0.00112   1.90977
    A6        1.89258  -0.00004  -0.00106  -0.00018  -0.00125   1.89133
    A7        1.89258  -0.00004  -0.00106  -0.00018  -0.00125   1.89133
    A8        1.96090   0.00000   0.00051  -0.00013   0.00038   1.96128
    A9        1.90865   0.00005   0.00042   0.00070   0.00112   1.90977
   A10        1.92367  -0.00002  -0.00090   0.00044  -0.00047   1.92320
   A11        1.90855   0.00005   0.00036   0.00070   0.00106   1.90961
   A12        1.92517  -0.00003  -0.00131   0.00025  -0.00106   1.92410
   A13        1.86648  -0.00004   0.00000  -0.00028  -0.00028   1.86620
   A14        1.78985  -0.00009  -0.00147  -0.00033  -0.00179   1.78806
   A15        1.80950  -0.00012  -0.00147  -0.00056  -0.00204   1.80747
   A16        1.90860  -0.00001   0.00008   0.00026   0.00034   1.90894
   A17        1.81910  -0.00011  -0.00131  -0.00058  -0.00188   1.81721
   A18        1.90827  -0.00001   0.00006   0.00028   0.00033   1.90860
   A19        2.75808  -0.00021  -0.00296  -0.00095  -0.00392   2.75417
   A20        1.78885  -0.00008  -0.00117  -0.00019  -0.00136   1.78748
   A21        1.80930  -0.00012  -0.00144  -0.00054  -0.00199   1.80731
   A22        1.86240  -0.00016  -0.00267  -0.00098  -0.00366   1.85874
   A23        1.78885  -0.00008  -0.00117  -0.00019  -0.00136   1.78748
   A24        1.80930  -0.00012  -0.00144  -0.00054  -0.00199   1.80731
   A25        1.90827  -0.00001   0.00006   0.00028   0.00033   1.90860
   A26        1.81910  -0.00011  -0.00131  -0.00058  -0.00188   1.81721
   A27        1.90860  -0.00001   0.00008   0.00026   0.00034   1.90894
   A28        2.75808  -0.00021  -0.00296  -0.00095  -0.00392   2.75417
   A29        1.78985  -0.00009  -0.00147  -0.00033  -0.00179   1.78806
   A30        1.80950  -0.00012  -0.00147  -0.00056  -0.00204   1.80747
   A31        1.86240  -0.00016  -0.00267  -0.00098  -0.00366   1.85874
   A32        1.86648  -0.00004   0.00000  -0.00028  -0.00028   1.86620
   A33        1.90665   0.00016   0.00212   0.00092   0.00306   1.90971
    D1       -0.00181   0.00002   0.00051   0.00023   0.00073  -0.00108
    D2       -1.08645   0.00001   0.00015  -0.00031  -0.00016  -1.08661
    D3        1.08887  -0.00003  -0.00076   0.00001  -0.00075   1.08812
    D4        0.00143  -0.00001  -0.00040  -0.00018  -0.00058   0.00085
    D5       -0.01405  -0.00007  -0.00059  -0.00105  -0.00165  -0.01569
    D6       -1.10074   0.00007   0.00171  -0.00010   0.00161  -1.09914
    D7        0.01501   0.00007   0.00040   0.00095   0.00135   0.01636
    D8        1.10107  -0.00007  -0.00170   0.00009  -0.00162   1.09946
    D9        0.01501   0.00007   0.00040   0.00095   0.00135   0.01636
   D10        1.10107  -0.00007  -0.00170   0.00009  -0.00162   1.09946
   D11       -0.01405  -0.00007  -0.00059  -0.00105  -0.00165  -0.01569
   D12       -1.10074   0.00007   0.00171  -0.00010   0.00161  -1.09914
   D13        0.00143  -0.00001  -0.00040  -0.00018  -0.00058   0.00085
   D14        1.08887  -0.00003  -0.00076   0.00001  -0.00075   1.08812
   D15       -1.08645   0.00001   0.00015  -0.00031  -0.00016  -1.08661
   D16       -0.00056   0.00001   0.00015   0.00007   0.00023  -0.00033
   D17       -0.00032  -0.00001  -0.00006   0.00000  -0.00005  -0.00037
   D18       -0.00056   0.00001   0.00015   0.00007   0.00023  -0.00033
         Item               Value     Threshold  Converged?
 Maximum Force            0.000783     0.000450     NO 
 RMS     Force            0.000220     0.000300     YES
 Maximum Displacement     0.014348     0.001800     NO 
 RMS     Displacement     0.003190     0.001200     NO 
 Predicted change in Energy=-4.236128D-05
 GradGradGradGradGradGradGradGradGradGradGradGradGradGradGradGradGradGrad

                          Input orientation:                          
 ---------------------------------------------------------------------
 Center     Atomic      Atomic             Coordinates (Angstroms)
 Number     Number       Type             X           Y           Z
 ---------------------------------------------------------------------
      1         14           0        1.280801   -0.016485    1.256681
      2         14           0        0.026225    2.035302    1.723500
      3         14           0       -0.026225   -2.035302    1.723500
      4         14           0       -1.280801    0.016485    1.256681
      5         14           0        2.065084   -0.027850   -1.105993
      6         14           0        0.019033    1.453364   -0.590294
      7         14           0       -0.019033   -1.453364   -0.590294
      8         14           0       -2.065084    0.027850   -1.105993
      9         14           0        0.000000    0.000000   -2.567786
 ---------------------------------------------------------------------
                    Distance matrix (angstroms):
                    1          2          3          4          5
     1  Si   0.000000
     2  Si   2.449839   0.000000
     3  Si   2.449869   4.070942   0.000000
     4  Si   2.561815   2.449869   2.449839   0.000000
     5  Si   2.489469   4.052107   4.050860   4.096235   0.000000
     6  Si   2.676534   2.385864   4.186464   2.676846   2.578035
     7  Si   2.676846   4.186464   2.385864   2.676534   2.577126
     8  Si   4.096235   4.050860   4.052107   2.489469   4.130544
     9  Si   4.033271   4.749556   4.749556   4.033271   2.530255
                    6          7          8          9
     6  Si   0.000000
     7  Si   2.906978   0.000000
     8  Si   2.577126   2.578035   0.000000
     9  Si   2.454202   2.454202   2.530255   0.000000
 Stoichiometry    Si9(1+,2)
 Framework group  C2[C2(Si),X(Si8)]
 Deg. of freedom    11
 Full point group                 C2      NOp   2
 Largest Abelian subgroup         C2      NOp   2
 Largest concise Abelian subgroup C2      NOp   2
                         Standard orientation:                         
 ---------------------------------------------------------------------
 Center     Atomic      Atomic             Coordinates (Angstroms)
 Number     Number       Type             X           Y           Z
 ---------------------------------------------------------------------
      1         14           0        0.000000    1.280907   -1.256681
      2         14           0        2.035471    0.000029   -1.723500
      3         14           0       -2.035471   -0.000029   -1.723500
      4         14           0        0.000000   -1.280907   -1.256681
      5         14           0       -0.001271    2.065272    1.105993
      6         14           0        1.453489    0.000327    0.590294
      7         14           0       -1.453489   -0.000327    0.590294
      8         14           0        0.001271   -2.065272    1.105993
      9         14           0        0.000000    0.000000    2.567786
 ---------------------------------------------------------------------
 Rotational constants (GHZ):      0.7426561      0.5893995      0.5762484
 Standard basis: GTBas3 (6D, 7F)
 There are   146 symmetry adapted basis functions of A   symmetry.
 There are   142 symmetry adapted basis functions of B   symmetry.
 Integral buffers will be    131072 words long.
 Raffenetti 2 integral format.
 Two-electron integral symmetry is turned on.
   288 basis functions,   612 primitive gaussians,   315 cartesian basis functions
    63 alpha electrons       62 beta electrons
       nuclear repulsion energy      1246.5257893331 Hartrees.
 NAtoms=    9 NActive=    9 NUniq=    5 SFac= 2.43D+00 NAtFMM=   80 NAOKFM=F Big=F
 One-electron integrals computed using PRISM.
 NBasis=   288 RedAO= T  NBF=   146   142
 NBsUse=   288 1.00D-06 NBFU=   146   142
 Initial guess read from the read-write file.
 B after Tr=     0.000000    0.000000    0.000000
         Rot=    1.000000    0.000000    0.000000    0.000000 Ang=   0.00 deg.
 Initial guess orbital symmetries:
 Alpha Orbitals:
       Occupied  (A) (B) (A) (B) (A) (A) (B) (A) (B) (A) (A) (B)
                 (B) (A) (B) (A) (A) (B) (B) (A) (B) (B) (A) (A)
                 (B) (A) (B) (B) (A) (B) (A) (A) (B) (A) (B) (A)
                 (B) (A) (B) (A) (B) (A) (B) (A) (B) (A) (A) (B)
                 (B) (A) (B) (B) (A) (A) (A) (A) (B) (B) (A) (B)
                 (B) (A) (A)
       Virtual   (B) (B) (A) (B) (B) (A) (B) (A) (B) (A) (A) (B)
                 (A) (B) (A) (B) (A) (B) (A) (B) (A) (B) (B) (A)
                 (A) (A) (A) (B) (A) (A) (A) (B) (B) (B) (A) (B)
                 (A) (B) (B) (A) (A) (B) (B) (A) (B) (B) (A) (A)
                 (B) (A) (A) (B) (A) (B) (B) (B) (A) (B) (A) (B)
                 (B) (B) (B) (A) (A) (A) (A) (A) (B) (A) (A) (B)
                 (A) (B) (B) (A) (B) (A) (A) (B) (B) (B) (A) (A)
                 (A) (B) (B) (A) (A) (A) (B) (B) (A) (B) (B) (B)
                 (A) (B) (A) (B) (B) (A) (A) (B) (A) (A) (B) (B)
                 (B) (A) (A) (B) (A) (B) (B) (A) (A) (B) (A) (B)
                 (B) (A) (B) (A) (A) (A) (A) (B) (B) (A) (B) (A)
                 (A) (B) (B) (A) (A) (B) (A) (B) (B) (A) (B) (A)
                 (A) (A) (B) (B) (A) (B) (A) (A) (B) (A) (B) (A)
                 (B) (B) (A) (B) (A) (B) (B) (A) (B) (A) (B) (B)
                 (B) (A) (A) (A) (A) (A) (B) (B) (A) (A) (B) (A)
                 (B) (B) (B) (A) (B) (B) (A) (A) (B) (B) (A) (A)
                 (B) (A) (B) (B) (B) (A) (A) (A) (A) (B) (A) (B)
                 (B) (A) (B) (A) (A) (B) (B) (B) (A) (A) (B) (A)
                 (A) (A) (B) (B) (A) (B) (B) (A) (A)
 Beta  Orbitals:
       Occupied  (A) (B) (A) (B) (A) (A) (B) (A) (B) (A) (A) (B)
                 (B) (A) (B) (A) (A) (B) (B) (A) (B) (A) (B) (A)
                 (B) (B) (A) (B) (A) (A) (B) (B) (A) (B) (A) (A)
                 (B) (A) (B) (A) (B) (A) (B) (A) (B) (A) (A) (B)
                 (B) (A) (B) (B) (A) (A) (A) (A) (B) (B) (A) (B)
                 (A) (B)
       Virtual   (A) (B) (B) (A) (B) (B) (A) (A) (B) (B) (A) (B)
                 (A) (A) (B) (A) (B) (A) (B) (A) (B) (A) (B) (B)
                 (A) (A) (A) (A) (A) (B) (A) (A) (B) (B) (B) (A)
                 (B) (A) (B) (B) (A) (A) (B) (A) (B) (B) (A) (B)
                 (A) (B) (A) (A) (B) (A) (B) (B) (B) (A) (B) (A)
                 (B) (B) (B) (B) (A) (A) (A) (A) (A) (B) (A) (A)
                 (B) (A) (B) (B) (A) (B) (A) (A) (B) (B) (B) (A)
                 (A) (A) (B) (B) (A) (A) (B) (A) (A) (B) (B) (B)
                 (B) (A) (B) (A) (B) (B) (A) (A) (B) (A) (A) (B)
                 (B) (B) (A) (A) (B) (A) (B) (B) (A) (A) (B) (A)
                 (B) (B) (A) (B) (A) (A) (A) (A) (B) (B) (A) (B)
                 (A) (A) (B) (B) (A) (A) (B) (A) (B) (B) (A) (B)
                 (A) (A) (A) (B) (B) (A) (B) (A) (A) (B) (A) (B)
                 (A) (B) (B) (B) (A) (A) (B) (B) (A) (B) (A) (B)
                 (B) (B) (A) (A) (A) (A) (A) (B) (B) (A) (A) (B)
                 (A) (B) (B) (B) (A) (B) (B) (A) (A) (B) (B) (A)
                 (A) (B) (A) (B) (B) (B) (A) (A) (A) (A) (B) (A)
                 (B) (B) (A) (B) (A) (A) (B) (B) (B) (A) (A) (B)
                 (A) (A) (A) (B) (B) (A) (B) (B) (A) (A)
 Initial guess <Sx>= 0.0000 <Sy>= 0.0000 <Sz>= 0.5000 <S**2>= 0.7594 S= 0.5047
 Requested convergence on RMS density matrix=1.00D-08 within 128 cycles.
 Requested convergence on MAX density matrix=1.00D-06.
 Requested convergence on             energy=1.00D-06.
 No special actions if energy rises.
 Keep R1 and R2 ints in memory in canonical form, NReq=2493273356.
 EnCoef did     7 forward-backward iterations
 SCF Done:  E(UB3LYP) =  -2605.15091743     A.U. after   13 cycles
             Convg  =    0.4791D-08             -V/T =  2.0035
 <Sx>= 0.0000 <Sy>= 0.0000 <Sz>= 0.5000 <S**2>= 0.7593 S= 0.5047
 <L.S>= 0.000000000000E+00
 Annihilation of the first spin contaminant:
 S**2 before annihilation     0.7593,   after     0.7501
 QCSCF skips out because SCF is already converged.
 Calling FoFJK, ICntrl=      2127 FMM=F ISym2X=1 I1Cent= 0 IOpClX= 1 NMat=1 NMatS=1 NMatT=0.
 ***** Axes restored to original set *****
 -------------------------------------------------------------------
 Center     Atomic                   Forces (Hartrees/Bohr)
 Number     Number              X              Y              Z
 -------------------------------------------------------------------
      1       14          -0.000142560   -0.000015160    0.000061966
      2       14           0.000000641   -0.000020961    0.000214057
      3       14          -0.000000641    0.000020961    0.000214057
      4       14           0.000142560    0.000015160    0.000061966
      5       14           0.000155768    0.000023337   -0.000294975
      6       14           0.000027061    0.000552843   -0.000070689
      7       14          -0.000027061   -0.000552843   -0.000070689
      8       14          -0.000155768   -0.000023337   -0.000294975
      9       14           0.000000000    0.000000000    0.000179281
 -------------------------------------------------------------------
 Cartesian Forces:  Max     0.000552843 RMS     0.000194347

 GradGradGradGradGradGradGradGradGradGradGradGradGradGradGradGradGradGrad
 Berny optimization.
 Using GEDIIS/GDIIS optimizer.
 Internal  Forces:  Max     0.000268217 RMS     0.000069637
 Search for a local minimum.
 Step number   3 out of a maximum of   83
 All quantities printed in internal units (Hartrees-Bohrs-Radians)
 Mixed Optimization -- En-DIIS/RFO-DIIS
 Swaping is turned off.
 Update second derivatives using D2CorX and points    1    2    3
 DE= -4.39D-05 DEPred=-4.24D-05 R= 1.04D+00
 SS=  1.41D+00  RLast= 4.57D-02 DXNew= 5.0454D-01 1.3701D-01
 Trust test= 1.04D+00 RLast= 4.57D-02 DXMaxT set to 3.00D-01
     Eigenvalues ---    0.03773   0.04995   0.05402   0.07370   0.07675
     Eigenvalues ---    0.07682   0.08646   0.08729   0.09504   0.09656
     Eigenvalues ---    0.09694   0.09996   0.10646   0.10737   0.11921
     Eigenvalues ---    0.12008   0.12443   0.12503   0.13548   0.14070
     Eigenvalues ---    0.144251000.000001000.000001000.000001000.00000
     Eigenvalues --- 1000.000001000.000001000.000001000.000001000.00000
     Eigenvalues --- 1000.000001000.000001000.000001000.000001000.00000
     Eigenvalues --- 1000.000001000.000001000.000001000.000001000.00000
     Eigenvalues --- 1000.000001000.000001000.000001000.000001000.00000
     Eigenvalues --- 1000.000001000.000001000.000001000.000001000.00000
     Eigenvalues --- 1000.000001000.000001000.000001000.000001000.00000
     Eigenvalues --- 1000.000001000.000001000.000001000.000001000.00000
     Eigenvalues --- 1000.000001000.000001000.000001000.000001000.00000
     Eigenvalues --- 1000.000001000.000001000.000001000.000001000.00000
     Eigenvalues --- 1000.000001000.000001000.00000
 En-DIIS/RFO-DIIS IScMMF=        0 using points:     3    2    1
 RFO step:  Lambda=-1.10255374D-06.
 DIIS coeffs:      2.82952     -4.25033      2.42081
 Iteration  1 RMS(Cart)=  0.00131520 RMS(Int)=  0.00000718
[...]
  Beta virt. eigenvalues --    4.67670   4.68359   4.70366   4.70635   4.71670
  Beta virt. eigenvalues --    4.72216   4.72847   4.75144   4.76922   4.77507
  Beta virt. eigenvalues --    4.77653   4.77942   4.78420   4.79414   4.79436
  Beta virt. eigenvalues --    4.82049   4.83359   4.83446   4.84738   4.85730
  Beta virt. eigenvalues --    4.86496   4.89008   4.89753   4.90830   4.94159
  Beta virt. eigenvalues --    4.97216   4.97468   5.00408   5.03070   5.03461
  Beta virt. eigenvalues --    5.04536   5.04826   5.04953   5.06843   5.09047
  Beta virt. eigenvalues --    5.09502   5.10497   5.10756   5.10829   5.12691
  Beta virt. eigenvalues --    5.13245   5.17437   5.19524   5.20552   5.22222
  Beta virt. eigenvalues --    5.23435   5.25793   5.28372   5.31553   5.33245
  Beta virt. eigenvalues --    5.34963   5.35696   5.36969   5.37764   5.39240
  Beta virt. eigenvalues --    5.40613   5.45260   5.49199   5.53358   5.67721
  Beta virt. eigenvalues --    5.68107   5.69901   5.76956   6.21257   6.41864
  Beta virt. eigenvalues --    6.43184   6.49029   6.51738   6.52663   6.56494
  Beta virt. eigenvalues --    6.63712   6.64002   6.65441   6.66141   6.68579
  Beta virt. eigenvalues --    6.72274   6.73417   6.75673   6.76726   6.80194
  Beta virt. eigenvalues --    6.80558   6.82201   6.86710   6.86952   6.87461
  Beta virt. eigenvalues --    6.89062   6.90563   6.90703   6.95408   6.97127
  Beta virt. eigenvalues --    6.98240   7.05277   7.07389   7.11114   7.13321
  Beta virt. eigenvalues --    7.13696   7.17081   7.19337   7.20186   7.22473
  Beta virt. eigenvalues --    7.27937   7.34952   7.36501   7.39553   7.44162
  Beta virt. eigenvalues --    7.49152   7.58772   7.60924  13.76078  13.80539
  Beta virt. eigenvalues --   13.87656  13.88227  13.88308  13.94717  13.95397
  Beta virt. eigenvalues --   13.96789  14.04143  14.07155  14.11063  14.14206
  Beta virt. eigenvalues --   14.18606  14.20897  14.22377  14.26387  14.26889
  Beta virt. eigenvalues --   14.30482  14.33729  14.35593  14.43213  14.45630
  Beta virt. eigenvalues --   14.55682  14.57588  14.60009  14.89651  14.91027
  Beta virt. eigenvalues --   40.99361  41.11676  41.22658  41.24908  42.34368
  Beta virt. eigenvalues --   43.09790  44.59476  45.22920  45.58174
          Condensed to atoms (all electrons):
              1          2          3          4          5          6
     1  Si  12.778456   0.273905   0.273894   0.108061   0.273883   0.088887
     2  Si   0.273905  13.153239  -0.016377   0.273894  -0.007909   0.284545
     3  Si   0.273894  -0.016377  13.153239   0.273905  -0.007905  -0.003985
     4  Si   0.108061   0.273894   0.273905  12.778456  -0.010305   0.088937
     5  Si   0.273883  -0.007909  -0.007905  -0.010305  13.178733   0.173187
     6  Si   0.088887   0.284545  -0.003985   0.088937   0.173187  12.778990
     7  Si   0.088937  -0.003985   0.284545   0.088887   0.173054   0.020653
     8  Si  -0.010305  -0.007905  -0.007909   0.273883   0.004439   0.173054
     9  Si  -0.004026  -0.003387  -0.003387  -0.004026   0.170886   0.208468
              7          8          9
     1  Si   0.088937  -0.010305  -0.004026
     2  Si  -0.003985  -0.007905  -0.003387
     3  Si   0.284545  -0.007909  -0.003387
     4  Si   0.088887   0.273883  -0.004026
     5  Si   0.173054   0.004439   0.170886
     6  Si   0.020653   0.173054   0.208468
     7  Si  12.778990   0.173187   0.208468
     8  Si   0.173187  13.178733   0.170886
     9  Si   0.208468   0.170886  13.099094
 Mulliken atomic charges:
              1
     1  Si   0.128307
     2  Si   0.053979
     3  Si   0.053979
     4  Si   0.128307
     5  Si   0.051937
     6  Si   0.187265
     7  Si   0.187265
     8  Si   0.051937
     9  Si   0.157024
 Sum of Mulliken atomic charges =   1.00000
 Mulliken charges with hydrogens summed into heavy atoms:
              1
     1  Si   0.128307
     2  Si   0.053979
     3  Si   0.053979
     4  Si   0.128307
     5  Si   0.051937
     6  Si   0.187265
     7  Si   0.187265
     8  Si   0.051937
     9  Si   0.157024
 Sum of Mulliken charges with hydrogens summed into heavy atoms =   1.00000
          Atomic-Atomic Spin Densities.
              1          2          3          4          5          6
     1  Si  -0.052992   0.045704   0.045661  -0.013011   0.005632  -0.024661
     2  Si   0.045704   0.234585   0.001251   0.045661  -0.004988  -0.022026
     3  Si   0.045661   0.001251   0.234585   0.045704  -0.004987   0.002424
     4  Si  -0.013011   0.045661   0.045704  -0.052992   0.003266  -0.024669
     5  Si   0.005632  -0.004988  -0.004987   0.003266   0.185852   0.037969
     6  Si  -0.024661  -0.022026   0.002424  -0.024669   0.037969   0.102469
     7  Si  -0.024669   0.002424  -0.022026  -0.024661   0.037904   0.002888
     8  Si   0.003266  -0.004987  -0.004988   0.005632   0.000453   0.037904
     9  Si   0.004197   0.000912   0.000912   0.004197  -0.017046  -0.020145
              7          8          9
     1  Si  -0.024669   0.003266   0.004197
     2  Si   0.002424  -0.004987   0.000912
     3  Si  -0.022026  -0.004988   0.000912
     4  Si  -0.024661   0.005632   0.004197
     5  Si   0.037904   0.000453  -0.017046
     6  Si   0.002888   0.037904  -0.020145
     7  Si   0.102469   0.037969  -0.020145
     8  Si   0.037969   0.185852  -0.017046
     9  Si  -0.020145  -0.017046  -0.183578
 Mulliken atomic spin densities:
              1
     1  Si  -0.010873
     2  Si   0.298537
     3  Si   0.298537
     4  Si  -0.010873
     5  Si   0.244055
     6  Si   0.092154
     7  Si   0.092154
     8  Si   0.244055
     9  Si  -0.247743
 Sum of Mulliken atomic spin densities =   1.00000
 Electronic spatial extent (au):  <R**2>=           2386.1272
 Charge=              1.0000 electrons
 Dipole moment (field-independent basis, Debye):
    X=              0.0000    Y=              0.0000    Z=              0.2452  Tot=              0.2452
 Quadrupole moment (field-independent basis, Debye-Ang):
   XX=           -104.7164   YY=           -102.3451   ZZ=            -98.3611
   XY=             -0.0001   XZ=              0.0000   YZ=              0.0000
 Traceless Quadrupole moment (field-independent basis, Debye-Ang):
   XX=             -2.9089   YY=             -0.5376   ZZ=              3.4465
   XY=             -0.0001   XZ=              0.0000   YZ=              0.0000
 Octapole moment (field-independent basis, Debye-Ang**2):
  XXX=              0.0000  YYY=              0.0000  ZZZ=              0.1295  XYY=              0.0000
  XXY=              0.0000  XXZ=             -3.5581  XZZ=              0.0000  YZZ=              0.0000
  YYZ=             -0.1516  XYZ=             -0.0014
 Hexadecapole moment (field-independent basis, Debye-Ang**3):
 XXXX=          -1084.3070 YYYY=          -1122.6998 ZZZZ=          -1538.0749 XXXY=              0.0544
 XXXZ=              0.0000 YYYX=              0.0564 YYYZ=              0.0000 ZZZX=              0.0000
 ZZZY=              0.0000 XXYY=           -352.8617 XXZZ=           -445.9535 YYZZ=           -429.8905
 XXYZ=              0.0000 YYXZ=              0.0000 ZZXY=              0.0216
 N-N= 1.246034473441D+03 E-N=-1.300179417579D+04  KE= 3.899638377762D+03
 Symmetry A    KE= 2.092030686406D+03
 Symmetry B    KE= 1.807607691356D+03
                          Isotropic Fermi Contact Couplings
        Atom                 a.u.       MegaHertz       Gauss      10(-4) cm-1
     1  Si(29)            -0.25946     230.59277      82.28123      76.91747
     2  Si(29)            -0.02308      20.51224       7.31928       6.84215
     3  Si(29)            -0.02308      20.51224       7.31928       6.84215
     4  Si(29)            -0.25946     230.59277      82.28123      76.91747
     5  Si(29)            -0.01300      11.55026       4.12142       3.85275
     6  Si(29)            -0.00392       3.48579       1.24382       1.16273
     7  Si(29)            -0.00392       3.48579       1.24382       1.16273
     8  Si(29)            -0.01300      11.55026       4.12142       3.85275
     9  Si(29)             0.04780     -42.48036     -15.15805     -14.16992
 --------------------------------------------------------
       Center         ----  Spin Dipole Couplings  ----
                      3XX-RR        3YY-RR        3ZZ-RR
 --------------------------------------------------------
     1   Atom       -0.175307      0.377935     -0.202628
     2   Atom        0.481003     -0.263761     -0.217242
     3   Atom        0.481003     -0.263761     -0.217242
     4   Atom       -0.175307      0.377935     -0.202628
     5   Atom       -0.244817      0.306228     -0.061412
     6   Atom        0.219936     -0.162331     -0.057605
     7   Atom        0.219936     -0.162331     -0.057605
     8   Atom       -0.244817      0.306228     -0.061412
     9   Atom       -0.101270      0.004301      0.096969
 --------------------------------------------------------
                        XY            XZ            YZ
 --------------------------------------------------------
     1   Atom        0.000116     -0.212358     -0.000251
     2   Atom        0.000381     -0.000274      0.039009
     3   Atom        0.000381      0.000274     -0.039009
     4   Atom        0.000116      0.212358      0.000251
     5   Atom        0.000846     -0.053770     -0.000327
     6   Atom        0.000229      0.000258      0.056245
     7   Atom        0.000229     -0.000258     -0.056245
     8   Atom        0.000846      0.053770      0.000327
     9   Atom       -0.000066      0.000000      0.000000
 --------------------------------------------------------


 ---------------------------------------------------------------------------------
              Anisotropic Spin Dipole Couplings in Principal Axis System
 ---------------------------------------------------------------------------------

       Atom             a.u.   MegaHertz   Gauss  10(-4) cm-1        Axes

              Baa    -0.4018    42.621    15.208    14.217  0.6840  0.0001  0.7294
     1 Si(29) Bbb     0.0238    -2.528    -0.902    -0.843  0.7294 -0.0007 -0.6840
              Bcc     0.3779   -40.093   -14.306   -13.374  0.0004  1.0000 -0.0006
 
              Baa    -0.2859    30.331    10.823    10.117 -0.0006  0.8695 -0.4939
     2 Si(29) Bbb    -0.1951    20.695     7.385     6.903  0.0001  0.4939  0.8695
              Bcc     0.4810   -51.027   -18.208   -17.021  1.0000  0.0005 -0.0004
 
              Baa    -0.2859    30.331    10.823    10.117 -0.0006  0.8695  0.4939
     3 Si(29) Bbb    -0.1951    20.695     7.385     6.903 -0.0001 -0.4939  0.8695
              Bcc     0.4810   -51.027   -18.208   -17.021  1.0000  0.0005  0.0004
 
              Baa    -0.4018    42.621    15.208    14.217 -0.6840 -0.0001  0.7294
     4 Si(29) Bbb     0.0238    -2.528    -0.902    -0.843  0.7294 -0.0007  0.6840
              Bcc     0.3779   -40.093   -14.306   -13.374  0.0004  1.0000  0.0006
 
              Baa    -0.2594    27.520     9.820     9.180  0.9651 -0.0013  0.2621
     5 Si(29) Bbb    -0.0468     4.966     1.772     1.656 -0.2621  0.0015  0.9651
              Bcc     0.3062   -32.486   -11.592   -10.836  0.0016  1.0000 -0.0011
 
              Baa    -0.1868    19.818     7.072     6.611 -0.0003  0.9169 -0.3991
     6 Si(29) Bbb    -0.0331     3.514     1.254     1.172 -0.0013  0.3991  0.9169
              Bcc     0.2199   -23.332    -8.325    -7.783  1.0000  0.0008  0.0011
 
              Baa    -0.1868    19.818     7.072     6.611 -0.0003  0.9169  0.3991
     7 Si(29) Bbb    -0.0331     3.514     1.254     1.172  0.0013 -0.3991  0.9169
              Bcc     0.2199   -23.332    -8.325    -7.783  1.0000  0.0008 -0.0011
 
              Baa    -0.2594    27.520     9.820     9.180  0.9651 -0.0013 -0.2621
     8 Si(29) Bbb    -0.0468     4.966     1.772     1.656  0.2621 -0.0015  0.9651
              Bcc     0.3062   -32.486   -11.592   -10.836  0.0016  1.0000  0.0011
 
              Baa    -0.1013    10.743     3.833     3.584  1.0000  0.0006  0.0000
     9 Si(29) Bbb     0.0043    -0.456    -0.163    -0.152 -0.0006  1.0000  0.0000
              Bcc     0.0970   -10.287    -3.671    -3.431  0.0000  0.0000  1.0000
 

 ---------------------------------------------------------------------------------

 1\1\GINC-NODE79\SP\UHF\GFHFB2\Si9(1+,2)\TAM\21-Dec-2011\0\\#N Geom=All
 Check Guess=TCheck SCRF=Check HF/GFHFB2 SCF=Tight\\si9-c\\1,2\Si,0,1.2
 802573836,-0.0169015431,1.2528319744\Si,0,0.02681317,2.0312542075,1.72
 8565364\Si,0,-0.02681317,-2.0312542075,1.728565364\Si,0,-1.2802573836,
 0.0169015431,1.2528319744\Si,0,2.0659452184,-0.0268874163,-1.110702897
 7\Si,0,0.0192525292,1.4614436683,-0.5894962776\Si,0,-0.0192525292,-1.4
 614436683,-0.5894962776\Si,0,-2.0659452184,0.0268874163,-1.1107028977\
 Si,0,0.,0.,-2.562396336\\Version=AM64L-G09RevA.02\State=2-A\HF=-2600.1
 111251\S2=0.902621\S2-1=0.\S2A=0.772159\RMSD=7.041e-09\Dipole=0.,0.,-0
 .0964846\Quadrupole=-2.1623786,-0.3999732,2.5623519,0.0233502,0.,0.\PG
 =C02 [C2(Si1),X(Si8)]\\@


 A DANDELION FROM A LOVER MEANS MORE THAN AN ORCHID FROM A FRIEND.
 Diagonal vibrational polarizability:
        0.0000000       0.0000000       0.0000000

 Temperature=              298.150000 Pressure=                      1.000000
 E(ZPE)=                     0.011953 E(Thermal)=                    0.025329
 E(CCSD(T))=             -2600.740870 E(Empiric)=                   -0.123617
 DE(Plus)=                  -0.016394 DE(2DF)=                      -0.303904
 E(Delta-G3XP)=             -2.825366 DE(HF)=                       -0.059672
 G4(0 K)=                -2604.057871 G4 Energy=                 -2604.044495
 G4 Enthalpy=            -2604.043551 G4 Free Energy=            -2604.097938
 1\1\GINC-NODE79\Mixed\G4\G4\Si9(1+,2)\TAM\21-Dec-2011\0\\# G4 scfcyc=5
 00 scf=xqc\\si9-c\\1,2\Si,0,1.2802573836,-0.0169015431,1.2528319744\Si
 ,0,0.02681317,2.0312542075,1.728565364\Si,0,-0.02681317,-2.0312542075,
 1.728565364\Si,0,-1.2802573836,0.0169015431,1.2528319744\Si,0,2.065945
 2184,-0.0268874163,-1.1107028977\Si,0,0.0192525292,1.4614436683,-0.589
 4962776\Si,0,-0.0192525292,-1.4614436683,-0.5894962776\Si,0,-2.0659452
 184,0.0268874163,-1.1107028977\Si,0,0.,0.,-2.562396336\\Version=AM64L-
 G09RevA.02\State=2-A\MP2/GTBas1=-2600.6706656\MP4/GTBas1=-2600.7869397
 \CCSD(T)/G3Bas1=-2600.7408698\MP2/GTBas2=-2600.6853738\MP4/GTBas2=-260
 0.8033337\MP2/GTBas3=-2600.9491798\MP4/GTBas3=-2601.0908441\HF/GTLarge
 XP=-2600.0536327\MP2/GTLargeXP=-2603.7892544\HF/GFHFB1=-2600.1021788\H
 F/GFHFB2=-2600.1111251\G4=-2604.0578713\FreqCoord=2.4193358345,-0.0319
 392877,2.3675093221,0.050669548,3.8385141585,3.2665151407,-0.050669548
 ,-3.8385141585,3.2665151407,-2.4193358345,0.0319392877,2.3675093221,3.
 9040706683,-0.0508098532,-2.0989242917,0.0363820075,2.7617282918,-1.11
 39865211,-0.0363820075,-2.7617282918,-1.1139865211,-3.9040706683,0.050
 8098532,-2.0989242917,0.,0.,-4.8422273189\PG=C02 [C2(Si1),X(Si8)]\NIma
 g=0\\0.07355451,0.00006662,0.07799105,0.00344000,-0.00004868,0.0589086
 1,-0.00622323,0.02139159,-0.00049293,0.02045928,0.01191711,-0.03240033
 ,-0.00851973,0.00084667,0.08428724,0.00637663,-0.00943987,-0.00392593,
 0.00049025,0.03715590,0.07459250,-0.00711959,-0.02206479,-0.00026167,-
 0.00861663,0.00004477,0.00008832,0.02045928,-0.01258657,-0.03149857,0.
 00852994,0.00004477,-0.00515541,0.00686532,0.00084667,0.08428724,0.006
 61915,0.00926761,-0.00392606,-0.00008832,-0.00686532,0.00240136,-0.000
 49025,-0.03715590,0.07459250,-0.03660745,0.00038717,0.00290750,-0.0071
 1959,-0.01258657,-0.00661915,-0.00622323,0.01191711,-0.00637663,0.0735
 5451,0.00038717,-0.00728306,-0.00004067,-0.02206479,-0.03149857,-0.009
 26761,0.02139159,-0.03240033,0.00943987,0.00006662,0.07799105,-0.00290
 750,0.00004067,-0.00142762,0.00026167,-0.00852994,-0.00392606,0.000492
 93,0.00851973,-0.00392593,-0.00344000,0.00004868,0.05890861,-0.0055637
 2,0.00002889,0.00450166,-0.00263807,0.00067505,-0.00158198,-0.00267113
 ,-0.00057998,-0.00158126,-0.00966884,0.00013244,0.00625805,0.08551044,
 0.00002427,-0.00341905,-0.00006287,0.00042809,0.00102266,0.00011986,-0
 .00033482,0.00103446,-0.00007190,0.00013673,0.00034422,-0.00008840,-0.
 00094716,0.01417433,0.00898742,-0.00011555,-0.02988822,0.00178245,-0.0
 0071229,-0.00179224,0.00179741,0.00066812,-0.00179275,0.00923835,-0.00
 011938,0.00207317,-0.01504525,0.00020366,0.04862375,-0.00396529,0.0046
 1750,-0.00170829,0.00306466,0.00001728,-0.00029136,0.00417883,-0.00021
 158,0.00003873,-0.00407523,-0.00466043,0.00196535,-0.01924354,0.008395
 96,0.00493662,0.03507311,-0.00025728,-0.00564917,0.01010347,0.00001575
 ,0.00393533,-0.02235585,-0.00020373,-0.01157881,0.00271501,0.00020831,
 -0.00552688,0.01004994,0.00725494,-0.00749086,-0.00324968,0.00031387,0
 .06034086,-0.00850593,0.00260721,-0.00634339,-0.00013922,-0.01080212,-
 0.05786104,0.00009459,0.00710388,-0.00442285,0.00856648,0.00238124,-0.
 00634560,0.00657308,-0.00424571,-0.00077920,0.00041497,0.03259972,0.11
 035874,-0.00407523,-0.00466043,-0.00196535,0.00417883,-0.00021158,-0.0
 0003873,0.00306466,0.00001728,0.00029136,-0.00396529,0.00461750,0.0017
 0829,-0.01961975,-0.00806117,0.00500086,0.00136599,-0.00019448,-0.0000
 1064,0.03507311,0.00020831,-0.00552688,-0.01004994,-0.00020373,-0.0115
 7881,-0.00271501,0.00001575,0.00393533,0.02235585,-0.00025728,-0.00564
 917,-0.01010347,-0.00691068,-0.00708527,0.00311374,-0.00019448,-0.0130
 3398,-0.00046930,0.00031387,0.06034086,-0.00856648,-0.00238124,-0.0063
 4560,-0.00009459,-0.00710388,-0.00442285,0.00013922,0.01080212,-0.0578
 6103,0.00850593,-0.00260721,-0.00634339,0.00665747,0.00406871,-0.00078
 000,0.00001064,0.00046930,-0.00148684,-0.00041497,-0.03259972,0.110358
 74,-0.00966884,0.00013244,-0.00625805,-0.00267113,-0.00057998,0.001581
 26,-0.00263807,0.00067505,0.00158198,-0.00556372,0.00002889,-0.0045016
 6,-0.00855322,0.00009996,-0.00609470,-0.01961975,-0.00691068,-0.006657
 47,-0.01924354,0.00725494,-0.00657308,0.08551044,0.00013673,0.00034422
 ,0.00008840,-0.00033482,0.00103446,0.00007190,0.00042809,0.00102266,-0
 .00011986,0.00002427,-0.00341905,0.00006287,0.00009996,-0.00045827,0.0
 0007079,-0.00806117,-0.00708527,-0.00406871,0.00839596,-0.00749086,0.0
 0424571,-0.00094716,0.01417433,-0.00923835,0.00011938,0.00207317,-0.00
 179741,-0.00066812,-0.00179275,-0.00178245,0.00071229,-0.00179224,-0.0
 0898742,0.00011555,-0.02988822,0.00609470,-0.00007079,-0.00689559,-0.0
 0500086,-0.00311374,-0.00078000,-0.00493662,0.00324968,-0.00077920,0.0
 1504525,-0.00020366,0.04862375,-0.00033115,0.00010100,-0.00016287,-0.0
 0043413,-0.00012276,-0.00000524,-0.00043413,-0.00012276,0.00000524,-0.
 00033115,0.00010100,0.00016287,-0.01755217,0.00025815,-0.01060317,0.00
 322122,-0.00022669,-0.00033586,0.00322122,-0.00022669,0.00033586,-0.01
 755217,0.00025815,0.01060317,0.03019245,0.00010365,0.00744179,0.000000
 08,-0.00012354,-0.00964657,-0.00043464,-0.00012354,-0.00964657,0.00043
 464,0.00010365,0.00744179,-0.00000008,0.00024653,0.00187778,0.00014060
 ,-0.00021694,-0.01391122,-0.02510621,-0.00021694,-0.01391122,0.0251062
 1,0.00024653,0.00187778,-0.00014060,-0.00001940,0.02847644,0.00379506,
 -0.00004953,-0.00912497,0.00007810,0.00604550,-0.00327301,-0.00007810,
 -0.00604550,-0.00327301,-0.00379506,0.00004953,-0.00912497,-0.01187647
 ,0.00014745,-0.00876893,-0.00036580,-0.02721816,-0.03233982,0.00036580
 ,0.02721816,-0.03233982,0.01187647,-0.00014745,-0.00876893,0.,0.,0.107
 01346\\-0.00002074,-0.00000343,0.00003444,0.00000065,0.00001015,-0.000
 06804,-0.00000065,-0.00001015,-0.00006804,0.00002074,0.00000343,0.0000
 3444,0.00007716,0.00000843,-0.00010344,0.00000914,-0.00002405,0.000101
 06,-0.00000914,0.00002405,0.00010106,-0.00007716,-0.00000843,-0.000103
 44,0.,0.,0.00007197\\\@
 Job cpu time:  1 days  5 hours 57 minutes 58.1 seconds.
 File lengths (MBytes):  RWF=   5786 Int=      0 D2E=      0 Chk=     70 Scr=      1
 Normal termination of Gaussian 09 at Wed Dec 21 01:37:13 2011.
