 Entering Gaussian System, Link 0=g09
 Initial command:
 /usr/local/chem/g09A2/l1.exe /temp0/tam/Gau-5367.inp -scrdir=/temp0/tam/
 Entering Link 1 = /usr/local/chem/g09A2/l1.exe PID=      5368.
  
 Copyright (c) 1988,1990,1992,1993,1995,1998,2003,2009, Gaussian, Inc.
                  All Rights Reserved.
  
 This is part of the Gaussian(R) 09 program.  It is based on
 the Gaussian(R) 03 system (copyright 2003, Gaussian, Inc.),
 the Gaussian(R) 98 system (copyright 1998, Gaussian, Inc.),
 the Gaussian(R) 94 system (copyright 1995, Gaussian, Inc.),
 the Gaussian 92(TM) system (copyright 1992, Gaussian, Inc.),
 the Gaussian 90(TM) system (copyright 1990, Gaussian, Inc.),
 the Gaussian 88(TM) system (copyright 1988, Gaussian, Inc.),
 the Gaussian 86(TM) system (copyright 1986, Carnegie Mellon
 University), and the Gaussian 82(TM) system (copyright 1983,
 Carnegie Mellon University). Gaussian is a federally registered
 trademark of Gaussian, Inc.
  
 This software contains proprietary and confidential information,
 including trade secrets, belonging to Gaussian, Inc.
  
 This software is provided under written license and may be
 used, copied, transmitted, or stored only in accord with that
 written license.
  
 The following legend is applicable only to US Government
 contracts under FAR:
  
                    RESTRICTED RIGHTS LEGEND
  
 Use, reproduction and disclosure by the US Government is
 subject to restrictions as set forth in subparagraphs (a)
 and (c) of the Commercial Computer Software - Restricted
 Rights clause in FAR 52.227-19.
  
 Gaussian, Inc.
 340 Quinnipiac St., Bldg. 40, Wallingford CT 06492
  
  
 ---------------------------------------------------------------
 Warning -- This program may not be used in any manner that
 competes with the business of Gaussian, Inc. or will provide
 assistance to any competitor of Gaussian, Inc.  The licensee
 of this program is prohibited from giving any competitor of
 Gaussian, Inc. access to this program.  By using this program,
 the user acknowledges that Gaussian, Inc. is engaged in the
 business of creating and licensing software in the field of
 computational chemistry and represents and warrants to the
 licensee that it is not a competitor of Gaussian, Inc. and that
 it will not use this program in any manner prohibited above.
 ---------------------------------------------------------------
  

 Cite this work as:
 Gaussian 09, Revision A.02,
 M. J. Frisch, G. W. Trucks, H. B. Schlegel, G. E. Scuseria, 
 M. A. Robb, J. R. Cheeseman, G. Scalmani, V. Barone, B. Mennucci, 
 G. A. Petersson, H. Nakatsuji, M. Caricato, X. Li, H. P. Hratchian, 
 A. F. Izmaylov, J. Bloino, G. Zheng, J. L. Sonnenberg, M. Hada, 
 M. Ehara, K. Toyota, R. Fukuda, J. Hasegawa, M. Ishida, T. Nakajima, 
 Y. Honda, O. Kitao, H. Nakai, T. Vreven, J. A. Montgomery, Jr., 
 J. E. Peralta, F. Ogliaro, M. Bearpark, J. J. Heyd, E. Brothers, 
 K. N. Kudin, V. N. Staroverov, R. Kobayashi, J. Normand, 
 K. Raghavachari, A. Rendell, J. C. Burant, S. S. Iyengar, J. Tomasi, 
 M. Cossi, N. Rega, J. M. Millam, M. Klene, J. E. Knox, J. B. Cross, 
 V. Bakken, C. Adamo, J. Jaramillo, R. Gomperts, R. E. Stratmann, 
 O. Yazyev, A. J. Austin, R. Cammi, C. Pomelli, J. W. Ochterski, 
 R. L. Martin, K. Morokuma, V. G. Zakrzewski, G. A. Voth, 
 P. Salvador, J. J. Dannenberg, S. Dapprich, A. D. Daniels, 
 O. Farkas, J. B. Foresman, J. V. Ortiz, J. Cioslowski, 
 and D. J. Fox, Gaussian, Inc., Wallingford CT, 2009.
 
 ******************************************
 Gaussian 09:  AM64L-G09RevA.02 11-Jun-2009
                 5-Mar-2012 
 ******************************************
 %NprocShared=8
 Will use up to    8 processors via shared memory.
 %mem=39050MB
 %chk=S9L-ne-d-01
 -----------------------
 # G4 scfcyc=500 scf=xqc
 -----------------------
 1/14=-1,18=20,19=15,26=3,38=1/1,3;
 2/9=110,12=2,17=6,18=5,40=1/2;
 3/5=35,7=104,11=2,16=1,25=1,30=1,71=1,74=-5/1,2,3;
 4//1;
 5/5=2,7=500,8=3,13=1,38=5/2,8;
 6/7=2,8=2,9=2,10=2,28=1/1;
 7//1,2,3,16;
 1/14=-1,18=20,19=15/3(2);
 2/9=110/2;
 99//99;
 2/9=110/2;
 3/5=35,7=104,11=2,16=1,25=1,30=1,71=1,74=-5/1,2,3;
 4/5=5,16=3/1;
 5/5=2,7=500,8=3,13=1,38=5/2,8;
 7//1,2,3,16;
 1/14=-1,18=20,19=15/3(-5);
 2/9=110/2;
 6/7=2,8=2,9=2,10=2,19=2,28=1/1;
 99/9=1/99;
 --------
 si7-an-d
 --------
 Symbolic Z-matrix:
 Charge = -1 Multiplicity = 2
 Si                   -1.22737  -1.68932   0. 
 Si                   -1.98592   0.64526   0. 
 Si                    0.        2.08812   0. 
 Si                    1.98592   0.64526   0. 
 Si                    1.22737  -1.68932   0. 
 Si                    0.        0.        1.46397 
 Si                    0.        0.       -1.46397 
 

 GradGradGradGradGradGradGradGradGradGradGradGradGradGradGradGradGradGrad
 Berny optimization.
 Initialization pass.
                           ----------------------------
                           !    Initial Parameters    !
                           ! (Angstroms and Degrees)  !
 --------------------------                            --------------------------
 ! Name  Definition              Value          Derivative Info.                !
 --------------------------------------------------------------------------------
 ! R1    R(1,2)                  2.4547         estimate D2E/DX2                !
 ! R2    R(1,5)                  2.4547         estimate D2E/DX2                !
 ! R3    R(1,6)                  2.5502         estimate D2E/DX2                !
 ! R4    R(1,7)                  2.5502         estimate D2E/DX2                !
 ! R5    R(2,3)                  2.4547         estimate D2E/DX2                !
 ! R6    R(2,6)                  2.5502         estimate D2E/DX2                !
 ! R7    R(2,7)                  2.5502         estimate D2E/DX2                !
 ! R8    R(3,4)                  2.4547         estimate D2E/DX2                !
 ! R9    R(3,6)                  2.5502         estimate D2E/DX2                !
 ! R10   R(3,7)                  2.5502         estimate D2E/DX2                !
 ! R11   R(4,5)                  2.4547         estimate D2E/DX2                !
 ! R12   R(4,6)                  2.5502         estimate D2E/DX2                !
 ! R13   R(4,7)                  2.5502         estimate D2E/DX2                !
 ! R14   R(5,6)                  2.5502         estimate D2E/DX2                !
 ! R15   R(5,7)                  2.5502         estimate D2E/DX2                !
 ! R16   R(6,7)                  2.9279         estimate D2E/DX2                !
 ! A1    A(2,1,5)              108.0            estimate D2E/DX2                !
 ! A2    A(1,2,3)              108.0            estimate D2E/DX2                !
 ! A3    A(2,3,4)              108.0            estimate D2E/DX2                !
 ! A4    A(3,4,5)              108.0            estimate D2E/DX2                !
 ! A5    A(1,5,4)              108.0            estimate D2E/DX2                !
 ! A6    A(1,6,3)              102.2899         estimate D2E/DX2                !
 ! A7    A(1,6,4)              102.2899         estimate D2E/DX2                !
 ! A8    A(2,6,4)              102.2899         estimate D2E/DX2                !
 ! A9    A(2,6,5)              102.2899         estimate D2E/DX2                !
 ! A10   A(3,6,5)              102.2899         estimate D2E/DX2                !
 ! A11   A(1,7,3)              102.2899         estimate D2E/DX2                !
 ! A12   A(1,7,4)              102.2899         estimate D2E/DX2                !
 ! A13   A(2,7,4)              102.2899         estimate D2E/DX2                !
 ! A14   A(2,7,5)              102.2899         estimate D2E/DX2                !
 ! A15   A(3,7,5)              102.2899         estimate D2E/DX2                !
 ! D1    D(5,1,2,3)              0.0            estimate D2E/DX2                !
 ! D2    D(2,1,5,4)              0.0            estimate D2E/DX2                !
 ! D3    D(1,2,3,4)              0.0            estimate D2E/DX2                !
 ! D4    D(2,3,4,5)              0.0            estimate D2E/DX2                !
 ! D5    D(3,4,5,1)              0.0            estimate D2E/DX2                !
 --------------------------------------------------------------------------------
 Trust Radius=3.00D-01 FncErr=1.00D-07 GrdErr=1.00D-06
 Number of steps in this run=  46 maximum allowed number of steps= 100.
 GradGradGradGradGradGradGradGradGradGradGradGradGradGradGradGradGradGrad

                          Input orientation:                          
 ---------------------------------------------------------------------
 Center     Atomic      Atomic             Coordinates (Angstroms)
 Number     Number       Type             X           Y           Z
 ---------------------------------------------------------------------
      1         14           0       -1.227366   -1.689324    0.000000
      2         14           0       -1.985919    0.645264    0.000000
      3         14           0        0.000000    2.088119    0.000000
      4         14           0        1.985919    0.645264    0.000000
      5         14           0        1.227366   -1.689324    0.000000
      6         14           0        0.000000    0.000000    1.463967
      7         14           0        0.000000    0.000000   -1.463967
 ---------------------------------------------------------------------
                    Distance matrix (angstroms):
                    1          2          3          4          5
     1  Si   0.000000
     2  Si   2.454731   0.000000
     3  Si   3.971839   2.454731   0.000000
     4  Si   3.971839   3.971839   2.454731   0.000000
     5  Si   2.454731   3.971839   3.971839   2.454731   0.000000
     6  Si   2.550185   2.550185   2.550185   2.550185   2.550185
     7  Si   2.550185   2.550185   2.550185   2.550185   2.550185
                    6          7
     6  Si   0.000000
     7  Si   2.927934   0.000000
 Stoichiometry    Si7(1-,2)
 Framework group  D5H[C5(Si.Si),5C2(Si)]
 Deg. of freedom     2
 Full point group                 D5H     NOp  20
 Largest Abelian subgroup         C2V     NOp   4
 Largest concise Abelian subgroup C2V     NOp   4
                         Standard orientation:                         
 ---------------------------------------------------------------------
 Center     Atomic      Atomic             Coordinates (Angstroms)
 Number     Number       Type             X           Y           Z
 ---------------------------------------------------------------------
      1         14           0        0.000000    2.088119    0.000000
      2         14           0        1.985919    0.645264    0.000000
      3         14           0        1.227366   -1.689324    0.000000
      4         14           0       -1.227366   -1.689324    0.000000
      5         14           0       -1.985919    0.645264    0.000000
      6         14           0        0.000000    0.000000    1.463967
      7         14           0        0.000000    0.000000   -1.463967
 ---------------------------------------------------------------------
 Rotational constants (GHZ):      1.1894469      1.1894469      0.8285841
 Standard basis: GTBas3 (6D, 7F)
 There are    81 symmetry adapted basis functions of A1  symmetry.
 There are    33 symmetry adapted basis functions of A2  symmetry.
 There are    61 symmetry adapted basis functions of B1  symmetry.
 There are    49 symmetry adapted basis functions of B2  symmetry.
 Integral buffers will be    131072 words long.
 Raffenetti 2 integral format.
 Two-electron integral symmetry is turned on.
   224 basis functions,   476 primitive gaussians,   245 cartesian basis functions
    50 alpha electrons       49 beta electrons
       nuclear repulsion energy       783.9651031169 Hartrees.
 NAtoms=    7 NActive=    7 NUniq=    2 SFac= 3.00D+00 NAtFMM=   80 NAOKFM=F Big=F
 One-electron integrals computed using PRISM.
 NBasis=   224 RedAO= T  NBF=    81    33    61    49
 NBsUse=   224 1.00D-06 NBFU=    81    33    61    49
 Harris functional with IExCor=  402 diagonalized for initial guess.
 ExpMin= 7.78D-02 ExpMax= 1.61D+04 ExpMxC= 2.43D+03 IAcc=2 IRadAn=         0 AccDes= 0.00D+00
 HarFok:  IExCor=  402 AccDes= 0.00D+00 IRadAn=         0 IDoV= 1
 ScaDFX=  1.000000  1.000000  1.000000  1.000000
 FoFCou: FMM=F IPFlag=           0 FMFlag=      100000 FMFlg1=           0
         NFxFlg=           0 DoJE=T BraDBF=F KetDBF=T FulRan=T
         Omega=  0.000000  0.000000  1.000000  0.000000  0.000000 ICntrl=     500 IOpCl=  0
         NMat0=    1 NMatS0=    1 NMatT0=    0 NMatD0=    1 NMtDS0=    0 NMtDT0=    0
         I1Cent=           4 NGrid=           0.
 Petite list used in FoFCou.
 Initial guess orbital symmetries:
 Alpha Orbitals:
       Occupied  (A1') (A2") (E1') (E1') (E2') (E2') (A1') (A1')
                 (A2") (E1') (E1') (A1') (E2') (E2') (A2") (A1')
                 (E1") (E1") (E1') (E1') (A1') (E1') (E1') (E2')
                 (E2') (E2') (E2') (E1') (E1') (A2') (E2") (E2")
                 (A2") (E1") (E1") (A1') (E1') (E1') (A2") (E2')
                 (E2') (A1') (E1") (E1") (A1') (E1') (E1') (E2')
                 (E2') (A2")
       Virtual   (E2") (E2") (A2") (E1') (E1') (E2') (E2') (A1')
                 (E1') (E1') (E1") (E1") (A2') (A1') (E2") (E2")
                 (E1") (E1") (E1') (E1') (E2') (E2') (A1') (A2")
                 (E2') (E2') (A1') (E2") (E2") (E1') (E1') (A2")
                 (A1') (E2') (E2') (E1') (E1') (E1") (E1") (E1")
                 (E1") (A2") (E1') (E1') (E2") (E2") (E1') (E1')
                 (E2') (E2') (A2') (A1') (E1") (E1") (E2') (E2')
                 (A1") (A2") (E1') (E1') (E2') (E2') (E2") (E2")
                 (E1') (E1') (A1') (E2') (E2') (E1") (E1") (A2")
                 (E1') (E1') (A1') (A2') (E2") (E2") (E2') (E2')
                 (E1') (E1') (A1') (A2") (E2') (E2') (E1") (E1")
                 (A1') (E2') (E2') (E1") (E1") (E2") (E2") (A2")
                 (E1') (E1') (A1') (E2') (E2') (E1') (E1') (E1")
                 (E1") (E2") (E2") (E1') (E1') (A2') (E2') (E2')
                 (A1') (A2") (E2") (E2") (E1') (E1') (A1") (E2')
                 (E2') (E1") (E1") (E2") (E2") (A2") (E2') (E2')
                 (E1') (E1') (A2') (A1') (E2") (E2") (E1') (E1')
                 (E2') (E2') (A2") (E1") (E1") (E1') (E1') (A1')
                 (E1") (E1") (A1') (A2') (E1') (E1') (E2") (E2")
                 (A1") (E2') (E2') (E2") (E2") (E1") (E1") (A1')
                 (E1') (E1') (A2") (E2') (E2') (E2') (E2') (A1')
                 (E2') (E2') (A2") (E1') (E1') (A1')
 Beta  Orbitals:
       Occupied  (A1') (A2") (E1') (E1') (E2') (E2') (A1') (A1')
                 (A2") (E1') (E1') (A1') (E2') (E2') (A2") (A1')
                 (E1") (E1") (E1') (E1') (A1') (E1') (E1') (E2')
                 (E2') (E2') (E2') (E1') (E1') (A2') (E2") (E2")
                 (A2") (E1") (E1") (A1') (E1') (E1') (A2") (E2')
                 (E2') (A1') (E1") (E1") (A1') (E1') (E1') (E2')
                 (E2')
       Virtual   (A2") (E2") (E2") (A2") (E1') (E1') (E2') (E2')
                 (A1') (E1') (E1') (E1") (E1") (A2') (A1') (E2")
                 (E2") (E1") (E1") (E1') (E1') (E2') (E2') (A1')
                 (A2") (E2') (E2') (A1') (E2") (E2") (E1') (E1')
                 (A2") (A1') (E2') (E2') (E1') (E1') (E1") (E1")
                 (E1") (E1") (A2") (E1') (E1') (E2") (E2") (E1')
                 (E1') (E2') (E2') (A2') (A1') (E1") (E1") (E2')
                 (E2') (A1") (A2") (E1') (E1') (E2') (E2') (E2")
                 (E2") (E1') (E1') (A1') (E2') (E2') (E1") (E1")
                 (A2") (E1') (E1') (A1') (A2') (E2") (E2") (E2')
                 (E2') (E1') (E1') (A1') (A2") (E2') (E2') (E1")
                 (E1") (A1') (E2') (E2') (E1") (E1") (E2") (E2")
                 (A2") (E1') (E1') (A1') (E2') (E2') (E1') (E1')
                 (E1") (E1") (E2") (E2") (E1') (E1') (A2') (E2')
                 (E2') (A1') (A2") (E2") (E2") (E1') (E1') (A1")
                 (E2') (E2') (E1") (E1") (E2") (E2") (A2") (E2')
                 (E2') (E1') (E1') (A2') (A1') (E2") (E2") (E1')
                 (E1') (E2') (E2') (A2") (E1") (E1") (E1') (E1')
                 (A1') (E1") (E1") (A1') (A2') (E1') (E1') (E2")
                 (E2") (A1") (E2') (E2') (E2") (E2") (E1") (E1")
                 (A1') (E1') (E1') (A2") (E2') (E2') (E2') (E2')
                 (A1') (E2') (E2') (A2") (E1') (E1') (A1')
 The electronic state of the initial guess is 2-A2".
 Initial guess <Sx>= 0.0000 <Sy>= 0.0000 <Sz>= 0.5000 <S**2>= 0.7500 S= 0.5000
 Requested convergence on RMS density matrix=1.00D-08 within 128 cycles.
 Requested convergence on MAX density matrix=1.00D-06.
 Requested convergence on             energy=1.00D-06.
 No special actions if energy rises.
 Keep R1 and R2 ints in memory in canonical form, NReq=915850464.
 Integral accuracy reduced to 1.0D-05 until final iterations.
 Initial convergence to 1.0D-05 achieved.  Increase integral accuracy.
 SCF Done:  E(UB3LYP) =  -2026.50577382     A.U. after   14 cycles
             Convg  =    0.7393D-08             -V/T =  2.0035
 <Sx>= 0.0000 <Sy>= 0.0000 <Sz>= 0.5000 <S**2>= 0.7559 S= 0.5029
 <L.S>= 0.000000000000E+00
 Annihilation of the first spin contaminant:
 S**2 before annihilation     0.7559,   after     0.7500
 QCSCF skips out because SCF is already converged.

 **********************************************************************

            Population analysis using the SCF density.

 **********************************************************************

 Orbital symmetries:
 Alpha Orbitals:
       Occupied  (A1') (A2") (E1') (E1') (E2') (E2') (A1') (A1')
                 (A2") (A1') (E1') (E1') (E2') (E2') (A2") (A1')
                 (E1") (E1") (E1') (E1') (A2") (E2") (E2") (E1")
                 (E1") (E2') (E2') (E1') (E1') (A2') (A1') (E1')
                 (E1') (E2') (E2') (A1') (E1') (E1') (A2") (E2')
                 (E2') (A1') (A1') (E1") (E1") (E1') (E1') (E2')
                 (E2') (A2")
       Virtual   (E2") (E2") (A2") (E1') (E1') (E2') (E2') (A1')
                 (E1') (E1') (E1") (E1") (A2') (A1') (E1') (E1')
                 (E1") (E1") (A1') (E2') (E2') (A2") (E2") (E2")
                 (E2') (E2') (A1') (E1') (E1') (E2") (E2") (A2")
                 (E1') (E1') (E2') (E2') (E1") (E1") (A1') (A2')
                 (E1") (E1") (E1') (E1') (A2") (E2") (E2") (E1')
                 (E1') (E2') (E2') (A1') (E1") (E1") (E2') (E2')
                 (A1") (A2") (E1') (E1') (E2') (E2') (E2") (E2")
                 (A1') (E1') (E1') (E2') (E2') (A2") (E1") (E1")
                 (E1') (E1') (A1') (A2') (E2") (E2") (E2') (E2')
                 (A1') (E1') (E1') (A2") (E2') (E2') (E1") (E1")
                 (E2') (E2') (A1') (A2") (E1") (E1") (E2") (E2")
                 (E1') (E1') (A1') (E2') (E2') (E1') (E1') (E1")
                 (E1") (E2") (E2") (E1') (E1') (A2') (E2') (E2')
                 (A1') (A2") (E2") (E2") (E1') (E1') (A1") (E2')
                 (E2') (E1") (E1") (E2") (E2") (A2") (E2') (E2')
                 (E1') (E1') (A1') (A2') (E2") (E2") (E1') (E1')
                 (E2') (E2') (E1") (E1") (A2") (E1') (E1') (E1")
                 (E1") (A1') (A1') (A2') (E2") (E2") (E1') (E1')
                 (A1") (E2') (E2') (E2") (E2") (E1") (E1") (A1')
                 (E1') (E1') (A2") (E2') (E2') (E2') (E2') (A1')
                 (E2') (E2') (A2") (E1') (E1') (A1')
 Beta  Orbitals:
       Occupied  (A1') (A2") (E1') (E1') (E2') (E2') (A1') (A1')
                 (A2") (A1') (E1') (E1') (E2') (E2') (E1") (E1")
                 (E1') (E1') (A1') (A2") (A2") (E2") (E2") (E1")
                 (E1") (E2') (E2') (E1') (E1') (A2') (A1') (E1')
                 (E1') (E2') (E2') (A1') (E1') (E1') (A2") (E2')
                 (E2') (A1') (E1") (E1") (A1') (E1') (E1') (E2')
                 (E2')
       Virtual   (A2") (E2") (E2") (A2") (E1') (E1') (E2') (E2')
                 (A1') (E1') (E1') (E1") (E1") (A2') (A1') (E1')
                 (E1') (E1") (E1") (E2') (E2') (A1') (E2") (E2")
                 (A2") (E2') (E2') (A1') (E1') (E1') (E2") (E2")
                 (A2") (E1') (E1') (E2') (E2') (E1") (E1") (A1')
                 (A2') (E1') (E1') (E1") (E1") (E2") (E2") (A2")
                 (E1') (E1') (E2') (E2') (A1') (E1") (E1") (E2')
                 (E2') (A1") (A2") (E1') (E1') (E2') (E2') (E2")
                 (E2") (A1') (E1') (E1') (E2') (E2') (A2") (E1")
                 (E1") (E1') (E1') (A1') (A2') (E2") (E2") (E2')
                 (E2') (A1') (E1') (E1') (A2") (E2') (E2') (E1")
                 (E1") (E2') (E2') (A1') (A2") (E1") (E1") (E2")
                 (E2") (E1') (E1') (A1') (E2') (E2') (E1') (E1')
                 (E1") (E1") (E2") (E2") (E1') (E1') (A2') (E2')
                 (E2') (A1') (E2") (E2") (A2") (E1') (E1') (A1")
                 (E2') (E2') (E1") (E1") (E2") (E2") (A2") (E2')
                 (E2') (E1') (E1') (A1') (A2') (E2") (E2") (E1')
                 (E1') (E2') (E2') (E1") (E1") (A2") (E1') (E1')
                 (E1") (E1") (A1') (A1') (A2') (E2") (E2") (E1')
                 (E1') (A1") (E2') (E2') (E2") (E2") (E1") (E1")
                 (A1') (E1') (E1') (A2") (E2') (E2') (E2') (E2')
                 (A1') (E2') (E2') (A2") (E1') (E1') (A1')
 The electronic state is 2-A2".
 Alpha  occ. eigenvalues --  -65.99628 -65.99627 -65.98515 -65.98515 -65.98515
 Alpha  occ. eigenvalues --  -65.98515 -65.98514  -5.14091  -5.14091  -5.13078
 Alpha  occ. eigenvalues --   -5.13075  -5.13075  -5.13069  -5.13069  -3.50008
 Alpha  occ. eigenvalues --   -3.50008  -3.49883  -3.49883  -3.49882  -3.49882
 Alpha  occ. eigenvalues --   -3.49105  -3.49103  -3.49103  -3.49099  -3.49099
 Alpha  occ. eigenvalues --   -3.48805  -3.48805  -3.48788  -3.48788  -3.48772
 Alpha  occ. eigenvalues --   -3.48742  -3.48730  -3.48730  -3.48721  -3.48721
 Alpha  occ. eigenvalues --   -0.50379  -0.37076  -0.37076  -0.31510  -0.22116
 Alpha  occ. eigenvalues --   -0.22116  -0.21253  -0.13176  -0.12703  -0.12703
 Alpha  occ. eigenvalues --   -0.07744  -0.07744  -0.07154  -0.07154  -0.02427
 Alpha virt. eigenvalues --    0.06901   0.06901   0.09342   0.10335   0.10335
 Alpha virt. eigenvalues --    0.13660   0.13660   0.13845   0.14909   0.14909
 Alpha virt. eigenvalues --    0.17677   0.17677   0.25950   0.26612   0.27663
 Alpha virt. eigenvalues --    0.27663   0.29190   0.29190   0.30525   0.30870
 Alpha virt. eigenvalues --    0.30870   0.31264   0.31755   0.31755   0.32976
 Alpha virt. eigenvalues --    0.32976   0.33319   0.38281   0.38281   0.38689
 Alpha virt. eigenvalues --    0.38689   0.39182   0.43096   0.43096   0.44203
 Alpha virt. eigenvalues --    0.44203   0.45053   0.45053   0.45252   0.50593
 Alpha virt. eigenvalues --    0.50860   0.50860   0.50996   0.50996   0.52554
 Alpha virt. eigenvalues --    0.52667   0.52667   0.53472   0.53472   0.55350
 Alpha virt. eigenvalues --    0.55350   0.62021   0.63861   0.63861   0.66101
 Alpha virt. eigenvalues --    0.66101   0.66843   0.69576   0.73743   0.73743
 Alpha virt. eigenvalues --    0.78380   0.78380   0.78520   0.78520   0.78961
 Alpha virt. eigenvalues --    0.79775   0.79775   0.80880   0.80880   0.82880
 Alpha virt. eigenvalues --    0.83407   0.83407   0.86523   0.86523   0.89844
 Alpha virt. eigenvalues --    0.92515   0.99318   0.99318   1.02119   1.02119
 Alpha virt. eigenvalues --    1.02805   1.04167   1.04167   1.05620   1.09200
 Alpha virt. eigenvalues --    1.09200   1.10228   1.10228   1.14114   1.14114
 Alpha virt. eigenvalues --    1.14671   1.19388   1.20526   1.20526   1.21264
 Alpha virt. eigenvalues --    1.21264   1.24074   1.24074   1.28706   1.32815
 Alpha virt. eigenvalues --    1.32815   1.34174   1.34174   1.35989   1.35989
 Alpha virt. eigenvalues --    1.37626   1.37626   1.39278   1.39278   1.39613
 Alpha virt. eigenvalues --    1.42802   1.42802   1.46299   1.48153   1.48623
 Alpha virt. eigenvalues --    1.48623   1.50841   1.50841   1.50995   1.52917
 Alpha virt. eigenvalues --    1.52917   1.55597   1.55597   1.59627   1.59627
 Alpha virt. eigenvalues --    1.61909   1.67108   1.67108   1.67214   1.67214
 Alpha virt. eigenvalues --    1.72364   1.74657   1.87379   1.87379   1.92022
 Alpha virt. eigenvalues --    1.92022   1.94657   1.94657   1.96353   1.96353
 Alpha virt. eigenvalues --    1.97164   2.01132   2.01132   2.02335   2.02335
 Alpha virt. eigenvalues --    2.03820   2.07956   2.10024   2.11302   2.11302
 Alpha virt. eigenvalues --    2.12462   2.12462   2.14678   2.17876   2.17876
 Alpha virt. eigenvalues --    2.19986   2.19986   2.22013   2.22013   2.23308
 Alpha virt. eigenvalues --    2.23806   2.23806   2.31399   2.32289   2.32289
 Alpha virt. eigenvalues --    2.44268   2.44268   2.58509   2.94480   2.94480
 Alpha virt. eigenvalues --    3.02362   3.06787   3.06787   3.16025
  Beta  occ. eigenvalues --  -65.99516 -65.99515 -65.98486 -65.98486 -65.98485
  Beta  occ. eigenvalues --  -65.98485 -65.98485  -5.13960  -5.13959  -5.13045
  Beta  occ. eigenvalues --   -5.13043  -5.13043  -5.13036  -5.13036  -3.49817
  Beta  occ. eigenvalues --   -3.49817  -3.49816  -3.49816  -3.49641  -3.49641
  Beta  occ. eigenvalues --   -3.48992  -3.48990  -3.48990  -3.48987  -3.48987
  Beta  occ. eigenvalues --   -3.48788  -3.48788  -3.48772  -3.48772  -3.48756
  Beta  occ. eigenvalues --   -3.48729  -3.48717  -3.48717  -3.48708  -3.48708
  Beta  occ. eigenvalues --   -0.50061  -0.36767  -0.36767  -0.30540  -0.21837
  Beta  occ. eigenvalues --   -0.21837  -0.20509  -0.12165  -0.12165  -0.10702
  Beta  occ. eigenvalues --   -0.07656  -0.07656  -0.06999  -0.06999
  Beta virt. eigenvalues --    0.03735   0.07454   0.07454   0.09911   0.10611
  Beta virt. eigenvalues --    0.10611   0.13783   0.13783   0.14003   0.15140
  Beta virt. eigenvalues --    0.15140   0.18249   0.18249   0.26022   0.27453
  Beta virt. eigenvalues --    0.27788   0.27788   0.29938   0.29938   0.30945
  Beta virt. eigenvalues --    0.30945   0.31426   0.32119   0.32119   0.32428
  Beta virt. eigenvalues --    0.33020   0.33020   0.34317   0.38345   0.38345
  Beta virt. eigenvalues --    0.38995   0.38995   0.39778   0.43384   0.43384
  Beta virt. eigenvalues --    0.44275   0.44275   0.45380   0.45380   0.45460
  Beta virt. eigenvalues --    0.50649   0.51359   0.51359   0.51368   0.51368
  Beta virt. eigenvalues --    0.52897   0.52897   0.53559   0.53826   0.53826
  Beta virt. eigenvalues --    0.55458   0.55458   0.63145   0.64663   0.64663
  Beta virt. eigenvalues --    0.66168   0.66168   0.67235   0.70728   0.74383
  Beta virt. eigenvalues --    0.74383   0.78508   0.78508   0.78856   0.78856
  Beta virt. eigenvalues --    0.79373   0.79893   0.79893   0.81014   0.81014
  Beta virt. eigenvalues --    0.83336   0.83865   0.83865   0.86942   0.86942
  Beta virt. eigenvalues --    0.90191   0.92632   0.99724   0.99724   1.02277
  Beta virt. eigenvalues --    1.02277   1.03294   1.04619   1.04619   1.06072
  Beta virt. eigenvalues --    1.09270   1.09270   1.10981   1.10981   1.14362
  Beta virt. eigenvalues --    1.14362   1.15092   1.20099   1.21213   1.21213
  Beta virt. eigenvalues --    1.21549   1.21549   1.24309   1.24309   1.29259
  Beta virt. eigenvalues --    1.32890   1.32890   1.34567   1.34567   1.36305
  Beta virt. eigenvalues --    1.36305   1.37851   1.37851   1.39475   1.39475
  Beta virt. eigenvalues --    1.39937   1.43123   1.43123   1.47129   1.48992
  Beta virt. eigenvalues --    1.48992   1.49479   1.50864   1.50864   1.51324
  Beta virt. eigenvalues --    1.53264   1.53264   1.56243   1.56243   1.60008
  Beta virt. eigenvalues --    1.60008   1.62529   1.67189   1.67189   1.67822
  Beta virt. eigenvalues --    1.67822   1.73031   1.74654   1.87541   1.87541
  Beta virt. eigenvalues --    1.92135   1.92135   1.94795   1.94795   1.96700
  Beta virt. eigenvalues --    1.96700   1.97445   2.01589   2.01589   2.02685
  Beta virt. eigenvalues --    2.02685   2.03916   2.08079   2.10057   2.11453
  Beta virt. eigenvalues --    2.11453   2.12646   2.12646   2.14924   2.17917
  Beta virt. eigenvalues --    2.17917   2.20160   2.20160   2.22394   2.22394
  Beta virt. eigenvalues --    2.23558   2.23952   2.23952   2.31859   2.32389
  Beta virt. eigenvalues --    2.32389   2.44367   2.44367   2.58828   2.94600
  Beta virt. eigenvalues --    2.94600   3.03004   3.06949   3.06949   3.16429
          Condensed to atoms (all electrons):
              1          2          3          4          5          6
     1  Si  13.686541   0.169536  -0.024189  -0.024189   0.169536   0.095306
     2  Si   0.169536  13.686541   0.169536  -0.024189  -0.024189   0.095306
     3  Si  -0.024189   0.169536  13.686541   0.169536  -0.024189   0.095306
     4  Si  -0.024189  -0.024189   0.169536  13.686541   0.169536   0.095306
     5  Si   0.169536  -0.024189  -0.024189   0.169536  13.686541   0.095306
     6  Si   0.095306   0.095306   0.095306   0.095306   0.095306  13.629573
     7  Si   0.095306   0.095306   0.095306   0.095306   0.095306  -0.025720
              7
     1  Si   0.095306
     2  Si   0.095306
     3  Si   0.095306
     4  Si   0.095306
     5  Si   0.095306
     6  Si  -0.025720
     7  Si  13.629573
 Mulliken atomic charges:
              1
     1  Si  -0.167847
     2  Si  -0.167847
     3  Si  -0.167847
     4  Si  -0.167847
     5  Si  -0.167847
     6  Si  -0.080383
     7  Si  -0.080383
 Sum of Mulliken atomic charges =  -1.00000
 Mulliken charges with hydrogens summed into heavy atoms:
              1
     1  Si  -0.167847
     2  Si  -0.167847
     3  Si  -0.167847
     4  Si  -0.167847
     5  Si  -0.167847
     6  Si  -0.080383
     7  Si  -0.080383
 Sum of Mulliken charges with hydrogens summed into heavy atoms =  -1.00000
          Atomic-Atomic Spin Densities.
              1          2          3          4          5          6
     1  Si   0.078854   0.017070   0.003405   0.003405   0.017070  -0.022206
     2  Si   0.017070   0.078854   0.017070   0.003405   0.003405  -0.022206
     3  Si   0.003405   0.017070   0.078854   0.017070   0.003405  -0.022206
     4  Si   0.003405   0.003405   0.017070   0.078854   0.017070  -0.022206
     5  Si   0.017070   0.003405   0.003405   0.017070   0.078854  -0.022206
     6  Si  -0.022206  -0.022206  -0.022206  -0.022206  -0.022206   0.427837
     7  Si  -0.022206  -0.022206  -0.022206  -0.022206  -0.022206  -0.005282
              7
     1  Si  -0.022206
     2  Si  -0.022206
     3  Si  -0.022206
     4  Si  -0.022206
     5  Si  -0.022206
     6  Si  -0.005282
     7  Si   0.427837
 Mulliken atomic spin densities:
              1
     1  Si   0.075391
     2  Si   0.075391
     3  Si   0.075391
     4  Si   0.075391
     5  Si   0.075391
     6  Si   0.311523
     7  Si   0.311523
 Sum of Mulliken atomic spin densities =   1.00000
 Electronic spatial extent (au):  <R**2>=           1552.1505
 Charge=             -1.0000 electrons
 Dipole moment (field-independent basis, Debye):
    X=              0.0000    Y=              0.0000    Z=              0.0000  Tot=              0.0000
 Quadrupole moment (field-independent basis, Debye-Ang):
   XX=           -115.7517   YY=           -115.7517   ZZ=           -101.9345
   XY=              0.0000   XZ=              0.0000   YZ=              0.0000
 Traceless Quadrupole moment (field-independent basis, Debye-Ang):
   XX=             -4.6057   YY=             -4.6057   ZZ=              9.2114
   XY=              0.0000   XZ=              0.0000   YZ=              0.0000
 Octapole moment (field-independent basis, Debye-Ang**2):
  XXX=              0.0000  YYY=              0.0000  ZZZ=              0.0000  XYY=              0.0000
  XXY=              0.0000  XXZ=              0.0000  XZZ=              0.0000  YZZ=              0.0000
  YYZ=              0.0000  XYZ=              0.0000
 Hexadecapole moment (field-independent basis, Debye-Ang**3):
 XXXX=          -1283.8897 YYYY=          -1283.8897 ZZZZ=           -604.1065 XXXY=              0.0000
 XXXZ=              0.0000 YYYX=              0.0000 YYYZ=              0.0000 ZZZX=              0.0000
 ZZZY=              0.0000 XXYY=           -427.9632 XXZZ=           -272.6380 YYZZ=           -272.6380
 XXYZ=              0.0000 YYXZ=              0.0000 ZZXY=              0.0000
 N-N= 7.839651031169D+02 E-N=-9.601501849614D+03  KE= 3.028539545514D+03
 Symmetry A1   KE= 1.544758249369D+03
 Symmetry A2   KE= 1.121879370340D+02
 Symmetry B1   KE= 8.655114281671D+02
 Symmetry B2   KE= 5.060819309439D+02
                          Isotropic Fermi Contact Couplings
        Atom                 a.u.       MegaHertz       Gauss      10(-4) cm-1
     1  Si(29)             0.00395      -3.50954      -1.25229      -1.17066
     2  Si(29)             0.00395      -3.50954      -1.25229      -1.17066
     3  Si(29)             0.00395      -3.50954      -1.25229      -1.17066
     4  Si(29)             0.00395      -3.50954      -1.25229      -1.17066
     5  Si(29)             0.00395      -3.50954      -1.25229      -1.17066
     6  Si(29)             0.16274    -144.62924     -51.60731     -48.24312
     7  Si(29)             0.16274    -144.62924     -51.60731     -48.24312
 --------------------------------------------------------
       Center         ----  Spin Dipole Couplings  ----
                      3XX-RR        3YY-RR        3ZZ-RR
 --------------------------------------------------------
     1   Atom       -0.087582     -0.096337      0.183919
     2   Atom       -0.095501     -0.088418      0.183919
     3   Atom       -0.090607     -0.093312      0.183919
     4   Atom       -0.090607     -0.093312      0.183919
     5   Atom       -0.095501     -0.088418      0.183919
     6   Atom       -0.281469     -0.281469      0.562937
     7   Atom       -0.281469     -0.281469      0.562937
 --------------------------------------------------------
                        XY            XZ            YZ
 --------------------------------------------------------
     1   Atom        0.000000      0.000000      0.000000
     2   Atom       -0.002573      0.000000      0.000000
     3   Atom        0.004163      0.000000      0.000000
     4   Atom       -0.004163      0.000000      0.000000
     5   Atom        0.002573      0.000000      0.000000
     6   Atom        0.000000      0.000000      0.000000
     7   Atom        0.000000      0.000000      0.000000
 --------------------------------------------------------


 ---------------------------------------------------------------------------------
              Anisotropic Spin Dipole Couplings in Principal Axis System
 ---------------------------------------------------------------------------------

       Atom             a.u.   MegaHertz   Gauss  10(-4) cm-1        Axes

              Baa    -0.0963    10.220     3.647     3.409  0.0000  1.0000  0.0000
     1 Si(29) Bbb    -0.0876     9.291     3.315     3.099  1.0000  0.0000  0.0000
              Bcc     0.1839   -19.511    -6.962    -6.508  0.0000  0.0000  1.0000
 
              Baa    -0.0963    10.220     3.647     3.409  0.9511  0.3090  0.0000
     2 Si(29) Bbb    -0.0876     9.291     3.315     3.099 -0.3090  0.9511  0.0000
              Bcc     0.1839   -19.511    -6.962    -6.508  0.0000  0.0000  1.0000
 
              Baa    -0.0963    10.220     3.647     3.409 -0.5878  0.8090  0.0000
     3 Si(29) Bbb    -0.0876     9.291     3.315     3.099  0.8090  0.5878  0.0000
              Bcc     0.1839   -19.511    -6.962    -6.508  0.0000  0.0000  1.0000
 
              Baa    -0.0963    10.220     3.647     3.409  0.5878  0.8090  0.0000
     4 Si(29) Bbb    -0.0876     9.291     3.315     3.099  0.8090 -0.5878  0.0000
              Bcc     0.1839   -19.511    -6.962    -6.508  0.0000  0.0000  1.0000
 
              Baa    -0.0963    10.220     3.647     3.409  0.9511 -0.3090  0.0000
     5 Si(29) Bbb    -0.0876     9.291     3.315     3.099  0.3090  0.9511  0.0000
              Bcc     0.1839   -19.511    -6.962    -6.508  0.0000  0.0000  1.0000
 
              Baa    -0.2815    29.859    10.655     9.960  0.8951 -0.4459  0.0000
     6 Si(29) Bbb    -0.2815    29.859    10.655     9.960  0.4459  0.8951  0.0000
              Bcc     0.5629   -59.719   -21.309   -19.920  0.0000  0.0000  1.0000
 
              Baa    -0.2815    29.859    10.655     9.960  0.9998  0.0199  0.0000
     7 Si(29) Bbb    -0.2815    29.859    10.655     9.960 -0.0199  0.9998  0.0000
              Bcc     0.5629   -59.719   -21.309   -19.920  0.0000  0.0000  1.0000
 

 ---------------------------------------------------------------------------------

 Calling FoFJK, ICntrl=      2127 FMM=F ISym2X=1 I1Cent= 0 IOpClX= 1 NMat=1 NMatS=1 NMatT=0.
 ***** Axes restored to original set *****
 -------------------------------------------------------------------
 Center     Atomic                   Forces (Hartrees/Bohr)
 Number     Number              X              Y              Z
 -------------------------------------------------------------------
      1       14           0.000932961    0.001284111    0.000000000
      2       14           0.001509562   -0.000490487    0.000000000
      3       14           0.000000000   -0.001587248    0.000000000
      4       14          -0.001509562   -0.000490487    0.000000000
      5       14          -0.000932961    0.001284111    0.000000000
      6       14           0.000000000    0.000000000   -0.002656211
      7       14           0.000000000    0.000000000    0.002656211
 -------------------------------------------------------------------
 Cartesian Forces:  Max     0.002656211 RMS     0.001127739

 GradGradGradGradGradGradGradGradGradGradGradGradGradGradGradGradGradGrad
 Berny optimization.
 Internal  Forces:  Max     0.000860314 RMS     0.000400566
 Search for a local minimum.
 Step number   1 out of a maximum of   46
 All quantities printed in internal units (Hartrees-Bohrs-Radians)
 Mixed Optimization -- En-DIIS/RFO-DIIS
 Second derivative matrix not updated -- first step.
     Eigenvalues ---    0.05029   0.05029   0.07791   0.08602   0.08602
     Eigenvalues ---    0.08739   0.08739   0.10474   0.10474   0.11101
     Eigenvalues ---    0.11824   0.12196   0.12196   0.12423   0.12423
     Eigenvalues --- 1000.000001000.000001000.000001000.000001000.00000
     Eigenvalues --- 1000.000001000.000001000.000001000.000001000.00000
     Eigenvalues --- 1000.000001000.000001000.000001000.000001000.00000
     Eigenvalues --- 1000.000001000.000001000.000001000.000001000.00000
     Eigenvalues --- 1000.00000
 RFO step:  Lambda=-7.09018551D-05 EMin= 5.02891118D-02
 Linear search not attempted -- first point.
 Iteration  1 RMS(Cart)=  0.00229906 RMS(Int)=  0.00000078
 Iteration  2 RMS(Cart)=  0.00000027 RMS(Int)=  0.00000067
 ClnCor:  largest displacement from symmetrization is 1.43D-12 for atom     2.
 Variable       Old X    -DE/DX   Delta X   Delta X   Delta X     New X
                                 (Linear)    (Quad)   (Total)
    R1        4.63877  -0.00052   0.00000  -0.00550  -0.00550   4.63327
    R2        4.63877  -0.00052   0.00000  -0.00550  -0.00550   4.63327
    R3        4.81915  -0.00061   0.00000  -0.00748  -0.00748   4.81167
    R4        4.81915  -0.00061   0.00000  -0.00748  -0.00748   4.81167
    R5        4.63877  -0.00052   0.00000  -0.00550  -0.00550   4.63327
    R6        4.81915  -0.00061   0.00000  -0.00748  -0.00748   4.81167
    R7        4.81915  -0.00061   0.00000  -0.00748  -0.00748   4.81167
    R8        4.63877  -0.00052   0.00000  -0.00550  -0.00550   4.63327
    R9        4.81915  -0.00061   0.00000  -0.00748  -0.00748   4.81167
   R10        4.81915  -0.00061   0.00000  -0.00748  -0.00748   4.81167
   R11        4.63877  -0.00052   0.00000  -0.00550  -0.00550   4.63327
   R12        4.81915  -0.00061   0.00000  -0.00748  -0.00748   4.81167
   R13        4.81915  -0.00061   0.00000  -0.00748  -0.00748   4.81167
   R14        4.81915  -0.00061   0.00000  -0.00748  -0.00748   4.81167
   R15        4.81915  -0.00061   0.00000  -0.00748  -0.00748   4.81167
   R16        5.53299  -0.00086   0.00000  -0.01271  -0.01271   5.52028
    A1        1.88496   0.00000   0.00000   0.00000   0.00000   1.88496
    A2        1.88496   0.00000   0.00000   0.00000   0.00000   1.88496
    A3        1.88496   0.00000   0.00000   0.00000   0.00000   1.88496
    A4        1.88496   0.00000   0.00000   0.00000   0.00000   1.88496
    A5        1.88496   0.00000   0.00000   0.00000   0.00000   1.88496
    A6        1.78530   0.00004   0.00000   0.00091   0.00091   1.78621
    A7        1.78530   0.00004   0.00000   0.00091   0.00091   1.78621
    A8        1.78530   0.00004   0.00000   0.00091   0.00091   1.78621
    A9        1.78530   0.00004   0.00000   0.00091   0.00091   1.78621
   A10        1.78530   0.00004   0.00000   0.00091   0.00091   1.78621
   A11        1.78530   0.00004   0.00000   0.00091   0.00091   1.78621
   A12        1.78530   0.00004   0.00000   0.00091   0.00091   1.78621
   A13        1.78530   0.00004   0.00000   0.00091   0.00091   1.78621
   A14        1.78530   0.00004   0.00000   0.00091   0.00091   1.78621
   A15        1.78530   0.00004   0.00000   0.00091   0.00091   1.78621
    D1        0.00000   0.00000   0.00000   0.00000   0.00000   0.00000
    D2        0.00000   0.00000   0.00000   0.00000   0.00000   0.00000
    D3        0.00000   0.00000   0.00000   0.00000   0.00000   0.00000
    D4        0.00000   0.00000   0.00000   0.00000   0.00000   0.00000
    D5        0.00000   0.00000   0.00000   0.00000   0.00000   0.00000
         Item               Value     Threshold  Converged?
 Maximum Force            0.000860     0.000450     NO 
 RMS     Force            0.000401     0.000300     NO 
 Maximum Displacement     0.006354     0.001800     NO 
 RMS     Displacement     0.002299     0.001200     NO 
 Predicted change in Energy=-3.547974D-05
 GradGradGradGradGradGradGradGradGradGradGradGradGradGradGradGradGradGrad

                          Input orientation:                          
 ---------------------------------------------------------------------
 Center     Atomic      Atomic             Coordinates (Angstroms)
 Number     Number       Type             X           Y           Z
 ---------------------------------------------------------------------
      1         14           0       -1.225910   -1.687320    0.000000
      2         14           0       -1.983564    0.644499    0.000000
      3         14           0        0.000000    2.085642    0.000000
      4         14           0        1.983564    0.644499    0.000000
      5         14           0        1.225910   -1.687320    0.000000
      6         14           0        0.000000    0.000000    1.460604
      7         14           0        0.000000    0.000000   -1.460604
 ---------------------------------------------------------------------
                    Distance matrix (angstroms):
                    1          2          3          4          5
     1  Si   0.000000
     2  Si   2.451820   0.000000
     3  Si   3.967127   2.451820   0.000000
     4  Si   3.967127   3.967127   2.451820   0.000000
     5  Si   2.451820   3.967127   3.967127   2.451820   0.000000
     6  Si   2.546226   2.546226   2.546226   2.546226   2.546226
     7  Si   2.546226   2.546226   2.546226   2.546226   2.546226
                    6          7
     6  Si   0.000000
     7  Si   2.921209   0.000000
 Stoichiometry    Si7(1-,2)
 Framework group  D5H[C5(Si.Si),5C2(Si)]
 Deg. of freedom     2
 Full point group                 D5H     NOp  20
 Largest Abelian subgroup         C2V     NOp   4
 Largest concise Abelian subgroup C2V     NOp   4
                         Standard orientation:                         
 ---------------------------------------------------------------------
 Center     Atomic      Atomic             Coordinates (Angstroms)
 Number     Number       Type             X           Y           Z
 ---------------------------------------------------------------------
      1         14           0        0.000000    2.085642    0.000000
      2         14           0        1.983564    0.644499    0.000000
      3         14           0        1.225910   -1.687320    0.000000
      4         14           0       -1.225910   -1.687320    0.000000
      5         14           0       -1.983564    0.644499    0.000000
      6         14           0        0.000000    0.000000    1.460604
      7         14           0        0.000000    0.000000   -1.460604
 ---------------------------------------------------------------------
 Rotational constants (GHZ):      1.1930223      1.1930223      0.8305533
 Standard basis: GTBas3 (6D, 7F)
 There are    81 symmetry adapted basis functions of A1  symmetry.
 There are    33 symmetry adapted basis functions of A2  symmetry.
 There are    61 symmetry adapted basis functions of B1  symmetry.
 There are    49 symmetry adapted basis functions of B2  symmetry.
 Integral buffers will be    131072 words long.
 Raffenetti 2 integral format.
 Two-electron integral symmetry is turned on.
   224 basis functions,   476 primitive gaussians,   245 cartesian basis functions
    50 alpha electrons       49 beta electrons
       nuclear repulsion energy       785.0848676969 Hartrees.
 NAtoms=    7 NActive=    7 NUniq=    2 SFac= 3.00D+00 NAtFMM=   80 NAOKFM=F Big=F
 One-electron integrals computed using PRISM.
 NBasis=   224 RedAO= T  NBF=    81    33    61    49
 NBsUse=   224 1.00D-06 NBFU=    81    33    61    49
 Initial guess read from the read-write file.
 B after Tr=     0.000000    0.000000    0.000000
         Rot=    1.000000    0.000000    0.000000    0.000000 Ang=   0.00 deg.
 Initial guess orbital symmetries:
 Alpha Orbitals:
       Occupied  (A1') (A2") (E1') (E1') (E2') (E2') (A1') (A1')
                 (A2") (A1') (E1') (E1') (E2') (E2') (A2") (A1')
                 (E1") (E1") (E1') (E1') (A2") (E2") (E2") (E1")
                 (E1") (E2') (E2') (E1') (E1') (A2') (A1') (E1')
                 (E1') (E2') (E2') (A1') (E1') (E1') (A2") (E2')
                 (E2') (A1') (A1') (E1") (E1") (E1') (E1') (E2')
                 (E2') (A2")
       Virtual   (E2") (E2") (A2") (E1') (E1') (E2') (E2') (A1')
                 (E1') (E1') (E1") (E1") (A2') (A1') (E1') (E1')
                 (E1") (E1") (A1') (E2') (E2') (A2") (E2") (E2")
                 (E2') (E2') (A1') (E1') (E1') (E2") (E2") (A2")
                 (E1') (E1') (E2') (E2') (E1") (E1") (A1') (A2')
                 (E1") (E1") (E1') (E1') (A2") (E2") (E2") (E1')
                 (E1') (E2') (E2') (A1') (E1") (E1") (E2') (E2')
                 (A1") (A2") (E1') (E1') (E2') (E2') (E2") (E2")
                 (A1') (E1') (E1') (E2') (E2') (A2") (E1") (E1")
                 (E1') (E1') (A1') (A2') (E2") (E2") (E2') (E2')
                 (A1') (E1') (E1') (A2") (E2') (E2') (E1") (E1")
                 (E2') (E2') (A1') (A2") (E1") (E1") (E2") (E2")
                 (E1') (E1') (A1') (E2') (E2') (E1') (E1') (E1")
                 (E1") (E2") (E2") (E1') (E1') (A2') (E2') (E2')
                 (A1') (A2") (E2") (E2") (E1') (E1') (A1") (E2')
                 (E2') (E1") (E1") (E2") (E2") (A2") (E2') (E2')
                 (E1') (E1') (A1') (A2') (E2") (E2") (E1') (E1')
                 (E2') (E2') (E1") (E1") (A2") (E1') (E1') (E1")
                 (E1") (A1') (A1') (A2') (E2") (E2") (E1') (E1')
                 (A1") (E2') (E2') (E2") (E2") (E1") (E1") (A1')
                 (E1') (E1') (A2") (E2') (E2') (E2') (E2') (A1')
                 (E2') (E2') (A2") (E1') (E1') (A1')
 Beta  Orbitals:
       Occupied  (A1') (A2") (E1') (E1') (E2') (E2') (A1') (A1')
                 (A2") (A1') (E1') (E1') (E2') (E2') (E1") (E1")
                 (E1') (E1') (A1') (A2") (A2") (E2") (E2") (E1")
                 (E1") (E2') (E2') (E1') (E1') (A2') (A1') (E1')
                 (E1') (E2') (E2') (A1') (E1') (E1') (A2") (E2')
                 (E2') (A1') (E1") (E1") (A1') (E1') (E1') (E2')
                 (E2')
       Virtual   (A2") (E2") (E2") (A2") (E1') (E1') (E2') (E2')
                 (A1') (E1') (E1') (E1") (E1") (A2') (A1') (E1')
                 (E1') (E1") (E1") (E2') (E2') (A1') (E2") (E2")
                 (A2") (E2') (E2') (A1') (E1') (E1') (E2") (E2")
                 (A2") (E1') (E1') (E2') (E2') (E1") (E1") (A1')
                 (A2') (E1') (E1') (E1") (E1") (E2") (E2") (A2")
                 (E1') (E1') (E2') (E2') (A1') (E1") (E1") (E2')
                 (E2') (A1") (A2") (E1') (E1') (E2') (E2') (E2")
                 (E2") (A1') (E1') (E1') (E2') (E2') (A2") (E1")
                 (E1") (E1') (E1') (A1') (A2') (E2") (E2") (E2')
                 (E2') (A1') (E1') (E1') (A2") (E2') (E2') (E1")
                 (E1") (E2') (E2') (A1') (A2") (E1") (E1") (E2")
                 (E2") (E1') (E1') (A1') (E2') (E2') (E1') (E1')
                 (E1") (E1") (E2") (E2") (E1') (E1') (A2') (E2')
                 (E2') (A1') (E2") (E2") (A2") (E1') (E1') (A1")
                 (E2') (E2') (E1") (E1") (E2") (E2") (A2") (E2')
                 (E2') (E1') (E1') (A1') (A2') (E2") (E2") (E1')
                 (E1') (E2') (E2') (E1") (E1") (A2") (E1') (E1')
                 (E1") (E1") (A1') (A1') (A2') (E2") (E2") (E1')
                 (E1') (A1") (E2') (E2') (E2") (E2") (E1") (E1")
                 (A1') (E1') (E1') (A2") (E2') (E2') (E2') (E2')
                 (A1') (E2') (E2') (A2") (E1') (E1') (A1')
 Initial guess <Sx>= 0.0000 <Sy>= 0.0000 <Sz>= 0.5000 <S**2>= 0.7559 S= 0.5029
 Requested convergence on RMS density matrix=1.00D-08 within 128 cycles.
 Requested convergence on MAX density matrix=1.00D-06.
 Requested convergence on             energy=1.00D-06.
 No special actions if energy rises.
 Keep R1 and R2 ints in memory in canonical form, NReq=915850464.
 SCF Done:  E(UB3LYP) =  -2026.50582919     A.U. after    9 cycles
             Convg  =    0.8986D-09             -V/T =  2.0035
 <Sx>= 0.0000 <Sy>= 0.0000 <Sz>= 0.5000 <S**2>= 0.7559 S= 0.5029
 <L.S>= 0.000000000000E+00
 Annihilation of the first spin contaminant:
 S**2 before annihilation     0.7559,   after     0.7500
 QCSCF skips out because SCF is already converged.
 Calling FoFJK, ICntrl=      2127 FMM=F ISym2X=1 I1Cent= 0 IOpClX= 1 NMat=1 NMatS=1 NMatT=0.
 ***** Axes restored to original set *****
 -------------------------------------------------------------------
 Center     Atomic                   Forces (Hartrees/Bohr)
 Number     Number              X              Y              Z
 -------------------------------------------------------------------
      1       14           0.000466965    0.000642723    0.000000000
      2       14           0.000755566   -0.000245498    0.000000000
      3       14           0.000000000   -0.000794449    0.000000000
      4       14          -0.000755566   -0.000245498    0.000000000
      5       14          -0.000466965    0.000642723    0.000000000
      6       14           0.000000000    0.000000000   -0.001666287
      7       14           0.000000000    0.000000000    0.001666287
 -------------------------------------------------------------------
 Cartesian Forces:  Max     0.001666287 RMS     0.000643975

 GradGradGradGradGradGradGradGradGradGradGradGradGradGradGradGradGradGrad
 Berny optimization.
 Using GEDIIS/GDIIS optimizer.
 Internal  Forces:  Max     0.000623947 RMS     0.000223763
 Search for a local minimum.
 Step number   2 out of a maximum of   46
 All quantities printed in internal units (Hartrees-Bohrs-Radians)
 Mixed Optimization -- En-DIIS/RFO-DIIS
 Swaping is turned off.
 Update second derivatives using D2CorX and points    1    2
 DE= -5.54D-05 DEPred=-3.55D-05 R= 1.56D+00
 SS=  1.41D+00  RLast= 2.97D-02 DXNew= 5.0454D-01 8.9029D-02
 Trust test= 1.56D+00 RLast= 2.97D-02 DXMaxT set to 3.00D-01
     Eigenvalues ---    0.03365   0.05025   0.05025   0.08603   0.08603
     Eigenvalues ---    0.08741   0.08741   0.10475   0.10475   0.11303
     Eigenvalues ---    0.11838   0.12203   0.12203   0.12428   0.12428
     Eigenvalues --- 1000.000001000.000001000.000001000.000001000.00000
     Eigenvalues --- 1000.000001000.000001000.000001000.000001000.00000
     Eigenvalues --- 1000.000001000.000001000.000001000.000001000.00000
     Eigenvalues --- 1000.000001000.000001000.000001000.000001000.00000
     Eigenvalues --- 1000.00000
 En-DIIS/RFO-DIIS IScMMF=        0 using points:     2    1
 RFO step:  Lambda=-9.79251698D-06.
 DIIS coeffs:      2.27753     -1.27753
 Iteration  1 RMS(Cart)=  0.00301089 RMS(Int)=  0.00000313
 Iteration  2 RMS(Cart)=  0.00000087 RMS(Int)=  0.00000281
 ClnCor:  largest displacement from symmetrization is 2.21D-12 for atom     3.
 Variable       Old X    -DE/DX   Delta X   Delta X   Delta X     New X
                                  (DIIS)     (GDIIS)  (Total)
    R1        4.63327  -0.00023  -0.00703   0.00107  -0.00596   4.62731
    R2        4.63327  -0.00023  -0.00703   0.00107  -0.00596   4.62731
    R3        4.81167  -0.00034  -0.00956  -0.00030  -0.00986   4.80181
    R4        4.81167  -0.00034  -0.00956  -0.00030  -0.00986   4.80181
    R5        4.63327  -0.00023  -0.00703   0.00107  -0.00596   4.62731
    R6        4.81167  -0.00034  -0.00956  -0.00030  -0.00986   4.80181
    R7        4.81167  -0.00034  -0.00956  -0.00030  -0.00986   4.80181
    R8        4.63327  -0.00023  -0.00703   0.00107  -0.00596   4.62731
    R9        4.81167  -0.00034  -0.00956  -0.00030  -0.00986   4.80181
   R10        4.81167  -0.00034  -0.00956  -0.00030  -0.00986   4.80181
   R11        4.63327  -0.00023  -0.00703   0.00107  -0.00596   4.62731
   R12        4.81167  -0.00034  -0.00956  -0.00030  -0.00986   4.80181
   R13        4.81167  -0.00034  -0.00956  -0.00030  -0.00986   4.80181
   R14        4.81167  -0.00034  -0.00956  -0.00030  -0.00986   4.80181
   R15        4.81167  -0.00034  -0.00956  -0.00030  -0.00986   4.80181
   R16        5.52028  -0.00062  -0.01624  -0.00366  -0.01990   5.50039
    A1        1.88496   0.00000   0.00000   0.00000   0.00000   1.88496
    A2        1.88496   0.00000   0.00000   0.00000   0.00000   1.88496
    A3        1.88496   0.00000   0.00000   0.00000   0.00000   1.88496
    A4        1.88496   0.00000   0.00000   0.00000   0.00000   1.88496
    A5        1.88496   0.00000   0.00000   0.00000   0.00000   1.88496
    A6        1.78621   0.00005   0.00116   0.00073   0.00190   1.78810
    A7        1.78621   0.00005   0.00116   0.00073   0.00190   1.78810
    A8        1.78621   0.00005   0.00116   0.00073   0.00190   1.78810
    A9        1.78621   0.00005   0.00116   0.00073   0.00190   1.78810
   A10        1.78621   0.00005   0.00116   0.00073   0.00190   1.78810
   A11        1.78621   0.00005   0.00116   0.00073   0.00190   1.78810
   A12        1.78621   0.00005   0.00116   0.00073   0.00190   1.78810
   A13        1.78621   0.00005   0.00116   0.00073   0.00190   1.78810
   A14        1.78621   0.00005   0.00116   0.00073   0.00190   1.78810
   A15        1.78621   0.00005   0.00116   0.00073   0.00190   1.78810
    D1        0.00000   0.00000   0.00000   0.00000   0.00000   0.00000
    D2        0.00000   0.00000   0.00000   0.00000   0.00000   0.00000
    D3        0.00000   0.00000   0.00000   0.00000   0.00000   0.00000
    D4        0.00000   0.00000   0.00000   0.00000   0.00000   0.00000
    D5        0.00000   0.00000   0.00000   0.00000   0.00000   0.00000
         Item               Value     Threshold  Converged?
 Maximum Force            0.000624     0.000450     NO 
 RMS     Force            0.000224     0.000300     YES
 Maximum Displacement     0.009948     0.001800     NO 
 RMS     Displacement     0.003011     0.001200     NO 
 Predicted change in Energy=-2.663827D-05
 GradGradGradGradGradGradGradGradGradGradGradGradGradGradGradGradGradGrad

                          Input orientation:                          
 ---------------------------------------------------------------------
 Center     Atomic      Atomic             Coordinates (Angstroms)
 Number     Number       Type             X           Y           Z
 ---------------------------------------------------------------------
      1         14           0       -1.224333   -1.685149    0.000000
      2         14           0       -1.981012    0.643670    0.000000
      3         14           0        0.000000    2.082959    0.000000
      4         14           0        1.981012    0.643670    0.000000
      5         14           0        1.224333   -1.685149    0.000000
      6         14           0        0.000000    0.000000    1.455340
      7         14           0        0.000000    0.000000   -1.455340
 ---------------------------------------------------------------------
                    Distance matrix (angstroms):
                    1          2          3          4          5
     1  Si   0.000000
     2  Si   2.448665   0.000000
     3  Si   3.962024   2.448665   0.000000
     4  Si   3.962024   3.962024   2.448665   0.000000
     5  Si   2.448665   3.962024   3.962024   2.448665   0.000000
     6  Si   2.541010   2.541010   2.541010   2.541010   2.541010
     7  Si   2.541010   2.541010   2.541010   2.541010   2.541010
                    6          7
     6  Si   0.000000
     7  Si   2.910680   0.000000
 Stoichiometry    Si7(1-,2)
 Framework group  D5H[C5(Si.Si),5C2(Si)]
 Deg. of freedom     2
 Full point group                 D5H     NOp  20
 Largest Abelian subgroup         C2V     NOp   4
 Largest concise Abelian subgroup C2V     NOp   4
                         Standard orientation:                         
 ---------------------------------------------------------------------
 Center     Atomic      Atomic             Coordinates (Angstroms)
 Number     Number       Type             X           Y           Z
 ---------------------------------------------------------------------
      1         14           0        0.000000    2.082959    0.000000
      2         14           0        1.981012    0.643670    0.000000
      3         14           0        1.224333   -1.685149    0.000000
      4         14           0       -1.224333   -1.685149    0.000000
      5         14           0       -1.981012    0.643670    0.000000
      6         14           0        0.000000    0.000000    1.455340
      7         14           0        0.000000    0.000000   -1.455340
 ---------------------------------------------------------------------
 Rotational constants (GHZ):      1.1976623      1.1976623      0.8326943
 Standard basis: GTBas3 (6D, 7F)
 There are    81 symmetry adapted basis functions of A1  symmetry.
 There are    33 symmetry adapted basis functions of A2  symmetry.
 There are    61 symmetry adapted basis functions of B1  symmetry.
 There are    49 symmetry adapted basis functions of B2  symmetry.
 Integral buffers will be    131072 words long.
 Raffenetti 2 integral format.
 Two-electron integral symmetry is turned on.
   224 basis functions,   476 primitive gaussians,   245 cartesian basis functions
    50 alpha electrons       49 beta electrons
       nuclear repulsion energy       786.4902727866 Hartrees.
 NAtoms=    7 NActive=    7 NUniq=    2 SFac= 3.00D+00 NAtFMM=   80 NAOKFM=F Big=F
 One-electron integrals computed using PRISM.
 NBasis=   224 RedAO= T  NBF=    81    33    61    49
 NBsUse=   224 1.00D-06 NBFU=    81    33    61    49
 Initial guess read from the read-write file.
 B after Tr=     0.000000    0.000000    0.000000
         Rot=    1.000000    0.000000    0.000000    0.000000 Ang=   0.00 deg.
 Initial guess orbital symmetries:
 Alpha Orbitals:
       Occupied  (A1') (A2") (E1') (E1') (E2') (E2') (A1') (A1')
                 (A2") (A1') (E1') (E1') (E2') (E2') (A2") (A1')
                 (E1") (E1") (E1') (E1') (A2") (E2") (E2") (E1")
                 (E1") (E2') (E2') (E1') (E1') (A2') (A1') (E1')
                 (E1') (E2') (E2') (A1') (E1') (E1') (A2") (E2')
                 (E2') (A1') (A1') (E1") (E1") (E1') (E1') (E2')
                 (E2') (A2")
       Virtual   (E2") (E2") (A2") (E1') (E1') (E2') (E2') (A1')
                 (E1') (E1') (E1") (E1") (A2') (A1') (E1') (E1')
                 (E1") (E1") (A1') (E2') (E2') (A2") (E2") (E2")
                 (E2') (E2') (A1') (E1') (E1') (E2") (E2") (A2")
                 (E1') (E1') (E2') (E2') (E1") (E1") (A1') (A2')
                 (E1") (E1") (E1') (E1') (A2") (E2") (E2") (E1')
                 (E1') (E2') (E2') (A1') (E1") (E1") (E2') (E2')
                 (A1") (A2") (E1') (E1') (E2') (E2') (E2") (E2")
                 (A1') (E1') (E1') (E2') (E2') (A2") (E1") (E1")
                 (E1') (E1') (A1') (A2') (E2") (E2") (E2') (E2')
                 (A1') (E1') (E1') (A2") (E2') (E2') (E1") (E1")
                 (E2') (E2') (A1') (A2") (E1") (E1") (E2") (E2")
                 (E1') (E1') (A1') (E2') (E2') (E1') (E1') (E1")
                 (E1") (E2") (E2") (E1') (E1') (A2') (E2') (E2')
                 (A1') (A2") (E2") (E2") (E1') (E1') (A1") (E2')
                 (E2') (E1") (E1") (E2") (E2") (A2") (E2') (E2')
                 (E1') (E1') (A1') (A2') (E2") (E2") (E1') (E1')
                 (E2') (E2') (E1") (E1") (A2") (E1') (E1') (E1")
                 (E1") (A1') (A1') (A2') (E2") (E2") (E1') (E1')
                 (A1") (E2') (E2') (E2") (E2") (E1") (E1") (A1')
                 (E1') (E1') (A2") (E2') (E2') (E2') (E2') (A1')
                 (E2') (E2') (A2") (E1') (E1') (A1')
 Beta  Orbitals:
       Occupied  (A1') (A2") (E1') (E1') (E2') (E2') (A1') (A1')
                 (A2") (A1') (E1') (E1') (E2') (E2') (E1") (E1")
                 (E1') (E1') (A1') (A2") (A2") (E2") (E2") (E1")
                 (E1") (E2') (E2') (E1') (E1') (A2') (A1') (E1')
                 (E1') (E2') (E2') (A1') (E1') (E1') (A2") (E2')
                 (E2') (A1') (E1") (E1") (A1') (E1') (E1') (E2')
                 (E2')
       Virtual   (A2") (E2") (E2") (A2") (E1') (E1') (E2') (E2')
                 (A1') (E1') (E1') (E1") (E1") (A2') (A1') (E1')
                 (E1') (E1") (E1") (E2') (E2') (A1') (E2") (E2")
                 (A2") (E2') (E2') (A1') (E1') (E1') (E2") (E2")
                 (A2") (E1') (E1') (E2') (E2') (E1") (E1") (A1')
                 (A2') (E1') (E1') (E1") (E1") (E2") (E2") (A2")
                 (E1') (E1') (E2') (E2') (A1') (E1") (E1") (E2')
                 (E2') (A1") (A2") (E1') (E1') (E2') (E2') (E2")
                 (E2") (A1') (E1') (E1') (E2') (E2') (A2") (E1")
                 (E1") (E1') (E1') (A1') (A2') (E2") (E2") (E2')
                 (E2') (A1') (E1') (E1') (A2") (E2') (E2') (E1")
                 (E1") (E2') (E2') (A1') (A2") (E1") (E1") (E2")
                 (E2") (E1') (E1') (A1') (E2') (E2') (E1') (E1')
                 (E1") (E1") (E2") (E2") (E1') (E1') (A2') (E2')
                 (E2') (A1') (E2") (E2") (A2") (E1') (E1') (A1")
                 (E2') (E2') (E1") (E1") (E2") (E2") (A2") (E2')
                 (E2') (E1') (E1') (A1') (A2') (E2") (E2") (E1')
                 (E1') (E2') (E2') (E1") (E1") (A2") (E1') (E1')
                 (E1") (E1") (A1') (A1') (A2') (E2") (E2") (E1')
                 (E1') (A1") (E2') (E2') (E2") (E2") (E1") (E1")
                 (A1') (E1') (E1') (A2") (E2') (E2') (E2') (E2')
                 (A1') (E2') (E2') (A2") (E1') (E1') (A1')
 Initial guess <Sx>= 0.0000 <Sy>= 0.0000 <Sz>= 0.5000 <S**2>= 0.7559 S= 0.5029
 Requested convergence on RMS density matrix=1.00D-08 within 128 cycles.
 Requested convergence on MAX density matrix=1.00D-06.
 Requested convergence on             energy=1.00D-06.
 No special actions if energy rises.
 Keep R1 and R2 ints in memory in canonical form, NReq=915850464.
 SCF Done:  E(UB3LYP) =  -2026.50585625     A.U. after    9 cycles
             Convg  =    0.1687D-08             -V/T =  2.0035
 <Sx>= 0.0000 <Sy>= 0.0000 <Sz>= 0.5000 <S**2>= 0.7558 S= 0.5029
 <L.S>= 0.000000000000E+00
 Annihilation of the first spin contaminant:
 S**2 before annihilation     0.7558,   after     0.7500
 QCSCF skips out because SCF is already converged.
 Calling FoFJK, ICntrl=      2127 FMM=F ISym2X=1 I1Cent= 0 IOpClX= 1 NMat=1 NMatS=1 NMatT=0.
 ***** Axes restored to original set *****
 -------------------------------------------------------------------
 Center     Atomic                   Forces (Hartrees/Bohr)
 Number     Number              X              Y              Z
 -------------------------------------------------------------------
      1       14          -0.000086280   -0.000118754    0.000000000
      2       14          -0.000139604    0.000045360    0.000000000
      3       14           0.000000000    0.000146788    0.000000000
      4       14           0.000139604    0.000045360    0.000000000
      5       14           0.000086280   -0.000118754    0.000000000
      6       14           0.000000000    0.000000000   -0.000221105
      7       14           0.000000000    0.000000000    0.000221105
 -------------------------------------------------------------------
 Cartesian Forces:  Max     0.000221105 RMS     0.000098925

 GradGradGradGradGradGradGradGradGradGradGradGradGradGradGradGradGradGrad
 Berny optimization.
 Using GEDIIS/GDIIS optimizer.
 Internal  Forces:  Max     0.000187743 RMS     0.000052654
 Search for a local minimum.
 Step number   3 out of a maximum of   46
 All quantities printed in internal units (Hartrees-Bohrs-Radians)
 Mixed Optimization -- En-DIIS/RFO-DIIS
 Swaping is turned off.
 Update second derivatives using D2CorX and points    1    2    3
 DE= -2.71D-05 DEPred=-2.66D-05 R= 1.02D+00
 SS=  1.41D+00  RLast= 3.98D-02 DXNew= 5.0454D-01 1.1929D-01
 Trust test= 1.02D+00 RLast= 3.98D-02 DXMaxT set to 3.00D-01
     Eigenvalues ---    0.03211   0.05021   0.05021   0.08604   0.08604
     Eigenvalues ---    0.08745   0.08745   0.10476   0.10476   0.11860
     Eigenvalues ---    0.11868   0.12212   0.12212   0.12430   0.12430
     Eigenvalues --- 1000.000001000.000001000.000001000.000001000.00000
     Eigenvalues --- 1000.000001000.000001000.000001000.000001000.00000
     Eigenvalues --- 1000.000001000.000001000.000001000.000001000.00000
     Eigenvalues --- 1000.000001000.000001000.000001000.000001000.00000
     Eigenvalues --- 1000.00000
 En-DIIS/RFO-DIIS IScMMF=        0 using points:     3    2    1
 RFO step:  Lambda=-2.97395967D-07.
 DIIS coeffs:      2.48421     -3.43055      1.94634
 Iteration  1 RMS(Cart)=  0.00081854 RMS(Int)=  0.00000299
 Iteration  2 RMS(Cart)=  0.00000017 RMS(Int)=  0.00000296
 ClnCor:  largest displacement from symmetrization is 3.43D-12 for atom     4.
 Variable       Old X    -DE/DX   Delta X   Delta X   Delta X     New X
                                  (DIIS)     (GDIIS)  (Total)
    R1        4.62731   0.00009   0.00186   0.00000   0.00187   4.62917
    R2        4.62731   0.00009   0.00186   0.00000   0.00187   4.62917
    R3        4.80181   0.00001  -0.00007   0.00000  -0.00007   4.80174
    R4        4.80181   0.00001  -0.00007   0.00000  -0.00007   4.80174
    R5        4.62731   0.00009   0.00186   0.00000   0.00187   4.62917
    R6        4.80181   0.00001  -0.00007   0.00000  -0.00007   4.80174
    R7        4.80181   0.00001  -0.00007   0.00000  -0.00007   4.80174
    R8        4.62731   0.00009   0.00186   0.00000   0.00187   4.62917
    R9        4.80181   0.00001  -0.00007   0.00000  -0.00007   4.80174
   R10        4.80181   0.00001  -0.00007   0.00000  -0.00007   4.80174
   R11        4.62731   0.00009   0.00186   0.00000   0.00187   4.62917
   R12        4.80181   0.00001  -0.00007   0.00000  -0.00007   4.80174
   R13        4.80181   0.00001  -0.00007   0.00000  -0.00007   4.80174
   R14        4.80181   0.00001  -0.00007   0.00000  -0.00007   4.80174
   R15        4.80181   0.00001  -0.00007   0.00000  -0.00007   4.80174
   R16        5.50039  -0.00019  -0.00479   0.00000  -0.00480   5.49559
    A1        1.88496   0.00000   0.00000   0.00000   0.00000   1.88496
    A2        1.88496   0.00000   0.00000   0.00000   0.00000   1.88496
    A3        1.88496   0.00000   0.00000   0.00000   0.00000   1.88496
    A4        1.88496   0.00000   0.00000   0.00000   0.00000   1.88496
    A5        1.88496   0.00000   0.00000   0.00000   0.00000   1.88496
    A6        1.78810   0.00004   0.00105   0.00000   0.00104   1.78915
    A7        1.78810   0.00004   0.00105   0.00000   0.00104   1.78915
    A8        1.78810   0.00004   0.00105   0.00000   0.00104   1.78915
    A9        1.78810   0.00004   0.00105   0.00000   0.00104   1.78915
   A10        1.78810   0.00004   0.00105   0.00000   0.00104   1.78915
   A11        1.78810   0.00004   0.00105   0.00000   0.00104   1.78915
   A12        1.78810   0.00004   0.00105   0.00000   0.00104   1.78915
   A13        1.78810   0.00004   0.00105   0.00000   0.00104   1.78915
   A14        1.78810   0.00004   0.00105   0.00000   0.00104   1.78915
   A15        1.78810   0.00004   0.00105   0.00000   0.00104   1.78915
    D1        0.00000   0.00000   0.00000   0.00000   0.00000   0.00000
    D2        0.00000   0.00000   0.00000   0.00000   0.00000   0.00000
    D3        0.00000   0.00000   0.00000   0.00000   0.00000   0.00000
    D4        0.00000   0.00000   0.00000   0.00000   0.00000   0.00000
    D5        0.00000   0.00000   0.00000   0.00000   0.00000   0.00000
         Item               Value     Threshold  Converged?
 Maximum Force            0.000188     0.000450     YES
 RMS     Force            0.000053     0.000300     YES
 Maximum Displacement     0.002399     0.001800     NO 
 RMS     Displacement     0.000819     0.001200     YES
 Predicted change in Energy=-5.553544D-07
 GradGradGradGradGradGradGradGradGradGradGradGradGradGradGradGradGradGrad

                          Input orientation:                          
 ---------------------------------------------------------------------
 Center     Atomic      Atomic             Coordinates (Angstroms)
 Number     Number       Type             X           Y           Z
 ---------------------------------------------------------------------
      1         14           0       -1.224827   -1.685829    0.000000
      2         14           0       -1.981811    0.643929    0.000000
      3         14           0        0.000000    2.083799    0.000000
      4         14           0        1.981811    0.643929    0.000000
      5         14           0        1.224827   -1.685829    0.000000
      6         14           0        0.000000    0.000000    1.454070
      7         14           0        0.000000    0.000000   -1.454070
 ---------------------------------------------------------------------
                    Distance matrix (angstroms):
                    1          2          3          4          5
     1  Si   0.000000
     2  Si   2.449653   0.000000
     3  Si   3.963622   2.449653   0.000000
     4  Si   3.963622   3.963622   2.449653   0.000000
     5  Si   2.449653   3.963622   3.963622   2.449653   0.000000
     6  Si   2.540972   2.540972   2.540972   2.540972   2.540972
     7  Si   2.540972   2.540972   2.540972   2.540972   2.540972
                    6          7
     6  Si   0.000000
     7  Si   2.908141   0.000000
 Stoichiometry    Si7(1-,2)
 Framework group  D5H[C5(Si.Si),5C2(Si)]
 Deg. of freedom     2
 Full point group                 D5H     NOp  20
 Largest Abelian subgroup         C2V     NOp   4
 Largest concise Abelian subgroup C2V     NOp   4
                         Standard orientation:                         
 ---------------------------------------------------------------------
 Center     Atomic      Atomic             Coordinates (Angstroms)
 Number     Number       Type             X           Y           Z
 ---------------------------------------------------------------------
      1         14           0        0.000000    2.083799    0.000000
      2         14           0        1.981811    0.643929    0.000000
      3         14           0        1.224827   -1.685829    0.000000
      4         14           0       -1.224827   -1.685829    0.000000
      5         14           0       -1.981811    0.643929    0.000000
      6         14           0        0.000000    0.000000    1.454070
      7         14           0        0.000000    0.000000   -1.454070
 ---------------------------------------------------------------------
 Rotational constants (GHZ):      1.1975540      1.1975540      0.8320230
 Standard basis: GTBas3 (6D, 7F)
 There are    81 symmetry adapted basis functions of A1  symmetry.
 There are    33 symmetry adapted basis functions of A2  symmetry.
 There are    61 symmetry adapted basis functions of B1  symmetry.
 There are    49 symmetry adapted basis functions of B2  symmetry.
 Integral buffers will be    131072 words long.
 Raffenetti 2 integral format.
 Two-electron integral symmetry is turned on.
   224 basis functions,   476 primitive gaussians,   245 cartesian basis functions
    50 alpha electrons       49 beta electrons
       nuclear repulsion energy       786.3893299687 Hartrees.
 NAtoms=    7 NActive=    7 NUniq=    2 SFac= 3.00D+00 NAtFMM=   80 NAOKFM=F Big=F
 One-electron integrals computed using PRISM.
 NBasis=   224 RedAO= T  NBF=    81    33    61    49
 NBsUse=   224 1.00D-06 NBFU=    81    33    61    49
 Initial guess read from the read-write file.
 B after Tr=     0.000000    0.000000    0.000000
         Rot=    1.000000    0.000000    0.000000    0.000000 Ang=   0.00 deg.
 Initial guess orbital symmetries:
 Alpha Orbitals:
       Occupied  (A1') (A2") (E1') (E1') (E2') (E2') (A1') (A1')
                 (A2") (A1') (E1') (E1') (E2') (E2') (A2") (A1')
                 (E1") (E1") (E1') (E1') (A2") (E2") (E2") (E1")
                 (E1") (E2') (E2') (E1') (E1') (A2') (A1') (E1')
                 (E1') (E2') (E2') (A1') (E1') (E1') (A2") (E2')
                 (E2') (A1') (A1') (E1") (E1") (E1') (E1') (E2')
                 (E2') (A2")
       Virtual   (E2") (E2") (A2") (E1') (E1') (E2') (E2') (A1')
                 (E1') (E1') (E1") (E1") (A2') (A1') (E1') (E1')
                 (E1") (E1") (A1') (E2') (E2') (A2") (E2") (E2")
                 (E2') (E2') (A1') (E1') (E1') (E2") (E2") (A2")
                 (E1') (E1') (E2') (E2') (E1") (E1") (A1') (A2')
                 (E1") (E1") (E1') (E1') (E2") (E2") (A2") (E1')
                 (E1') (E2') (E2') (A1') (E1") (E1") (E2') (E2')
                 (A1") (A2") (E1') (E1') (E2') (E2') (E2") (E2")
                 (A1') (E1') (E1') (E2') (E2') (A2") (E1") (E1")
                 (E1') (E1') (A1') (A2') (E2") (E2") (E2') (E2')
                 (A1') (E1') (E1') (A2") (E2') (E2') (E1") (E1")
                 (E2') (E2') (A1') (A2") (E1") (E1") (E2") (E2")
                 (E1') (E1') (A1') (E2') (E2') (E1') (E1') (E1")
                 (E1") (E2") (E2") (E1') (E1') (A2') (E2') (E2')
                 (A1') (A2") (E2") (E2") (E1') (E1') (A1") (E2')
                 (E2') (E1") (E1") (E2") (E2") (A2") (E2') (E2')
                 (E1') (E1') (A1') (A2') (E2") (E2") (E1') (E1')
                 (E2') (E2') (E1") (E1") (A2") (E1') (E1') (E1")
                 (E1") (A1') (A1') (A2') (E2") (E2") (E1') (E1')
                 (A1") (E2') (E2') (E2") (E2") (E1") (E1") (A1')
                 (E1') (E1') (A2") (E2') (E2') (E2') (E2') (A1')
                 (E2') (E2') (A2") (E1') (E1') (A1')
 Beta  Orbitals:
       Occupied  (A1') (A2") (E1') (E1') (E2') (E2') (A1') (A1')
                 (A2") (A1') (E1') (E1') (E2') (E2') (E1") (E1")
                 (E1') (E1') (A1') (A2") (A2") (E2") (E2") (E1")
                 (E1") (E2') (E2') (E1') (E1') (A2') (A1') (E1')
                 (E1') (E2') (E2') (A1') (E1') (E1') (A2") (E2')
                 (E2') (A1') (E1") (E1") (A1') (E1') (E1') (E2')
                 (E2')
       Virtual   (A2") (E2") (E2") (A2") (E1') (E1') (E2') (E2')
                 (A1') (E1') (E1') (E1") (E1") (A2') (A1') (E1')
                 (E1') (E1") (E1") (E2') (E2') (A1') (E2") (E2")
                 (A2") (E2') (E2') (A1') (E1') (E1') (E2") (E2")
                 (A2") (E1') (E1') (E2') (E2') (E1") (E1") (A1')
                 (A2') (E1') (E1') (E1") (E1") (E2") (E2") (A2")
                 (E1') (E1') (E2') (E2') (A1') (E1") (E1") (E2')
                 (E2') (A1") (A2") (E1') (E1') (E2') (E2') (E2")
                 (E2") (A1') (E1') (E1') (E2') (E2') (A2") (E1")
                 (E1") (E1') (E1') (A1') (A2') (E2") (E2") (E2')
                 (E2') (A1') (E1') (E1') (A2") (E2') (E2') (E1")
                 (E1") (E2') (E2') (A1') (A2") (E1") (E1") (E2")
                 (E2") (E1') (E1') (A1') (E2') (E2') (E1') (E1')
                 (E1") (E1") (E2") (E2") (E1') (E1') (A2') (E2')
                 (E2') (A1') (E2") (E2") (A2") (E1') (E1') (A1")
                 (E2') (E2') (E1") (E1") (E2") (E2") (A2") (E2')
                 (E2') (E1') (E1') (A1') (A2') (E2") (E2") (E1')
                 (E1') (E2') (E2') (E1") (E1") (A2") (E1') (E1')
                 (E1") (E1") (A1') (A1') (A2') (E2") (E2") (E1')
                 (E1') (A1") (E2') (E2') (E2") (E2") (E1") (E1")
                 (A1') (E1') (E1') (A2") (E2') (E2') (E2') (E2')
                 (A1') (E2') (E2') (A2") (E1') (E1') (A1')
 Initial guess <Sx>= 0.0000 <Sy>= 0.0000 <Sz>= 0.5000 <S**2>= 0.7558 S= 0.5029
 Requested convergence on RMS density matrix=1.00D-08 within 128 cycles.
 Requested convergence on MAX density matrix=1.00D-06.
 Requested convergence on             energy=1.00D-06.
 No special actions if energy rises.
 Keep R1 and R2 ints in memory in canonical form, NReq=915850464.
 SCF Done:  E(UB3LYP) =  -2026.50585735     A.U. after    8 cycles
             Convg  =    0.4043D-08             -V/T =  2.0035
 <Sx>= 0.0000 <Sy>= 0.0000 <Sz>= 0.5000 <S**2>= 0.7558 S= 0.5029
 <L.S>= 0.000000000000E+00
 Annihilation of the first spin contaminant:
 S**2 before annihilation     0.7558,   after     0.7500
 QCSCF skips out because SCF is already converged.
 Calling FoFJK, ICntrl=      2127 FMM=F ISym2X=1 I1Cent= 0 IOpClX= 1 NMat=1 NMatS=1 NMatT=0.
 ***** Axes restored to original set *****
 -------------------------------------------------------------------
 Center     Atomic                   Forces (Hartrees/Bohr)
 Number     Number              X              Y              Z
 -------------------------------------------------------------------
      1       14           0.000013222    0.000018199    0.000000000
      2       14           0.000021394   -0.000006951    0.000000000
      3       14           0.000000000   -0.000022495    0.000000000
      4       14          -0.000021394   -0.000006951    0.000000000
      5       14          -0.000013222    0.000018199    0.000000000
      6       14           0.000000000    0.000000000   -0.000032450
      7       14           0.000000000    0.000000000    0.000032450
 -------------------------------------------------------------------
 Cartesian Forces:  Max     0.000032450 RMS     0.000014858

 GradGradGradGradGradGradGradGradGradGradGradGradGradGradGradGradGradGrad
 Berny optimization.
 Using GEDIIS/GDIIS optimizer.
 Internal  Forces:  Max     0.000009260 RMS     0.000005398
 Search for a local minimum.
 Step number   4 out of a maximum of   46
 All quantities printed in internal units (Hartrees-Bohrs-Radians)
 Mixed Optimization -- En-DIIS/RFO-DIIS
 Swaping is turned off.
 Update second derivatives using D2CorX and points    1    2    3    4
 DE= -1.10D-06 DEPred=-5.55D-07 R= 1.98D+00
 SS=  1.41D+00  RLast= 7.17D-03 DXNew= 5.0454D-01 2.1499D-02
 Trust test= 1.98D+00 RLast= 7.17D-03 DXMaxT set to 3.00D-01
     Eigenvalues ---    0.02878   0.05022   0.05022   0.05420   0.08605
     Eigenvalues ---    0.08605   0.08746   0.08746   0.10477   0.10477
     Eigenvalues ---    0.11866   0.12213   0.12213   0.12425   0.12425
     Eigenvalues --- 1000.000001000.000001000.000001000.000001000.00000
     Eigenvalues --- 1000.000001000.000001000.000001000.000001000.00000
[...]
  Beta virt. eigenvalues --    1.74855   1.75209   1.75209   1.76872   1.77688
  Beta virt. eigenvalues --    1.77688   1.82129   1.82129   1.84626   1.84626
  Beta virt. eigenvalues --    1.84901   1.84901   1.85425   1.85425   1.85568
  Beta virt. eigenvalues --    1.89531   1.90426   1.90426   1.90885   1.90885
  Beta virt. eigenvalues --    1.94000   1.94000   1.94835   1.94835   1.96925
  Beta virt. eigenvalues --    1.97070   1.97070   1.97856   1.97856   1.98910
  Beta virt. eigenvalues --    1.98910   1.99142   1.99142   2.00891   2.01339
  Beta virt. eigenvalues --    2.01339   2.03044   2.03044   2.03451   2.03451
  Beta virt. eigenvalues --    2.03500   2.03500   2.04648   2.07164   2.09138
  Beta virt. eigenvalues --    2.09138   2.11955   2.11955   2.12486   2.12486
  Beta virt. eigenvalues --    2.13354   2.13793   2.15448   2.15650   2.15650
  Beta virt. eigenvalues --    2.20177   2.20177   2.20250   2.20745   2.21239
  Beta virt. eigenvalues --    2.21792   2.21792   2.22909   2.22909   2.23348
  Beta virt. eigenvalues --    2.23348   2.25959   2.25959   2.26954   2.27875
  Beta virt. eigenvalues --    2.27875   2.28030   2.28030   2.28573   2.28573
  Beta virt. eigenvalues --    2.32158   2.32158   2.33260   2.35762   2.35762
  Beta virt. eigenvalues --    2.38327   2.38327   2.39133   2.39133   2.41000
  Beta virt. eigenvalues --    2.43464   2.43464   2.48047   2.48371   2.48371
  Beta virt. eigenvalues --    2.49160   2.49160   2.50617   2.50617   2.50685
  Beta virt. eigenvalues --    2.51673   2.51673   2.54658   2.54658   2.57574
  Beta virt. eigenvalues --    2.57574   2.61313   2.61823   2.61823   2.62584
  Beta virt. eigenvalues --    2.62584   2.65166   2.65166   2.66657   2.68247
  Beta virt. eigenvalues --    2.68247   2.74647   2.74647   2.86022   2.86022
  Beta virt. eigenvalues --    2.92417   2.94829   2.95409   2.95409   2.96836
  Beta virt. eigenvalues --    2.99172   2.99172   2.99206   2.99206   3.00850
  Beta virt. eigenvalues --    3.00850   3.01629   3.06646   3.06646   3.06879
  Beta virt. eigenvalues --    3.09017   3.16415   3.16415   3.27435   3.27435
  Beta virt. eigenvalues --    3.29364   3.29364   3.31184   3.32516   3.32516
  Beta virt. eigenvalues --    3.35245   3.35245   3.35787   3.39156   3.43336
  Beta virt. eigenvalues --    3.43336   3.47277   3.47414   3.47414   3.48077
  Beta virt. eigenvalues --    3.48077   3.48342   3.48342   3.49778   3.49778
  Beta virt. eigenvalues --    3.49990   3.49990   3.51549   3.51674   3.51674
  Beta virt. eigenvalues --    3.52290   3.52290   3.53512   3.53512   3.55567
  Beta virt. eigenvalues --    3.61010   3.61010   3.62110   3.62110   3.62589
  Beta virt. eigenvalues --    3.63919   3.63919   3.64621   3.64621   3.66034
  Beta virt. eigenvalues --    3.66034   3.68974   3.68974   3.69485   3.69598
  Beta virt. eigenvalues --    3.71437   3.71437   3.72000   3.72446   3.74800
  Beta virt. eigenvalues --    3.74839   3.74839   3.75049   3.75049   3.76365
  Beta virt. eigenvalues --    3.76365   3.77369   3.79275   3.79275   3.80438
  Beta virt. eigenvalues --    3.80438   3.80514   3.80514   3.81326   3.82153
  Beta virt. eigenvalues --    3.82153   3.82227   3.82227   3.86311   3.86311
  Beta virt. eigenvalues --    3.87693   3.87693   3.88734   3.88734   3.91399
  Beta virt. eigenvalues --    3.91399   3.94567   3.94567   3.94938   3.95889
  Beta virt. eigenvalues --    3.95889   3.96267   3.96267   4.01318   4.03427
  Beta virt. eigenvalues --    4.03821   4.03821   4.04646   4.04646   4.05017
  Beta virt. eigenvalues --    4.05340   4.10968   4.12462   4.12462   4.12728
  Beta virt. eigenvalues --    4.12728   4.15318   4.15783   4.15783   4.21251
  Beta virt. eigenvalues --    4.21251   4.23959   4.23959   4.25113   4.25534
  Beta virt. eigenvalues --    4.25534   4.26748   4.26748   4.28256   4.28256
  Beta virt. eigenvalues --    4.30217   4.33369   4.33369   4.33849   4.36013
  Beta virt. eigenvalues --    4.36013   4.36996   4.36996   4.37019   4.37019
  Beta virt. eigenvalues --    4.40737   4.40737   4.45034   4.45034   4.45941
  Beta virt. eigenvalues --    4.47396   4.48386   4.48672   4.48672   4.52059
  Beta virt. eigenvalues --    4.52059   4.52615   4.52615   4.54573   4.54573
  Beta virt. eigenvalues --    4.55933   4.55933   4.57186   4.58033   4.58033
  Beta virt. eigenvalues --    4.58624   4.59139   4.59139   4.61089   4.61089
  Beta virt. eigenvalues --    4.62469   4.62469   4.65487   4.65487   4.65505
  Beta virt. eigenvalues --    4.66595   4.66595   4.68698   4.68698   4.68878
  Beta virt. eigenvalues --    4.68878   4.72779   4.72779   4.75206   4.75352
  Beta virt. eigenvalues --    4.76489   4.76489   4.77281   4.78795   4.78795
  Beta virt. eigenvalues --    4.79868   4.82758   4.82758   4.83735   4.85915
  Beta virt. eigenvalues --    4.85915   4.86997   4.86997   4.88203   4.88203
  Beta virt. eigenvalues --    4.91990   4.92627   4.92627   4.93479   4.94433
  Beta virt. eigenvalues --    4.96057   4.96057   4.98405   4.98405   5.01008
  Beta virt. eigenvalues --    5.01008   5.05559   5.05559   5.05576   5.05576
  Beta virt. eigenvalues --    5.07748   5.07748   5.08585   5.10443   5.13007
  Beta virt. eigenvalues --    5.13007   5.13702   5.13702   5.16795   5.24909
  Beta virt. eigenvalues --    5.24909   5.29475   5.29475   5.32732   5.32732
  Beta virt. eigenvalues --    5.36669   5.36669   5.44120   5.44120   5.45012
  Beta virt. eigenvalues --    5.45012   5.46379   5.46857   5.48104   5.48104
  Beta virt. eigenvalues --    5.48330   5.48330   5.58584   5.58584   5.64977
  Beta virt. eigenvalues --    5.70213   5.70213   5.80508   5.80508   5.85833
  Beta virt. eigenvalues --    5.91429   6.59274   6.59274   6.75750   6.78231
  Beta virt. eigenvalues --    6.78231   6.96741   6.96741   7.03422   7.03422
  Beta virt. eigenvalues --    7.06472   7.07329   7.07329   7.07953   7.07953
  Beta virt. eigenvalues --    7.08493   7.10105   7.10105   7.13159   7.13813
  Beta virt. eigenvalues --    7.13813   7.15101   7.22418   7.22418   7.29011
  Beta virt. eigenvalues --    7.31713   7.31713   7.52063   7.52063   7.52514
  Beta virt. eigenvalues --    7.55934   7.55934   7.66204   7.66204   7.85253
  Beta virt. eigenvalues --    7.85253  14.09752  14.09752  14.14224  14.21449
  Beta virt. eigenvalues --   14.23098  14.23098  14.35259  14.35259  14.35314
  Beta virt. eigenvalues --   14.40002  14.40002  14.57597  14.57597  14.58150
  Beta virt. eigenvalues --   14.60542  14.60542  14.71371  14.71371  14.76484
  Beta virt. eigenvalues --   14.76484  14.81845  41.50162  41.67015  41.67015
  Beta virt. eigenvalues --   41.85778  41.85778  44.15229  44.21741
          Condensed to atoms (all electrons):
              1          2          3          4          5          6
     1  Si  13.351136   0.234981  -0.008442  -0.008442   0.234981   0.167917
     2  Si   0.234981  13.351136   0.234981  -0.008442  -0.008442   0.167917
     3  Si  -0.008442   0.234981  13.351136   0.234981  -0.008442   0.167917
     4  Si  -0.008442  -0.008442   0.234981  13.351136   0.234981   0.167917
     5  Si   0.234981  -0.008442  -0.008442   0.234981  13.351136   0.167917
     6  Si   0.167917   0.167917   0.167917   0.167917   0.167917  13.391138
     7  Si   0.167917   0.167917   0.167917   0.167917   0.167917  -0.080846
              7
     1  Si   0.167917
     2  Si   0.167917
     3  Si   0.167917
     4  Si   0.167917
     5  Si   0.167917
     6  Si  -0.080846
     7  Si  13.391138
 Mulliken atomic charges:
              1
     1  Si  -0.140049
     2  Si  -0.140049
     3  Si  -0.140049
     4  Si  -0.140049
     5  Si  -0.140049
     6  Si  -0.149877
     7  Si  -0.149877
 Sum of Mulliken atomic charges =  -1.00000
 Mulliken charges with hydrogens summed into heavy atoms:
              1
     1  Si  -0.140049
     2  Si  -0.140049
     3  Si  -0.140049
     4  Si  -0.140049
     5  Si  -0.140049
     6  Si  -0.149877
     7  Si  -0.149877
 Sum of Mulliken charges with hydrogens summed into heavy atoms =  -1.00000
          Atomic-Atomic Spin Densities.
              1          2          3          4          5          6
     1  Si   0.054035   0.000038  -0.005729  -0.005729   0.000038   0.021103
     2  Si   0.000038   0.054035   0.000038  -0.005729  -0.005729   0.021103
     3  Si  -0.005729   0.000038   0.054035   0.000038  -0.005729   0.021103
     4  Si  -0.005729  -0.005729   0.000038   0.054035   0.000038   0.021103
     5  Si   0.000038  -0.005729  -0.005729   0.000038   0.054035   0.021103
     6  Si   0.021103   0.021103   0.021103   0.021103   0.021103   0.351800
     7  Si   0.021103   0.021103   0.021103   0.021103   0.021103  -0.169462
              7
     1  Si   0.021103
     2  Si   0.021103
     3  Si   0.021103
     4  Si   0.021103
     5  Si   0.021103
     6  Si  -0.169462
     7  Si   0.351800
 Mulliken atomic spin densities:
              1
     1  Si   0.084859
     2  Si   0.084859
     3  Si   0.084859
     4  Si   0.084859
     5  Si   0.084859
     6  Si   0.287853
     7  Si   0.287853
 Sum of Mulliken atomic spin densities =   1.00000
 Electronic spatial extent (au):  <R**2>=           1556.1771
 Charge=             -1.0000 electrons
 Dipole moment (field-independent basis, Debye):
    X=              0.0000    Y=              0.0000    Z=              0.0000  Tot=              0.0000
 Quadrupole moment (field-independent basis, Debye-Ang):
   XX=           -120.6511   YY=           -120.6511   ZZ=           -107.4948
   XY=              0.0000   XZ=              0.0000   YZ=              0.0000
 Traceless Quadrupole moment (field-independent basis, Debye-Ang):
   XX=             -4.3854   YY=             -4.3854   ZZ=              8.7709
   XY=              0.0000   XZ=              0.0000   YZ=              0.0000
 Octapole moment (field-independent basis, Debye-Ang**2):
  XXX=              0.0000  YYY=              0.0000  ZZZ=              0.0000  XYY=              0.0000
  XXY=              0.0000  XXZ=              0.0000  XZZ=              0.0000  YZZ=              0.0000
  YYZ=              0.0000  XYZ=              0.0000
 Hexadecapole moment (field-independent basis, Debye-Ang**3):
 XXXX=          -1380.7217 YYYY=          -1380.7217 ZZZZ=           -686.9947 XXXY=              0.0000
 XXXZ=              0.0000 YYYX=              0.0000 YYYZ=              0.0000 ZZZX=              0.0000
 ZZZY=              0.0000 XXYY=           -460.2406 XXZZ=           -287.7871 YYZZ=           -287.7871
 XXYZ=              0.0000 YYXZ=              0.0000 ZZXY=              0.0000
 N-N= 7.863893299687D+02 E-N=-9.611017889927D+03  KE= 3.033149609911D+03
 Symmetry A1   KE= 1.546767541623D+03
 Symmetry A2   KE= 1.124788660708D+02
 Symmetry B1   KE= 8.670235003425D+02
 Symmetry B2   KE= 5.068797018747D+02
                          Isotropic Fermi Contact Couplings
        Atom                 a.u.       MegaHertz       Gauss      10(-4) cm-1
     1  Si(29)             0.00474      -4.20842      -1.50167      -1.40378
     2  Si(29)             0.00474      -4.20842      -1.50167      -1.40378
     3  Si(29)             0.00474      -4.20842      -1.50167      -1.40378
     4  Si(29)             0.00474      -4.20842      -1.50167      -1.40378
     5  Si(29)             0.00474      -4.20842      -1.50167      -1.40378
     6  Si(29)             0.04716     -41.91127     -14.95498     -13.98009
     7  Si(29)             0.04716     -41.91127     -14.95498     -13.98009
 --------------------------------------------------------
       Center         ----  Spin Dipole Couplings  ----
                      3XX-RR        3YY-RR        3ZZ-RR
 --------------------------------------------------------
     1   Atom       -0.082529     -0.097451      0.179979
     2   Atom       -0.096026     -0.083953      0.179979
     3   Atom       -0.087684     -0.092295      0.179979
     4   Atom       -0.087684     -0.092295      0.179979
     5   Atom       -0.096026     -0.083953      0.179979
     6   Atom       -0.406464     -0.406464      0.812928
     7   Atom       -0.406464     -0.406464      0.812928
 --------------------------------------------------------
                        XY            XZ            YZ
 --------------------------------------------------------
     1   Atom        0.000000      0.000000      0.000000
     2   Atom       -0.004386      0.000000      0.000000
     3   Atom        0.007096      0.000000      0.000000
     4   Atom       -0.007096      0.000000      0.000000
     5   Atom        0.004386      0.000000      0.000000
     6   Atom        0.000000      0.000000      0.000000
     7   Atom        0.000000      0.000000      0.000000
 --------------------------------------------------------


 ---------------------------------------------------------------------------------
              Anisotropic Spin Dipole Couplings in Principal Axis System
 ---------------------------------------------------------------------------------

       Atom             a.u.   MegaHertz   Gauss  10(-4) cm-1        Axes

              Baa    -0.0975    10.338     3.689     3.448  0.0000  1.0000  0.0000
     1 Si(29) Bbb    -0.0825     8.755     3.124     2.920  1.0000  0.0000  0.0000
              Bcc     0.1800   -19.093    -6.813    -6.369  0.0000  0.0000  1.0000
 
              Baa    -0.0975    10.338     3.689     3.448  0.9511  0.3090  0.0000
     2 Si(29) Bbb    -0.0825     8.755     3.124     2.920 -0.3090  0.9511  0.0000
              Bcc     0.1800   -19.093    -6.813    -6.369  0.0000  0.0000  1.0000
 
              Baa    -0.0975    10.338     3.689     3.448 -0.5878  0.8090  0.0000
     3 Si(29) Bbb    -0.0825     8.755     3.124     2.920  0.8090  0.5878  0.0000
              Bcc     0.1800   -19.093    -6.813    -6.369  0.0000  0.0000  1.0000
 
              Baa    -0.0975    10.338     3.689     3.448  0.5878  0.8090  0.0000
     4 Si(29) Bbb    -0.0825     8.755     3.124     2.920  0.8090 -0.5878  0.0000
              Bcc     0.1800   -19.093    -6.813    -6.369  0.0000  0.0000  1.0000
 
              Baa    -0.0975    10.338     3.689     3.448  0.9511 -0.3090  0.0000
     5 Si(29) Bbb    -0.0825     8.755     3.124     2.920  0.3090  0.9511  0.0000
              Bcc     0.1800   -19.093    -6.813    -6.369  0.0000  0.0000  1.0000
 
              Baa    -0.4065    43.119    15.386    14.383  0.9873  0.1590  0.0000
     6 Si(29) Bbb    -0.4065    43.119    15.386    14.383 -0.1590  0.9873  0.0000
              Bcc     0.8129   -86.239   -30.772   -28.766  0.0000  0.0000  1.0000
 
              Baa    -0.4065    43.119    15.386    14.383  0.7658 -0.6431  0.0000
     7 Si(29) Bbb    -0.4065    43.119    15.386    14.383  0.6431  0.7658  0.0000
              Bcc     0.8129   -86.239   -30.772   -28.766  0.0000  0.0000  1.0000
 

 ---------------------------------------------------------------------------------

 1\1\GINC-NODE66\SP\UHF\GFHFB2\Si7(1-,2)\TAM\05-Mar-2012\0\\#N Geom=All
 Check Guess=TCheck SCRF=Check HF/GFHFB2 SCF=Tight\\si7-an-d\\-1,2\Si,0
 ,-1.2248265922,-1.6858291786,0.\Si,0,-1.9818110579,0.6439294461,0.\Si,
 0,-0.0000000008,2.0837994627,0.\Si,0,1.9818110574,0.6439294476,0.\Si,0
 ,1.2248265935,-1.6858291777,0.\Si,0,0.,0.,1.4540703982\Si,0,0.,0.,-1.4
 540703982\\Version=AM64L-G09RevA.02\State=2-A2"\HF=-2022.571309\S2=0.7
 91439\S2-1=0.\S2A=0.750461\RMSD=6.257e-09\Dipole=0.,0.,0.\Quadrupole=-
 3.2604658,-3.2604658,6.5209317,0.,0.,0.\PG=D05H [C5(Si1.Si1),5C2(Si1)]
 \\@


 THOSE WHO TRY TO PASS CHEMISTRY OFF AS A NEW SCIENCE
 SHOW HOW LITTLE KNOWLEDGE THEY HAVE OF THE CHARACTER
 AND LITERATURE OF THE ANCIENTS.
   -- NICOLAS LEFEVRE
 "COURS DE CHYMIE" J.-N.LELOUP, PARIS, 1751
 Diagonal vibrational polarizability:
        0.0000000       0.0000000       0.0000000

 Temperature=              298.150000 Pressure=                      1.000000
 E(ZPE)=                     0.009758 E(Thermal)=                    0.019266
 E(CCSD(T))=             -2023.061668 E(Empiric)=                   -0.102233
 DE(Plus)=                  -0.014628 DE(2DF)=                      -0.247977
 E(Delta-G3XP)=             -2.198708 DE(HF)=                       -0.046113
 G4(0 K)=                -2025.661568 G4 Energy=                 -2025.652060
 G4 Enthalpy=            -2025.651116 G4 Free Energy=            -2025.694789
 1\1\GINC-NODE66\Mixed\G4\G4\Si7(1-,2)\TAM\05-Mar-2012\0\\# G4 scfcyc=5
 00 scf=xqc\\si7-an-d\\-1,2\Si,0,-1.2248265922,-1.6858291786,0.\Si,0,-1
 .9818110579,0.6439294461,0.\Si,0,-0.0000000008,2.0837994627,0.\Si,0,1.
 9818110574,0.6439294476,0.\Si,0,1.2248265935,-1.6858291777,0.\Si,0,0.,
 0.,1.4540703982\Si,0,0.,0.,-1.4540703982\\Version=AM64L-G09RevA.02\Sta
 te=2-A2"\MP2/GTBas1=-2023.0017228\MP4/GTBas1=-2023.0849166\CCSD(T)/G3B
 as1=-2023.0616684\MP2/GTBas2=-2023.0145025\MP4/GTBas2=-2023.0995444\MP
 2/GTBas3=-2023.2285768\MP4/GTBas3=-2023.3328935\HF/GTLargeXP=-2022.526
 8075\MP2/GTLargeXP=-2025.4400642\HF/GFHFB1=-2022.5646954\HF/GFHFB2=-20
 22.571309\G4=-2025.6615685\FreqCoord=-2.3145868196,-3.1857554545,0.,-3
 .7450801465,1.2168503019,0.,-0.0000000015,3.9378103003,0.,3.7450801455
 ,1.2168503049,0.,2.3145868221,-3.1857554526,0.,0.,0.,2.7477948305,0.,0
 .,-2.7477948305\PG=D05H [C5(Si1.Si1),5C2(Si1)]\NImag=0\\0.07593653,0.0
 2586382,0.09274386,0.,0.,0.02927881,-0.01487142,0.00815546,0.,0.106341
 27,0.00876688,-0.03816303,0.,-0.01598472,0.06233912,0.,0.,-0.00455996,
 0.,0.,0.02927881,0.00147239,-0.00774640,0.,-0.03096553,-0.01399617,0.,
 0.05714537,-0.00094591,-0.01049156,0.,-0.01338476,-0.02206892,0.,0.,0.
 11153502,0.,0.,0.00019764,0.,0.,-0.00455996,0.,0.,0.02927881,-0.006794
 50,-0.00363199,0.,-0.01190371,-0.00340025,0.,-0.03096553,0.01338476,0.
 ,0.10634127,-0.01043248,-0.00222468,0.,0.00340025,0.00288454,0.,0.0139
 9617,-0.02206892,0.,0.01598472,0.06233912,0.,0.,0.00019764,0.,0.,0.000
 19764,0.,0.,-0.00455996,0.,0.,0.02927881,-0.04091223,0.00030571,0.,-0.
 00679450,0.01043248,0.,0.00147239,0.00094591,0.,-0.01487142,-0.0087668
 8,0.,0.07593653,-0.00030571,-0.01212222,0.,0.00363199,-0.00222468,0.,0
 .00774640,-0.01049156,0.,-0.00815546,-0.03816303,0.,-0.02586382,0.0927
 4386,0.,0.,-0.00455996,0.,0.,0.00019764,0.,0.,0.00019764,0.,0.,-0.0045
 5996,0.,0.,0.02927881,-0.00741544,-0.01147313,-0.01102965,-0.02090312,
 0.00709076,-0.01784623,0.00092057,0.00000001,0.00000009,-0.02090304,-0
 .00709091,0.01784625,-0.00741527,0.01147338,0.01102949,0.06139667,-0.0
 1147313,-0.01487113,-0.01518102,0.00709091,-0.00138342,0.00579850,0.,-
 0.02320701,0.01876468,-0.00709091,-0.00138340,0.00579869,0.01147323,-0
 .01487126,-0.01518094,0.00000007,0.06139672,-0.00682726,-0.00939692,-0
 .01027709,-0.01104689,0.00358936,-0.01027685,-0.00000002,0.01161515,-0
 .01027693,0.01104667,0.00358926,-0.01027693,0.00682736,-0.00939705,-0.
 01027685,0.00000021,0.00000029,0.08416682,-0.00741544,-0.01147313,0.01
 102965,-0.02090312,0.00709076,0.01784623,0.00092057,0.00000001,-0.0000
 0009,-0.02090304,-0.00709091,-0.01784625,-0.00741527,0.01147338,-0.011
 02949,-0.00568051,-0.00000030,0.00000008,0.06139667,-0.01147313,-0.014
 87113,0.01518102,0.00709091,-0.00138342,-0.00579850,0.,-0.02320701,-0.
 01876468,-0.00709091,-0.00138340,-0.00579869,0.01147323,-0.01487126,0.
 01518094,-0.00000030,-0.00568070,0.00000011,0.00000007,0.06139672,0.00
 682726,0.00939692,-0.01027709,0.01104689,-0.00358936,-0.01027685,0.000
 00002,-0.01161515,-0.01027693,-0.01104667,-0.00358926,-0.01027693,-0.0
 0682736,0.00939705,-0.01027685,-0.00000008,-0.00000011,-0.03278298,-0.
 00000021,-0.00000029,0.08416682\\-0.00001322,-0.00001820,0.,-0.0000213
 9,0.00000695,0.,0.,0.00002249,0.,0.00002139,0.00000695,0.,0.00001322,-
 0.00001820,0.,0.,0.,0.00003245,0.,0.,-0.00003245\\\@
 Job cpu time:  0 days  1 hours 42 minutes 47.7 seconds.
 File lengths (MBytes):  RWF=   1450 Int=      0 D2E=      0 Chk=     33 Scr=      1
 Normal termination of Gaussian 09 at Mon Mar  5 13:02:45 2012.
