 Entering Gaussian System, Link 0=g09
 Initial command:
 /usr/local/chem/g09A2/l1.exe /temp0/tam/Gau-11862.inp -scrdir=/temp0/tam/
 Entering Link 1 = /usr/local/chem/g09A2/l1.exe PID=     11863.
  
 Copyright (c) 1988,1990,1992,1993,1995,1998,2003,2009, Gaussian, Inc.
                  All Rights Reserved.
  
 This is part of the Gaussian(R) 09 program.  It is based on
 the Gaussian(R) 03 system (copyright 2003, Gaussian, Inc.),
 the Gaussian(R) 98 system (copyright 1998, Gaussian, Inc.),
 the Gaussian(R) 94 system (copyright 1995, Gaussian, Inc.),
 the Gaussian 92(TM) system (copyright 1992, Gaussian, Inc.),
 the Gaussian 90(TM) system (copyright 1990, Gaussian, Inc.),
 the Gaussian 88(TM) system (copyright 1988, Gaussian, Inc.),
 the Gaussian 86(TM) system (copyright 1986, Carnegie Mellon
 University), and the Gaussian 82(TM) system (copyright 1983,
 Carnegie Mellon University). Gaussian is a federally registered
 trademark of Gaussian, Inc.
  
 This software contains proprietary and confidential information,
 including trade secrets, belonging to Gaussian, Inc.
  
 This software is provided under written license and may be
 used, copied, transmitted, or stored only in accord with that
 written license.
  
 The following legend is applicable only to US Government
 contracts under FAR:
  
                    RESTRICTED RIGHTS LEGEND
  
 Use, reproduction and disclosure by the US Government is
 subject to restrictions as set forth in subparagraphs (a)
 and (c) of the Commercial Computer Software - Restricted
 Rights clause in FAR 52.227-19.
  
 Gaussian, Inc.
 340 Quinnipiac St., Bldg. 40, Wallingford CT 06492
  
  
 ---------------------------------------------------------------
 Warning -- This program may not be used in any manner that
 competes with the business of Gaussian, Inc. or will provide
 assistance to any competitor of Gaussian, Inc.  The licensee
 of this program is prohibited from giving any competitor of
 Gaussian, Inc. access to this program.  By using this program,
 the user acknowledges that Gaussian, Inc. is engaged in the
 business of creating and licensing software in the field of
 computational chemistry and represents and warrants to the
 licensee that it is not a competitor of Gaussian, Inc. and that
 it will not use this program in any manner prohibited above.
 ---------------------------------------------------------------
  

 Cite this work as:
 Gaussian 09, Revision A.02,
 M. J. Frisch, G. W. Trucks, H. B. Schlegel, G. E. Scuseria, 
 M. A. Robb, J. R. Cheeseman, G. Scalmani, V. Barone, B. Mennucci, 
 G. A. Petersson, H. Nakatsuji, M. Caricato, X. Li, H. P. Hratchian, 
 A. F. Izmaylov, J. Bloino, G. Zheng, J. L. Sonnenberg, M. Hada, 
 M. Ehara, K. Toyota, R. Fukuda, J. Hasegawa, M. Ishida, T. Nakajima, 
 Y. Honda, O. Kitao, H. Nakai, T. Vreven, J. A. Montgomery, Jr., 
 J. E. Peralta, F. Ogliaro, M. Bearpark, J. J. Heyd, E. Brothers, 
 K. N. Kudin, V. N. Staroverov, R. Kobayashi, J. Normand, 
 K. Raghavachari, A. Rendell, J. C. Burant, S. S. Iyengar, J. Tomasi, 
 M. Cossi, N. Rega, J. M. Millam, M. Klene, J. E. Knox, J. B. Cross, 
 V. Bakken, C. Adamo, J. Jaramillo, R. Gomperts, R. E. Stratmann, 
 O. Yazyev, A. J. Austin, R. Cammi, C. Pomelli, J. W. Ochterski, 
 R. L. Martin, K. Morokuma, V. G. Zakrzewski, G. A. Voth, 
 P. Salvador, J. J. Dannenberg, S. Dapprich, A. D. Daniels, 
 O. Farkas, J. B. Foresman, J. V. Ortiz, J. Cioslowski, 
 and D. J. Fox, Gaussian, Inc., Wallingford CT, 2009.
 
 ******************************************
 Gaussian 09:  AM64L-G09RevA.02 11-Jun-2009
                 4-Jan-2012 
 ******************************************
 %NprocShared=6
 Will use up to    6 processors via shared memory.
 %mem=18050MB
 %chk=S9L-ne-d-01
 ---------------------------------------
 # G4 opt=(Cartesian) scfcyc=500 scf=xqc
 ---------------------------------------
 1/10=7,14=-1,18=10,26=3,38=1/1,3;
 2/12=2,17=6,18=5,29=2,40=1/2;
 3/5=35,7=104,11=2,16=1,25=1,30=1,71=1,74=-5/1,2,3;
 4//1;
 5/5=2,7=500,8=3,13=1,38=5/2,8;
 6/7=2,8=2,9=2,10=2,28=1/1;
 7/7=1,29=1/1,2,3,16;
 1/10=7,14=-1,18=10/3(2);
 2/29=1/2;
 99/12=1/99;
 2/29=1/2;
 3/5=35,7=104,11=2,16=1,25=1,30=1,71=1,74=-5/1,2,3;
 4/5=5,16=3/1;
 5/5=2,7=500,8=3,13=1,38=5/2,8;
 7/7=1/1,2,3,16;
 1/14=-1,18=10/3(-5);
 2/29=1/2;
 6/7=2,8=2,9=2,10=2,19=2,28=1/1;
 99/9=1,12=1/99;
 -----
 si4-n
 -----
 Symbolic Z-matrix:
 Charge =  0 Multiplicity = 1
 Si                    0.        0.       -1.21426 
 Si                    0.        1.98604   0. 
 Si                    0.        0.        1.21426 
 Si                    0.       -1.98604   0. 
 

 GradGradGradGradGradGradGradGradGradGradGradGradGradGradGradGradGradGrad
 Berny optimization.
 Initialization pass.
 No Z-matrix variables, so optimization will use Cartesian coordinates.
 Trust Radius=3.00D-01 FncErr=1.00D-07 GrdErr=1.00D-06
 Number of steps in this run=  22 maximum allowed number of steps= 100.
 GradGradGradGradGradGradGradGradGradGradGradGradGradGradGradGradGradGrad

 ---------------------------------------------------------------------------------------------------
                            Z-MATRIX (ANGSTROMS AND DEGREES)
   CD    Cent   Atom    N1       Length/X        N2       Alpha/Y        N3        Beta/Z          J
 ---------------------------------------------------------------------------------------------------
      1      1  Si       0   0.000000          0.000000         -1.214259
      2      2  Si       0   0.000000          1.986043          0.000000
      3      3  Si       0   0.000000          0.000000          1.214259
      4      4  Si       0   0.000000         -1.986043          0.000000
 ---------------------------------------------------------------------------------------------------
                         Z-Matrix orientation:                         
 ---------------------------------------------------------------------
 Center     Atomic      Atomic             Coordinates (Angstroms)
 Number     Number       Type             X           Y           Z
 ---------------------------------------------------------------------
      1         14           0        0.000000    0.000000   -1.214259
      2         14           0        0.000000    1.986043    0.000000
      3         14           0        0.000000    0.000000    1.214259
      4         14           0        0.000000   -1.986043    0.000000
 ---------------------------------------------------------------------
                    Distance matrix (angstroms):
                    1          2          3          4
     1  Si   0.000000
     2  Si   2.327830   0.000000
     3  Si   2.428518   2.327830   0.000000
     4  Si   2.327830   3.972086   2.327830   0.000000
 Stoichiometry    Si4
 Framework group  D2H[C2'(Si.Si),C2"(Si.Si)]
 Deg. of freedom     2
 Full point group                 D2H     NOp   8
 Largest Abelian subgroup         D2H     NOp   8
 Largest concise Abelian subgroup D2      NOp   4
                         Standard orientation:                         
 ---------------------------------------------------------------------
 Center     Atomic      Atomic             Coordinates (Angstroms)
 Number     Number       Type             X           Y           Z
 ---------------------------------------------------------------------
      1         14           0        0.000000    1.214259    0.000000
      2         14           0        0.000000    0.000000    1.986043
      3         14           0        0.000000   -1.214259    0.000000
      4         14           0        0.000000    0.000000   -1.986043
 ---------------------------------------------------------------------
 Rotational constants (GHZ):      6.1258239      2.2898650      1.6668047
 Standard basis: GTBas3 (6D, 7F)
 There are    30 symmetry adapted basis functions of AG  symmetry.
 There are    10 symmetry adapted basis functions of B1G symmetry.
 There are    10 symmetry adapted basis functions of B2G symmetry.
 There are    14 symmetry adapted basis functions of B3G symmetry.
 There are     6 symmetry adapted basis functions of AU  symmetry.
 There are    22 symmetry adapted basis functions of B1U symmetry.
 There are    22 symmetry adapted basis functions of B2U symmetry.
 There are    14 symmetry adapted basis functions of B3U symmetry.
 Integral buffers will be    131072 words long.
 Raffenetti 2 integral format.
 Two-electron integral symmetry is turned on.
   128 basis functions,   272 primitive gaussians,   140 cartesian basis functions
    28 alpha electrons       28 beta electrons
       nuclear repulsion energy       247.0444671806 Hartrees.
 NAtoms=    4 NActive=    4 NUniq=    2 SFac= 3.00D+00 NAtFMM=   80 NAOKFM=F Big=F
 One-electron integrals computed using PRISM.
 NBasis=   128 RedAO= T  NBF=    30    10    10    14     6    22    22    14
 NBsUse=   128 1.00D-06 NBFU=    30    10    10    14     6    22    22    14
 Harris functional with IExCor=  402 diagonalized for initial guess.
 ExpMin= 7.78D-02 ExpMax= 1.61D+04 ExpMxC= 2.43D+03 IAcc=2 IRadAn=         0 AccDes= 0.00D+00
 HarFok:  IExCor=  402 AccDes= 0.00D+00 IRadAn=         0 IDoV= 1
 ScaDFX=  1.000000  1.000000  1.000000  1.000000
 FoFCou: FMM=F IPFlag=           0 FMFlag=      100000 FMFlg1=           0
         NFxFlg=           0 DoJE=T BraDBF=F KetDBF=T FulRan=T
         Omega=  0.000000  0.000000  1.000000  0.000000  0.000000 ICntrl=     500 IOpCl=  0
         NMat0=    1 NMatS0=    1 NMatT0=    0 NMatD0=    1 NMtDS0=    0 NMtDT0=    0
         I1Cent=           4 NGrid=           0.
 Petite list used in FoFCou.
 Initial guess orbital symmetries:
       Occupied  (B2U) (AG) (AG) (B1U) (AG) (B2U) (B1U) (AG) (B3G)
                 (B1U) (AG) (B2U) (B1G) (B3U) (AG) (B1U) (B2U)
                 (B3G) (B2G) (B3U) (AG) (B1U) (B2U) (AG) (B3U)
                 (B3G) (AG) (B1U)
       Virtual   (B2G) (B1G) (B2U) (B3U) (AG) (B2U) (B1U) (B3G)
                 (AG) (B3U) (B1U) (AU) (B2G) (AG) (B3G) (B1U) (AG)
                 (B2U) (B2U) (B1G) (B3U) (AG) (B2G) (B3U) (B2U)
                 (B1G) (B1U) (AG) (B3G) (B1U) (B2U) (B3G) (B3U)
                 (AU) (B1G) (B1U) (AG) (B2G) (AG) (AG) (B2U) (B3G)
                 (B2U) (B1U) (AG) (B2G) (B1U) (B3U) (B3G) (B1U)
                 (B3U) (B1G) (B2U) (AG) (B1U) (AG) (AU) (B2U) (B2G)
                 (B2U) (B3G) (AG) (B3U) (B2U) (AG) (B1G) (B3G)
                 (B1U) (AG) (B3U) (AU) (B2G) (B1G) (B3G) (B1U)
                 (B2U) (AU) (B3U) (B2G) (B1U) (B2U) (AG) (B3G)
                 (AG) (B1G) (B2U) (B3U) (B1G) (AU) (B1U) (B2G)
                 (AG) (B1U) (B2U) (B3G) (AG) (AG) (B1U) (B2U) (AG)
 The electronic state of the initial guess is 1-AG.
 Requested convergence on RMS density matrix=1.00D-08 within 128 cycles.
 Requested convergence on MAX density matrix=1.00D-06.
 Requested convergence on             energy=1.00D-06.
 No special actions if energy rises.
 Keep R1 ints in memory in canonical form, NReq=50764185.
 Integral accuracy reduced to 1.0D-05 until final iterations.
 Initial convergence to 1.0D-05 achieved.  Increase integral accuracy.
 SCF Done:  E(RB3LYP) =  -1157.90410560     A.U. after   11 cycles
             Convg  =    0.8048D-08             -V/T =  2.0034
 QCSCF skips out because SCF is already converged.

 **********************************************************************

            Population analysis using the SCF density.

 **********************************************************************

 Orbital symmetries:
       Occupied  (AG) (B1U) (B2U) (AG) (B1U) (AG) (AG) (B2U) (B2G)
                 (B3U) (B2U) (B3G) (AG) (B1U) (B3U) (B1G) (AG)
                 (B2U) (B1U) (B3G) (AG) (B1U) (B2U) (AG) (B3U)
                 (B3G) (AG) (B1U)
       Virtual   (B2G) (B1G) (B2U) (B3U) (B2U) (AG) (B1U) (B3G)
                 (AG) (B1U) (B3U) (AG) (B1U) (B2G) (B3G) (AG) (AU)
                 (B2U) (B2U) (B1G) (B3U) (B2G) (AG) (B2U) (B3U)
                 (B1G) (B1U) (B3G) (AG) (B1U) (B2U) (B3U) (B3G)
                 (AU) (B1U) (B1G) (AG) (B2G) (AG) (AG) (B2U) (B3G)
                 (B2U) (AG) (B1U) (B2G) (B1U) (B3U) (B3G) (B1U)
                 (B3U) (B2U) (B1G) (AG) (AG) (B1U) (AU) (B2U) (B2G)
                 (B2U) (AG) (B3G) (B3U) (B2U) (AG) (B3G) (B1G)
                 (B1U) (AG) (B3U) (AU) (B2G) (B1G) (B3G) (B1U)
                 (B2U) (AU) (B3U) (B2G) (B1U) (B2U) (AG) (B1G)
                 (B3G) (AG) (B2U) (B3U) (B1G) (AU) (B1U) (B2G)
                 (AG) (B1U) (B2U) (B3G) (AG) (AG) (B1U) (B2U) (AG)
 The electronic state is 1-AG.
 Alpha  occ. eigenvalues --  -66.15822 -66.15822 -66.13368 -66.13368  -5.30405
 Alpha  occ. eigenvalues --   -5.30405  -5.28325  -5.28318  -3.66524  -3.66523
 Alpha  occ. eigenvalues --   -3.66182  -3.66176  -3.65842  -3.65841  -3.64397
 Alpha  occ. eigenvalues --   -3.64396  -3.64043  -3.64014  -3.63894  -3.63894
 Alpha  occ. eigenvalues --   -0.60312  -0.48397  -0.40876  -0.33645  -0.26019
 Alpha  occ. eigenvalues --   -0.25454  -0.23323  -0.22457
 Alpha virt. eigenvalues --   -0.13654  -0.08822  -0.08444  -0.03927   0.00773
 Alpha virt. eigenvalues --    0.00920   0.03209   0.05691   0.08792   0.15377
 Alpha virt. eigenvalues --    0.15601   0.16798   0.18587   0.19005   0.19035
 Alpha virt. eigenvalues --    0.19154   0.19217   0.21750   0.23130   0.26350
 Alpha virt. eigenvalues --    0.26545   0.26953   0.28883   0.29706   0.29763
 Alpha virt. eigenvalues --    0.31326   0.31380   0.33037   0.33137   0.37986
 Alpha virt. eigenvalues --    0.39980   0.46603   0.47321   0.48478   0.49282
 Alpha virt. eigenvalues --    0.49684   0.50527   0.52223   0.54414   0.66377
 Alpha virt. eigenvalues --    0.67804   0.69572   0.71698   0.75668   0.76927
 Alpha virt. eigenvalues --    0.84997   0.85759   0.86990   0.89851   0.90113
 Alpha virt. eigenvalues --    0.92810   0.94069   0.94165   0.96616   0.98970
 Alpha virt. eigenvalues --    0.99907   1.00913   1.02418   1.02951   1.05658
 Alpha virt. eigenvalues --    1.12029   1.12910   1.14410   1.22011   1.23893
 Alpha virt. eigenvalues --    1.24805   1.25295   1.25585   1.29228   1.29330
 Alpha virt. eigenvalues --    1.31557   1.35222   1.37156   1.46395   1.49837
 Alpha virt. eigenvalues --    1.53152   1.63727   1.67541   1.68462   1.70223
 Alpha virt. eigenvalues --    1.72933   1.74122   1.74666   1.75359   1.75465
 Alpha virt. eigenvalues --    1.81849   1.84114   1.88721   1.91486   1.93100
 Alpha virt. eigenvalues --    1.94303   2.00300   2.04596   2.08762   2.15370
 Alpha virt. eigenvalues --    2.19999   2.41184   2.59762   2.73130   2.76939
          Condensed to atoms (all electrons):
              1          2          3          4
     1  Si  13.412810   0.263346   0.113201   0.263346
     2  Si   0.263346  13.442090   0.263346  -0.021484
     3  Si   0.113201   0.263346  13.412810   0.263346
     4  Si   0.263346  -0.021484   0.263346  13.442090
 Mulliken atomic charges:
              1
     1  Si  -0.052703
     2  Si   0.052703
     3  Si  -0.052703
     4  Si   0.052703
 Sum of Mulliken atomic charges =   0.00000
 Mulliken charges with hydrogens summed into heavy atoms:
              1
     1  Si  -0.052703
     2  Si   0.052703
     3  Si  -0.052703
     4  Si   0.052703
 Sum of Mulliken charges with hydrogens summed into heavy atoms =   0.00000
 Electronic spatial extent (au):  <R**2>=            661.2715
 Charge=              0.0000 electrons
 Dipole moment (field-independent basis, Debye):
    X=              0.0000    Y=              0.0000    Z=              0.0000  Tot=              0.0000
 Quadrupole moment (field-independent basis, Debye-Ang):
   XX=            -49.4404   YY=            -55.2608   ZZ=            -55.9598
   XY=              0.0000   XZ=              0.0000   YZ=              0.0000
 Traceless Quadrupole moment (field-independent basis, Debye-Ang):
   XX=              4.1132   YY=             -1.7071   ZZ=             -2.4061
   XY=              0.0000   XZ=              0.0000   YZ=              0.0000
 Octapole moment (field-independent basis, Debye-Ang**2):
  XXX=              0.0000  YYY=              0.0000  ZZZ=              0.0000  XYY=              0.0000
  XXY=              0.0000  XXZ=              0.0000  XZZ=              0.0000  YZZ=              0.0000
  YYZ=              0.0000  XYZ=              0.0000
 Hexadecapole moment (field-independent basis, Debye-Ang**3):
 XXXX=            -88.4611 YYYY=           -356.4758 ZZZZ=           -807.6012 XXXY=              0.0000
 XXXZ=              0.0000 YYYX=              0.0000 YYYZ=              0.0000 ZZZX=              0.0000
 ZZZY=              0.0000 XXYY=            -69.6836 XXZZ=           -128.1565 YYZZ=           -181.4106
 XXYZ=              0.0000 YYXZ=              0.0000 ZZXY=              0.0000
 N-N= 2.470444671806D+02 E-N=-3.251187540622D+03  KE= 1.154002425797D+03
 Symmetry AG   KE= 4.778276806208D+02
 Symmetry B1G  KE= 2.428564293869D+01
 Symmetry B2G  KE= 2.429129347545D+01
 Symmetry B3G  KE= 5.080777318249D+01
 Symmetry AU   KE= 3.010173331466D-22
 Symmetry B1U  KE= 2.645449954923D+02
 Symmetry B2U  KE= 2.620017519817D+02
 Symmetry B3U  KE= 5.024328810519D+01
 Calling FoFJK, ICntrl=      2127 FMM=F ISym2X=1 I1Cent= 0 IOpClX= 0 NMat=1 NMatS=1 NMatT=0.
 ***** Axes restored to original set *****
 -------------------------------------------------------------------
 Center     Atomic                   Forces (Hartrees/Bohr)
 Number     Number              X              Y              Z
 -------------------------------------------------------------------
      1       14           0.000000000    0.000000000    0.001594482
      2       14           0.000000000   -0.000895282    0.000000000
      3       14           0.000000000    0.000000000   -0.001594482
      4       14           0.000000000    0.000895282    0.000000000
 -------------------------------------------------------------------
 Cartesian Forces:  Max     0.001594482 RMS     0.000746537

 GradGradGradGradGradGradGradGradGradGradGradGradGradGradGradGradGradGrad
 Berny optimization.
 Search for a local minimum.
 Step number   1 out of a maximum of   22
 All quantities printed in internal units (Hartrees-Bohrs-Radians)
 Second derivative matrix not updated -- first step.
 The second derivative matrix:
                          X1        Y1        Z1        X2        Y2
           X1           0.02387
           Y1           0.00000   0.23502
           Z1           0.00000   0.00000   0.25793
           X2          -0.00602   0.00000   0.00000   0.00602
           Y2           0.00000  -0.11021  -0.03218   0.00000   0.22744
           Z2           0.00000  -0.07631  -0.06547   0.00000   0.00000
           X3          -0.01182   0.00000   0.00000  -0.00602   0.00000
           Y3           0.00000  -0.01461   0.00000   0.00000  -0.11021
           Z3           0.00000   0.00000  -0.12700   0.00000   0.03218
           X4          -0.00602   0.00000   0.00000   0.00602   0.00000
           Y4           0.00000  -0.11021   0.03218   0.00000  -0.00703
           Z4           0.00000   0.07631  -0.06547   0.00000   0.00000
                          Z2        X3        Y3        Z3        X4
           Z2           0.11212
           X3           0.00000   0.02387
           Y3           0.07631   0.00000   0.23502
           Z3          -0.06547   0.00000   0.00000   0.25793
           X4           0.00000  -0.00602   0.00000   0.00000   0.00602
           Y4           0.00000   0.00000  -0.11021  -0.03218   0.00000
           Z4           0.01881   0.00000  -0.07631  -0.06547   0.00000
                          Y4        Z4
           Y4           0.22744
           Z4           0.00000   0.11212
     Eigenvalues ---    0.02410   0.21069   0.26186   0.34295   0.40872
     Eigenvalues ---    0.44082
 RFO step:  Lambda=-1.67425729D-05 EMin= 2.40989862D-02
 ClnCor:  largest displacement from symmetrization is 1.06D-13 for atom     4.
 Linear search not attempted -- first point.
 ClnCor:  largest displacement from symmetrization is 3.25D-30 for atom     3.
 TrRot=  0.000000  0.000000  0.000000  0.000000  0.000000  0.000000
 Variable       Old X    -DE/DX   Delta X   Delta X   Delta X     New X
                                 (Linear)    (Quad)   (Total)
    X1        0.00000   0.00000   0.00000   0.00000   0.00000   0.00000
    Y1        0.00000   0.00000   0.00000   0.00000   0.00000   0.00000
    Z1       -2.29462   0.00159   0.00000   0.00367   0.00367  -2.29094
    X2        0.00000   0.00000   0.00000   0.00000   0.00000   0.00000
    Y2        3.75308  -0.00090   0.00000  -0.00281  -0.00281   3.75027
    Z2        0.00000   0.00000   0.00000   0.00000   0.00000   0.00000
    X3        0.00000   0.00000   0.00000   0.00000   0.00000   0.00000
    Y3        0.00000   0.00000   0.00000   0.00000   0.00000   0.00000
    Z3        2.29462  -0.00159   0.00000  -0.00367  -0.00367   2.29094
    X4        0.00000   0.00000   0.00000   0.00000   0.00000   0.00000
    Y4       -3.75308   0.00090   0.00000   0.00281   0.00281  -3.75027
    Z4        0.00000   0.00000   0.00000   0.00000   0.00000   0.00000
         Item               Value     Threshold  Converged?
 Maximum Force            0.001594     0.000450     NO 
 RMS     Force            0.000747     0.000300     NO 
 Maximum Displacement     0.003672     0.001800     NO 
 RMS     Displacement     0.001888     0.001200     NO 
 Predicted change in Energy=-8.371286D-06
 GradGradGradGradGradGradGradGradGradGradGradGradGradGradGradGradGradGrad

                          Input orientation:                          
 ---------------------------------------------------------------------
 Center     Atomic      Atomic             Coordinates (Angstroms)
 Number     Number       Type             X           Y           Z
 ---------------------------------------------------------------------
      1         14           0        0.000000    0.000000   -1.212316
      2         14           0        0.000000    1.984556    0.000000
      3         14           0        0.000000    0.000000    1.212316
      4         14           0        0.000000   -1.984556    0.000000
 ---------------------------------------------------------------------
                    Distance matrix (angstroms):
                    1          2          3          4
     1  Si   0.000000
     2  Si   2.325548   0.000000
     3  Si   2.424632   2.325548   0.000000
     4  Si   2.325548   3.969112   2.325548   0.000000
 Stoichiometry    Si4
 Framework group  D2H[C2'(Si.Si),C2"(Si.Si)]
 Deg. of freedom     2
 Full point group                 D2H     NOp   8
 Largest Abelian subgroup         D2H     NOp   8
 Largest concise Abelian subgroup D2      NOp   4
                         Standard orientation:                         
 ---------------------------------------------------------------------
 Center     Atomic      Atomic             Coordinates (Angstroms)
 Number     Number       Type             X           Y           Z
 ---------------------------------------------------------------------
      1         14           0        0.000000    1.212316    0.000000
      2         14           0        0.000000    0.000000    1.984556
      3         14           0        0.000000   -1.212316    0.000000
      4         14           0        0.000000    0.000000   -1.984556
 ---------------------------------------------------------------------
 Rotational constants (GHZ):      6.1454777      2.2932978      1.6700777
 Standard basis: GTBas3 (6D, 7F)
 There are    30 symmetry adapted basis functions of AG  symmetry.
 There are    10 symmetry adapted basis functions of B1G symmetry.
 There are    10 symmetry adapted basis functions of B2G symmetry.
 There are    14 symmetry adapted basis functions of B3G symmetry.
 There are     6 symmetry adapted basis functions of AU  symmetry.
 There are    22 symmetry adapted basis functions of B1U symmetry.
 There are    22 symmetry adapted basis functions of B2U symmetry.
 There are    14 symmetry adapted basis functions of B3U symmetry.
 Integral buffers will be    131072 words long.
 Raffenetti 2 integral format.
 Two-electron integral symmetry is turned on.
   128 basis functions,   272 primitive gaussians,   140 cartesian basis functions
    28 alpha electrons       28 beta electrons
       nuclear repulsion energy       247.3073866675 Hartrees.
 NAtoms=    4 NActive=    4 NUniq=    2 SFac= 3.00D+00 NAtFMM=   80 NAOKFM=F Big=F
 One-electron integrals computed using PRISM.
 NBasis=   128 RedAO= T  NBF=    30    10    10    14     6    22    22    14
 NBsUse=   128 1.00D-06 NBFU=    30    10    10    14     6    22    22    14
 Initial guess read from the read-write file.
 B after Tr=     0.000000    0.000000    0.000000
         Rot=    1.000000    0.000000    0.000000    0.000000 Ang=   0.00 deg.
 Initial guess orbital symmetries:
       Occupied  (AG) (B1U) (B2U) (AG) (B1U) (AG) (AG) (B2U) (B2G)
                 (B3U) (B2U) (B3G) (AG) (B1U) (B3U) (B1G) (AG)
                 (B2U) (B1U) (B3G) (AG) (B1U) (B2U) (AG) (B3U)
                 (B3G) (AG) (B1U)
       Virtual   (B2G) (B1G) (B2U) (B3U) (B2U) (AG) (B1U) (B3G)
                 (AG) (B1U) (B3U) (AG) (B1U) (B2G) (B3G) (AG) (AU)
                 (B2U) (B2U) (B1G) (B3U) (B2G) (AG) (B2U) (B3U)
                 (B1G) (B1U) (B3G) (AG) (B1U) (B2U) (B3U) (B3G)
                 (AU) (B1U) (B1G) (AG) (B2G) (AG) (AG) (B2U) (B3G)
                 (B2U) (AG) (B1U) (B2G) (B1U) (B3U) (B3G) (B1U)
                 (B3U) (B2U) (B1G) (AG) (AG) (B1U) (AU) (B2U) (B2G)
                 (B2U) (AG) (B3G) (B3U) (B2U) (AG) (B3G) (B1G)
                 (B1U) (AG) (B3U) (AU) (B2G) (B1G) (B3G) (B1U)
                 (B2U) (AU) (B3U) (B2G) (B1U) (B2U) (AG) (B1G)
                 (B3G) (AG) (B2U) (B3U) (B1G) (AU) (B1U) (B2G)
                 (AG) (B1U) (B2U) (B3G) (AG) (AG) (B1U) (B2U) (AG)
 Requested convergence on RMS density matrix=1.00D-08 within 128 cycles.
 Requested convergence on MAX density matrix=1.00D-06.
 Requested convergence on             energy=1.00D-06.
 No special actions if energy rises.
 Keep R1 ints in memory in canonical form, NReq=50764185.
 SCF Done:  E(RB3LYP) =  -1157.90411756     A.U. after    7 cycles
             Convg  =    0.2553D-08             -V/T =  2.0034
 QCSCF skips out because SCF is already converged.
 Calling FoFJK, ICntrl=      2127 FMM=F ISym2X=1 I1Cent= 0 IOpClX= 0 NMat=1 NMatS=1 NMatT=0.
 ***** Axes restored to original set *****
 -------------------------------------------------------------------
 Center     Atomic                   Forces (Hartrees/Bohr)
 Number     Number              X              Y              Z
 -------------------------------------------------------------------
      1       14           0.000000000    0.000000000    0.000770090
      2       14           0.000000000   -0.000265009    0.000000000
      3       14           0.000000000    0.000000000   -0.000770090
      4       14           0.000000000    0.000265009    0.000000000
 -------------------------------------------------------------------
 Cartesian Forces:  Max     0.000770090 RMS     0.000332483

 GradGradGradGradGradGradGradGradGradGradGradGradGradGradGradGradGradGrad
 Berny optimization.
 Search for a local minimum.
 Step number   2 out of a maximum of   22
 All quantities printed in internal units (Hartrees-Bohrs-Radians)
 Update second derivatives using D2CorN and points    1    2
 DE= -1.20D-05 DEPred=-8.37D-06 R= 1.43D+00
 SS=  1.41D+00  RLast= 6.54D-03 DXNew= 5.0454D-01 1.9618D-02
 Trust test= 1.43D+00 RLast= 6.54D-03 DXMaxT set to 3.00D-01
 The second derivative matrix:
                          X1        Y1        Z1        X2        Y2
           X1           0.02387
           Y1           0.00000   0.23502
           Z1           0.00000   0.00000   0.19181
           X2          -0.00602   0.00000   0.00000   0.00602
           Y2           0.00000  -0.11021   0.00449   0.00000   0.21003
           Z2           0.00000  -0.07631  -0.06547   0.00000   0.00000
           X3          -0.01182   0.00000   0.00000  -0.00602   0.00000
           Y3           0.00000  -0.01461   0.00000   0.00000  -0.11021
           Z3           0.00000   0.00000  -0.06088   0.00000  -0.00449
           X4          -0.00602   0.00000   0.00000   0.00602   0.00000
           Y4           0.00000  -0.11021  -0.00449   0.00000   0.01038
           Z4           0.00000   0.07631  -0.06547   0.00000   0.00000
                          Z2        X3        Y3        Z3        X4
           Z2           0.11212
           X3           0.00000   0.02387
           Y3           0.07631   0.00000   0.23502
           Z3          -0.06547   0.00000   0.00000   0.19181
           X4           0.00000  -0.00602   0.00000   0.00000   0.00602
           Y4           0.00000   0.00000  -0.11021   0.00449   0.00000
           Z4           0.01881   0.00000  -0.07631  -0.06547   0.00000
                          Y4        Z4
           Y4           0.21003
           Z4           0.00000   0.11212
     Eigenvalues ---    0.02410   0.19817   0.25417   0.26186   0.34295
     Eigenvalues ---    0.44082
 RFO step:  Lambda=-5.89493030D-07 EMin= 2.40989862D-02
 ClnCor:  largest displacement from symmetrization is 1.59D-13 for atom     3.
 Quartic linear search produced a step of  0.73784.
 ClnCor:  largest displacement from symmetrization is 8.93D-16 for atom     4.
 TrRot=  0.000000  0.000000  0.000000  0.000000  0.000000  0.000000
 Variable       Old X    -DE/DX   Delta X   Delta X   Delta X     New X
                                 (Linear)    (Quad)   (Total)
    X1        0.00000   0.00000   0.00000   0.00000   0.00000   0.00000
    Y1        0.00000   0.00000   0.00000   0.00000   0.00000   0.00000
    Z1       -2.29094   0.00077   0.00271   0.00058   0.00329  -2.28765
    X2        0.00000   0.00000   0.00000   0.00000   0.00000   0.00000
    Y2        3.75027  -0.00027  -0.00207   0.00100  -0.00108   3.74919
    Z2        0.00000   0.00000   0.00000   0.00000   0.00000   0.00000
    X3        0.00000   0.00000   0.00000   0.00000   0.00000   0.00000
    Y3        0.00000   0.00000   0.00000   0.00000   0.00000   0.00000
    Z3        2.29094  -0.00077  -0.00271  -0.00058  -0.00329   2.28765
    X4        0.00000   0.00000   0.00000   0.00000   0.00000   0.00000
    Y4       -3.75027   0.00027   0.00207  -0.00100   0.00108  -3.74919
    Z4        0.00000   0.00000   0.00000   0.00000   0.00000   0.00000
         Item               Value     Threshold  Converged?
 Maximum Force            0.000770     0.000450     NO 
 RMS     Force            0.000332     0.000300     NO 
 Maximum Displacement     0.003293     0.001800     NO 
 RMS     Displacement     0.001414     0.001200     NO 
 Predicted change in Energy=-2.734696D-06
 GradGradGradGradGradGradGradGradGradGradGradGradGradGradGradGradGradGrad

                          Input orientation:                          
 ---------------------------------------------------------------------
 Center     Atomic      Atomic             Coordinates (Angstroms)
 Number     Number       Type             X           Y           Z
 ---------------------------------------------------------------------
      1         14           0        0.000000    0.000000   -1.210573
      2         14           0        0.000000    1.983986    0.000000
      3         14           0        0.000000    0.000000    1.210573
      4         14           0        0.000000   -1.983986    0.000000
 ---------------------------------------------------------------------
                    Distance matrix (angstroms):
                    1          2          3          4
     1  Si   0.000000
     2  Si   2.324154   0.000000
     3  Si   2.421147   2.324154   0.000000
     4  Si   2.324154   3.967973   2.324154   0.000000
 Stoichiometry    Si4
 Framework group  D2H[C2'(Si.Si),C2"(Si.Si)]
 Deg. of freedom     2
 Full point group                 D2H     NOp   8
 Largest Abelian subgroup         D2H     NOp   8
 Largest concise Abelian subgroup D2      NOp   4
                         Standard orientation:                         
 ---------------------------------------------------------------------
 Center     Atomic      Atomic             Coordinates (Angstroms)
 Number     Number       Type             X           Y           Z
 ---------------------------------------------------------------------
      1         14           0        0.000000    1.210573    0.000000
      2         14           0        0.000000    0.000000    1.983986
      3         14           0        0.000000   -1.210573    0.000000
      4         14           0        0.000000    0.000000   -1.983986
 ---------------------------------------------------------------------
 Rotational constants (GHZ):      6.1631804      2.2946149      1.6720818
 Standard basis: GTBas3 (6D, 7F)
 There are    30 symmetry adapted basis functions of AG  symmetry.
 There are    10 symmetry adapted basis functions of B1G symmetry.
 There are    10 symmetry adapted basis functions of B2G symmetry.
 There are    14 symmetry adapted basis functions of B3G symmetry.
 There are     6 symmetry adapted basis functions of AU  symmetry.
 There are    22 symmetry adapted basis functions of B1U symmetry.
 There are    22 symmetry adapted basis functions of B2U symmetry.
 There are    14 symmetry adapted basis functions of B3U symmetry.
 Integral buffers will be    131072 words long.
 Raffenetti 2 integral format.
 Two-electron integral symmetry is turned on.
   128 basis functions,   272 primitive gaussians,   140 cartesian basis functions
    28 alpha electrons       28 beta electrons
       nuclear repulsion energy       247.4834681423 Hartrees.
 NAtoms=    4 NActive=    4 NUniq=    2 SFac= 3.00D+00 NAtFMM=   80 NAOKFM=F Big=F
 One-electron integrals computed using PRISM.
 NBasis=   128 RedAO= T  NBF=    30    10    10    14     6    22    22    14
 NBsUse=   128 1.00D-06 NBFU=    30    10    10    14     6    22    22    14
 Initial guess read from the read-write file.
 B after Tr=     0.000000    0.000000    0.000000
         Rot=    1.000000    0.000000    0.000000    0.000000 Ang=   0.00 deg.
 Initial guess orbital symmetries:
       Occupied  (AG) (B1U) (B2U) (AG) (B1U) (AG) (AG) (B2U) (B2G)
                 (B3U) (B2U) (B3G) (AG) (B1U) (B3U) (B1G) (AG)
                 (B2U) (B1U) (B3G) (AG) (B1U) (B2U) (AG) (B3U)
                 (B3G) (AG) (B1U)
       Virtual   (B2G) (B1G) (B2U) (B3U) (B2U) (AG) (B1U) (B3G)
                 (AG) (B1U) (B3U) (AG) (B1U) (B2G) (B3G) (AG) (AU)
                 (B2U) (B2U) (B1G) (B3U) (B2G) (AG) (B2U) (B3U)
                 (B1G) (B1U) (B3G) (AG) (B1U) (B2U) (B3U) (B3G)
                 (AU) (B1U) (B1G) (AG) (B2G) (AG) (AG) (B2U) (B3G)
                 (B2U) (AG) (B1U) (B2G) (B1U) (B3U) (B3G) (B1U)
                 (B3U) (B2U) (B1G) (AG) (AG) (B1U) (AU) (B2U) (B2G)
                 (B2U) (AG) (B3G) (B3U) (B2U) (AG) (B3G) (B1G)
                 (B1U) (AG) (B3U) (AU) (B2G) (B1G) (B3G) (B1U)
                 (B2U) (AU) (B3U) (B2G) (B1U) (B2U) (AG) (B1G)
                 (B3G) (AG) (B2U) (B3U) (B1G) (AU) (B1U) (B2G)
                 (AG) (B1U) (B2U) (B3G) (AG) (AG) (B1U) (B2U) (AG)
 Requested convergence on RMS density matrix=1.00D-08 within 128 cycles.
 Requested convergence on MAX density matrix=1.00D-06.
 Requested convergence on             energy=1.00D-06.
 No special actions if energy rises.
 Keep R1 ints in memory in canonical form, NReq=50764185.
 SCF Done:  E(RB3LYP) =  -1157.90412061     A.U. after    7 cycles
             Convg  =    0.2230D-08             -V/T =  2.0034
 QCSCF skips out because SCF is already converged.
 Calling FoFJK, ICntrl=      2127 FMM=F ISym2X=1 I1Cent= 0 IOpClX= 0 NMat=1 NMatS=1 NMatT=0.
 ***** Axes restored to original set *****
 -------------------------------------------------------------------
 Center     Atomic                   Forces (Hartrees/Bohr)
 Number     Number              X              Y              Z
 -------------------------------------------------------------------
      1       14           0.000000000    0.000000000    0.000092442
      2       14           0.000000000    0.000068629    0.000000000
      3       14           0.000000000    0.000000000   -0.000092442
      4       14           0.000000000   -0.000068629    0.000000000
 -------------------------------------------------------------------
 Cartesian Forces:  Max     0.000092442 RMS     0.000047002

 GradGradGradGradGradGradGradGradGradGradGradGradGradGradGradGradGradGrad
 Berny optimization.
 Search for a local minimum.
 Step number   3 out of a maximum of   22
 All quantities printed in internal units (Hartrees-Bohrs-Radians)
 Update second derivatives using D2CorN and points    1    2    3
 DE= -3.06D-06 DEPred=-2.73D-06 R= 1.12D+00
 SS=  1.41D+00  RLast= 4.90D-03 DXNew= 5.0454D-01 1.4697D-02
 Trust test= 1.12D+00 RLast= 4.90D-03 DXMaxT set to 3.00D-01
 The second derivative matrix:
                          X1        Y1        Z1        X2        Y2
           X1           0.02387
           Y1           0.00000   0.23502
           Z1           0.00000   0.00000   0.16976
           X2          -0.00602   0.00000   0.00000   0.00602
           Y2           0.00000  -0.11021  -0.00483   0.00000   0.22258
           Z2           0.00000  -0.07631  -0.06547   0.00000   0.00000
           X3          -0.01182   0.00000   0.00000  -0.00602   0.00000
           Y3           0.00000  -0.01461   0.00000   0.00000  -0.11021
           Z3           0.00000   0.00000  -0.03883   0.00000   0.00483
           X4          -0.00602   0.00000   0.00000   0.00602   0.00000
           Y4           0.00000  -0.11021   0.00483   0.00000  -0.00217
           Z4           0.00000   0.07631  -0.06547   0.00000   0.00000
                          Z2        X3        Y3        Z3        X4
           Z2           0.11212
           X3           0.00000   0.02387
           Y3           0.07631   0.00000   0.23502
           Z3          -0.06547   0.00000   0.00000   0.16976
           X4           0.00000  -0.00602   0.00000   0.00000   0.00602
           Y4           0.00000   0.00000  -0.11021  -0.00483   0.00000
           Z4           0.01881   0.00000  -0.07631  -0.06547   0.00000
                          Y4        Z4
           Y4           0.22258
           Z4           0.00000   0.11212
     Eigenvalues ---    0.02410   0.20408   0.22927   0.26186   0.34295
     Eigenvalues ---    0.44082
 RFO step:  Lambda=-9.86414312D-08 EMin= 2.40989862D-02
 ClnCor:  largest displacement from symmetrization is 1.16D-13 for atom     3.
 Quartic linear search produced a step of  0.08855.
 ClnCor:  largest displacement from symmetrization is 2.11D-16 for atom     4.
 TrRot=  0.000000  0.000000  0.000000  0.000000  0.000000  0.000000
 Variable       Old X    -DE/DX   Delta X   Delta X   Delta X     New X
                                 (Linear)    (Quad)   (Total)
    X1        0.00000   0.00000   0.00000   0.00000   0.00000   0.00000
    Y1        0.00000   0.00000   0.00000   0.00000   0.00000   0.00000
    Z1       -2.28765   0.00009   0.00029   0.00017   0.00047  -2.28719
    X2        0.00000   0.00000   0.00000   0.00000   0.00000   0.00000
    Y2        3.74919   0.00007  -0.00010   0.00044   0.00035   3.74954
    Z2        0.00000   0.00000   0.00000   0.00000   0.00000   0.00000
    X3        0.00000   0.00000   0.00000   0.00000   0.00000   0.00000
    Y3        0.00000   0.00000   0.00000   0.00000   0.00000   0.00000
    Z3        2.28765  -0.00009  -0.00029  -0.00017  -0.00047   2.28719
    X4        0.00000   0.00000   0.00000   0.00000   0.00000   0.00000
    Y4       -3.74919  -0.00007   0.00010  -0.00044  -0.00035  -3.74954
    Z4        0.00000   0.00000   0.00000   0.00000   0.00000   0.00000
         Item               Value     Threshold  Converged?
 Maximum Force            0.000092     0.000450     YES
 RMS     Force            0.000047     0.000300     YES
 Maximum Displacement     0.000466     0.001800     YES
 RMS     Displacement     0.000238     0.001200     YES
 Predicted change in Energy=-6.452545D-08
 Optimization completed.
    -- Stationary point found.
 GradGradGradGradGradGradGradGradGradGradGradGradGradGradGradGradGradGrad

                          Input orientation:                          
 ---------------------------------------------------------------------
 Center     Atomic      Atomic             Coordinates (Angstroms)
 Number     Number       Type             X           Y           Z
 ---------------------------------------------------------------------
      1         14           0        0.000000    0.000000   -1.210573
      2         14           0        0.000000    1.983986    0.000000
      3         14           0        0.000000    0.000000    1.210573
      4         14           0        0.000000   -1.983986    0.000000
 ---------------------------------------------------------------------
                    Distance matrix (angstroms):
                    1          2          3          4
     1  Si   0.000000
     2  Si   2.324154   0.000000
     3  Si   2.421147   2.324154   0.000000
     4  Si   2.324154   3.967973   2.324154   0.000000
 Stoichiometry    Si4
 Framework group  D2H[C2'(Si.Si),C2"(Si.Si)]
 Deg. of freedom     2
 Full point group                 D2H     NOp   8
 Largest Abelian subgroup         D2H     NOp   8
 Largest concise Abelian subgroup D2      NOp   4
                         Standard orientation:                         
 ---------------------------------------------------------------------
 Center     Atomic      Atomic             Coordinates (Angstroms)
 Number     Number       Type             X           Y           Z
 ---------------------------------------------------------------------
      1         14           0        0.000000    1.210573    0.000000
      2         14           0        0.000000    0.000000    1.983986
      3         14           0        0.000000   -1.210573    0.000000
      4         14           0        0.000000    0.000000   -1.983986
 ---------------------------------------------------------------------
 Rotational constants (GHZ):      6.1631804      2.2946149      1.6720818

 **********************************************************************

            Population analysis using the SCF density.

 **********************************************************************

 Orbital symmetries:
       Occupied  (AG) (B1U) (B2U) (AG) (B1U) (AG) (AG) (B2U) (B2G)
                 (B3U) (B2U) (B3G) (AG) (B1U) (B3U) (B1G) (AG)
                 (B2U) (B1U) (B3G) (AG) (B1U) (B2U) (AG) (B3U)
                 (B3G) (AG) (B1U)
       Virtual   (B2G) (B1G) (B2U) (B3U) (B2U) (AG) (B1U) (B3G)
                 (AG) (B1U) (B3U) (AG) (B1U) (B2G) (B3G) (AG) (AU)
                 (B2U) (B2U) (B1G) (B3U) (B2G) (AG) (B2U) (B3U)
                 (B1G) (B1U) (B3G) (AG) (B1U) (B2U) (B3U) (B3G)
                 (AU) (B1U) (B1G) (AG) (B2G) (AG) (AG) (B2U) (B3G)
                 (B2U) (AG) (B1U) (B2G) (B1U) (B3U) (B3G) (B1U)
                 (B3U) (B2U) (B1G) (AG) (AG) (B1U) (AU) (B2U) (B2G)
                 (B2U) (AG) (B3G) (B3U) (B2U) (AG) (B3G) (B1G)
                 (B1U) (AG) (B3U) (AU) (B2G) (B1G) (B3G) (B1U)
                 (B2U) (AU) (B3U) (B2G) (B1U) (B2U) (AG) (B1G)
                 (B3G) (AG) (B2U) (B3U) (B1G) (AU) (B1U) (B2G)
                 (AG) (B1U) (B2U) (B3G) (AG) (AG) (B1U) (B2U) (AG)
 The electronic state is 1-AG.
 Alpha  occ. eigenvalues --  -66.15806 -66.15806 -66.13326 -66.13325  -5.30395
 Alpha  occ. eigenvalues --   -5.30395  -5.28296  -5.28289  -3.66514  -3.66513
 Alpha  occ. eigenvalues --   -3.66171  -3.66164  -3.65833  -3.65832  -3.64368
 Alpha  occ. eigenvalues --   -3.64367  -3.64014  -3.63983  -3.63865  -3.63865
 Alpha  occ. eigenvalues --   -0.60418  -0.48447  -0.40861  -0.33637  -0.26080
 Alpha  occ. eigenvalues --   -0.25469  -0.23316  -0.22478
 Alpha virt. eigenvalues --   -0.13668  -0.08795  -0.08405  -0.03907   0.00829
 Alpha virt. eigenvalues --    0.00926   0.03254   0.05728   0.08758   0.15340
 Alpha virt. eigenvalues --    0.15564   0.16792   0.18593   0.18969   0.19064
 Alpha virt. eigenvalues --    0.19162   0.19213   0.21789   0.23142   0.26360
 Alpha virt. eigenvalues --    0.26573   0.26971   0.28946   0.29748   0.29775
 Alpha virt. eigenvalues --    0.31362   0.31456   0.33056   0.33153   0.38006
 Alpha virt. eigenvalues --    0.40060   0.46625   0.47402   0.48557   0.49321
 Alpha virt. eigenvalues --    0.49794   0.50609   0.52323   0.54449   0.66466
 Alpha virt. eigenvalues --    0.67992   0.69669   0.71843   0.75637   0.77094
 Alpha virt. eigenvalues --    0.84976   0.85716   0.87103   0.89871   0.90175
 Alpha virt. eigenvalues --    0.92872   0.94160   0.94246   0.96690   0.98959
 Alpha virt. eigenvalues --    1.00010   1.01052   1.02475   1.03012   1.05702
 Alpha virt. eigenvalues --    1.12064   1.13071   1.14453   1.22204   1.24072
 Alpha virt. eigenvalues --    1.24938   1.25456   1.25743   1.29354   1.29462
 Alpha virt. eigenvalues --    1.31664   1.35371   1.37366   1.46598   1.49993
 Alpha virt. eigenvalues --    1.53318   1.63813   1.67729   1.68581   1.70228
 Alpha virt. eigenvalues --    1.72916   1.74190   1.74721   1.75308   1.75479
 Alpha virt. eigenvalues --    1.81275   1.84100   1.88679   1.91531   1.93008
 Alpha virt. eigenvalues --    1.94239   2.00624   2.04879   2.09164   2.15488
 Alpha virt. eigenvalues --    2.20429   2.41145   2.59778   2.73213   2.76941
          Condensed to atoms (all electrons):
              1          2          3          4
     1  Si  13.411224   0.263988   0.113290   0.263988
     2  Si   0.263988  13.441135   0.263988  -0.021599
     3  Si   0.113290   0.263988  13.411224   0.263988
     4  Si   0.263988  -0.021599   0.263988  13.441135
 Mulliken atomic charges:
              1
     1  Si  -0.052489
     2  Si   0.052489
     3  Si  -0.052489
     4  Si   0.052489
 Sum of Mulliken atomic charges =   0.00000
 Mulliken charges with hydrogens summed into heavy atoms:
              1
     1  Si  -0.052489
     2  Si   0.052489
     3  Si  -0.052489
     4  Si   0.052489
 Sum of Mulliken charges with hydrogens summed into heavy atoms =   0.00000
 Electronic spatial extent (au):  <R**2>=            659.5290
 Charge=              0.0000 electrons
 Dipole moment (field-independent basis, Debye):
    X=              0.0000    Y=              0.0000    Z=              0.0000  Tot=              0.0000
 Quadrupole moment (field-independent basis, Debye-Ang):
   XX=            -49.4053   YY=            -55.2764   ZZ=            -55.9356
   XY=              0.0000   XZ=              0.0000   YZ=              0.0000
 Traceless Quadrupole moment (field-independent basis, Debye-Ang):
   XX=              4.1338   YY=             -1.7373   ZZ=             -2.3965
   XY=              0.0000   XZ=              0.0000   YZ=              0.0000
 Octapole moment (field-independent basis, Debye-Ang**2):
  XXX=              0.0000  YYY=              0.0000  ZZZ=              0.0000  XYY=              0.0000
  XXY=              0.0000  XXZ=              0.0000  XZZ=              0.0000  YZZ=              0.0000
  YYZ=              0.0000  XYZ=              0.0000
 Hexadecapole moment (field-independent basis, Debye-Ang**3):
 XXXX=            -88.3143 YYYY=           -355.1221 ZZZZ=           -805.8792 XXXY=              0.0000
 XXXZ=              0.0000 YYYX=              0.0000 YYYZ=              0.0000 ZZZX=              0.0000
 ZZZY=              0.0000 XXYY=            -69.4284 XXZZ=           -127.8689 YYZZ=           -180.9297
 XXYZ=              0.0000 YYXZ=              0.0000 ZZXY=              0.0000
 N-N= 2.474834681423D+02 E-N=-3.252081176054D+03  KE= 1.154015783630D+03
 Symmetry AG   KE= 4.778335606268D+02
 Symmetry B1G  KE= 2.428517591335D+01
 Symmetry B2G  KE= 2.429102287645D+01
 Symmetry B3G  KE= 5.081086573068D+01
 Symmetry AU   KE=-5.446663271111D-22
 Symmetry B1U  KE= 2.645495541651D+02
 Symmetry B2U  KE= 2.620003456855D+02
 Symmetry B3U  KE= 5.024525863240D+01
 1\1\GINC-NODE41\FOpt\RB3LYP\GTBas3\Si4\TAM\04-Jan-2012\0\\# G4 opt=(Ca
 rtesian) scfcyc=500 scf=xqc\\si4-n\\0,1\Si,0.,0.,-1.2105734471\Si,0.,1
 .9839863362,0.\Si,0.,0.,1.2105734471\Si,0.,-1.9839863362,0.\\Version=A
 M64L-G09RevA.02\State=1-AG\HF=-1157.9041206\RMSD=2.230e-09\RMSF=4.700e
 -05\Dipole=0.,0.,0.\Quadrupole=3.0733854,-1.78172,-1.2916654,0.,0.,0.\
 PG=D02H [C2'(Si1.Si1),C2"(Si1.Si1)]\\@


 EVERYTHING'S GOT A MORAL, IF ONLY YOU CAN FIND IT.

                                    -- LEWIS CARROL, ALICE IN WONDERLAND
 Job cpu time:  0 days  0 hours  1 minutes 35.3 seconds.
 File lengths (MBytes):  RWF=     10 Int=      0 D2E=      0 Chk=     13 Scr=      1
 Normal termination of Gaussian 09 at Wed Jan  4 11:50:21 2012.
 Link1:  Proceeding to internal job step number  2.
 ----------------------------------------------------------
 #N Geom=AllCheck Guess=TCheck SCRF=Check B3LYP/GTBas3 Freq
 ----------------------------------------------------------
 1/10=4,29=7,30=1,38=1,40=1/1,3;
 2/12=2,40=1/2;
 3/5=35,11=2,14=-4,16=1,25=1,30=1,70=2,71=2,74=-5,116=-2/1,2,3;
 4/5=101/1;
 5/5=2,7=500,8=3,13=1,98=1/2,8;
 8/6=4,10=90,11=11/1;
 11/6=1,8=1,9=11,15=111,16=1/1,2,10;
 10/6=1/2;
 6/7=2,8=2,9=2,10=2,18=1,28=1/1;
 7/8=1,10=1,25=1/1,2,3,16;
 1/10=4,30=1/3;
 99//99;
 -----
 si4-n
 -----
 No Z-matrix found on checkpoint file.
 Cartesian coordinates read from the checkpoint file:
 S9L-ne-d-01.chk
 Charge =  0 Multiplicity = 1
  Si                                                0.000000000000      0.000000000000     -1.210573447081
  Si                                                0.000000000000      1.983986336235      0.000000000000
  Si                                                0.000000000000      0.000000000000      1.210573447081
  Si                                                0.000000000000     -1.983986336235      0.000000000000
 Recover connectivity data from disk.

 GradGradGradGradGradGradGradGradGradGradGradGradGradGradGradGradGradGrad
 Berny optimization.
 Initialization pass.
 Trust Radius=3.00D-01 FncErr=1.00D-07 GrdErr=1.00D-07
 Number of steps in this run=   2 maximum allowed number of steps=   2.
 GradGradGradGradGradGradGradGradGradGradGradGradGradGradGradGradGradGrad

                          Input orientation:                          
 ---------------------------------------------------------------------
 Center     Atomic      Atomic             Coordinates (Angstroms)
 Number     Number       Type             X           Y           Z
 ---------------------------------------------------------------------
      1         14           0        0.000000    0.000000   -1.210573
      2         14           0        0.000000    1.983986    0.000000
      3         14           0        0.000000    0.000000    1.210573
      4         14           0        0.000000   -1.983986    0.000000
 ---------------------------------------------------------------------
                    Distance matrix (angstroms):
                    1          2          3          4
     1  Si   0.000000
     2  Si   2.324154   0.000000
     3  Si   2.421147   2.324154   0.000000
     4  Si   2.324154   3.967973   2.324154   0.000000
 Stoichiometry    Si4
 Framework group  D2H[C2'(Si.Si),C2"(Si.Si)]
 Deg. of freedom     2
 Full point group                 D2H     NOp   8
 Largest Abelian subgroup         D2H     NOp   8
 Largest concise Abelian subgroup D2      NOp   4
                         Standard orientation:                         
 ---------------------------------------------------------------------
 Center     Atomic      Atomic             Coordinates (Angstroms)
 Number     Number       Type             X           Y           Z
 ---------------------------------------------------------------------
      1         14           0        0.000000    1.210573    0.000000
      2         14           0        0.000000    0.000000    1.983986
      3         14           0        0.000000   -1.210573    0.000000
      4         14           0        0.000000    0.000000   -1.983986
 ---------------------------------------------------------------------
 Rotational constants (GHZ):      6.1631804      2.2946149      1.6720818
 Standard basis: GTBas3 (6D, 7F)
 There are    30 symmetry adapted basis functions of AG  symmetry.
 There are    10 symmetry adapted basis functions of B1G symmetry.
 There are    10 symmetry adapted basis functions of B2G symmetry.
 There are    14 symmetry adapted basis functions of B3G symmetry.
 There are     6 symmetry adapted basis functions of AU  symmetry.
 There are    22 symmetry adapted basis functions of B1U symmetry.
 There are    22 symmetry adapted basis functions of B2U symmetry.
 There are    14 symmetry adapted basis functions of B3U symmetry.
 Integral buffers will be    131072 words long.
 Raffenetti 2 integral format.
 Two-electron integral symmetry is turned on.
   128 basis functions,   272 primitive gaussians,   140 cartesian basis functions
    28 alpha electrons       28 beta electrons
       nuclear repulsion energy       247.4834681423 Hartrees.
 NAtoms=    4 NActive=    4 NUniq=    2 SFac= 3.00D+00 NAtFMM=   80 NAOKFM=F Big=F
 One-electron integrals computed using PRISM.
 NBasis=   128 RedAO= T  NBF=    30    10    10    14     6    22    22    14
 NBsUse=   128 1.00D-06 NBFU=    30    10    10    14     6    22    22    14
 Initial guess read from the checkpoint file:  S9L-ne-d-01.chk
 B after Tr=     0.000000    0.000000    0.000000
         Rot=    1.000000    0.000000    0.000000    0.000000 Ang=   0.00 deg.
 Initial guess orbital symmetries:
       Occupied  (AG) (B1U) (B2U) (AG) (B1U) (AG) (AG) (B2U) (B2G)
                 (B3U) (B2U) (B3G) (AG) (B1U) (B3U) (B1G) (AG)
                 (B2U) (B1U) (B3G) (AG) (B1U) (B2U) (AG) (B3U)
                 (B3G) (AG) (B1U)
       Virtual   (B2G) (B1G) (B2U) (B3U) (B2U) (AG) (B1U) (B3G)
                 (AG) (B1U) (B3U) (AG) (B1U) (B2G) (B3G) (AG) (AU)
                 (B2U) (B2U) (B1G) (B3U) (B2G) (AG) (B2U) (B3U)
                 (B1G) (B1U) (B3G) (AG) (B1U) (B2U) (B3U) (B3G)
                 (AU) (B1U) (B1G) (AG) (B2G) (AG) (AG) (B2U) (B3G)
                 (B2U) (AG) (B1U) (B2G) (B1U) (B3U) (B3G) (B1U)
                 (B3U) (B2U) (B1G) (AG) (AG) (B1U) (AU) (B2U) (B2G)
                 (B2U) (AG) (B3G) (B3U) (B2U) (AG) (B3G) (B1G)
                 (B1U) (AG) (B3U) (AU) (B2G) (B1G) (B3G) (B1U)
                 (B2U) (AU) (B3U) (B2G) (B1U) (B2U) (AG) (B1G)
                 (B3G) (AG) (B2U) (B3U) (B1G) (AU) (B1U) (B2G)
                 (AG) (B1U) (B2U) (B3G) (AG) (AG) (B1U) (B2U) (AG)
 Requested convergence on RMS density matrix=1.00D-08 within 128 cycles.
 Requested convergence on MAX density matrix=1.00D-06.
 Requested convergence on             energy=1.00D-06.
 No special actions if energy rises.
 Keep R1 ints in memory in canonical form, NReq=50764185.
 SCF Done:  E(RB3LYP) =  -1157.90412061     A.U. after    1 cycles
             Convg  =    0.2672D-09             -V/T =  2.0034
 QCSCF skips out because SCF is already converged.
 Range of M.O.s used for correlation:     1   128
 NBasis=   128 NAE=    28 NBE=    28 NFC=     0 NFV=     0
 NROrb=    128 NOA=    28 NOB=    28 NVA=   100 NVB=   100

 **** Warning!!: The smallest alpha delta epsilon is  0.88098339D-01

 Symmetrizing basis deriv contribution to polar:
 IMax=3 JMax=2 DiffMx= 0.00D+00
 G2DrvN: will do     5 centers at a time, making    1 passes doing MaxLOS=3.
 Calling FoFCou, ICntrl=  3107 FMM=F I1Cent=   0 AccDes= 0.00D+00.
 FoFDir/FoFCou used for L=0 through L=3.
 End of G2Drv Frequency-dependent properties file   721 does not exist.
 End of G2Drv Frequency-dependent properties file   722 does not exist.
          IDoAtm=1111
          Differentiating once with respect to electric field.
                with respect to dipole field.
          Differentiating once with respect to nuclear coordinates.
          Keep R1 ints in memory in canonical form, NReq=50656225.
          There are     9 degrees of freedom in the 1st order CPHF.  IDoFFX=4.
      9 vectors produced by pass  0 Test12= 3.11D-14 1.11D-08 XBig12= 6.98D+02 1.84D+01.
 AX will form     9 AO Fock derivatives at one time.
      9 vectors produced by pass  1 Test12= 3.11D-14 1.11D-08 XBig12= 3.66D+02 8.96D+00.
      9 vectors produced by pass  2 Test12= 3.11D-14 1.11D-08 XBig12= 9.40D+00 1.25D+00.
      9 vectors produced by pass  3 Test12= 3.11D-14 1.11D-08 XBig12= 6.91D-01 3.00D-01.
      9 vectors produced by pass  4 Test12= 3.11D-14 1.11D-08 XBig12= 1.50D-02 4.62D-02.
      9 vectors produced by pass  5 Test12= 3.11D-14 1.11D-08 XBig12= 9.46D-05 1.96D-03.
      9 vectors produced by pass  6 Test12= 3.11D-14 1.11D-08 XBig12= 7.74D-07 2.74D-04.
      7 vectors produced by pass  7 Test12= 3.11D-14 1.11D-08 XBig12= 7.34D-09 2.21D-05.
      3 vectors produced by pass  8 Test12= 3.11D-14 1.11D-08 XBig12= 1.62D-11 7.62D-07.
      3 vectors produced by pass  9 Test12= 3.11D-14 1.11D-08 XBig12= 3.45D-14 4.32D-08.
 Inverted reduced A of dimension    76 with in-core refinement.
 Isotropic polarizability for W=    0.000000      127.29 Bohr**3.
 End of Minotr Frequency-dependent properties file   721 does not exist.
 End of Minotr Frequency-dependent properties file   722 does not exist.

 **********************************************************************

            Population analysis using the SCF density.

 **********************************************************************

 Orbital symmetries:
       Occupied  (AG) (B1U) (B2U) (AG) (B1U) (AG) (AG) (B2U) (B2G)
                 (B3U) (B2U) (B3G) (AG) (B1U) (B3U) (B1G) (AG)
                 (B2U) (B1U) (B3G) (AG) (B1U) (B2U) (AG) (B3U)
                 (B3G) (AG) (B1U)
       Virtual   (B2G) (B1G) (B2U) (B3U) (B2U) (AG) (B1U) (B3G)
                 (AG) (B1U) (B3U) (AG) (B1U) (B2G) (B3G) (AG) (AU)
                 (B2U) (B2U) (B1G) (B3U) (B2G) (AG) (B2U) (B3U)
                 (B1G) (B1U) (B3G) (AG) (B1U) (B2U) (B3U) (B3G)
                 (AU) (B1U) (B1G) (AG) (B2G) (AG) (AG) (B2U) (B3G)
                 (B2U) (AG) (B1U) (B2G) (B1U) (B3U) (B3G) (B1U)
                 (B3U) (B2U) (B1G) (AG) (AG) (B1U) (AU) (B2U) (B2G)
                 (B2U) (AG) (B3G) (B3U) (B2U) (AG) (B3G) (B1G)
                 (B1U) (AG) (B3U) (AU) (B2G) (B1G) (B3G) (B1U)
                 (B2U) (AU) (B3U) (B2G) (B1U) (B2U) (AG) (B1G)
                 (B3G) (AG) (B2U) (B3U) (B1G) (AU) (B1U) (B2G)
                 (AG) (B1U) (B2U) (B3G) (AG) (AG) (B1U) (B2U) (AG)
 The electronic state is 1-AG.
 Alpha  occ. eigenvalues --  -66.15806 -66.15806 -66.13326 -66.13325  -5.30395
 Alpha  occ. eigenvalues --   -5.30395  -5.28296  -5.28289  -3.66514  -3.66513
 Alpha  occ. eigenvalues --   -3.66171  -3.66164  -3.65833  -3.65832  -3.64368
 Alpha  occ. eigenvalues --   -3.64367  -3.64014  -3.63983  -3.63865  -3.63865
 Alpha  occ. eigenvalues --   -0.60418  -0.48447  -0.40861  -0.33637  -0.26080
 Alpha  occ. eigenvalues --   -0.25469  -0.23316  -0.22478
 Alpha virt. eigenvalues --   -0.13668  -0.08795  -0.08405  -0.03907   0.00829
 Alpha virt. eigenvalues --    0.00926   0.03254   0.05728   0.08758   0.15340
 Alpha virt. eigenvalues --    0.15564   0.16792   0.18593   0.18969   0.19064
 Alpha virt. eigenvalues --    0.19162   0.19213   0.21789   0.23142   0.26360
 Alpha virt. eigenvalues --    0.26573   0.26971   0.28946   0.29748   0.29775
 Alpha virt. eigenvalues --    0.31362   0.31456   0.33056   0.33153   0.38006
 Alpha virt. eigenvalues --    0.40060   0.46625   0.47402   0.48557   0.49321
 Alpha virt. eigenvalues --    0.49794   0.50609   0.52323   0.54449   0.66466
 Alpha virt. eigenvalues --    0.67992   0.69669   0.71843   0.75637   0.77094
 Alpha virt. eigenvalues --    0.84976   0.85716   0.87103   0.89871   0.90175
 Alpha virt. eigenvalues --    0.92872   0.94160   0.94246   0.96690   0.98959
 Alpha virt. eigenvalues --    1.00010   1.01052   1.02475   1.03012   1.05702
 Alpha virt. eigenvalues --    1.12064   1.13071   1.14453   1.22204   1.24072
 Alpha virt. eigenvalues --    1.24938   1.25456   1.25743   1.29354   1.29462
 Alpha virt. eigenvalues --    1.31664   1.35371   1.37366   1.46598   1.49993
 Alpha virt. eigenvalues --    1.53318   1.63813   1.67729   1.68581   1.70228
 Alpha virt. eigenvalues --    1.72916   1.74190   1.74721   1.75308   1.75479
 Alpha virt. eigenvalues --    1.81275   1.84100   1.88679   1.91531   1.93008
 Alpha virt. eigenvalues --    1.94239   2.00624   2.04879   2.09164   2.15488
 Alpha virt. eigenvalues --    2.20429   2.41145   2.59778   2.73213   2.76941
          Condensed to atoms (all electrons):
              1          2          3          4
     1  Si  13.411224   0.263988   0.113290   0.263988
     2  Si   0.263988  13.441135   0.263988  -0.021599
     3  Si   0.113290   0.263988  13.411224   0.263988
     4  Si   0.263988  -0.021599   0.263988  13.441135
 Mulliken atomic charges:
              1
     1  Si  -0.052489
     2  Si   0.052489
     3  Si  -0.052489
     4  Si   0.052489
 Sum of Mulliken atomic charges =   0.00000
 Mulliken charges with hydrogens summed into heavy atoms:
              1
     1  Si  -0.052489
     2  Si   0.052489
     3  Si  -0.052489
     4  Si   0.052489
 Sum of Mulliken charges with hydrogens summed into heavy atoms =   0.00000
 APT atomic charges:
              1
     1  Si  -0.229728
     2  Si   0.229728
     3  Si  -0.229728
     4  Si   0.229728
 Sum of APT charges=   0.00000
 APT Atomic charges with hydrogens summed into heavy atoms:
              1
     1  Si  -0.229728
     2  Si   0.229728
     3  Si  -0.229728
     4  Si   0.229728
 Sum of APT charges=   0.00000
 Electronic spatial extent (au):  <R**2>=            659.5290
 Charge=              0.0000 electrons
 Dipole moment (field-independent basis, Debye):
    X=              0.0000    Y=              0.0000    Z=              0.0000  Tot=              0.0000
 Quadrupole moment (field-independent basis, Debye-Ang):
   XX=            -49.4053   YY=            -55.2764   ZZ=            -55.9356
   XY=              0.0000   XZ=              0.0000   YZ=              0.0000
 Traceless Quadrupole moment (field-independent basis, Debye-Ang):
   XX=              4.1338   YY=             -1.7373   ZZ=             -2.3965
   XY=              0.0000   XZ=              0.0000   YZ=              0.0000
 Octapole moment (field-independent basis, Debye-Ang**2):
  XXX=              0.0000  YYY=              0.0000  ZZZ=              0.0000  XYY=              0.0000
  XXY=              0.0000  XXZ=              0.0000  XZZ=              0.0000  YZZ=              0.0000
  YYZ=              0.0000  XYZ=              0.0000
 Hexadecapole moment (field-independent basis, Debye-Ang**3):
 XXXX=            -88.3143 YYYY=           -355.1221 ZZZZ=           -805.8792 XXXY=              0.0000
 XXXZ=              0.0000 YYYX=              0.0000 YYYZ=              0.0000 ZZZX=              0.0000
 ZZZY=              0.0000 XXYY=            -69.4284 XXZZ=           -127.8689 YYZZ=           -180.9297
 XXYZ=              0.0000 YYXZ=              0.0000 ZZXY=              0.0000
 N-N= 2.474834681423D+02 E-N=-3.252081176600D+03  KE= 1.154015783741D+03
 Symmetry AG   KE= 4.778335606683D+02
 Symmetry B1G  KE= 2.428517591239D+01
 Symmetry B2G  KE= 2.429102287948D+01
 Symmetry B3G  KE= 5.081086574695D+01
 Symmetry AU   KE=-1.039652915474D-23
 Symmetry B1U  KE= 2.645495542001D+02
 Symmetry B2U  KE= 2.620003456929D+02
 Symmetry B3U  KE= 5.024525864079D+01
  Exact polarizability:  74.671   0.000 128.478   0.000   0.000 178.717
 Approx polarizability: 148.417   0.000 334.654   0.000   0.000 471.492
 Calling FoFJK, ICntrl=    100127 FMM=F ISym2X=1 I1Cent= 0 IOpClX= 0 NMat=1 NMatS=1 NMatT=0.
 Full mass-weighted force constant matrix:
 Low frequencies ---   -7.8346   -6.1438   -5.2759   -0.0049   -0.0034   -0.0022
 Low frequencies ---   82.2697  237.5144  346.6418
 Diagonal vibrational polarizability:
       12.5071682       0.9143586       7.9757771
 Harmonic frequencies (cm**-1), IR intensities (KM/Mole), Raman scattering
 activities (A**4/AMU), depolarization ratios for plane and unpolarized
 incident light, reduced masses (AMU), force constants (mDyne/A),
 and normal coordinates:
                     1                      2                      3
                    B3U                    B2U                    AG
 Frequencies --    82.2697               237.5144               346.6418
 Red. masses --    27.9769                27.9769                27.9769
 Frc consts  --     0.1116                 0.9299                 1.9807
 IR Inten    --     3.1456                 1.9167                 0.0000
  Atom  AN      X      Y      Z        X      Y      Z        X      Y      Z
     1  14     0.50   0.00   0.00     0.00  -0.50   0.00     0.00  -0.43   0.00
     2  14    -0.50   0.00   0.00     0.00   0.50   0.00     0.00   0.00   0.56
     3  14     0.50   0.00   0.00     0.00  -0.50   0.00     0.00   0.43   0.00
     4  14    -0.50   0.00   0.00     0.00   0.50   0.00     0.00   0.00  -0.56
                     4                      5                      6
                    B3G                    AG                     B1U
 Frequencies --   428.3620               463.4217               495.2330
 Red. masses --    27.9769                27.9769                27.9769
 Frc consts  --     3.0246                 3.5400                 4.0427
 IR Inten    --     0.0000                 0.0000                72.6874
  Atom  AN      X      Y      Z        X      Y      Z        X      Y      Z
     1  14     0.00   0.00   0.60     0.00   0.56   0.00     0.00   0.00   0.50
     2  14     0.00   0.37   0.00     0.00   0.00   0.43     0.00   0.00  -0.50
     3  14     0.00   0.00  -0.60     0.00  -0.56   0.00     0.00   0.00   0.50
     4  14     0.00  -0.37   0.00     0.00   0.00  -0.43     0.00   0.00  -0.50

 -------------------
 - Thermochemistry -
 -------------------
 Temperature   298.150 Kelvin.  Pressure   1.00000 Atm.
 Atom     1 has atomic number 14 and mass  27.97693
 Atom     2 has atomic number 14 and mass  27.97693
 Atom     3 has atomic number 14 and mass  27.97693
 Atom     4 has atomic number 14 and mass  27.97693
 Molecular mass:   111.90771 amu.
 Principal axes and moments of inertia in atomic units:
                           1         2         3
     Eigenvalues --   292.82628 786.511581079.33786
           X            0.00000   0.00000   1.00000
           Y            0.00000   1.00000   0.00000
           Z            1.00000   0.00000   0.00000
 This molecule is an asymmetric top.
 Rotational symmetry number  4.
 Rotational temperatures (Kelvin)      0.29579     0.11012     0.08025
 Rotational constants (GHZ):           6.16318     2.29461     1.67208
 Zero-point vibrational energy      12282.3 (Joules/Mol)
                                    2.93554 (Kcal/Mol)
 Warning -- explicit consideration of   6 degrees of freedom as
           vibrations may cause significant error
 Vibrational temperatures:    118.37   341.73   498.74   616.32   666.76
          (Kelvin)            712.53
 
 Zero-point correction=                           0.004678 (Hartree/Particle)
 Thermal correction to Energy=                    0.009912
 Thermal correction to Enthalpy=                  0.010856
 Thermal correction to Gibbs Free Energy=        -0.024037
 Sum of electronic and zero-point Energies=          -1157.899443
 Sum of electronic and thermal Energies=             -1157.894209
 Sum of electronic and thermal Enthalpies=           -1157.893264
 Sum of electronic and thermal Free Energies=        -1157.928157
 
                     E (Thermal)             CV                S
                      KCal/Mol        Cal/Mol-Kelvin    Cal/Mol-Kelvin
 Total                    6.220             15.289             73.438
 Electronic               0.000              0.000              0.000
 Translational            0.889              2.981             40.053
 Rotational               0.889              2.981             24.256
 Vibrational              4.442              9.327              9.129
 Vibration     1          0.600              1.961              3.836
 Vibration     2          0.656              1.783              1.821
 Vibration     3          0.725              1.582              1.181
 Vibration     4          0.790              1.409              0.864
 Vibration     5          0.821              1.331              0.756
 Vibration     6          0.851              1.261              0.670
                       Q            Log10(Q)             Ln(Q)
 Total Bot       0.113780D+12         11.056064         25.457528
 Total V=0       0.161373D+14         13.207830         30.412152
 Vib (Bot)       0.548020D-01         -1.261204         -2.904029
 Vib (Bot)    1  0.250238D+01          0.398354          0.917243
 Vib (Bot)    2  0.826484D+00         -0.082765         -0.190574
 Vib (Bot)    3  0.533405D+00         -0.272943         -0.628475
 Vib (Bot)    4  0.407275D+00         -0.390112         -0.898266
 Vib (Bot)    5  0.365986D+00         -0.436535         -1.005160
 Vib (Bot)    6  0.333272D+00         -0.477201         -1.098797
 Vib (V=0)       0.777252D+01          0.890562          2.050595
 Vib (V=0)    1  0.305185D+01          0.484563          1.115746
 Vib (V=0)    2  0.146596D+01          0.166122          0.382509
 Vib (V=0)    3  0.123111D+01          0.090297          0.207916
 Vib (V=0)    4  0.114488D+01          0.058761          0.135302
 Vib (V=0)    5  0.111963D+01          0.049076          0.113002
 Vib (V=0)    6  0.110089D+01          0.041744          0.096120
 Electronic      0.100000D+01          0.000000          0.000000
 Translational   0.465313D+08          7.667745         17.655636
 Rotational      0.446193D+05          4.649523         10.705922
 ***** Axes restored to original set *****
 -------------------------------------------------------------------
 Center     Atomic                   Forces (Hartrees/Bohr)
 Number     Number              X              Y              Z
 -------------------------------------------------------------------
      1       14           0.000000000    0.000000000    0.000092438
      2       14           0.000000000    0.000068639    0.000000000
      3       14           0.000000000    0.000000000   -0.000092438
      4       14           0.000000000   -0.000068639    0.000000000
 -------------------------------------------------------------------
 Cartesian Forces:  Max     0.000092438 RMS     0.000047004

 GradGradGradGradGradGradGradGradGradGradGradGradGradGradGradGradGradGrad
 Berny optimization.
 Search for a local minimum.
 Step number   1 out of a maximum of    2
 All quantities printed in internal units (Hartrees-Bohrs-Radians)
 Second derivative matrix not updated -- analytic derivatives used.
 The second derivative matrix:
                          X1        Y1        Z1        X2        Y2
           X1           0.00177
           Y1           0.00000   0.13577
           Z1           0.00000   0.00000   0.11046
           X2          -0.00179   0.00000   0.00000   0.00176
           Y2           0.00000  -0.06492  -0.02408   0.00000   0.14669
           Z2           0.00000  -0.04316  -0.01493   0.00000   0.00000
           X3           0.00181   0.00000   0.00000  -0.00179   0.00000
           Y3           0.00000  -0.00594   0.00000   0.00000  -0.06492
           Z3           0.00000   0.00000  -0.08059   0.00000   0.02408
           X4          -0.00179   0.00000   0.00000   0.00182   0.00000
           Y4           0.00000  -0.06492   0.02408   0.00000  -0.01686
           Z4           0.00000   0.04316  -0.01493   0.00000   0.00000
                          Z2        X3        Y3        Z3        X4
           Z2           0.04120
           X3           0.00000   0.00177
           Y3           0.04316   0.00000   0.13577
           Z3          -0.01493   0.00000   0.00000   0.11046
           X4           0.00000  -0.00179   0.00000   0.00000   0.00176
           Y4           0.00000   0.00000  -0.06492  -0.02408   0.00000
           Z4          -0.01133   0.00000  -0.04316  -0.01493   0.00000
                          Y4        Z4
           Y4           0.14669
           Z4           0.00000   0.04120
     Eigenvalues ---    0.00717   0.05973   0.12722   0.19427   0.22738
     Eigenvalues ---    0.25966
 Angle between quadratic step and forces=   7.04 degrees.
 ClnCor:  largest displacement from symmetrization is 1.68D-11 for atom     3.
 Linear search not attempted -- first point.
 ClnCor:  largest displacement from symmetrization is 5.05D-28 for atom     2.
 TrRot=  0.000000  0.000000  0.000000  0.000000  0.000000  0.000000
 Variable       Old X    -DE/DX   Delta X   Delta X   Delta X     New X
                                 (Linear)    (Quad)   (Total)
    X1        0.00000   0.00000   0.00000   0.00000   0.00000   0.00000
    Y1        0.00000   0.00000   0.00000   0.00000   0.00000   0.00000
    Z1       -2.28765   0.00009   0.00000   0.00064   0.00064  -2.28702
    X2        0.00000   0.00000   0.00000   0.00000   0.00000   0.00000
    Y2        3.74919   0.00007   0.00000   0.00061   0.00061   3.74980
    Z2        0.00000   0.00000   0.00000   0.00000   0.00000   0.00000
    X3        0.00000   0.00000   0.00000   0.00000   0.00000   0.00000
    Y3        0.00000   0.00000   0.00000   0.00000   0.00000   0.00000
    Z3        2.28765  -0.00009   0.00000  -0.00064  -0.00064   2.28702
    X4        0.00000   0.00000   0.00000   0.00000   0.00000   0.00000
    Y4       -3.74919  -0.00007   0.00000  -0.00061  -0.00061  -3.74980
    Z4        0.00000   0.00000   0.00000   0.00000   0.00000   0.00000
         Item               Value     Threshold  Converged?
 Maximum Force            0.000092     0.000450     YES
 RMS     Force            0.000047     0.000300     YES
 Maximum Displacement     0.000637     0.001800     YES
 RMS     Displacement     0.000359     0.001200     YES
 Predicted change in Energy=-1.005507D-07
 Optimization completed.
    -- Stationary point found.
 GradGradGradGradGradGradGradGradGradGradGradGradGradGradGradGradGradGrad

 1\1\GINC-NODE41\Freq\RB3LYP\GTBas3\Si4\TAM\04-Jan-2012\0\\#N Geom=AllC
 heck Guess=TCheck SCRF=Check B3LYP/GTBas3 Freq\\si4-n\\0,1\Si,0.,0.,-1
 .2105734471\Si,0.,1.9839863362,0.\Si,0.,0.,1.2105734471\Si,0.,-1.98398
 63362,0.\\Version=AM64L-G09RevA.02\State=1-AG\HF=-1157.9041206\RMSD=2.
 672e-10\RMSF=4.700e-05\ZeroPoint=0.0046781\Thermal=0.0099121\Dipole=0.
 ,0.,0.\DipoleDeriv=0.1502267,0.,0.,0.,-0.7221441,0.,0.,0.,-0.1172671,-
 0.1502268,0.,0.,0.,0.7221441,0.,0.,0.,0.1172671,0.1502267,0.,0.,0.,-0.
 7221441,0.,0.,0.,-0.1172671,-0.1502268,0.,0.,0.,0.7221442,0.,0.,0.,0.1
 172671\Polar=74.6713383,0.,178.7166573,0.,0.,128.4777076\PG=D02H [C2'(
 Si1.Si1),C2"(Si1.Si1)]\NImag=0\\0.00177150,0.,0.13577148,0.,0.,0.11045
 743,-0.00179148,0.,0.,0.00175898,0.,-0.06491583,-0.02407624,0.,0.14668
 776,0.,-0.04315732,-0.01493178,0.,0.,0.04119818,0.00181146,0.,0.,-0.00
 179148,0.,0.,0.00177150,0.,-0.00593982,0.,0.,-0.06491583,0.04315732,0.
 ,0.13577148,0.,0.,-0.08059388,0.,0.02407624,-0.01493178,0.,0.,0.110457
 43,-0.00179148,0.,0.,0.00182397,0.,0.,-0.00179148,0.,0.,0.00175898,0.,
 -0.06491583,0.02407624,0.,-0.01685611,0.,0.,-0.06491583,-0.02407624,0.
 ,0.14668776,0.,0.04315732,-0.01493178,0.,0.,-0.01133462,0.,-0.04315732
 ,-0.01493178,0.,0.,0.04119818\\0.,0.,-0.00009244,0.,-0.00006864,0.,0.,
 0.,0.00009244,0.,0.00006864,0.\\\@


 I SUPPOSE A BABY LLAMA HAS A MMAMA AND A PPOPA.
     -- RICHARD AMOUR
 Job cpu time:  0 days  0 hours  1 minutes 54.4 seconds.
 File lengths (MBytes):  RWF=     11 Int=      0 D2E=      0 Chk=     13 Scr=      1
 Normal termination of Gaussian 09 at Wed Jan  4 11:50:41 2012.
 Link1:  Proceeding to internal job step number  3.
 -----------------------------------------------------------------
 #N Geom=AllCheck Guess=TCheck SCRF=Check CCSD(T,E4T,FrzG4)/GTBas1
 -----------------------------------------------------------------
 1/29=7,38=1,40=1/1;
 2/12=2,40=1/2;
 3/5=33,11=9,14=-4,16=1,25=1,30=1,70=2,116=-2/1,2,3;
 4/5=101/1;
 5/5=2,7=500,8=3,13=1/2,8;
 8/6=4,9=120000,10=6/1,4;
 9/5=7,14=4/13;
 6/7=2,8=2,9=2,10=2/1;
 99/5=1,9=1/99;
 -----
 si4-n
 -----
 No Z-matrix found on checkpoint file.
 Cartesian coordinates read from the checkpoint file:
 S9L-ne-d-01.chk
 Charge =  0 Multiplicity = 1
  Si                                                0.000000000000      0.000000000000     -1.210573447081
  Si                                                0.000000000000      1.983986336235      0.000000000000
  Si                                                0.000000000000      0.000000000000      1.210573447081
  Si                                                0.000000000000     -1.983986336235      0.000000000000
 Recover connectivity data from disk.
                          Input orientation:                          
 ---------------------------------------------------------------------
 Center     Atomic      Atomic             Coordinates (Angstroms)
 Number     Number       Type             X           Y           Z
 ---------------------------------------------------------------------
      1         14           0        0.000000    0.000000   -1.210573
      2         14           0        0.000000    1.983986    0.000000
      3         14           0        0.000000    0.000000    1.210573
      4         14           0        0.000000   -1.983986    0.000000
 ---------------------------------------------------------------------
                    Distance matrix (angstroms):
                    1          2          3          4
     1  Si   0.000000
     2  Si   2.324154   0.000000
     3  Si   2.421147   2.324154   0.000000
     4  Si   2.324154   3.967973   2.324154   0.000000
 Stoichiometry    Si4
 Framework group  D2H[C2'(Si.Si),C2"(Si.Si)]
 Deg. of freedom     2
 Full point group                 D2H     NOp   8
 Largest Abelian subgroup         D2H     NOp   8
 Largest concise Abelian subgroup D2      NOp   4
                         Standard orientation:                         
 ---------------------------------------------------------------------
 Center     Atomic      Atomic             Coordinates (Angstroms)
 Number     Number       Type             X           Y           Z
 ---------------------------------------------------------------------
      1         14           0        0.000000    1.210573    0.000000
      2         14           0        0.000000    0.000000    1.983986
      3         14           0        0.000000   -1.210573    0.000000
      4         14           0        0.000000    0.000000   -1.983986
 ---------------------------------------------------------------------
 Rotational constants (GHZ):      6.1631804      2.2946149      1.6720818
 Standard basis: GTBas1 (6D, 7F)
 There are    20 symmetry adapted basis functions of AG  symmetry.
 There are     5 symmetry adapted basis functions of B1G symmetry.
 There are     5 symmetry adapted basis functions of B2G symmetry.
 There are     8 symmetry adapted basis functions of B3G symmetry.
 There are     2 symmetry adapted basis functions of AU  symmetry.
 There are    14 symmetry adapted basis functions of B1U symmetry.
 There are    14 symmetry adapted basis functions of B2U symmetry.
 There are     8 symmetry adapted basis functions of B3U symmetry.
 Integral buffers will be    131072 words long.
 Raffenetti 1 integral format.
 Two-electron integral symmetry is turned on.
    76 basis functions,   208 primitive gaussians,    76 cartesian basis functions
    28 alpha electrons       28 beta electrons
       nuclear repulsion energy       247.4834681423 Hartrees.
[...]
      4         14           0        0.000000    0.000000   -1.983986
 ---------------------------------------------------------------------
 Rotational constants (GHZ):      6.1631804      2.2946149      1.6720818
 Standard basis: GFHFB2 (5D, 7F)
 There are    76 symmetry adapted basis functions of AG  symmetry.
 There are    37 symmetry adapted basis functions of B1G symmetry.
 There are    37 symmetry adapted basis functions of B2G symmetry.
 There are    48 symmetry adapted basis functions of B3G symmetry.
 There are    26 symmetry adapted basis functions of AU  symmetry.
 There are    62 symmetry adapted basis functions of B1U symmetry.
 There are    62 symmetry adapted basis functions of B2U symmetry.
 There are    48 symmetry adapted basis functions of B3U symmetry.
 Integral buffers will be    131072 words long.
 Raffenetti 1 integral format.
 Two-electron integral symmetry is turned on.
   396 basis functions,   784 primitive gaussians,   536 cartesian basis functions
    28 alpha electrons       28 beta electrons
       nuclear repulsion energy       247.4834681423 Hartrees.
 NAtoms=    4 NActive=    4 NUniq=    2 SFac= 3.00D+00 NAtFMM=   80 NAOKFM=F Big=F
 One-electron integrals computed using PRISM.
 NBasis=   396 RedAO= T  NBF=    76    37    37    48    26    62    62    48
 NBsUse=   396 1.00D-06 NBFU=    76    37    37    48    26    62    62    48
 Initial guess read from the checkpoint file:  S9L-ne-d-01.chk
 B after Tr=     0.000000    0.000000    0.000000
         Rot=    1.000000    0.000000    0.000000    0.000000 Ang=   0.00 deg.
 Initial guess orbital symmetries:
       Occupied  (B1U) (AG) (AG) (B2U) (B1U) (AG) (AG) (B2U) (B3U)
                 (B2G) (B3G) (B2U) (B1U) (AG) (B3U) (B1G) (AG)
                 (B2U) (B1U) (B3G) (AG) (B1U) (B2U) (AG) (B3G)
                 (B3U) (B1U) (AG)
       Virtual   (B2G) (B1G) (B2U) (B2U) (B1U) (AG) (B3U) (AG)
                 (B3G) (AG) (B2G) (B3U) (B1G) (B1U) (B2U) (B3G)
                 (B3U) (B2U) (AG) (B1U) (B1U) (B2U) (AG) (B3G)
                 (AG) (B1U) (B3U) (AU) (B2G) (B3G) (B2U) (AG) (AG)
                 (B1G) (B2U) (B1U) (B3U) (B2G) (B3U) (B3G) (AG)
                 (B1G) (B1U) (B2U) (AG) (B1U) (B2U) (B3G) (B1G)
                 (AG) (B2G) (B3U) (B1U) (AU) (AG) (B2U) (AG) (B2U)
                 (B3G) (B1U) (B3U) (B2G) (AG) (B1U) (AU) (B3G)
                 (B3U) (B1G) (AG) (B1U) (B2U) (B2G) (B2U) (B3G)
                 (B2G) (B3U) (B1G) (AG) (B3G) (B1U) (AG) (AU) (B1G)
                 (AG) (B2U) (B3G) (B1G) (B1U) (B3U) (B3U) (B2U)
                 (B2G) (B2U) (AU) (AG) (B1U) (B3U) (B2G) (B2U)
                 (AG) (B3G) (B3U) (B1U) (AU) (B1G) (AG) (B1U) (B2U)
                 (AG) (B3G) (B3U) (B2G) (B2U) (B1G) (B1U) (AG)
                 (B3G) (B1U) (B2U) (AG) (B3G) (B1U) (B2G) (B1U)
                 (AG) (B2U) (B3U) (B1G) (AG) (AU) (B2G) (B2U) (B3G)
                 (B3U) (B1U) (AG) (AU) (B2U) (AG) (B1G) (B3U) (AU)
                 (B1U) (B2G) (AG) (B3U) (B3G) (AG) (B1G) (B1G)
                 (B2G) (AU) (B3U) (B2U) (B2G) (B3G) (AG) (AG) (B2U)
                 (B1U) (B1U) (B2U) (AG) (B1U) (B3G) (B3U) (B1G)
                 (B2G) (B1G) (AU) (B3G) (B3U) (B2U) (B1U) (B2U)
                 (B3G) (AG) (B2G) (AU) (B1G) (B3U) (B2U) (B3U)
                 (B1U) (AG) (AU) (B3G) (AG) (B1U) (B1U) (B2G) (AG)
                 (B3G) (B2U) (B1G) (AU) (B2G) (B3U) (B2U) (B1G)
                 (B1U) (B3G) (B1U) (B2U) (AG) (AG) (B3G) (B2U)
                 (B3U) (B2G) (B3U) (B1G) (B3G) (B2U) (B1U) (AG)
                 (B2U) (AG) (B3G) (B1U) (AG) (B1U) (AG) (B2U) (AG)
                 (AG) (AG) (AG) (AG) (AG) (AG) (AG) (AG) (AG) (AG)
                 (AG) (AG) (AG) (AG) (AG) (AG) (AG) (AG) (AG) (AG)
                 (AG) (AG) (AG) (B1G) (B1G) (B1G) (B1G) (B1G) (B1G)
                 (B1G) (B1G) (B1G) (B1G) (B1G) (B1G) (B1G) (B1G)
                 (B1G) (B2G) (B2G) (B2G) (B2G) (B2G) (B2G) (B2G)
                 (B2G) (B2G) (B2G) (B2G) (B2G) (B2G) (B2G) (B2G)
                 (B3G) (B3G) (B3G) (B3G) (B3G) (B3G) (B3G) (B3G)
                 (B3G) (B3G) (B3G) (B3G) (B3G) (B3G) (B3G) (B3G)
                 (B3G) (B3G) (AU) (AU) (AU) (AU) (AU) (AU) (AU)
                 (AU) (AU) (AU) (AU) (AU) (B1U) (B1U) (B1U) (B1U)
                 (B1U) (B1U) (B1U) (B1U) (B1U) (B1U) (B1U) (B1U)
                 (B1U) (B1U) (B1U) (B1U) (B1U) (B1U) (B1U) (B1U)
                 (B1U) (B2U) (B2U) (B2U) (B2U) (B2U) (B2U) (B2U)
                 (B2U) (B2U) (B2U) (B2U) (B2U) (B2U) (B2U) (B2U)
                 (B2U) (B2U) (B2U) (B2U) (B2U) (B2U) (B3U) (B3U)
                 (B3U) (B3U) (B3U) (B3U) (B3U) (B3U) (B3U) (B3U)
                 (B3U) (B3U) (B3U) (B3U) (B3U) (B3U) (B3U) (B3U)
 Requested convergence on RMS density matrix=1.00D-08 within 128 cycles.
 Requested convergence on MAX density matrix=1.00D-06.
 Requested convergence on             energy=1.00D-06.
 No special actions if energy rises.
 SCF Done:  E(RHF) =  -1155.67552856     A.U. after    8 cycles
             Convg  =    0.6487D-08             -V/T =  2.0001
 QCSCF skips out because SCF is already converged.

 **********************************************************************

            Population analysis using the SCF density.

 **********************************************************************

 Orbital symmetries:
       Occupied  (B1U) (AG) (AG) (B2U) (B1U) (AG) (AG) (B2U) (B3U)
                 (B2G) (B3G) (B2U) (B1U) (AG) (AG) (B3U) (B1G)
                 (B2U) (B1U) (B3G) (AG) (B1U) (B2U) (AG) (B3G)
                 (B3U) (B1U) (AG)
       Virtual   (B2G) (B1G) (B2U) (B2U) (B1U) (AG) (B3U) (AG)
                 (B3G) (AG) (B2G) (B3U) (B1G) (B1U) (B2U) (B3G)
                 (B3U) (B2U) (B1U) (AG) (B1U) (B2U) (AG) (B3G)
                 (AG) (B1U) (B3U) (B3G) (B2G) (B2U) (AU) (AG) (B1G)
                 (B2U) (AG) (B3U) (B1U) (B3U) (B2G) (B3G) (AG)
                 (B1U) (B1G) (B2U) (AG) (B1U) (B2U) (AG) (B1U)
                 (B3G) (B2G) (B1G) (B3U) (AU) (AG) (B2U) (AG) (B2U)
                 (B3G) (B1U) (AG) (B3U) (B3G) (B1U) (B2G) (B3U)
                 (B2U) (AU) (B2G) (B1G) (B1U) (B1G) (B3G) (AG)
                 (B2U) (B3U) (B2G) (B1U) (AG) (B2U) (B3G) (B3U)
                 (B3G) (AG) (B1G) (B1U) (B2U) (B3U) (AG) (AU) (B1G)
                 (B1U) (AU) (AG) (B2G) (B2U) (B3U) (B2G) (B1G)
                 (AU) (AG) (AG) (B2U) (B1U) (B3U) (B3G) (B2U) (AG)
                 (B1U) (B3G) (B2U) (B3U) (B2G) (B1U) (B1G) (AG)
                 (B1U) (AG) (B3G) (B2G) (B1U) (B3U) (B2U) (B3G)
                 (B3U) (B1G) (AU) (B3G) (B1U) (B2U) (B2G) (AU)
                 (AG) (AG) (B2U) (B1U) (B1G) (B3U) (AG) (B2U) (B1U)
                 (AG) (B3G) (B2G) (AG) (B2U) (B3U) (B1G) (B1U)
                 (B3G) (AG) (B3G) (B2G) (B2U) (B1G) (AU) (AG) (B2G)
                 (B3G) (B1G) (AU) (B3U) (B1U) (B2G) (B3U) (B2U)
                 (B2U) (B3G) (AG) (B1G) (B3U) (AG) (B1U) (B3U)
                 (AU) (B2U) (AU) (B1G) (B1U) (B1U) (B2U) (AG) (B1U)
                 (B2G) (AG) (B3G) (AU) (B3U) (B3G) (B2G) (AG) (AG)
                 (B1U) (B2U) (B2U) (B1G) (B1U) (B3G) (B2U) (B3U)
                 (B1G) (AU) (AG) (B2G) (AG) (B1U) (B2G) (B3G) (B1U)
                 (B3U) (B3U) (B2G) (B1G) (B2U) (AG) (B3U) (B2U)
                 (B1G) (AU) (B2G) (B3G) (B1U) (AG) (B3U) (B1G)
                 (B3U) (B3G) (B2U) (AG) (B2G) (B2U) (B3G) (B3U)
                 (AG) (B1U) (AG) (B1U) (B2U) (B3U) (B2U) (B2G)
                 (B3G) (B3G) (B1G) (B3U) (AU) (B1U) (B2G) (AG)
                 (AG) (B1G) (B2U) (AU) (AU) (B3U) (B3U) (B1G) (B3G)
                 (B1U) (B2G) (B1U) (B2U) (AG) (B3G) (AG) (B3G)
                 (B1U) (B1U) (B3G) (B2U) (B1G) (AU) (AG) (B1U)
                 (B2U) (AG) (B1U) (AG) (B2G) (B2G) (AU) (B1G) (B2U)
                 (B3U) (AU) (B3G) (B1U) (AG) (B1G) (B3U) (AG) (B2U)
                 (B2G) (B3G) (B2U) (B1U) (B2U) (AG) (B3G) (B1G)
                 (B2G) (B1U) (B3U) (B2G) (AU) (B1G) (B3G) (AU)
                 (B3U) (AG) (B2U) (B3U) (B1G) (B3U) (B2G) (B2U)
                 (B1U) (B1U) (AU) (AG) (B2U) (B1G) (B3G) (B1U)
                 (AG) (AG) (B2U) (AG) (B3G) (B1U) (B2U) (B3G) (AU)
                 (B3U) (B2G) (B1G) (B1U) (AG) (B2U) (B3U) (AG)
                 (B1G) (AG) (AU) (B2G) (B1U) (B3G) (B2U) (B1U)
                 (B3G) (AG) (B2U) (B3U) (B2G) (B1G) (B3U) (AG)
                 (B3G) (B1U) (B2U) (B2U) (AG) (B3G) (B1U) (AG)
                 (B1U) (B2U) (AG)
 The electronic state is 1-AG.
 Alpha  occ. eigenvalues --  -68.81730 -68.81730 -68.78215 -68.78215  -6.16134
 Alpha  occ. eigenvalues --   -6.16133  -6.13018  -6.13005  -4.26263  -4.26263
 Alpha  occ. eigenvalues --   -4.26223  -4.26222  -4.26173  -4.26173  -4.23323
 Alpha  occ. eigenvalues --   -4.23316  -4.23311  -4.23273  -4.23232  -4.23228
 Alpha  occ. eigenvalues --   -0.80026  -0.63715  -0.53732  -0.43912  -0.33108
 Alpha  occ. eigenvalues --   -0.31780  -0.30883  -0.30394
 Alpha virt. eigenvalues --   -0.03237   0.01427   0.01429   0.03050   0.03377
 Alpha virt. eigenvalues --    0.03678   0.04046   0.04895   0.05479   0.06154
 Alpha virt. eigenvalues --    0.06226   0.06745   0.07132   0.07402   0.07830
 Alpha virt. eigenvalues --    0.09729   0.09994   0.10102   0.11584   0.11653
 Alpha virt. eigenvalues --    0.13868   0.15005   0.15228   0.16453   0.18321
 Alpha virt. eigenvalues --    0.20024   0.21163   0.23974   0.24017   0.24405
 Alpha virt. eigenvalues --    0.24514   0.25314   0.26729   0.27225   0.27540
 Alpha virt. eigenvalues --    0.28968   0.29152   0.30700   0.30968   0.31300
 Alpha virt. eigenvalues --    0.33854   0.34802   0.35935   0.35979   0.37629
 Alpha virt. eigenvalues --    0.40753   0.44867   0.45042   0.46154   0.46178
 Alpha virt. eigenvalues --    0.48028   0.48582   0.49280   0.50704   0.54909
 Alpha virt. eigenvalues --    0.56891   0.57744   0.58568   0.60138   0.60776
 Alpha virt. eigenvalues --    0.61284   0.61975   0.62043   0.63781   0.64090
 Alpha virt. eigenvalues --    0.66173   0.68661   0.69348   0.71574   0.73370
 Alpha virt. eigenvalues --    0.74138   0.76025   0.76179   0.77257   0.77428
 Alpha virt. eigenvalues --    0.79054   0.80739   0.82188   0.83604   0.83748
 Alpha virt. eigenvalues --    0.83786   0.85096   0.87031   0.87396   0.90297
 Alpha virt. eigenvalues --    0.90546   0.91252   0.91371   0.92137   0.92527
 Alpha virt. eigenvalues --    0.93674   0.94349   0.94969   0.95207   0.95925
 Alpha virt. eigenvalues --    0.96694   0.96895   0.98783   0.99095   0.99957
 Alpha virt. eigenvalues --    1.02126   1.04269   1.05167   1.05526   1.06484
 Alpha virt. eigenvalues --    1.06871   1.07578   1.09305   1.09950   1.13046
 Alpha virt. eigenvalues --    1.21734   1.23606   1.24289   1.24613   1.27079
 Alpha virt. eigenvalues --    1.27988   1.32150   1.36096   1.36334   1.37433
 Alpha virt. eigenvalues --    1.41949   1.44396   1.46589   1.47933   1.49387
 Alpha virt. eigenvalues --    1.50613   1.53899   1.54722   1.55367   1.55701
 Alpha virt. eigenvalues --    1.56670   1.58869   1.61149   1.62273   1.63594
 Alpha virt. eigenvalues --    1.64258   1.64745   1.68219   1.68323   1.68431
 Alpha virt. eigenvalues --    1.69139   1.70408   1.71558   1.71959   1.76500
 Alpha virt. eigenvalues --    1.78756   1.79287   1.79306   1.80296   1.80628
 Alpha virt. eigenvalues --    1.83258   1.84946   1.85815   1.86214   1.87065
 Alpha virt. eigenvalues --    1.87169   1.89007   1.89259   1.91172   1.91544
 Alpha virt. eigenvalues --    1.92339   1.93346   1.94448   1.96361   1.96833
 Alpha virt. eigenvalues --    1.98648   1.99233   1.99481   2.00362   2.00513
 Alpha virt. eigenvalues --    2.01277   2.03958   2.05062   2.06934   2.07336
 Alpha virt. eigenvalues --    2.07397   2.12209   2.12382   2.13604   2.14326
 Alpha virt. eigenvalues --    2.15031   2.22058   2.23409   2.24246   2.25923
 Alpha virt. eigenvalues --    2.28002   2.38280   2.40749   2.46592   2.49879
 Alpha virt. eigenvalues --    2.54045   2.56232   2.60382   2.60756   2.67804
 Alpha virt. eigenvalues --    2.73387   2.84247   2.87788   2.91893   2.92808
 Alpha virt. eigenvalues --    2.93405   2.93793   2.97764   3.00440   3.02111
 Alpha virt. eigenvalues --    3.08666   3.13495   3.13813   3.14132   3.14976
 Alpha virt. eigenvalues --    3.19618   3.20379   3.21476   3.26022   3.27094
 Alpha virt. eigenvalues --    3.29518   3.30284   3.32620   3.32782   3.33242
 Alpha virt. eigenvalues --    3.34271   3.34736   3.35075   3.35337   3.37632
 Alpha virt. eigenvalues --    3.40843   3.42922   3.43828   3.44032   3.47180
 Alpha virt. eigenvalues --    3.48239   3.48452   3.49004   3.49333   3.49653
 Alpha virt. eigenvalues --    3.52460   3.52789   3.53533   3.54083   3.55238
 Alpha virt. eigenvalues --    3.55518   3.55591   3.58801   3.59804   3.60098
 Alpha virt. eigenvalues --    3.61384   3.62482   3.64114   3.65286   3.67553
 Alpha virt. eigenvalues --    3.69977   3.71105   3.71778   3.73453   3.73829
 Alpha virt. eigenvalues --    3.75312   3.75341   3.75970   3.77038   3.77161
 Alpha virt. eigenvalues --    3.79307   3.81139   3.81660   3.88467   3.89447
 Alpha virt. eigenvalues --    3.89941   3.91510   3.93650   4.04254   4.04788
 Alpha virt. eigenvalues --    4.05303   4.06701   4.07872   4.08321   4.09116
 Alpha virt. eigenvalues --    4.10100   4.11444   4.12822   4.15139   4.17076
 Alpha virt. eigenvalues --    4.17529   4.17571   4.17804   4.18752   4.20414
 Alpha virt. eigenvalues --    4.21715   4.24584   4.27236   4.27507   4.28203
 Alpha virt. eigenvalues --    4.29265   4.33353   4.34059   4.35588   4.37624
 Alpha virt. eigenvalues --    4.40554   4.42576   4.42634   4.43332   4.46780
 Alpha virt. eigenvalues --    4.50742   4.51573   4.52526   4.53599   4.57352
 Alpha virt. eigenvalues --    4.57666   4.59773   4.63098   4.63155   4.65838
 Alpha virt. eigenvalues --    4.68681   4.68877   4.70346   4.76239   4.79636
 Alpha virt. eigenvalues --    4.82044   4.83193   4.88654   4.90269   4.92880
 Alpha virt. eigenvalues --    4.93688   4.99265   5.00605   5.06183   5.11266
 Alpha virt. eigenvalues --    5.22564   5.28089   5.36183   5.40976   5.41133
 Alpha virt. eigenvalues --    5.50170   5.56062   6.22886   6.26365   6.32475
 Alpha virt. eigenvalues --    6.55252   6.59704   6.60249   6.86005   6.87149
 Alpha virt. eigenvalues --    6.90491   6.91617   6.91658   7.00692   7.01613
 Alpha virt. eigenvalues --    7.07121   7.14822   7.16092   7.19149   7.34321
 Alpha virt. eigenvalues --    7.40930   7.54768  13.04623  13.27584  13.39951
 Alpha virt. eigenvalues --   13.40178  13.73543  13.76610  13.76897  14.18661
 Alpha virt. eigenvalues --   14.59286  14.69759  15.03230  15.12248  39.11425
 Alpha virt. eigenvalues --   39.44661  40.36521  40.66937
          Condensed to atoms (all electrons):
              1          2          3          4
     1  Si  13.104054   0.397789   0.201519   0.397789
     2  Si   0.397789  13.123715   0.397789  -0.020445
     3  Si   0.201519   0.397789  13.104054   0.397789
     4  Si   0.397789  -0.020445   0.397789  13.123715
 Mulliken atomic charges:
              1
     1  Si  -0.101151
     2  Si   0.101151
     3  Si  -0.101151
     4  Si   0.101151
 Sum of Mulliken atomic charges =   0.00000
 Mulliken charges with hydrogens summed into heavy atoms:
              1
     1  Si  -0.101151
     2  Si   0.101151
     3  Si  -0.101151
     4  Si   0.101151
 Sum of Mulliken charges with hydrogens summed into heavy atoms =   0.00000
 Electronic spatial extent (au):  <R**2>=            663.3978
 Charge=              0.0000 electrons
 Dipole moment (field-independent basis, Debye):
    X=              0.0000    Y=              0.0000    Z=              0.0000  Tot=              0.0000
 Quadrupole moment (field-independent basis, Debye-Ang):
   XX=            -51.1665   YY=            -57.0407   ZZ=            -57.6139
   XY=              0.0000   XZ=              0.0000   YZ=              0.0000
 Traceless Quadrupole moment (field-independent basis, Debye-Ang):
   XX=              4.1072   YY=             -1.7670   ZZ=             -2.3402
   XY=              0.0000   XZ=              0.0000   YZ=              0.0000
 Octapole moment (field-independent basis, Debye-Ang**2):
  XXX=              0.0000  YYY=              0.0000  ZZZ=              0.0000  XYY=              0.0000
  XXY=              0.0000  XXZ=              0.0000  XZZ=              0.0000  YZZ=              0.0000
  YYZ=              0.0000  XYZ=              0.0000
 Hexadecapole moment (field-independent basis, Debye-Ang**3):
 XXXX=           -100.1206 YYYY=           -375.2129 ZZZZ=           -847.5623 XXXY=              0.0000
 XXXZ=              0.0000 YYYX=              0.0000 YYYZ=              0.0000 ZZZX=              0.0000
 ZZZY=              0.0000 XXYY=            -73.8973 XXZZ=           -131.4869 YYZZ=           -187.9081
 XXYZ=              0.0000 YYXZ=              0.0000 ZZXY=              0.0000
 N-N= 2.474834681423D+02 E-N=-3.253073479509D+03  KE= 1.155610081957D+03
 Symmetry AG   KE= 4.783291613540D+02
 Symmetry B1G  KE= 2.435453656570D+01
 Symmetry B2G  KE= 2.434852420862D+01
 Symmetry B3G  KE= 5.096969471264D+01
 Symmetry AU   KE= 1.357368058187D-24
 Symmetry B1U  KE= 2.649978106299D+02
 Symmetry B2U  KE= 2.624741827311D+02
 Symmetry B3U  KE= 5.013617175553D+01
 1\1\GINC-NODE41\SP\RHF\GFHFB2\Si4\TAM\04-Jan-2012\0\\#N Geom=AllCheck 
 Guess=TCheck SCRF=Check HF/GFHFB2 SCF=Tight\\si4-n\\0,1\Si,0.,0.,-1.21
 05734471\Si,0.,1.9839863362,0.\Si,0.,0.,1.2105734471\Si,0.,-1.98398633
 62,0.\\Version=AM64L-G09RevA.02\State=1-AG\HF=-1155.6755286\RMSD=6.487
 e-09\Dipole=0.,0.,0.\Quadrupole=3.0535953,-1.7398761,-1.3137192,0.,0.,
 0.\PG=D02H [C2'(Si1.Si1),C2"(Si1.Si1)]\\@


 QED = W**5 (WHICH WAS WHAT WE WANTED)
 Diagonal vibrational polarizability:
        0.0000000       0.0000000       0.0000000

 Temperature=              298.150000 Pressure=                      1.000000
 E(ZPE)=                     0.004610 E(Thermal)=                    0.009874
 E(CCSD(T))=             -1155.940850 E(Empiric)=                   -0.055576
 DE(Plus)=                  -0.005848 DE(2DF)=                      -0.112763
 E(Delta-G3XP)=             -1.254243 DE(HF)=                       -0.027157
 G4(0 K)=                -1157.391828 G4 Energy=                 -1157.386564
 G4 Enthalpy=            -1157.385620 G4 Free Energy=            -1157.420578
 1\1\GINC-NODE41\Mixed\G4\G4\Si4\TAM\04-Jan-2012\0\\# G4 opt=(Cartesian
 ) scfcyc=500 scf=xqc\\si4-n\\0,1\Si,0.,0.,-1.2105734471\Si,0.,1.983986
 3362,0.\Si,0.,0.,1.2105734471\Si,0.,-1.9839863362,0.\\Version=AM64L-G0
 9RevA.02\State=1-AG\MP2/GTBas1=-1155.8917032\MP4/GTBas1=-1155.9445278\
 CCSD(T)/G3Bas1=-1155.9408502\MP2/GTBas2=-1155.8971461\MP4/GTBas2=-1155
 .9503762\MP2/GTBas3=-1155.9944049\MP4/GTBas3=-1156.0572913\HF/GTLargeX
 P=-1155.6491861\MP2/GTLargeXP=-1157.2540907\HF/GFHFB1=-1155.6721855\HF
 /GFHFB2=-1155.6755286\G4=-1157.3918281\FreqCoord=0.,0.,-2.2876522787,0
 .,3.7491908269,0.,0.,0.,2.2876522787,0.,-3.7491908269,0.\PG=D02H [C2'(
 Si1.Si1),C2"(Si1.Si1)]\NImag=0\\0.00177150,0.,0.13577148,0.,0.,0.11045
 743,-0.00179148,0.,0.,0.00175898,0.,-0.06491583,-0.02407624,0.,0.14668
 776,0.,-0.04315732,-0.01493178,0.,0.,0.04119818,0.00181146,0.,0.,-0.00
 179148,0.,0.,0.00177150,0.,-0.00593982,0.,0.,-0.06491583,0.04315732,0.
 ,0.13577148,0.,0.,-0.08059388,0.,0.02407624,-0.01493178,0.,0.,0.110457
 43,-0.00179148,0.,0.,0.00182397,0.,0.,-0.00179148,0.,0.,0.00175898,0.,
 -0.06491583,0.02407624,0.,-0.01685611,0.,0.,-0.06491583,-0.02407624,0.
 ,0.14668776,0.,0.04315732,-0.01493178,0.,0.,-0.01133462,0.,-0.04315732
 ,-0.01493178,0.,0.,0.04119818\\0.,0.,-0.00009244,0.,-0.00006864,0.,0.,
 0.,0.00009244,0.,0.00006864,0.\\\@
 Job cpu time:  0 days  0 hours 30 minutes 33.4 seconds.
 File lengths (MBytes):  RWF=    121 Int=      0 D2E=      0 Chk=     13 Scr=      1
 Normal termination of Gaussian 09 at Wed Jan  4 11:59:04 2012.
