 Entering Gaussian System, Link 0=g09
 Initial command:
 /usr/local/chem/g09A2/l1.exe /temp0/tam/Gau-21506.inp -scrdir=/temp0/tam/
 Entering Link 1 = /usr/local/chem/g09A2/l1.exe PID=     21507.
  
 Copyright (c) 1988,1990,1992,1993,1995,1998,2003,2009, Gaussian, Inc.
                  All Rights Reserved.
  
 This is part of the Gaussian(R) 09 program.  It is based on
 the Gaussian(R) 03 system (copyright 2003, Gaussian, Inc.),
 the Gaussian(R) 98 system (copyright 1998, Gaussian, Inc.),
 the Gaussian(R) 94 system (copyright 1995, Gaussian, Inc.),
 the Gaussian 92(TM) system (copyright 1992, Gaussian, Inc.),
 the Gaussian 90(TM) system (copyright 1990, Gaussian, Inc.),
 the Gaussian 88(TM) system (copyright 1988, Gaussian, Inc.),
 the Gaussian 86(TM) system (copyright 1986, Carnegie Mellon
 University), and the Gaussian 82(TM) system (copyright 1983,
 Carnegie Mellon University). Gaussian is a federally registered
 trademark of Gaussian, Inc.
  
 This software contains proprietary and confidential information,
 including trade secrets, belonging to Gaussian, Inc.
  
 This software is provided under written license and may be
 used, copied, transmitted, or stored only in accord with that
 written license.
  
 The following legend is applicable only to US Government
 contracts under FAR:
  
                    RESTRICTED RIGHTS LEGEND
  
 Use, reproduction and disclosure by the US Government is
 subject to restrictions as set forth in subparagraphs (a)
 and (c) of the Commercial Computer Software - Restricted
 Rights clause in FAR 52.227-19.
  
 Gaussian, Inc.
 340 Quinnipiac St., Bldg. 40, Wallingford CT 06492
  
  
 ---------------------------------------------------------------
 Warning -- This program may not be used in any manner that
 competes with the business of Gaussian, Inc. or will provide
 assistance to any competitor of Gaussian, Inc.  The licensee
 of this program is prohibited from giving any competitor of
 Gaussian, Inc. access to this program.  By using this program,
 the user acknowledges that Gaussian, Inc. is engaged in the
 business of creating and licensing software in the field of
 computational chemistry and represents and warrants to the
 licensee that it is not a competitor of Gaussian, Inc. and that
 it will not use this program in any manner prohibited above.
 ---------------------------------------------------------------
  

 Cite this work as:
 Gaussian 09, Revision A.02,
 M. J. Frisch, G. W. Trucks, H. B. Schlegel, G. E. Scuseria, 
 M. A. Robb, J. R. Cheeseman, G. Scalmani, V. Barone, B. Mennucci, 
 G. A. Petersson, H. Nakatsuji, M. Caricato, X. Li, H. P. Hratchian, 
 A. F. Izmaylov, J. Bloino, G. Zheng, J. L. Sonnenberg, M. Hada, 
 M. Ehara, K. Toyota, R. Fukuda, J. Hasegawa, M. Ishida, T. Nakajima, 
 Y. Honda, O. Kitao, H. Nakai, T. Vreven, J. A. Montgomery, Jr., 
 J. E. Peralta, F. Ogliaro, M. Bearpark, J. J. Heyd, E. Brothers, 
 K. N. Kudin, V. N. Staroverov, R. Kobayashi, J. Normand, 
 K. Raghavachari, A. Rendell, J. C. Burant, S. S. Iyengar, J. Tomasi, 
 M. Cossi, N. Rega, J. M. Millam, M. Klene, J. E. Knox, J. B. Cross, 
 V. Bakken, C. Adamo, J. Jaramillo, R. Gomperts, R. E. Stratmann, 
 O. Yazyev, A. J. Austin, R. Cammi, C. Pomelli, J. W. Ochterski, 
 R. L. Martin, K. Morokuma, V. G. Zakrzewski, G. A. Voth, 
 P. Salvador, J. J. Dannenberg, S. Dapprich, A. D. Daniels, 
 O. Farkas, J. B. Foresman, J. V. Ortiz, J. Cioslowski, 
 and D. J. Fox, Gaussian, Inc., Wallingford CT, 2009.
 
 ******************************************
 Gaussian 09:  AM64L-G09RevA.02 11-Jun-2009
                 7-Jan-2012 
 ******************************************
 %NprocShared=12
 Will use up to   12 processors via shared memory.
 %mem=70990MB
 %chk=S9L-ne-d-01
 -----------------------
 # G4 scfcyc=500 scf=xqc
 -----------------------
 1/14=-1,18=20,19=15,26=3,38=1/1,3;
 2/9=110,12=2,17=6,18=5,40=1/2;
 3/5=35,7=104,11=2,16=1,25=1,30=1,71=1,74=-5/1,2,3;
 4//1;
 5/5=2,7=500,8=3,13=1,38=5/2,8;
 6/7=2,8=2,9=2,10=2,28=1/1;
 7//1,2,3,16;
 1/14=-1,18=20,19=15/3(2);
 2/9=110/2;
 99//99;
 2/9=110/2;
 3/5=35,7=104,11=2,16=1,25=1,30=1,71=1,74=-5/1,2,3;
 4/5=5,16=3/1;
 5/5=2,7=500,8=3,13=1,38=5/2,8;
 7//1,2,3,16;
 1/14=-1,18=20,19=15/3(-5);
 2/9=110/2;
 6/7=2,8=2,9=2,10=2,19=2,28=1/1;
 99/9=1/99;
 ------
 si13-n
 ------
 Symbolic Z-matrix:
 Charge =  0 Multiplicity = 1
 Si                    0.        2.03875  -2.56204 
 Si                    0.       -1.31053  -0.26566 
 Si                    1.31592   0.       -2.54438 
 Si                   -1.31592   0.       -2.54438 
 Si                    0.        1.31053  -0.26566 
 Si                    2.1506    0.       -0.0281 
 Si                    0.       -2.03875  -2.56204 
 Si                   -1.44743   1.37659   1.86974 
 Si                    1.44743   1.37659   1.86974 
 Si                    0.        0.        3.32139 
 Si                   -2.1506    0.       -0.0281 
 Si                   -1.44743  -1.37659   1.86974 
 Si                    1.44743  -1.37659   1.86974 
 

 GradGradGradGradGradGradGradGradGradGradGradGradGradGradGradGradGradGrad
 Berny optimization.
 Initialization pass.
                           ----------------------------
                           !    Initial Parameters    !
                           ! (Angstroms and Degrees)  !
 --------------------------                            --------------------------
 ! Name  Definition              Value          Derivative Info.                !
 --------------------------------------------------------------------------------
 ! R1    R(1,3)                  2.4266         estimate D2E/DX2                !
 ! R2    R(1,4)                  2.4266         estimate D2E/DX2                !
 ! R3    R(1,5)                  2.4091         estimate D2E/DX2                !
 ! R4    R(2,3)                  2.9397         estimate D2E/DX2                !
 ! R5    R(2,4)                  2.9397         estimate D2E/DX2                !
 ! R6    R(2,5)                  2.6211         estimate D2E/DX2                !
 ! R7    R(2,6)                  2.5296         estimate D2E/DX2                !
 ! R8    R(2,7)                  2.4091         estimate D2E/DX2                !
 ! R9    R(2,11)                 2.5296         estimate D2E/DX2                !
 ! R10   R(2,12)                 2.5806         estimate D2E/DX2                !
 ! R11   R(2,13)                 2.5806         estimate D2E/DX2                !
 ! R12   R(3,4)                  2.6318         estimate D2E/DX2                !
 ! R13   R(3,5)                  2.9397         estimate D2E/DX2                !
 ! R14   R(3,6)                  2.6511         estimate D2E/DX2                !
 ! R15   R(3,7)                  2.4266         estimate D2E/DX2                !
 ! R16   R(4,5)                  2.9397         estimate D2E/DX2                !
 ! R17   R(4,7)                  2.4266         estimate D2E/DX2                !
 ! R18   R(4,11)                 2.6511         estimate D2E/DX2                !
 ! R19   R(5,6)                  2.5296         estimate D2E/DX2                !
 ! R20   R(5,8)                  2.5806         estimate D2E/DX2                !
 ! R21   R(5,9)                  2.5806         estimate D2E/DX2                !
 ! R22   R(5,11)                 2.5296         estimate D2E/DX2                !
 ! R23   R(6,9)                  2.4477         estimate D2E/DX2                !
 ! R24   R(6,13)                 2.4477         estimate D2E/DX2                !
 ! R25   R(8,9)                  2.8949         estimate D2E/DX2                !
 ! R26   R(8,10)                 2.4693         estimate D2E/DX2                !
 ! R27   R(8,11)                 2.4477         estimate D2E/DX2                !
 ! R28   R(8,12)                 2.7532         estimate D2E/DX2                !
 ! R29   R(9,10)                 2.4693         estimate D2E/DX2                !
 ! R30   R(9,13)                 2.7532         estimate D2E/DX2                !
 ! R31   R(10,12)                2.4693         estimate D2E/DX2                !
 ! R32   R(10,13)                2.4693         estimate D2E/DX2                !
 ! R33   R(11,12)                2.4477         estimate D2E/DX2                !
 ! R34   R(12,13)                2.8949         estimate D2E/DX2                !
 ! A1    A(3,2,11)             102.8504         estimate D2E/DX2                !
 ! A2    A(3,2,12)             154.6797         estimate D2E/DX2                !
 ! A3    A(3,2,13)             113.6888         estimate D2E/DX2                !
 ! A4    A(4,2,6)              102.8504         estimate D2E/DX2                !
 ! A5    A(4,2,12)             113.6888         estimate D2E/DX2                !
 ! A6    A(4,2,13)             154.6797         estimate D2E/DX2                !
 ! A7    A(5,2,7)              107.5946         estimate D2E/DX2                !
 ! A8    A(5,2,12)              91.467          estimate D2E/DX2                !
 ! A9    A(5,2,13)              91.467          estimate D2E/DX2                !
 ! A10   A(6,2,7)              104.2481         estimate D2E/DX2                !
 ! A11   A(6,2,11)             116.4594         estimate D2E/DX2                !
 ! A12   A(6,2,12)             114.3562         estimate D2E/DX2                !
 ! A13   A(7,2,11)             104.2481         estimate D2E/DX2                !
 ! A14   A(7,2,12)             141.3559         estimate D2E/DX2                !
 ! A15   A(7,2,13)             141.3559         estimate D2E/DX2                !
 ! A16   A(11,2,13)            114.3562         estimate D2E/DX2                !
 ! A17   A(1,3,2)               97.8998         estimate D2E/DX2                !
 ! A18   A(1,3,6)              100.2325         estimate D2E/DX2                !
 ! A19   A(1,3,7)              114.3144         estimate D2E/DX2                !
 ! A20   A(4,3,6)              108.3513         estimate D2E/DX2                !
 ! A21   A(5,3,7)               97.8998         estimate D2E/DX2                !
 ! A22   A(6,3,7)              100.2325         estimate D2E/DX2                !
 ! A23   A(1,4,2)               97.8998         estimate D2E/DX2                !
 ! A24   A(1,4,7)              114.3144         estimate D2E/DX2                !
 ! A25   A(1,4,11)             100.2325         estimate D2E/DX2                !
 ! A26   A(3,4,11)             108.3513         estimate D2E/DX2                !
 ! A27   A(5,4,7)               97.8998         estimate D2E/DX2                !
 ! A28   A(7,4,11)             100.2325         estimate D2E/DX2                !
 ! A29   A(1,5,2)              107.5946         estimate D2E/DX2                !
 ! A30   A(1,5,6)              104.2481         estimate D2E/DX2                !
 ! A31   A(1,5,8)              141.3559         estimate D2E/DX2                !
 ! A32   A(1,5,9)              141.3559         estimate D2E/DX2                !
 ! A33   A(1,5,11)             104.2481         estimate D2E/DX2                !
 ! A34   A(2,5,8)               91.467          estimate D2E/DX2                !
 ! A35   A(2,5,9)               91.467          estimate D2E/DX2                !
 ! A36   A(3,5,8)              154.6797         estimate D2E/DX2                !
 ! A37   A(3,5,9)              113.6888         estimate D2E/DX2                !
 ! A38   A(3,5,11)             102.8504         estimate D2E/DX2                !
 ! A39   A(4,5,6)              102.8504         estimate D2E/DX2                !
 ! A40   A(4,5,8)              113.6888         estimate D2E/DX2                !
 ! A41   A(4,5,9)              154.6797         estimate D2E/DX2                !
 ! A42   A(6,5,8)              114.3562         estimate D2E/DX2                !
 ! A43   A(6,5,11)             116.4594         estimate D2E/DX2                !
 ! A44   A(9,5,11)             114.3562         estimate D2E/DX2                !
 ! A45   A(2,6,9)               96.8891         estimate D2E/DX2                !
 ! A46   A(3,6,9)              130.2014         estimate D2E/DX2                !
 ! A47   A(3,6,13)             130.2014         estimate D2E/DX2                !
 ! A48   A(5,6,13)              96.8891         estimate D2E/DX2                !
 ! A49   A(5,8,10)              98.2453         estimate D2E/DX2                !
 ! A50   A(5,8,12)              88.533          estimate D2E/DX2                !
 ! A51   A(9,8,11)             106.695          estimate D2E/DX2                !
 ! A52   A(9,8,12)              90.0            estimate D2E/DX2                !
 ! A53   A(10,8,11)            108.1002         estimate D2E/DX2                !
 ! A54   A(5,9,10)              98.2453         estimate D2E/DX2                !
 ! A55   A(5,9,13)              88.533          estimate D2E/DX2                !
 ! A56   A(6,9,8)              106.695          estimate D2E/DX2                !
 ! A57   A(6,9,10)             108.1002         estimate D2E/DX2                !
 ! A58   A(8,9,13)              90.0            estimate D2E/DX2                !
 ! A59   A(8,10,13)            107.9861         estimate D2E/DX2                !
 ! A60   A(9,10,12)            107.9861         estimate D2E/DX2                !
 ! A61   A(2,11,8)              96.8891         estimate D2E/DX2                !
 ! A62   A(4,11,8)             130.2014         estimate D2E/DX2                !
 ! A63   A(4,11,12)            130.2014         estimate D2E/DX2                !
 ! A64   A(5,11,12)             96.8891         estimate D2E/DX2                !
 ! A65   A(2,12,8)              88.533          estimate D2E/DX2                !
 ! A66   A(2,12,10)             98.2453         estimate D2E/DX2                !
 ! A67   A(8,12,13)             90.0            estimate D2E/DX2                !
 ! A68   A(10,12,11)           108.1002         estimate D2E/DX2                !
 ! A69   A(11,12,13)           106.695          estimate D2E/DX2                !
 ! A70   A(2,13,9)              88.533          estimate D2E/DX2                !
 ! A71   A(2,13,10)             98.2453         estimate D2E/DX2                !
 ! A72   A(6,13,10)            108.1002         estimate D2E/DX2                !
 ! A73   A(6,13,12)            106.695          estimate D2E/DX2                !
 ! A74   A(9,13,12)             90.0            estimate D2E/DX2                !
 ! D1    D(11,2,3,1)            16.4479         estimate D2E/DX2                !
 ! D2    D(12,2,3,1)           -18.8613         estimate D2E/DX2                !
 ! D3    D(13,2,3,1)          -107.7469         estimate D2E/DX2                !
 ! D4    D(6,2,4,1)            -16.4479         estimate D2E/DX2                !
 ! D5    D(12,2,4,1)           107.7469         estimate D2E/DX2                !
 ! D6    D(13,2,4,1)            18.8613         estimate D2E/DX2                !
 ! D7    D(7,2,5,1)              0.0            estimate D2E/DX2                !
 ! D8    D(7,2,5,8)            145.8694         estimate D2E/DX2                !
 ! D9    D(7,2,5,9)           -145.8694         estimate D2E/DX2                !
 ! D10   D(12,2,5,1)          -145.8694         estimate D2E/DX2                !
 ! D11   D(12,2,5,8)             0.0            estimate D2E/DX2                !
 ! D12   D(12,2,5,9)            68.2612         estimate D2E/DX2                !
 ! D13   D(13,2,5,1)           145.8694         estimate D2E/DX2                !
 ! D14   D(13,2,5,8)           -68.2612         estimate D2E/DX2                !
 ! D15   D(13,2,5,9)             0.0            estimate D2E/DX2                !
 ! D16   D(4,2,6,9)            101.6242         estimate D2E/DX2                !
 ! D17   D(7,2,6,9)            156.0752         estimate D2E/DX2                !
 ! D18   D(11,2,6,9)            41.8688         estimate D2E/DX2                !
 ! D19   D(12,2,6,9)           -22.1292         estimate D2E/DX2                !
 ! D20   D(3,2,11,8)          -101.6242         estimate D2E/DX2                !
 ! D21   D(6,2,11,8)           -41.8688         estimate D2E/DX2                !
 ! D22   D(7,2,11,8)          -156.0752         estimate D2E/DX2                !
 ! D23   D(13,2,11,8)           22.1292         estimate D2E/DX2                !
 ! D24   D(3,2,12,8)            -8.6589         estimate D2E/DX2                !
 ! D25   D(3,2,12,10)          -64.1033         estimate D2E/DX2                !
 ! D26   D(4,2,12,8)           -61.5918         estimate D2E/DX2                !
 ! D27   D(4,2,12,10)         -117.0362         estimate D2E/DX2                !
 ! D28   D(5,2,12,8)             0.0            estimate D2E/DX2                !
 ! D29   D(5,2,12,10)          -55.4444         estimate D2E/DX2                !
 ! D30   D(6,2,12,8)            56.1322         estimate D2E/DX2                !
 ! D31   D(6,2,12,10)            0.6878         estimate D2E/DX2                !
 ! D32   D(7,2,12,8)          -121.0803         estimate D2E/DX2                !
 ! D33   D(7,2,12,10)         -176.5247         estimate D2E/DX2                !
 ! D34   D(3,2,13,9)            61.5918         estimate D2E/DX2                !
 ! D35   D(3,2,13,10)          117.0362         estimate D2E/DX2                !
 ! D36   D(4,2,13,9)             8.6589         estimate D2E/DX2                !
 ! D37   D(4,2,13,10)           64.1033         estimate D2E/DX2                !
 ! D38   D(5,2,13,9)             0.0            estimate D2E/DX2                !
 ! D39   D(5,2,13,10)           55.4444         estimate D2E/DX2                !
 ! D40   D(7,2,13,9)           121.0803         estimate D2E/DX2                !
 ! D41   D(7,2,13,10)          176.5247         estimate D2E/DX2                !
 ! D42   D(11,2,13,9)          -56.1322         estimate D2E/DX2                !
 ! D43   D(11,2,13,10)          -0.6878         estimate D2E/DX2                !
 ! D44   D(6,3,4,11)             0.0            estimate D2E/DX2                !
 ! D45   D(7,3,5,8)             18.8613         estimate D2E/DX2                !
 ! D46   D(7,3,5,9)            107.7469         estimate D2E/DX2                !
 ! D47   D(7,3,5,11)           -16.4479         estimate D2E/DX2                !
 ! D48   D(1,3,6,9)             11.2001         estimate D2E/DX2                !
 ! D49   D(1,3,6,13)           106.0416         estimate D2E/DX2                !
 ! D50   D(4,3,6,9)            -47.4207         estimate D2E/DX2                !
 ! D51   D(4,3,6,13)            47.4207         estimate D2E/DX2                !
 ! D52   D(7,3,6,9)           -106.0416         estimate D2E/DX2                !
 ! D53   D(7,3,6,13)           -11.2001         estimate D2E/DX2                !
 ! D54   D(7,4,5,6)             16.4479         estimate D2E/DX2                !
 ! D55   D(7,4,5,8)           -107.7469         estimate D2E/DX2                !
 ! D56   D(7,4,5,9)            -18.8613         estimate D2E/DX2                !
 ! D57   D(1,4,11,8)           -11.2001         estimate D2E/DX2                !
 ! D58   D(1,4,11,12)         -106.0416         estimate D2E/DX2                !
 ! D59   D(3,4,11,8)            47.4207         estimate D2E/DX2                !
 ! D60   D(3,4,11,12)          -47.4207         estimate D2E/DX2                !
 ! D61   D(7,4,11,8)           106.0416         estimate D2E/DX2                !
 ! D62   D(7,4,11,12)           11.2001         estimate D2E/DX2                !
 ! D63   D(1,5,6,13)          -156.0752         estimate D2E/DX2                !
 ! D64   D(4,5,6,13)          -101.6242         estimate D2E/DX2                !
 ! D65   D(8,5,6,13)            22.1292         estimate D2E/DX2                !
 ! D66   D(11,5,6,13)          -41.8688         estimate D2E/DX2                !
 ! D67   D(1,5,8,10)           176.5247         estimate D2E/DX2                !
 ! D68   D(1,5,8,12)           121.0803         estimate D2E/DX2                !
 ! D69   D(2,5,8,10)            55.4444         estimate D2E/DX2                !
 ! D70   D(2,5,8,12)             0.0            estimate D2E/DX2                !
 ! D71   D(3,5,8,10)            64.1033         estimate D2E/DX2                !
 ! D72   D(3,5,8,12)             8.6589         estimate D2E/DX2                !
 ! D73   D(4,5,8,10)           117.0362         estimate D2E/DX2                !
 ! D74   D(4,5,8,12)            61.5918         estimate D2E/DX2                !
 ! D75   D(6,5,8,10)            -0.6878         estimate D2E/DX2                !
 ! D76   D(6,5,8,12)           -56.1322         estimate D2E/DX2                !
 ! D77   D(1,5,9,10)          -176.5247         estimate D2E/DX2                !
 ! D78   D(1,5,9,13)          -121.0803         estimate D2E/DX2                !
 ! D79   D(2,5,9,10)           -55.4444         estimate D2E/DX2                !
 ! D80   D(2,5,9,13)             0.0            estimate D2E/DX2                !
 ! D81   D(3,5,9,10)          -117.0362         estimate D2E/DX2                !
 ! D82   D(3,5,9,13)           -61.5918         estimate D2E/DX2                !
 ! D83   D(4,5,9,10)           -64.1033         estimate D2E/DX2                !
 ! D84   D(4,5,9,13)            -8.6589         estimate D2E/DX2                !
 ! D85   D(11,5,9,10)            0.6878         estimate D2E/DX2                !
 ! D86   D(11,5,9,13)           56.1322         estimate D2E/DX2                !
 ! D87   D(1,5,11,12)          156.0752         estimate D2E/DX2                !
 ! D88   D(3,5,11,12)          101.6242         estimate D2E/DX2                !
 ! D89   D(6,5,11,12)           41.8688         estimate D2E/DX2                !
 ! D90   D(9,5,11,12)          -22.1292         estimate D2E/DX2                !
 ! D91   D(2,6,9,8)            -21.523          estimate D2E/DX2                !
 ! D92   D(2,6,9,10)            35.3975         estimate D2E/DX2                !
 ! D93   D(3,6,9,8)             46.8572         estimate D2E/DX2                !
 ! D94   D(3,6,9,10)           103.7777         estimate D2E/DX2                !
 ! D95   D(3,6,13,10)         -103.7777         estimate D2E/DX2                !
 ! D96   D(3,6,13,12)          -46.8572         estimate D2E/DX2                !
 ! D97   D(5,6,13,10)          -35.3975         estimate D2E/DX2                !
 ! D98   D(5,6,13,12)           21.523          estimate D2E/DX2                !
 ! D99   D(11,8,9,6)             0.0            estimate D2E/DX2                !
 ! D100  D(11,8,9,13)          -54.0447         estimate D2E/DX2                !
 ! D101  D(12,8,9,6)            54.0447         estimate D2E/DX2                !
 ! D102  D(12,8,9,13)            0.0            estimate D2E/DX2                !
 ! D103  D(5,8,10,13)          -21.8289         estimate D2E/DX2                !
 ! D104  D(11,8,10,13)          39.5706         estimate D2E/DX2                !
 ! D105  D(9,8,11,2)            21.523          estimate D2E/DX2                !
 ! D106  D(9,8,11,4)           -46.8572         estimate D2E/DX2                !
 ! D107  D(10,8,11,2)          -35.3975         estimate D2E/DX2                !
 ! D108  D(10,8,11,4)         -103.7777         estimate D2E/DX2                !
 ! D109  D(5,8,12,2)             0.0            estimate D2E/DX2                !
 ! D110  D(5,8,12,13)           55.8694         estimate D2E/DX2                !
 ! D111  D(9,8,12,2)           -55.8694         estimate D2E/DX2                !
 ! D112  D(9,8,12,13)            0.0            estimate D2E/DX2                !
 ! D113  D(5,9,10,12)           21.8289         estimate D2E/DX2                !
 ! D114  D(6,9,10,12)          -39.5706         estimate D2E/DX2                !
 ! D115  D(5,9,13,2)             0.0            estimate D2E/DX2                !
 ! D116  D(5,9,13,12)          -55.8694         estimate D2E/DX2                !
 ! D117  D(8,9,13,2)            55.8694         estimate D2E/DX2                !
 ! D118  D(8,9,13,12)            0.0            estimate D2E/DX2                !
 ! D119  D(9,10,12,2)           21.8289         estimate D2E/DX2                !
 ! D120  D(9,10,12,11)         -39.5706         estimate D2E/DX2                !
 ! D121  D(8,10,13,2)          -21.8289         estimate D2E/DX2                !
 ! D122  D(8,10,13,6)           39.5706         estimate D2E/DX2                !
 ! D123  D(4,11,12,10)         103.7777         estimate D2E/DX2                !
 ! D124  D(4,11,12,13)          46.8572         estimate D2E/DX2                !
 ! D125  D(5,11,12,10)          35.3975         estimate D2E/DX2                !
 ! D126  D(5,11,12,13)         -21.523          estimate D2E/DX2                !
 ! D127  D(8,12,13,6)          -54.0447         estimate D2E/DX2                !
 ! D128  D(8,12,13,9)            0.0            estimate D2E/DX2                !
 ! D129  D(11,12,13,6)           0.0            estimate D2E/DX2                !
 ! D130  D(11,12,13,9)          54.0447         estimate D2E/DX2                !
 --------------------------------------------------------------------------------
 Trust Radius=3.00D-01 FncErr=1.00D-07 GrdErr=1.00D-06
 Number of steps in this run= 100 maximum allowed number of steps= 100.
 GradGradGradGradGradGradGradGradGradGradGradGradGradGradGradGradGradGrad

                          Input orientation:                          
 ---------------------------------------------------------------------
 Center     Atomic      Atomic             Coordinates (Angstroms)
 Number     Number       Type             X           Y           Z
 ---------------------------------------------------------------------
      1         14           0        0.000000    2.038747   -2.562040
      2         14           0        0.000000   -1.310529   -0.265656
      3         14           0        1.315922    0.000000   -2.544377
      4         14           0       -1.315922    0.000000   -2.544377
      5         14           0        0.000000    1.310529   -0.265656
      6         14           0        2.150601    0.000000   -0.028096
      7         14           0        0.000000   -2.038747   -2.562040
      8         14           0       -1.447434    1.376594    1.869737
      9         14           0        1.447434    1.376594    1.869737
     10         14           0        0.000000    0.000000    3.321388
     11         14           0       -2.150601    0.000000   -0.028096
     12         14           0       -1.447434   -1.376594    1.869737
     13         14           0        1.447434   -1.376594    1.869737
 ---------------------------------------------------------------------
                    Distance matrix (angstroms):
                    1          2          3          4          5
     1  Si   0.000000
     2  Si   4.060915   0.000000
     3  Si   2.426613   2.939678   0.000000
     4  Si   2.426613   2.939678   2.631844   0.000000
     5  Si   2.409083   2.621058   2.939678   2.939678   0.000000
     6  Si   3.899031   2.529626   2.651105   4.283509   2.529626
     7  Si   4.077494   2.409083   2.426613   2.426613   4.060915
     8  Si   4.708945   3.724996   5.386608   4.625658   2.580568
     9  Si   4.708945   3.724996   4.625658   5.386608   2.580568
    10  Si   6.226654   3.818949   6.011560   6.011560   3.818949
    11  Si   3.899031   2.529626   4.283509   2.651105   2.529626
    12  Si   5.779296   2.580568   5.386608   4.625658   3.724996
    13  Si   5.779296   2.580568   4.625658   5.386608   3.724996
                    6          7          8          9         10
     6  Si   0.000000
     7  Si   3.899031   0.000000
     8  Si   4.294489   5.779296   0.000000
     9  Si   2.447698   5.779296   2.894868   0.000000
    10  Si   3.980468   6.226654   2.469285   2.469285   0.000000
    11  Si   4.301202   3.899031   2.447698   4.294489   3.980468
    12  Si   4.294489   4.708945   2.753188   3.995035   2.469285
    13  Si   2.447698   4.708945   3.995035   2.753188   2.469285
                   11         12         13
    11  Si   0.000000
    12  Si   2.447698   0.000000
    13  Si   4.294489   2.894868   0.000000
 Stoichiometry    Si13
 Framework group  C2V[C2(Si),SGV(Si4),SGV'(Si4),X(Si4)]
 Deg. of freedom    11
 Full point group                 C2V     NOp   4
 Largest Abelian subgroup         C2V     NOp   4
 Largest concise Abelian subgroup C2V     NOp   4
                         Standard orientation:                         
 ---------------------------------------------------------------------
 Center     Atomic      Atomic             Coordinates (Angstroms)
 Number     Number       Type             X           Y           Z
 ---------------------------------------------------------------------
      1         14           0        0.000000    2.038747   -2.562040
      2         14           0        0.000000   -1.310529   -0.265656
      3         14           0        1.315922    0.000000   -2.544377
      4         14           0       -1.315922    0.000000   -2.544377
      5         14           0        0.000000    1.310529   -0.265656
      6         14           0        2.150601    0.000000   -0.028096
      7         14           0        0.000000   -2.038747   -2.562040
      8         14           0       -1.447434    1.376594    1.869737
      9         14           0        1.447434    1.376594    1.869737
     10         14           0        0.000000    0.000000    3.321388
     11         14           0       -2.150601    0.000000   -0.028096
     12         14           0       -1.447434   -1.376594    1.869737
     13         14           0        1.447434   -1.376594    1.869737
 ---------------------------------------------------------------------
 Rotational constants (GHZ):      0.4468917      0.2560044      0.2497546
 Standard basis: GTBas3 (6D, 7F)
 There are   135 symmetry adapted basis functions of A1  symmetry.
 There are    75 symmetry adapted basis functions of A2  symmetry.
 There are   103 symmetry adapted basis functions of B1  symmetry.
 There are   103 symmetry adapted basis functions of B2  symmetry.
 Integral buffers will be    131072 words long.
 Raffenetti 2 integral format.
 Two-electron integral symmetry is turned on.
   416 basis functions,   884 primitive gaussians,   455 cartesian basis functions
    91 alpha electrons       91 beta electrons
       nuclear repulsion energy      2380.9397278033 Hartrees.
 NAtoms=   13 NActive=   13 NUniq=    6 SFac= 3.00D+00 NAtFMM=   80 NAOKFM=F Big=F
 One-electron integrals computed using PRISM.
 NBasis=   416 RedAO= T  NBF=   135    75   103   103
 NBsUse=   416 1.00D-06 NBFU=   135    75   103   103
 Harris functional with IExCor=  402 diagonalized for initial guess.
 ExpMin= 7.78D-02 ExpMax= 1.61D+04 ExpMxC= 2.43D+03 IAcc=2 IRadAn=         0 AccDes= 0.00D+00
 HarFok:  IExCor=  402 AccDes= 0.00D+00 IRadAn=         0 IDoV= 1
 ScaDFX=  1.000000  1.000000  1.000000  1.000000
 FoFCou: FMM=F IPFlag=           0 FMFlag=      100000 FMFlg1=           0
         NFxFlg=           0 DoJE=T BraDBF=F KetDBF=T FulRan=T
         Omega=  0.000000  0.000000  1.000000  0.000000  0.000000 ICntrl=     500 IOpCl=  0
         NMat0=    1 NMatS0=    1 NMatT0=    0 NMatD0=    1 NMtDS0=    0 NMtDT0=    0
         I1Cent=           4 NGrid=           0.
 Petite list used in FoFCou.
 Initial guess orbital symmetries:
       Occupied  (B2) (A1) (B1) (A1) (A1) (B1) (A1) (A2) (B2) (B1)
                 (A1) (B2) (A1) (B2) (A1) (B1) (A1) (A1) (B1) (A1)
                 (A2) (B2) (B1) (A1) (B2) (A1) (A1) (B2) (A2) (B1)
                 (A1) (B2) (B1) (A1) (A1) (B1) (B2) (A2) (A2) (B2)
                 (A1) (B1) (A1) (B1) (B2) (A1) (B1) (B2) (A2) (A1)
                 (B1) (A2) (A1) (B2) (B1) (A1) (B2) (A2) (B2) (B1)
                 (A1) (A1) (B2) (B1) (A2) (A1) (A1) (B1) (B2) (A1)
                 (B2) (B1) (A1) (A2) (A1) (B1) (B2) (A1) (A1) (A2)
                 (A1) (B1) (B2) (B1) (A1) (B2) (A2) (B2) (B1) (A1)
                 (A1)
       Virtual   (B2) (B1) (A1) (B1) (A2) (B2) (A1) (B1) (A1) (B2)
                 (A2) (A1) (A2) (B2) (B1) (A1) (A1) (B1) (B2) (A2)
                 (B1) (A1) (B2) (A2) (B1) (A1) (B2) (A1) (A1) (B1)
                 (B1) (A2) (B2) (B2) (A1) (A1) (B2) (B1) (A2) (B2)
                 (A1) (A1) (B1) (A2) (B1) (A1) (A1) (A2) (B2) (B1)
                 (A1) (B2) (A1) (A1) (B1) (B2) (A2) (B2) (A1) (B1)
                 (A2) (A1) (B1) (B2) (B2) (A1) (B1) (B2) (B1) (A2)
                 (A1) (A2) (B1) (B2) (A2) (A1) (B1) (B2) (A2) (B2)
                 (A1) (B1) (A1) (B1) (A1) (A2) (B2) (A1) (B2) (A2)
                 (B1) (A1) (B1) (B2) (A1) (B1) (A2) (A2) (B2) (A1)
                 (B2) (B1) (A1) (A2) (A1) (B1) (A1) (B1) (A2) (A1)
                 (B2) (A1) (B1) (B2) (A1) (B2) (A2) (B2) (B1) (A2)
                 (B1) (A2) (A1) (A1) (B1) (A2) (A1) (A1) (B2) (B1)
                 (B2) (B2) (A2) (B1) (A1) (B2) (B2) (A2) (A1) (B1)
                 (A1) (B1) (B2) (B1) (A1) (B2) (B1) (A1) (B2) (A1)
                 (A1) (B2) (B1) (A2) (A1) (B1) (B2) (A2) (A1) (B2)
                 (B1) (B1) (A1) (A2) (B2) (A1) (A2) (B1) (A1) (B2)
                 (A2) (A1) (B1) (B2) (A1) (B2) (A2) (B1) (B2) (A1)
                 (B2) (A2) (A1) (B1) (A1) (B1) (A2) (B2) (B1) (A1)
                 (A1) (A2) (B1) (A2) (A1) (B2) (A2) (A1) (B1) (A1)
                 (A1) (A2) (B2) (A2) (B2) (B1) (A1) (A2) (B2) (B1)
                 (A1) (B2) (B1) (A1) (A2) (A1) (B2) (B1) (B2) (B1)
                 (A2) (B1) (A1) (A2) (B2) (B1) (A2) (A1) (B1) (B2)
                 (A2) (A1) (B2) (B2) (A1) (B1) (A2) (B2) (B1) (B2)
                 (A1) (B1) (A2) (A1) (A1) (B2) (B1) (A1) (A1) (B1)
                 (A2) (B2) (B2) (A2) (A1) (B1) (A1) (A1) (B1) (A2)
                 (B2) (A2) (B2) (A1) (B1) (A1) (A1) (A2) (A1) (B1)
                 (B1) (B2) (B2) (B1) (B2) (A1) (B1) (B2) (B1) (A1)
                 (A1) (A2) (B2) (A2) (B1) (B2) (B1) (A1) (A2) (A1)
                 (B2) (B1) (B1) (A2) (B2) (A1) (A1) (A2) (A2) (B1)
                 (B2) (A2) (A1) (B1) (A1) (A1) (B2) (B2) (A2) (B1)
                 (B2) (A2) (A1) (A1) (B2) (A1) (B1) (B1) (B2) (A2)
                 (A1) (A1) (B1) (A1) (B2)
 The electronic state of the initial guess is 1-A1.
 Requested convergence on RMS density matrix=1.00D-08 within 128 cycles.
 Requested convergence on MAX density matrix=1.00D-06.
 Requested convergence on             energy=1.00D-06.
 No special actions if energy rises.
 Keep R1 ints in memory in canonical form, NReq=5429208757.
 Integral accuracy reduced to 1.0D-05 until final iterations.
 Initial convergence to 1.0D-05 achieved.  Increase integral accuracy.
 SCF Done:  E(RB3LYP) =  -3763.38606589     A.U. after   17 cycles
             Convg  =    0.8721D-08             -V/T =  2.0036
 QCSCF skips out because SCF is already converged.

 **********************************************************************

            Population analysis using the SCF density.

 **********************************************************************

 Orbital symmetries:
       Occupied  (B2) (A1) (A1) (B1) (A1) (B1) (A1) (A2) (B2) (B1)
                 (A1) (B2) (A1) (A1) (B2) (B1) (A1) (A1) (A1) (B1)
                 (A1) (B1) (B2) (A2) (B2) (A1) (A1) (B2) (B1) (A2)
                 (A1) (B2) (B2) (A2) (B2) (A1) (B1) (A1) (B1) (B1)
                 (B1) (A1) (A1) (B2) (A2) (A1) (B1) (A1) (B1) (A2)
                 (A1) (B2) (B1) (A1) (B1) (B2) (A2) (A2) (B2) (B1)
                 (A2) (B2) (A1) (A1) (B2) (A1) (A1) (B1) (B2) (A1)
                 (B2) (B1) (A1) (A2) (A1) (B1) (B2) (A1) (A1) (A1)
                 (A2) (B1) (B2) (B1) (A1) (B2) (A2) (B1) (B2) (A1)
                 (A1)
       Virtual   (B2) (B1) (A1) (B1) (A2) (A1) (B2) (B1) (B2) (A1)
                 (A2) (A2) (A1) (B2) (B1) (A1) (A1) (B1) (B2) (A2)
                 (B1) (B2) (A1) (A2) (B1) (B2) (A1) (A1) (A1) (B1)
                 (B1) (B2) (B2) (A2) (A1) (B2) (A1) (B1) (A1) (B2)
                 (A2) (A1) (B1) (B1) (A2) (A1) (A1) (B2) (B1) (A1)
                 (A2) (A1) (B2) (B1) (A2) (A1) (B2) (A2) (B2) (A1)
                 (B1) (B1) (A1) (B2) (B2) (B1) (A1) (B1) (A2) (A1)
                 (B2) (A2) (B1) (A2) (B2) (B1) (B2) (A1) (A2) (B2)
                 (B1) (A1) (B1) (A1) (A1) (B2) (A2) (A1) (B2) (A2)
                 (B1) (A1) (B1) (B2) (A1) (A2) (A2) (B1) (B2) (A1)
                 (B1) (A1) (B2) (A2) (B1) (A1) (A1) (B1) (A1) (A2)
                 (B2) (A1) (B2) (B1) (A1) (A2) (B2) (B1) (A2) (B2)
                 (B1) (A2) (A1) (A1) (B1) (A1) (B2) (A2) (A1) (B1)
                 (B2) (B2) (A2) (B1) (A1) (A2) (B2) (B2) (B1) (A1)
                 (B1) (A1) (B2) (B1) (A1) (B2) (B1) (A1) (A1) (B2)
                 (A1) (B2) (B1) (A2) (A1) (B2) (B1) (A2) (A1) (B2)
                 (B1) (B1) (A1) (A1) (B2) (A2) (B1) (A2) (A1) (B2)
                 (B1) (A2) (A1) (B2) (A1) (B2) (A2) (A1) (B1) (B2)
                 (A2) (B1) (B2) (A1) (A1) (B1) (A2) (B2) (B1) (A1)
                 (A2) (A1) (B1) (A2) (B2) (A1) (A2) (A1) (B1) (A1)
                 (A2) (A1) (B2) (B1) (A2) (B2) (A2) (A1) (B1) (B2)
                 (A1) (B1) (B2) (A1) (A2) (A1) (B1) (B2) (A2) (B1)
                 (B2) (B1) (A1) (A2) (B1) (A2) (B2) (B1) (A1) (B2)
                 (B2) (A1) (A2) (B2) (A1) (B1) (B2) (B1) (A2) (B2)
                 (A1) (B1) (A2) (A1) (A1) (B1) (B2) (A1) (A1) (A2)
                 (B1) (B2) (A2) (B2) (A1) (B1) (A1) (A2) (B1) (A1)
                 (B2) (A2) (B2) (A1) (B1) (A1) (A1) (A2) (B1) (A1)
                 (B1) (B2) (B2) (B1) (B2) (B1) (A1) (B2) (B1) (A1)
                 (A2) (B2) (A1) (A2) (B1) (B2) (B1) (A1) (A2) (B1)
                 (B2) (A1) (B1) (A2) (B2) (A1) (A2) (A1) (B2) (A2)
                 (B1) (A2) (A1) (B1) (A1) (A1) (B2) (B2) (A2) (B1)
                 (B2) (A2) (A1) (A1) (B2) (A1) (B1) (B1) (B2) (A2)
                 (A1) (A1) (B1) (A1) (B2)
 The electronic state is 1-A1.
 Alpha  occ. eigenvalues --  -66.16987 -66.16986 -66.16163 -66.16104 -66.16103
 Alpha  occ. eigenvalues --  -66.15975 -66.15975 -66.15933 -66.15932 -66.15932
 Alpha  occ. eigenvalues --  -66.15930 -66.14607 -66.14606  -5.31311  -5.31309
 Alpha  occ. eigenvalues --   -5.30573  -5.30572  -5.30532  -5.30380  -5.30378
 Alpha  occ. eigenvalues --   -5.30316  -5.30316  -5.30316  -5.30315  -5.29062
 Alpha  occ. eigenvalues --   -5.29061  -3.67237  -3.67228  -3.67217  -3.67217
 Alpha  occ. eigenvalues --   -3.67025  -3.67022  -3.66472  -3.66470  -3.66466
 Alpha  occ. eigenvalues --   -3.66409  -3.66406  -3.66394  -3.66393  -3.66318
 Alpha  occ. eigenvalues --   -3.66273  -3.66272  -3.66230  -3.66204  -3.66204
 Alpha  occ. eigenvalues --   -3.66204  -3.66203  -3.66192  -3.66184  -3.66071
 Alpha  occ. eigenvalues --   -3.66069  -3.66069  -3.66068  -3.66062  -3.66061
 Alpha  occ. eigenvalues --   -3.66060  -3.66060  -3.65971  -3.65970  -3.64980
 Alpha  occ. eigenvalues --   -3.64974  -3.64862  -3.64862  -3.64735  -3.64733
 Alpha  occ. eigenvalues --   -0.68109  -0.61767  -0.58288  -0.55288  -0.53757
 Alpha  occ. eigenvalues --   -0.49791  -0.47486  -0.43326  -0.42271  -0.40122
 Alpha  occ. eigenvalues --   -0.38898  -0.38065  -0.36084  -0.31245  -0.29424
 Alpha  occ. eigenvalues --   -0.29195  -0.27236  -0.27184  -0.26011  -0.25198
 Alpha  occ. eigenvalues --   -0.24356  -0.23229  -0.23077  -0.23068  -0.22395
 Alpha  occ. eigenvalues --   -0.20705
 Alpha virt. eigenvalues --   -0.14135  -0.11257  -0.10580  -0.09668  -0.07124
 Alpha virt. eigenvalues --   -0.06308  -0.06255  -0.05493  -0.05106  -0.04910
 Alpha virt. eigenvalues --   -0.04422  -0.02643  -0.01983  -0.01606  -0.01338
 Alpha virt. eigenvalues --   -0.00612   0.00386   0.00461   0.01708   0.03564
 Alpha virt. eigenvalues --    0.04993   0.05209   0.05463   0.05910   0.09025
 Alpha virt. eigenvalues --    0.09515   0.10445   0.11156   0.11547   0.12476
 Alpha virt. eigenvalues --    0.13384   0.13631   0.14524   0.14583   0.15128
 Alpha virt. eigenvalues --    0.15914   0.16083   0.16669   0.16930   0.17240
 Alpha virt. eigenvalues --    0.17353   0.17686   0.18398   0.18817   0.18841
 Alpha virt. eigenvalues --    0.19916   0.21533   0.22106   0.23021   0.23063
 Alpha virt. eigenvalues --    0.23104   0.23655   0.23815   0.24306   0.25056
 Alpha virt. eigenvalues --    0.25157   0.25225   0.26240   0.26946   0.26967
 Alpha virt. eigenvalues --    0.27535   0.28173   0.28287   0.28349   0.29995
 Alpha virt. eigenvalues --    0.30970   0.31225   0.31794   0.31964   0.32638
 Alpha virt. eigenvalues --    0.32639   0.33717   0.34295   0.34532   0.34736
 Alpha virt. eigenvalues --    0.35354   0.35725   0.36006   0.36297   0.37289
 Alpha virt. eigenvalues --    0.38270   0.39625   0.39886   0.40351   0.42056
 Alpha virt. eigenvalues --    0.42297   0.42915   0.44254   0.44280   0.44786
 Alpha virt. eigenvalues --    0.45982   0.46406   0.46630   0.48042   0.48490
 Alpha virt. eigenvalues --    0.49443   0.49923   0.49925   0.50663   0.51551
 Alpha virt. eigenvalues --    0.51610   0.52111   0.52113   0.52989   0.53189
 Alpha virt. eigenvalues --    0.53565   0.56471   0.57453   0.58816   0.58994
 Alpha virt. eigenvalues --    0.59687   0.60613   0.61065   0.61356   0.61805
 Alpha virt. eigenvalues --    0.62903   0.63270   0.64419   0.64558   0.64678
 Alpha virt. eigenvalues --    0.65677   0.66002   0.66152   0.66983   0.68147
 Alpha virt. eigenvalues --    0.68588   0.69476   0.69494   0.69733   0.70078
 Alpha virt. eigenvalues --    0.70364   0.71187   0.71419   0.72938   0.73142
 Alpha virt. eigenvalues --    0.73376   0.74341   0.75262   0.76105   0.76473
 Alpha virt. eigenvalues --    0.76753   0.77160   0.79693   0.82385   0.84654
 Alpha virt. eigenvalues --    0.85975   0.86752   0.88255   0.89191   0.89425
 Alpha virt. eigenvalues --    0.90214   0.91124   0.91564   0.92396   0.95283
 Alpha virt. eigenvalues --    0.95304   0.95412   0.96140   0.97265   0.97290
 Alpha virt. eigenvalues --    0.99056   0.99770   1.00430   1.01435   1.01512
 Alpha virt. eigenvalues --    1.01692   1.03173   1.03386   1.03431   1.03747
 Alpha virt. eigenvalues --    1.05387   1.05527   1.06000   1.06892   1.08412
 Alpha virt. eigenvalues --    1.08826   1.09191   1.12224   1.12307   1.12407
 Alpha virt. eigenvalues --    1.14320   1.14420   1.14494   1.14622   1.16055
 Alpha virt. eigenvalues --    1.17643   1.18506   1.19221   1.20328   1.21828
 Alpha virt. eigenvalues --    1.22760   1.22775   1.23727   1.24210   1.24373
 Alpha virt. eigenvalues --    1.24761   1.26317   1.26445   1.26614   1.27431
 Alpha virt. eigenvalues --    1.30773   1.31069   1.31195   1.32658   1.32692
 Alpha virt. eigenvalues --    1.33059   1.33892   1.34331   1.35365   1.35574
 Alpha virt. eigenvalues --    1.36767   1.38252   1.38280   1.39733   1.41021
 Alpha virt. eigenvalues --    1.41125   1.41612   1.41889   1.43873   1.44100
 Alpha virt. eigenvalues --    1.44327   1.44600   1.45452   1.47383   1.47782
 Alpha virt. eigenvalues --    1.48035   1.48112   1.48122   1.48392   1.49306
 Alpha virt. eigenvalues --    1.51710   1.51912   1.52123   1.54163   1.54354
 Alpha virt. eigenvalues --    1.56339   1.58514   1.58590   1.59059   1.59753
 Alpha virt. eigenvalues --    1.59779   1.60828   1.61689   1.64444   1.70204
 Alpha virt. eigenvalues --    1.73017   1.73085   1.76203   1.77061   1.77423
 Alpha virt. eigenvalues --    1.78366   1.78847   1.79915   1.80027   1.80454
 Alpha virt. eigenvalues --    1.81587   1.82207   1.82709   1.82772   1.83211
 Alpha virt. eigenvalues --    1.83481   1.85166   1.87157   1.88017   1.88349
 Alpha virt. eigenvalues --    1.89239   1.89898   1.91538   1.92474   1.93009
 Alpha virt. eigenvalues --    1.93255   1.93565   1.93858   1.94930   1.96338
 Alpha virt. eigenvalues --    1.97089   1.97276   1.97807   1.98964   1.99635
 Alpha virt. eigenvalues --    1.99714   2.00446   2.01062   2.01563   2.04140
 Alpha virt. eigenvalues --    2.05125   2.05787   2.06243   2.08353   2.09743
 Alpha virt. eigenvalues --    2.09940   2.10006   2.10749   2.12253   2.12791
 Alpha virt. eigenvalues --    2.15824   2.17961   2.17961   2.20595   2.20819
 Alpha virt. eigenvalues --    2.21001   2.21834   2.23457   2.23992   2.27926
 Alpha virt. eigenvalues --    2.28832   2.29682   2.32796   2.40053   2.40421
 Alpha virt. eigenvalues --    2.46427   2.46852   2.57520   2.67855   2.91143
 Alpha virt. eigenvalues --    2.94462   2.95797   3.00018   3.04221   3.05137
 Alpha virt. eigenvalues --    3.11149   3.22319   3.25780   3.52023   3.61448
          Condensed to atoms (all electrons):
              1          2          3          4          5          6
     1  Si  13.666952  -0.010905   0.159696   0.159696   0.179550  -0.008446
     2  Si  -0.010905  13.438882   0.004904   0.004904   0.005557   0.031254
     3  Si   0.159696   0.004904  13.605763   0.000953   0.004904   0.039804
     4  Si   0.159696   0.004904   0.000953  13.605763   0.004904   0.014626
     5  Si   0.179550   0.005557   0.004904   0.004904  13.438882   0.031254
     6  Si  -0.008446   0.031254   0.039804   0.014626   0.031254  13.733579
     7  Si  -0.018231   0.179550   0.159696   0.159696  -0.010905  -0.008446
     8  Si  -0.011532   0.010254   0.000611  -0.000832   0.064836  -0.004870
     9  Si  -0.011532   0.010254  -0.000832   0.000611   0.064836   0.077906
    10  Si   0.001446  -0.004091   0.000402   0.000402  -0.004091   0.009066
    11  Si  -0.008446   0.031254   0.014626   0.039804   0.031254  -0.004356
    12  Si   0.002251   0.064836   0.000611  -0.000832   0.010254  -0.004870
    13  Si   0.002251   0.064836  -0.000832   0.000611   0.010254   0.077906
              7          8          9         10         11         12
     1  Si  -0.018231  -0.011532  -0.011532   0.001446  -0.008446   0.002251
     2  Si   0.179550   0.010254   0.010254  -0.004091   0.031254   0.064836
     3  Si   0.159696   0.000611  -0.000832   0.000402   0.014626   0.000611
     4  Si   0.159696  -0.000832   0.000611   0.000402   0.039804  -0.000832
     5  Si  -0.010905   0.064836   0.064836  -0.004091   0.031254   0.010254
     6  Si  -0.008446  -0.004870   0.077906   0.009066  -0.004356  -0.004870
     7  Si  13.666952   0.002251   0.002251   0.001446  -0.008446  -0.011532
     8  Si   0.002251  13.779670   0.015559   0.087704   0.077906   0.010198
     9  Si   0.002251   0.015559  13.779670   0.087704  -0.004870   0.014213
    10  Si   0.001446   0.087704   0.087704  13.633752   0.009066   0.087704
    11  Si  -0.008446   0.077906  -0.004870   0.009066  13.733579   0.077906
    12  Si  -0.011532   0.010198   0.014213   0.087704   0.077906  13.779670
    13  Si  -0.011532   0.014213   0.010198   0.087704  -0.004870   0.015559
             13
     1  Si   0.002251
     2  Si   0.064836
     3  Si  -0.000832
     4  Si   0.000611
     5  Si   0.010254
     6  Si   0.077906
     7  Si  -0.011532
     8  Si   0.014213
     9  Si   0.010198
    10  Si   0.087704
    11  Si  -0.004870
    12  Si   0.015559
    13  Si  13.779670
 Mulliken atomic charges:
              1
     1  Si  -0.102752
     2  Si   0.168513
     3  Si   0.009692
     4  Si   0.009692
     5  Si   0.168513
     6  Si   0.015593
     7  Si  -0.102752
     8  Si  -0.045969
     9  Si  -0.045969
    10  Si   0.001785
    11  Si   0.015593
    12  Si  -0.045969
    13  Si  -0.045969
 Sum of Mulliken atomic charges =   0.00000
 Mulliken charges with hydrogens summed into heavy atoms:
              1
     1  Si  -0.102752
     2  Si   0.168513
     3  Si   0.009692
     4  Si   0.009692
     5  Si   0.168513
     6  Si   0.015593
     7  Si  -0.102752
     8  Si  -0.045969
     9  Si  -0.045969
    10  Si   0.001785
    11  Si   0.015593
    12  Si  -0.045969
    13  Si  -0.045969
 Sum of Mulliken charges with hydrogens summed into heavy atoms =   0.00000
 Electronic spatial extent (au):  <R**2>=           4966.6016
 Charge=              0.0000 electrons
 Dipole moment (field-independent basis, Debye):
    X=              0.0000    Y=              0.0000    Z=             -0.2040  Tot=              0.2040
 Quadrupole moment (field-independent basis, Debye-Ang):
   XX=           -169.2325   YY=           -173.8663   ZZ=           -173.7860
   XY=              0.0000   XZ=              0.0000   YZ=              0.0000
 Traceless Quadrupole moment (field-independent basis, Debye-Ang):
   XX=              3.0624   YY=             -1.5713   ZZ=             -1.4911
   XY=              0.0000   XZ=              0.0000   YZ=              0.0000
 Octapole moment (field-independent basis, Debye-Ang**2):
  XXX=              0.0000  YYY=              0.0000  ZZZ=            -15.9583  XYY=              0.0000
  XXY=              0.0000  XXZ=             -3.9325  XZZ=              0.0000  YZZ=              0.0000
  YYZ=              8.6827  XYZ=              0.0000
 Hexadecapole moment (field-independent basis, Debye-Ang**3):
 XXXX=          -1957.9921 YYYY=          -1893.6304 ZZZZ=          -4373.9342 XXXY=              0.0000
 XXXZ=              0.0000 YYYX=              0.0000 YYYZ=              0.0000 ZZZX=              0.0000
 ZZZY=              0.0000 XXYY=           -648.3613 XXZZ=          -1065.7945 YYZZ=          -1098.0606
 XXYZ=              0.0000 YYXZ=              0.0000 ZZXY=              0.0000
 N-N= 2.380939727803D+03 E-N=-1.371973860010D+04  KE= 3.749990717194D+03
 Symmetry A1   KE= 1.582300618083D+03
 Symmetry A2   KE= 3.881422780248D+02
 Symmetry B1   KE= 8.897771454515D+02
 Symmetry B2   KE= 8.897706756339D+02
 Calling FoFJK, ICntrl=      2127 FMM=F ISym2X=1 I1Cent= 0 IOpClX= 0 NMat=1 NMatS=1 NMatT=0.
 ***** Axes restored to original set *****
 -------------------------------------------------------------------
 Center     Atomic                   Forces (Hartrees/Bohr)
 Number     Number              X              Y              Z
 -------------------------------------------------------------------
      1       14           0.000000000   -0.001390237    0.000272905
      2       14           0.000000000    0.000310088    0.000318117
      3       14          -0.002369600    0.000000000    0.001191145
      4       14           0.002369600    0.000000000    0.001191145
      5       14           0.000000000   -0.000310088    0.000318117
      6       14          -0.001167101    0.000000000   -0.000285682
      7       14           0.000000000    0.001390237    0.000272905
      8       14           0.001623997   -0.002817744   -0.000259162
      9       14          -0.001623997   -0.002817744   -0.000259162
     10       14           0.000000000    0.000000000   -0.001956319
     11       14           0.001167101    0.000000000   -0.000285682
     12       14           0.001623997    0.002817744   -0.000259162
     13       14          -0.001623997    0.002817744   -0.000259162
 -------------------------------------------------------------------
 Cartesian Forces:  Max     0.002817744 RMS     0.001318200

 GradGradGradGradGradGradGradGradGradGradGradGradGradGradGradGradGradGrad
 Berny optimization.
 Internal  Forces:  Max     0.001428758 RMS     0.000280169
 Search for a local minimum.
 Step number   1 out of a maximum of  100
 All quantities printed in internal units (Hartrees-Bohrs-Radians)
 Mixed Optimization -- En-DIIS/RFO-DIIS
 Second derivative matrix not updated -- first step.
     Eigenvalues ---    0.02185   0.02971   0.03005   0.03189   0.03986
     Eigenvalues ---    0.03995   0.04261   0.05165   0.05228   0.05929
     Eigenvalues ---    0.06188   0.06857   0.07147   0.07342   0.07725
     Eigenvalues ---    0.07789   0.07805   0.07854   0.08092   0.08433
     Eigenvalues ---    0.08654   0.09336   0.09475   0.09583   0.09701
     Eigenvalues ---    0.10684   0.10847   0.11224   0.12130   0.12300
     Eigenvalues ---    0.12875   0.13104   0.139591000.000001000.00000
     Eigenvalues --- 1000.000001000.000001000.000001000.000001000.00000
     Eigenvalues --- 1000.000001000.000001000.000001000.000001000.00000
     Eigenvalues --- 1000.000001000.000001000.000001000.000001000.00000
     Eigenvalues --- 1000.000001000.000001000.000001000.000001000.00000
     Eigenvalues --- 1000.000001000.000001000.000001000.000001000.00000
     Eigenvalues --- 1000.000001000.000001000.000001000.000001000.00000
     Eigenvalues --- 1000.000001000.000001000.000001000.000001000.00000
     Eigenvalues --- 1000.000001000.000001000.000001000.000001000.00000
     Eigenvalues --- 1000.000001000.000001000.000001000.000001000.00000
     Eigenvalues --- 1000.000001000.000001000.000001000.000001000.00000
     Eigenvalues --- 1000.000001000.000001000.000001000.000001000.00000
     Eigenvalues --- 1000.000001000.000001000.000001000.000001000.00000
     Eigenvalues --- 1000.000001000.000001000.000001000.000001000.00000
     Eigenvalues --- 1000.000001000.000001000.000001000.000001000.00000
     Eigenvalues --- 1000.000001000.000001000.000001000.000001000.00000
     Eigenvalues --- 1000.000001000.000001000.000001000.000001000.00000
     Eigenvalues --- 1000.000001000.000001000.000001000.000001000.00000
     Eigenvalues --- 1000.000001000.000001000.000001000.000001000.00000
     Eigenvalues --- 1000.000001000.000001000.000001000.000001000.00000
     Eigenvalues --- 1000.000001000.000001000.000001000.000001000.00000
     Eigenvalues --- 1000.000001000.000001000.000001000.000001000.00000
     Eigenvalues --- 1000.000001000.000001000.000001000.000001000.00000
     Eigenvalues --- 1000.000001000.000001000.000001000.000001000.00000
     Eigenvalues --- 1000.000001000.000001000.000001000.000001000.00000
     Eigenvalues --- 1000.000001000.000001000.000001000.000001000.00000
     Eigenvalues --- 1000.000001000.000001000.000001000.000001000.00000
     Eigenvalues --- 1000.000001000.000001000.000001000.000001000.00000
     Eigenvalues --- 1000.000001000.000001000.000001000.000001000.00000
     Eigenvalues --- 1000.000001000.000001000.000001000.000001000.00000
     Eigenvalues --- 1000.000001000.000001000.000001000.000001000.00000
     Eigenvalues --- 1000.000001000.000001000.000001000.000001000.00000
     Eigenvalues --- 1000.000001000.000001000.000001000.000001000.00000
     Eigenvalues --- 1000.000001000.000001000.000001000.000001000.00000
     Eigenvalues --- 1000.000001000.000001000.000001000.000001000.00000
     Eigenvalues --- 1000.000001000.000001000.000001000.000001000.00000
     Eigenvalues --- 1000.000001000.000001000.000001000.000001000.00000
     Eigenvalues --- 1000.000001000.000001000.000001000.000001000.00000
     Eigenvalues --- 1000.000001000.000001000.000001000.000001000.00000
     Eigenvalues --- 1000.000001000.000001000.000001000.000001000.00000
     Eigenvalues --- 1000.000001000.000001000.000001000.000001000.00000
     Eigenvalues --- 1000.000001000.000001000.00000
 RFO step:  Lambda=-2.51495179D-04 EMin= 2.18509957D-02
 Linear search not attempted -- first point.
 Iteration  1 RMS(Cart)=  0.00207812 RMS(Int)=  0.00000289
 Iteration  2 RMS(Cart)=  0.00000145 RMS(Int)=  0.00000156
 Iteration  3 RMS(Cart)=  0.00000000 RMS(Int)=  0.00000156
 ClnCor:  largest displacement from symmetrization is 4.12D-09 for atom    12.
 Variable       Old X    -DE/DX   Delta X   Delta X   Delta X     New X
                                 (Linear)    (Quad)   (Total)
    R1        4.58563  -0.00069   0.00000  -0.00710  -0.00710   4.57853
    R2        4.58563  -0.00069   0.00000  -0.00710  -0.00710   4.57853
    R3        4.55251  -0.00032   0.00000  -0.00375  -0.00375   4.54876
    R4        5.55519  -0.00050   0.00000  -0.00781  -0.00781   5.54738
    R5        5.55519  -0.00050   0.00000  -0.00781  -0.00781   5.54738
    R6        4.95308  -0.00037   0.00000  -0.00642  -0.00643   4.94665
    R7        4.78030  -0.00055   0.00000  -0.00704  -0.00705   4.77325
    R8        4.55251  -0.00032   0.00000  -0.00375  -0.00375   4.54876
    R9        4.78030  -0.00055   0.00000  -0.00704  -0.00705   4.77325
   R10        4.87657  -0.00057   0.00000  -0.00706  -0.00706   4.86951
   R11        4.87657  -0.00057   0.00000  -0.00706  -0.00706   4.86951
   R12        4.97346  -0.00092   0.00000  -0.01383  -0.01382   4.95964
   R13        5.55519  -0.00050   0.00000  -0.00781  -0.00781   5.54738
   R14        5.00986  -0.00046   0.00000  -0.00866  -0.00866   5.00120
   R15        4.58563  -0.00069   0.00000  -0.00710  -0.00710   4.57853
   R16        5.55519  -0.00050   0.00000  -0.00781  -0.00781   5.54738
   R17        4.58563  -0.00069   0.00000  -0.00710  -0.00710   4.57853
   R18        5.00986  -0.00046   0.00000  -0.00866  -0.00866   5.00120
   R19        4.78030  -0.00055   0.00000  -0.00704  -0.00705   4.77325
   R20        4.87657  -0.00057   0.00000  -0.00706  -0.00706   4.86951
   R21        4.87657  -0.00057   0.00000  -0.00706  -0.00706   4.86951
   R22        4.78030  -0.00055   0.00000  -0.00704  -0.00705   4.77325
   R23        4.62548  -0.00055   0.00000  -0.00546  -0.00546   4.62002
   R24        4.62548  -0.00055   0.00000  -0.00546  -0.00546   4.62002
   R25        5.47051  -0.00090   0.00000  -0.01095  -0.01095   5.45956
   R26        4.66627  -0.00089   0.00000  -0.01184  -0.01184   4.65443
   R27        4.62548  -0.00055   0.00000  -0.00546  -0.00546   4.62002
   R28        5.20277  -0.00143   0.00000  -0.02105  -0.02104   5.18173
   R29        4.66627  -0.00089   0.00000  -0.01184  -0.01184   4.65443
   R30        5.20277  -0.00143   0.00000  -0.02105  -0.02104   5.18173
   R31        4.66627  -0.00089   0.00000  -0.01184  -0.01184   4.65443
   R32        4.66627  -0.00089   0.00000  -0.01184  -0.01184   4.65443
   R33        4.62548  -0.00055   0.00000  -0.00546  -0.00546   4.62002
   R34        5.47051  -0.00090   0.00000  -0.01095  -0.01095   5.45956
    A1        1.79508  -0.00008   0.00000  -0.00132  -0.00132   1.79376
    A2        2.69967  -0.00012   0.00000  -0.00156  -0.00156   2.69811
    A3        1.98424   0.00002   0.00000   0.00033   0.00033   1.98457
    A4        1.79508  -0.00008   0.00000  -0.00132  -0.00132   1.79376
    A5        1.98424   0.00002   0.00000   0.00033   0.00033   1.98457
    A6        2.69967  -0.00012   0.00000  -0.00156  -0.00156   2.69811
    A7        1.87788  -0.00006   0.00000   0.00008   0.00008   1.87796
    A8        1.59640  -0.00011   0.00000  -0.00146  -0.00146   1.59494
    A9        1.59640  -0.00011   0.00000  -0.00146  -0.00146   1.59494
   A10        1.81947  -0.00005   0.00000  -0.00088  -0.00088   1.81859
   A11        2.03260  -0.00004   0.00000   0.00019   0.00019   2.03279
   A12        1.99589  -0.00007   0.00000  -0.00024  -0.00024   1.99566
   A13        1.81947  -0.00005   0.00000  -0.00088  -0.00088   1.81859
   A14        2.46713   0.00011   0.00000   0.00106   0.00106   2.46819
   A15        2.46713   0.00011   0.00000   0.00106   0.00106   2.46819
   A16        1.99589  -0.00007   0.00000  -0.00024  -0.00024   1.99566
   A17        1.70867   0.00005   0.00000   0.00098   0.00098   1.70965
   A18        1.74939   0.00001   0.00000   0.00034   0.00034   1.74973
   A19        1.99516   0.00004   0.00000   0.00159   0.00159   1.99675
   A20        1.89109   0.00002   0.00000   0.00082   0.00082   1.89191
   A21        1.70867   0.00005   0.00000   0.00098   0.00098   1.70965
   A22        1.74939   0.00001   0.00000   0.00034   0.00034   1.74973
   A23        1.70867   0.00005   0.00000   0.00098   0.00098   1.70965
   A24        1.99516   0.00004   0.00000   0.00159   0.00159   1.99675
   A25        1.74939   0.00001   0.00000   0.00034   0.00034   1.74973
   A26        1.89109   0.00002   0.00000   0.00082   0.00082   1.89191
   A27        1.70867   0.00005   0.00000   0.00098   0.00098   1.70965
   A28        1.74939   0.00001   0.00000   0.00034   0.00034   1.74973
   A29        1.87788  -0.00006   0.00000   0.00008   0.00008   1.87796
   A30        1.81947  -0.00005   0.00000  -0.00088  -0.00088   1.81859
   A31        2.46713   0.00011   0.00000   0.00106   0.00106   2.46819
   A32        2.46713   0.00011   0.00000   0.00106   0.00106   2.46819
   A33        1.81947  -0.00005   0.00000  -0.00088  -0.00088   1.81859
   A34        1.59640  -0.00011   0.00000  -0.00146  -0.00146   1.59494
   A35        1.59640  -0.00011   0.00000  -0.00146  -0.00146   1.59494
   A36        2.69967  -0.00012   0.00000  -0.00156  -0.00156   2.69811
   A37        1.98424   0.00002   0.00000   0.00033   0.00033   1.98457
   A38        1.79508  -0.00008   0.00000  -0.00132  -0.00132   1.79376
   A39        1.79508  -0.00008   0.00000  -0.00132  -0.00132   1.79376
   A40        1.98424   0.00002   0.00000   0.00033   0.00033   1.98457
   A41        2.69967  -0.00012   0.00000  -0.00156  -0.00156   2.69811
   A42        1.99589  -0.00007   0.00000  -0.00024  -0.00024   1.99566
   A43        2.03260  -0.00004   0.00000   0.00019   0.00019   2.03279
   A44        1.99589  -0.00007   0.00000  -0.00024  -0.00024   1.99566
   A45        1.69103  -0.00007   0.00000  -0.00170  -0.00170   1.68933
   A46        2.27244   0.00005   0.00000   0.00065   0.00065   2.27309
   A47        2.27244   0.00005   0.00000   0.00065   0.00065   2.27309
   A48        1.69103  -0.00007   0.00000  -0.00170  -0.00170   1.68933
   A49        1.71470   0.00010   0.00000   0.00141   0.00141   1.71611
   A50        1.54519   0.00011   0.00000   0.00146   0.00146   1.54666
   A51        1.86218   0.00002   0.00000   0.00029   0.00029   1.86247
   A52        1.57080   0.00000   0.00000   0.00000   0.00000   1.57080
   A53        1.88670   0.00015   0.00000   0.00276   0.00277   1.88947
   A54        1.71470   0.00010   0.00000   0.00141   0.00141   1.71611
   A55        1.54519   0.00011   0.00000   0.00146   0.00146   1.54666
   A56        1.86218   0.00002   0.00000   0.00029   0.00029   1.86247
   A57        1.88670   0.00015   0.00000   0.00276   0.00277   1.88947
   A58        1.57080   0.00000   0.00000   0.00000   0.00000   1.57080
   A59        1.88471  -0.00007   0.00000  -0.00120  -0.00120   1.88352
   A60        1.88471  -0.00007   0.00000  -0.00120  -0.00120   1.88352
   A61        1.69103  -0.00007   0.00000  -0.00170  -0.00170   1.68933
   A62        2.27244   0.00005   0.00000   0.00065   0.00065   2.27309
   A63        2.27244   0.00005   0.00000   0.00065   0.00065   2.27309
   A64        1.69103  -0.00007   0.00000  -0.00170  -0.00170   1.68933
   A65        1.54519   0.00011   0.00000   0.00146   0.00146   1.54666
   A66        1.71470   0.00010   0.00000   0.00141   0.00141   1.71611
   A67        1.57080   0.00000   0.00000   0.00000   0.00000   1.57080
   A68        1.88670   0.00015   0.00000   0.00276   0.00277   1.88947
   A69        1.86218   0.00002   0.00000   0.00029   0.00029   1.86247
   A70        1.54519   0.00011   0.00000   0.00146   0.00146   1.54666
   A71        1.71470   0.00010   0.00000   0.00141   0.00141   1.71611
   A72        1.88670   0.00015   0.00000   0.00276   0.00277   1.88947
   A73        1.86218   0.00002   0.00000   0.00029   0.00029   1.86247
   A74        1.57080   0.00000   0.00000   0.00000   0.00000   1.57080
    D1        0.28707   0.00002   0.00000   0.00132   0.00132   0.28839
    D2       -0.32919   0.00000   0.00000   0.00062   0.00062  -0.32857
    D3       -1.88054   0.00014   0.00000   0.00232   0.00232  -1.87822
    D4       -0.28707  -0.00002   0.00000  -0.00132  -0.00132  -0.28839
    D5        1.88054  -0.00014   0.00000  -0.00232  -0.00232   1.87822
    D6        0.32919   0.00000   0.00000  -0.00062  -0.00062   0.32857
    D7        0.00000   0.00000   0.00000   0.00000   0.00000   0.00000
    D8        2.54590   0.00003   0.00000   0.00040   0.00040   2.54630
    D9       -2.54590  -0.00003   0.00000  -0.00040  -0.00040  -2.54630
   D10       -2.54590  -0.00003   0.00000  -0.00040  -0.00040  -2.54630
   D11        0.00000   0.00000   0.00000   0.00000   0.00000   0.00000
   D12        1.19138  -0.00007   0.00000  -0.00080  -0.00080   1.19058
   D13        2.54590   0.00003   0.00000   0.00040   0.00040   2.54630
   D14       -1.19138   0.00007   0.00000   0.00080   0.00080  -1.19058
   D15        0.00000   0.00000   0.00000   0.00000   0.00000   0.00000
   D16        1.77368   0.00012   0.00000   0.00238   0.00237   1.77605
   D17        2.72403   0.00004   0.00000   0.00177   0.00177   2.72580
   D18        0.73075   0.00015   0.00000   0.00334   0.00334   0.73409
   D19       -0.38623   0.00018   0.00000   0.00302   0.00302  -0.38321
   D20       -1.77368  -0.00012   0.00000  -0.00238  -0.00237  -1.77605
   D21       -0.73075  -0.00015   0.00000  -0.00334  -0.00334  -0.73409
   D22       -2.72403  -0.00004   0.00000  -0.00177  -0.00177  -2.72580
   D23        0.38623  -0.00018   0.00000  -0.00302  -0.00302   0.38321
   D24       -0.15113   0.00000   0.00000  -0.00029  -0.00029  -0.15142
   D25       -1.11881  -0.00006   0.00000  -0.00142  -0.00143  -1.12024
   D26       -1.07498   0.00007   0.00000   0.00084   0.00084  -1.07414
   D27       -2.04267   0.00000   0.00000  -0.00029  -0.00029  -2.04296
   D28        0.00000   0.00000   0.00000   0.00000   0.00000   0.00000
   D29       -0.96769  -0.00006   0.00000  -0.00113  -0.00113  -0.96882
   D30        0.97969  -0.00007   0.00000  -0.00083  -0.00083   0.97886
   D31        0.01200  -0.00013   0.00000  -0.00196  -0.00196   0.01004
   D32       -2.11325   0.00017   0.00000   0.00118   0.00119  -2.11206
   D33       -3.08094   0.00011   0.00000   0.00005   0.00005  -3.08089
   D34        1.07498  -0.00007   0.00000  -0.00084  -0.00084   1.07414
   D35        2.04267   0.00000   0.00000   0.00029   0.00029   2.04296
   D36        0.15113   0.00000   0.00000   0.00029   0.00029   0.15142
   D37        1.11881   0.00006   0.00000   0.00142   0.00143   1.12024
   D38        0.00000   0.00000   0.00000   0.00000   0.00000   0.00000
   D39        0.96769   0.00006   0.00000   0.00113   0.00113   0.96882
   D40        2.11325  -0.00017   0.00000  -0.00118  -0.00119   2.11206
   D41        3.08094  -0.00011   0.00000  -0.00005  -0.00005   3.08089
   D42       -0.97969   0.00007   0.00000   0.00083   0.00083  -0.97886
   D43       -0.01200   0.00013   0.00000   0.00196   0.00196  -0.01004
   D44        0.00000   0.00000   0.00000   0.00000   0.00000   0.00000
   D45        0.32919   0.00000   0.00000  -0.00062  -0.00062   0.32857
   D46        1.88054  -0.00014   0.00000  -0.00232  -0.00232   1.87822
   D47       -0.28707  -0.00002   0.00000  -0.00132  -0.00132  -0.28839
   D48        0.19548   0.00015   0.00000   0.00346   0.00346   0.19894
   D49        1.85077  -0.00010   0.00000  -0.00158  -0.00158   1.84920
   D50       -0.82765   0.00012   0.00000   0.00252   0.00252  -0.82513
   D51        0.82765  -0.00012   0.00000  -0.00252  -0.00252   0.82513
   D52       -1.85077   0.00010   0.00000   0.00158   0.00158  -1.84920
   D53       -0.19548  -0.00015   0.00000  -0.00346  -0.00346  -0.19894
   D54        0.28707   0.00002   0.00000   0.00132   0.00132   0.28839
   D55       -1.88054   0.00014   0.00000   0.00232   0.00232  -1.87822
   D56       -0.32919   0.00000   0.00000   0.00062   0.00062  -0.32857
   D57       -0.19548  -0.00015   0.00000  -0.00346  -0.00346  -0.19894
   D58       -1.85077   0.00010   0.00000   0.00158   0.00158  -1.84920
   D59        0.82765  -0.00012   0.00000  -0.00252  -0.00252   0.82513
   D60       -0.82765   0.00012   0.00000   0.00252   0.00252  -0.82513
   D61        1.85077  -0.00010   0.00000  -0.00158  -0.00158   1.84920
   D62        0.19548   0.00015   0.00000   0.00346   0.00346   0.19894
   D63       -2.72403  -0.00004   0.00000  -0.00177  -0.00177  -2.72580
   D64       -1.77368  -0.00012   0.00000  -0.00238  -0.00237  -1.77605
   D65        0.38623  -0.00018   0.00000  -0.00302  -0.00302   0.38321
   D66       -0.73075  -0.00015   0.00000  -0.00334  -0.00334  -0.73409
   D67        3.08094  -0.00011   0.00000  -0.00005  -0.00005   3.08089
   D68        2.11325  -0.00017   0.00000  -0.00118  -0.00119   2.11206
   D69        0.96769   0.00006   0.00000   0.00113   0.00113   0.96882
   D70        0.00000   0.00000   0.00000   0.00000   0.00000   0.00000
   D71        1.11881   0.00006   0.00000   0.00142   0.00143   1.12024
   D72        0.15113   0.00000   0.00000   0.00029   0.00029   0.15142
   D73        2.04267   0.00000   0.00000   0.00029   0.00029   2.04296
   D74        1.07498  -0.00007   0.00000  -0.00084  -0.00084   1.07414
   D75       -0.01200   0.00013   0.00000   0.00196   0.00196  -0.01004
   D76       -0.97969   0.00007   0.00000   0.00083   0.00083  -0.97886
   D77       -3.08094   0.00011   0.00000   0.00005   0.00005  -3.08089
   D78       -2.11325   0.00017   0.00000   0.00118   0.00119  -2.11206
   D79       -0.96769  -0.00006   0.00000  -0.00113  -0.00113  -0.96882
   D80        0.00000   0.00000   0.00000   0.00000   0.00000   0.00000
   D81       -2.04267   0.00000   0.00000  -0.00029  -0.00029  -2.04296
   D82       -1.07498   0.00007   0.00000   0.00084   0.00084  -1.07414
   D83       -1.11881  -0.00006   0.00000  -0.00142  -0.00143  -1.12024
   D84       -0.15113   0.00000   0.00000  -0.00029  -0.00029  -0.15142
   D85        0.01200  -0.00013   0.00000  -0.00196  -0.00196   0.01004
   D86        0.97969  -0.00007   0.00000  -0.00083  -0.00083   0.97886
   D87        2.72403   0.00004   0.00000   0.00177   0.00177   2.72580
   D88        1.77368   0.00012   0.00000   0.00238   0.00237   1.77605
   D89        0.73075   0.00015   0.00000   0.00334   0.00334   0.73409
   D90       -0.38623   0.00018   0.00000   0.00302   0.00302  -0.38321
   D91       -0.37565  -0.00008   0.00000  -0.00144  -0.00144  -0.37709
   D92        0.61780  -0.00007   0.00000  -0.00140  -0.00140   0.61640
   D93        0.81781  -0.00012   0.00000  -0.00267  -0.00267   0.81515
   D94        1.81126  -0.00012   0.00000  -0.00262  -0.00262   1.80864
   D95       -1.81126   0.00012   0.00000   0.00262   0.00262  -1.80864
   D96       -0.81781   0.00012   0.00000   0.00267   0.00267  -0.81515
   D97       -0.61780   0.00007   0.00000   0.00140   0.00140  -0.61640
   D98        0.37565   0.00008   0.00000   0.00144   0.00144   0.37709
   D99        0.00000   0.00000   0.00000   0.00000   0.00000   0.00000
   D100      -0.94326  -0.00011   0.00000  -0.00201  -0.00202  -0.94527
   D101       0.94326   0.00011   0.00000   0.00201   0.00202   0.94527
   D102       0.00000   0.00000   0.00000   0.00000   0.00000   0.00000
   D103      -0.38099  -0.00004   0.00000  -0.00053  -0.00053  -0.38152
   D104       0.69064  -0.00001   0.00000  -0.00033  -0.00033   0.69030
   D105       0.37565   0.00008   0.00000   0.00144   0.00144   0.37709
   D106      -0.81781   0.00012   0.00000   0.00267   0.00267  -0.81515
   D107      -0.61780   0.00007   0.00000   0.00140   0.00140  -0.61640
   D108      -1.81126   0.00012   0.00000   0.00262   0.00262  -1.80864
   D109       0.00000   0.00000   0.00000   0.00000   0.00000   0.00000
   D110       0.97510   0.00003   0.00000   0.00040   0.00040   0.97551
   D111      -0.97510  -0.00003   0.00000  -0.00040  -0.00040  -0.97551
   D112       0.00000   0.00000   0.00000   0.00000   0.00000   0.00000
   D113       0.38099   0.00004   0.00000   0.00053   0.00053   0.38152
   D114      -0.69064   0.00001   0.00000   0.00033   0.00033  -0.69030
   D115       0.00000   0.00000   0.00000   0.00000   0.00000   0.00000
   D116      -0.97510  -0.00003   0.00000  -0.00040  -0.00040  -0.97551
   D117       0.97510   0.00003   0.00000   0.00040   0.00040   0.97551
   D118       0.00000   0.00000   0.00000   0.00000   0.00000   0.00000
   D119       0.38099   0.00004   0.00000   0.00053   0.00053   0.38152
   D120      -0.69064   0.00001   0.00000   0.00033   0.00033  -0.69030
   D121      -0.38099  -0.00004   0.00000  -0.00053  -0.00053  -0.38152
   D122       0.69064  -0.00001   0.00000  -0.00033  -0.00033   0.69030
   D123       1.81126  -0.00012   0.00000  -0.00262  -0.00262   1.80864
   D124       0.81781  -0.00012   0.00000  -0.00267  -0.00267   0.81515
   D125       0.61780  -0.00007   0.00000  -0.00140  -0.00140   0.61640
   D126      -0.37565  -0.00008   0.00000  -0.00144  -0.00144  -0.37709
   D127      -0.94326  -0.00011   0.00000  -0.00201  -0.00202  -0.94527
   D128       0.00000   0.00000   0.00000   0.00000   0.00000   0.00000
   D129       0.00000   0.00000   0.00000   0.00000   0.00000   0.00000
   D130       0.94326   0.00011   0.00000   0.00201   0.00202   0.94527
         Item               Value     Threshold  Converged?
 Maximum Force            0.001429     0.000450     NO 
 RMS     Force            0.000280     0.000300     YES
 Maximum Displacement     0.010522     0.001800     NO 
 RMS     Displacement     0.002078     0.001200     NO 
 Predicted change in Energy=-1.261975D-04
 GradGradGradGradGradGradGradGradGradGradGradGradGradGradGradGradGradGrad

                          Input orientation:                          
 ---------------------------------------------------------------------
 Center     Atomic      Atomic             Coordinates (Angstroms)
 Number     Number       Type             X           Y           Z
 ---------------------------------------------------------------------
      1         14           0        0.000000    2.036632   -2.559178
      2         14           0        0.000000   -1.308828   -0.264744
      3         14           0        1.312264    0.000000   -2.541224
      4         14           0       -1.312264    0.000000   -2.541224
      5         14           0        0.000000    1.308828   -0.264744
      6         14           0        2.147559    0.000000   -0.029976
      7         14           0        0.000000   -2.036632   -2.559178
      8         14           0       -1.444537    1.371026    1.868216
      9         14           0        1.444537    1.371026    1.868216
     10         14           0        0.000000    0.000000    3.317377
     11         14           0       -2.147559    0.000000   -0.029976
     12         14           0       -1.444537   -1.371026    1.868216
     13         14           0        1.444537   -1.371026    1.868216
 ---------------------------------------------------------------------
                    Distance matrix (angstroms):
                    1          2          3          4          5
     1  Si   0.000000
     2  Si   4.056666   0.000000
     3  Si   2.422856   2.935546   0.000000
     4  Si   2.422856   2.935546   2.624529   0.000000
     5  Si   2.407100   2.617656   2.935546   2.935546   0.000000
     6  Si   3.893167   2.525898   2.646523   4.275131   2.525898
     7  Si   4.073265   2.407100   2.422856   2.422856   4.056666
     8  Si   4.704417   3.717234   5.377995   4.619564   2.576834
     9  Si   4.704417   3.717234   4.619564   5.377995   2.576834
    10  Si   6.219467   3.813741   6.003769   6.003769   3.813741
    11  Si   3.893167   2.525898   4.275131   2.646523   2.525898
    12  Si   5.770671   2.576834   5.377995   4.619564   3.717234
    13  Si   5.770671   2.576834   4.619564   5.377995   3.717234
                    6          7          8          9         10
     6  Si   0.000000
     7  Si   3.893167   0.000000
     8  Si   4.287890   5.770671   0.000000
     9  Si   2.444808   5.770671   2.889074   0.000000
    10  Si   3.977032   6.219467   2.463020   2.463020   0.000000
    11  Si   4.295119   3.893167   2.444808   4.287890   3.977032
    12  Si   4.287890   4.704417   2.742052   3.983164   2.463020
    13  Si   2.444808   4.704417   3.983164   2.742052   2.463020
                   11         12         13
    11  Si   0.000000
    12  Si   2.444808   0.000000
    13  Si   4.287890   2.889074   0.000000
 Stoichiometry    Si13
 Framework group  C2V[C2(Si),SGV(Si4),SGV'(Si4),X(Si4)]
 Deg. of freedom    11
 Full point group                 C2V     NOp   4
 Largest Abelian subgroup         C2V     NOp   4
 Largest concise Abelian subgroup C2V     NOp   4
                         Standard orientation:                         
 ---------------------------------------------------------------------
 Center     Atomic      Atomic             Coordinates (Angstroms)
 Number     Number       Type             X           Y           Z
 ---------------------------------------------------------------------
      1         14           0        0.000000    2.036632   -2.559178
      2         14           0        0.000000   -1.308828   -0.264744
      3         14           0        1.312264    0.000000   -2.541224
      4         14           0       -1.312264    0.000000   -2.541224
      5         14           0        0.000000    1.308828   -0.264744
      6         14           0        2.147559    0.000000   -0.029976
      7         14           0        0.000000   -2.036632   -2.559178
      8         14           0       -1.444537    1.371026    1.868217
      9         14           0        1.444537    1.371026    1.868217
     10         14           0        0.000000    0.000000    3.317377
     11         14           0       -2.147559    0.000000   -0.029976
     12         14           0       -1.444537   -1.371026    1.868217
     13         14           0        1.444537   -1.371026    1.868217
 ---------------------------------------------------------------------
 Rotational constants (GHZ):      0.4487370      0.2567278      0.2504137
 Standard basis: GTBas3 (6D, 7F)
 There are   135 symmetry adapted basis functions of A1  symmetry.
 There are    75 symmetry adapted basis functions of A2  symmetry.
 There are   103 symmetry adapted basis functions of B1  symmetry.
 There are   103 symmetry adapted basis functions of B2  symmetry.
 Integral buffers will be    131072 words long.
 Raffenetti 2 integral format.
 Two-electron integral symmetry is turned on.
   416 basis functions,   884 primitive gaussians,   455 cartesian basis functions
    91 alpha electrons       91 beta electrons
       nuclear repulsion energy      2384.8650907154 Hartrees.
 NAtoms=   13 NActive=   13 NUniq=    6 SFac= 3.00D+00 NAtFMM=   80 NAOKFM=F Big=F
 One-electron integrals computed using PRISM.
 NBasis=   416 RedAO= T  NBF=   135    75   103   103
 NBsUse=   416 1.00D-06 NBFU=   135    75   103   103
 Initial guess read from the read-write file.
 B after Tr=     0.000000    0.000000    0.000000
         Rot=    1.000000    0.000000    0.000000    0.000000 Ang=   0.00 deg.
 Initial guess orbital symmetries:
       Occupied  (B2) (A1) (A1) (B1) (A1) (B1) (A1) (A2) (B2) (B1)
                 (A1) (B2) (A1) (A1) (B2) (B1) (A1) (A1) (A1) (B1)
                 (A1) (B1) (B2) (A2) (B2) (A1) (A1) (B2) (B1) (A2)
                 (A1) (B2) (B2) (A2) (B2) (A1) (B1) (A1) (B1) (B1)
                 (B1) (A1) (A1) (B2) (A2) (A1) (B1) (A1) (B1) (A2)
                 (A1) (B2) (B1) (A1) (B1) (B2) (A2) (A2) (B2) (B1)
                 (A2) (B2) (A1) (A1) (B2) (A1) (A1) (B1) (B2) (A1)
                 (B2) (B1) (A1) (A2) (A1) (B1) (B2) (A1) (A1) (A1)
                 (A2) (B1) (B2) (B1) (A1) (B2) (A2) (B1) (B2) (A1)
                 (A1)
       Virtual   (B2) (B1) (A1) (B1) (A2) (A1) (B2) (B1) (B2) (A1)
                 (A2) (A2) (A1) (B2) (B1) (A1) (A1) (B1) (B2) (A2)
                 (B1) (B2) (A1) (A2) (B1) (B2) (A1) (A1) (A1) (B1)
                 (B1) (B2) (B2) (A2) (A1) (B2) (A1) (B1) (A1) (B2)
                 (A2) (A1) (B1) (B1) (A2) (A1) (A1) (B2) (B1) (A1)
                 (A2) (A1) (B2) (B1) (A2) (A1) (B2) (A2) (B2) (A1)
                 (B1) (B1) (A1) (B2) (B2) (B1) (A1) (B1) (A2) (A1)
                 (B2) (A2) (B1) (A2) (B2) (B1) (B2) (A1) (A2) (B2)
                 (B1) (A1) (B1) (A1) (A1) (B2) (A2) (A1) (B2) (A2)
                 (B1) (A1) (B1) (B2) (A1) (A2) (A2) (B1) (B2) (A1)
                 (B1) (A1) (B2) (A2) (B1) (A1) (A1) (B1) (A1) (A2)
                 (B2) (A1) (B2) (B1) (A1) (A2) (B2) (B1) (A2) (B2)
                 (B1) (A2) (A1) (A1) (B1) (A1) (B2) (A2) (A1) (B1)
                 (B2) (B2) (A2) (B1) (A1) (A2) (B2) (B2) (B1) (A1)
[...]
 Alpha virt. eigenvalues --    5.01318   5.01415   5.01547   5.02576   5.03415
 Alpha virt. eigenvalues --    5.04190   5.06192   5.06373   5.07117   5.08033
 Alpha virt. eigenvalues --    5.08658   5.08870   5.09717   5.10807   5.10994
 Alpha virt. eigenvalues --    5.13747   5.13927   5.14141   5.14236   5.14648
 Alpha virt. eigenvalues --    5.15164   5.16380   5.16812   5.16996   5.18060
 Alpha virt. eigenvalues --    5.18145   5.21278   5.22753   5.22917   5.24974
 Alpha virt. eigenvalues --    5.25323   5.26428   5.26636   5.26701   5.28339
 Alpha virt. eigenvalues --    5.29049   5.29598   5.30817   5.33711   5.33890
 Alpha virt. eigenvalues --    5.36694   5.37093   5.37677   5.39565   5.39607
 Alpha virt. eigenvalues --    5.40311   5.40707   5.42874   5.43609   5.44945
 Alpha virt. eigenvalues --    5.45080   5.46323   5.47645   5.49270   5.49980
 Alpha virt. eigenvalues --    5.50672   5.53450   5.54443   5.55666   5.55966
 Alpha virt. eigenvalues --    5.57632   5.63202   5.75183   5.78750   5.79116
 Alpha virt. eigenvalues --    5.82400   5.84741   5.85705   5.87028   5.89424
 Alpha virt. eigenvalues --    5.92726   5.96319   5.97873   6.04689   6.52996
 Alpha virt. eigenvalues --    6.61666   6.62495   6.67901   6.68060   6.69788
 Alpha virt. eigenvalues --    6.73596   6.75205   6.75537   6.79112   6.80027
 Alpha virt. eigenvalues --    6.86335   6.86836   6.86998   6.88700   6.89615
 Alpha virt. eigenvalues --    6.90727   6.91660   6.93015   6.93425   6.94260
 Alpha virt. eigenvalues --    6.94913   6.96562   6.97298   6.98166   6.99751
 Alpha virt. eigenvalues --    7.01358   7.02928   7.03287   7.03310   7.03412
 Alpha virt. eigenvalues --    7.03542   7.06193   7.07641   7.08233   7.10056
 Alpha virt. eigenvalues --    7.12340   7.12443   7.14380   7.15340   7.20194
 Alpha virt. eigenvalues --    7.20404   7.22589   7.22972   7.24122   7.28080
 Alpha virt. eigenvalues --    7.31145   7.31450   7.31845   7.34796   7.34886
 Alpha virt. eigenvalues --    7.38320   7.39456   7.40596   7.45521   7.48392
 Alpha virt. eigenvalues --    7.54673   7.60564   7.63904   7.68960   7.69165
 Alpha virt. eigenvalues --    7.76546   7.77072   7.81210   7.81976  13.95172
 Alpha virt. eigenvalues --   13.95495  14.02225  14.03636  14.12979  14.13913
 Alpha virt. eigenvalues --   14.14478  14.17264  14.17746  14.22869  14.26359
 Alpha virt. eigenvalues --   14.26388  14.27893  14.28024  14.31714  14.32109
 Alpha virt. eigenvalues --   14.33049  14.41065  14.41374  14.43169  14.44830
 Alpha virt. eigenvalues --   14.51790  14.53664  14.59849  14.64104  14.66232
 Alpha virt. eigenvalues --   14.67803  14.69667  14.72973  14.73893  14.78224
 Alpha virt. eigenvalues --   14.78726  14.79988  14.81201  14.82557  14.83133
 Alpha virt. eigenvalues --   14.89884  15.27848  15.29818  42.06686  42.20834
 Alpha virt. eigenvalues --   42.34670  42.87016  43.27068  43.44192  43.52536
 Alpha virt. eigenvalues --   43.79338  44.44613  45.49662  45.53940  45.83913
 Alpha virt. eigenvalues --   47.66189
          Condensed to atoms (all electrons):
              1          2          3          4          5          6
     1  Si  13.204750  -0.009920   0.315429   0.315429   0.313366  -0.012028
     2  Si  -0.009920  12.640499   0.035212   0.035212   0.158011   0.124934
     3  Si   0.315429   0.035212  13.105166   0.058135   0.035212   0.094516
     4  Si   0.315429   0.035212   0.058135  13.105166   0.035212  -0.005509
     5  Si   0.313366   0.158011   0.035212   0.035212  12.640499   0.124934
     6  Si  -0.012028   0.124934   0.094516  -0.005509   0.124934  13.268201
     7  Si  -0.016865   0.313366   0.315429   0.315429  -0.009920  -0.012028
     8  Si  -0.000385  -0.021828  -0.002925  -0.001022   0.164390  -0.004435
     9  Si  -0.000385  -0.021828  -0.001022  -0.002925   0.164390   0.238575
    10  Si   0.000250  -0.016015  -0.000548  -0.000548  -0.016015   0.009001
    11  Si  -0.012028   0.124934  -0.005509   0.094516   0.124934   0.011240
    12  Si   0.003753   0.164390  -0.002925  -0.001022  -0.021828  -0.004435
    13  Si   0.003753   0.164390  -0.001022  -0.002925  -0.021828   0.238575
              7          8          9         10         11         12
     1  Si  -0.016865  -0.000385  -0.000385   0.000250  -0.012028   0.003753
     2  Si   0.313366  -0.021828  -0.021828  -0.016015   0.124934   0.164390
     3  Si   0.315429  -0.002925  -0.001022  -0.000548  -0.005509  -0.002925
     4  Si   0.315429  -0.001022  -0.002925  -0.000548   0.094516  -0.001022
     5  Si  -0.009920   0.164390   0.164390  -0.016015   0.124934  -0.021828
     6  Si  -0.012028  -0.004435   0.238575   0.009001   0.011240  -0.004435
     7  Si  13.204750   0.003753   0.003753   0.000250  -0.012028  -0.000385
     8  Si   0.003753  13.291465   0.090152   0.216414   0.238575   0.103546
     9  Si   0.003753   0.090152  13.291465   0.216414  -0.004435   0.012695
    10  Si   0.000250   0.216414   0.216414  13.161050   0.009001   0.216414
    11  Si  -0.012028   0.238575  -0.004435   0.009001  13.268201   0.238575
    12  Si  -0.000385   0.103546   0.012695   0.216414   0.238575  13.291465
    13  Si  -0.000385   0.012695   0.103546   0.216414  -0.004435   0.090152
             13
     1  Si   0.003753
     2  Si   0.164390
     3  Si  -0.001022
     4  Si  -0.002925
     5  Si  -0.021828
     6  Si   0.238575
     7  Si  -0.000385
     8  Si   0.012695
     9  Si   0.103546
    10  Si   0.216414
    11  Si  -0.004435
    12  Si   0.090152
    13  Si  13.291465
 Mulliken atomic charges:
              1
     1  Si  -0.105120
     2  Si   0.308644
     3  Si   0.054851
     4  Si   0.054851
     5  Si   0.308644
     6  Si  -0.071542
     7  Si  -0.105120
     8  Si  -0.090396
     9  Si  -0.090396
    10  Si  -0.012082
    11  Si  -0.071542
    12  Si  -0.090396
    13  Si  -0.090396
 Sum of Mulliken atomic charges =   0.00000
 Mulliken charges with hydrogens summed into heavy atoms:
              1
     1  Si  -0.105120
     2  Si   0.308644
     3  Si   0.054851
     4  Si   0.054851
     5  Si   0.308644
     6  Si  -0.071542
     7  Si  -0.105120
     8  Si  -0.090396
     9  Si  -0.090396
    10  Si  -0.012082
    11  Si  -0.071542
    12  Si  -0.090396
    13  Si  -0.090396
 Sum of Mulliken charges with hydrogens summed into heavy atoms =   0.00000
 Electronic spatial extent (au):  <R**2>=           4948.6386
 Charge=              0.0000 electrons
 Dipole moment (field-independent basis, Debye):
    X=              0.0000    Y=              0.0000    Z=             -0.5772  Tot=              0.5772
 Quadrupole moment (field-independent basis, Debye-Ang):
   XX=           -175.5449   YY=           -180.7674   ZZ=           -183.3909
   XY=              0.0000   XZ=              0.0000   YZ=              0.0000
 Traceless Quadrupole moment (field-independent basis, Debye-Ang):
   XX=              4.3562   YY=             -0.8664   ZZ=             -3.4899
   XY=              0.0000   XZ=              0.0000   YZ=              0.0000
 Octapole moment (field-independent basis, Debye-Ang**2):
  XXX=              0.0000  YYY=              0.0000  ZZZ=            -31.4053  XYY=              0.0000
  XXY=              0.0000  XXZ=             -5.1296  XZZ=              0.0000  YZZ=              0.0000
  YYZ=             13.6804  XYZ=              0.0000
 Hexadecapole moment (field-independent basis, Debye-Ang**3):
 XXXX=          -2029.1833 YYYY=          -1974.2073 ZZZZ=          -4568.0342 XXXY=              0.0000
 XXXZ=              0.0000 YYYX=              0.0000 YYYZ=              0.0000 ZZZX=              0.0000
 ZZZY=              0.0000 XXYY=           -679.9857 XXZZ=          -1106.5910 YYZZ=          -1175.9505
 XXYZ=              0.0000 YYXZ=              0.0000 ZZXY=              0.0000
 N-N= 2.390506029106D+03 E-N=-1.374235632152D+04  KE= 3.756133642562D+03
 Symmetry A1   KE= 1.584504714759D+03
 Symmetry A2   KE= 3.889665046070D+02
 Symmetry B1   KE= 8.912919040880D+02
 Symmetry B2   KE= 8.913705191080D+02
 1\1\GINC-NODE77\SP\RHF\GFHFB2\Si13\TAM\07-Jan-2012\0\\#N Geom=AllCheck
  Guess=TCheck SCRF=Check HF/GFHFB2 SCF=Tight\\si13-n\\0,1\Si,0,0.,2.03
 68291263,-2.5603976687\Si,0,0.,-1.313848194,-0.265658787\Si,0,1.302913
 8431,0.,-2.5258683718\Si,0,-1.3029138431,0.,-2.5258683718\Si,0,0.,1.31
 3848194,-0.265658787\Si,0,2.1506220507,0.,-0.0335473892\Si,0,0.,-2.036
 8291263,-2.5603976687\Si,0,-1.436649246,1.3594354494,1.8629656799\Si,0
 ,1.436649246,1.3594354494,1.8629656799\Si,0,0.,0.,3.3190797384\Si,0,-2
 .1506220507,0.,-0.0335473892\Si,0,-1.436649246,-1.3594354494,1.8629656
 799\Si,0,1.436649246,-1.3594354494,1.8629656799\\Version=AM64L-G09RevA
 .02\State=1-A1\HF=-3756.0509307\RMSD=2.453e-09\Dipole=0.,0.,-0.2270881
 \Quadrupole=3.238732,-0.6441127,-2.5946193,0.,0.,0.\PG=C02V [C2(Si1),S
 GV(Si4),SGV'(Si4),X(Si4)]\\@


 SUCCESS IS NEVER CERTAIN,
 FAILURE IS NEVER FINAL.
 Diagonal vibrational polarizability:
        0.0000000       0.0000000       0.0000000

 Temperature=              298.150000 Pressure=                      1.000000
 E(ZPE)=                     0.018710 E(Thermal)=                    0.038180
 E(CCSD(T))=             -3757.025127 E(Empiric)=                   -0.180622
 DE(Plus)=                  -0.032879 DE(2DF)=                      -0.468466
 E(Delta-G3XP)=             -4.081303 DE(HF)=                       -0.085916
 G4(0 K)=                -3761.855602 G4 Energy=                 -3761.836132
 G4 Enthalpy=            -3761.835188 G4 Free Energy=            -3761.902418
 1\1\GINC-NODE77\Mixed\G4\G4\Si13\TAM\07-Jan-2012\0\\# G4 scfcyc=500 sc
 f=xqc\\si13-n\\0,1\Si,0,0.,2.0368291263,-2.5603976687\Si,0,0.,-1.31384
 8194,-0.265658787\Si,0,1.3029138431,0.,-2.5258683718\Si,0,-1.302913843
 1,0.,-2.5258683718\Si,0,0.,1.313848194,-0.265658787\Si,0,2.1506220507,
 0.,-0.0335473892\Si,0,0.,-2.0368291263,-2.5603976687\Si,0,-1.436649246
 ,1.3594354494,1.8629656799\Si,0,1.436649246,1.3594354494,1.8629656799\
 Si,0,0.,0.,3.3190797384\Si,0,-2.1506220507,0.,-0.0335473892\Si,0,-1.43
 6649246,-1.3594354494,1.8629656799\Si,0,1.436649246,-1.3594354494,1.86
 29656799\\Version=AM64L-G09RevA.02\State=1-A1\MP2/GTBas1=-3756.9418787
 \MP4/GTBas1=-3757.1264535\CCSD(T)/G3Bas1=-3757.0251268\MP2/GTBas2=-375
 6.9713237\MP4/GTBas2=-3757.1593323\MP2/GTBas3=-3757.3653105\MP4/GTBas3
 =-3757.5949192\HF/GTLargeXP=-3755.9681432\MP2/GTLargeXP=-3761.4760588\
 HF/GFHFB1=-3756.0380932\HF/GFHFB2=-3756.0509307\G4=-3761.8556019\FreqC
 oord=0.,3.8490492283,-4.8384503852,0.,-2.4828132669,-0.5020223522,2.46
 21503383,0.,-4.7731994704,-2.4621503383,0.,-4.7731994704,0.,2.48281326
 69,-0.5020223522,4.0640866912,0.,-0.063395378,0.,-3.8490492283,-4.8384
 503852,-2.7148736239,2.5689606946,3.52049493,2.7148736239,2.5689606946
 ,3.52049493,0.,0.,6.2721517189,-4.0640866912,0.,-0.063395378,-2.714873
 6239,-2.5689606946,3.52049493,2.7148736239,-2.5689606946,3.52049493\PG
 =C02V [C2(Si1),SGV(Si4),SGV'(Si4),X(Si4)]\NImag=0\\0.03898296,0.,0.108
 65346,0.,-0.02633325,0.06966626,-0.00235308,0.,0.,0.06876461,0.,-0.006
 34504,0.00499404,0.,0.06288541,0.,0.00525361,-0.00060300,0.,0.02371272
 ,0.11840666,-0.01309453,0.01742454,-0.00348675,0.00132402,0.00331466,0
 .00281818,0.06482624,0.02548444,-0.04194833,-0.00276947,-0.00052364,-0
 .00095370,-0.00119995,0.,0.08552651,-0.00652477,0.00461764,-0.00447770
 ,0.00547338,0.00948416,-0.00189412,0.00502742,0.,0.03967497,-0.0130945
 3,-0.01742454,0.00348675,0.00132402,-0.00331466,-0.00281818,-0.0403056
 9,0.,0.00374517,0.06482624,-0.02548444,-0.04194832,-0.00276947,0.00052
 364,-0.00095370,-0.00119995,0.,0.00186900,0.,0.,0.08552651,0.00652477,
 0.00461764,-0.00447770,-0.00547338,0.00948416,-0.00189412,-0.00374517,
 0.,-0.00334769,-0.00502742,0.,0.03967497,-0.00546752,0.,0.,0.00405997,
 0.,0.,0.00132402,0.00052364,0.00547338,0.00132402,-0.00052364,-0.00547
 338,0.06876461,0.,-0.01101324,0.02475409,0.,-0.02061253,0.00426065,-0.
 00331466,-0.00095370,-0.00948416,0.00331466,-0.00095370,-0.00948416,0.
 ,0.06288541,0.,0.01541862,-0.05918267,0.,-0.00426065,-0.00185279,0.002
 81818,0.00119995,-0.00189412,-0.00281818,0.00119995,-0.00189412,0.,-0.
 02371272,0.11840666,0.00143181,-0.00229213,0.00130466,-0.02382194,-0.0
 1064030,0.00092010,0.00544850,0.,-0.00751201,-0.00728914,0.,-0.0017205
 0,-0.02382194,0.01064030,0.00092011,0.06693017,0.00355141,-0.00168380,
 0.00174035,-0.01519331,-0.00549374,-0.00382213,0.,0.00060201,0.,0.,-0.
 00129702,0.,0.01519331,-0.00549374,0.00382213,0.,0.05169154,-0.0031420
 3,-0.00015001,-0.00122162,0.00047397,-0.00460639,-0.00040991,-0.003379
 49,0.,-0.02000206,-0.00219132,0.,0.00132150,0.00047397,0.00460639,-0.0
 0040991,-0.02061951,0.,0.08727377,-0.00361700,0.,0.,-0.00546752,0.,0.,
 -0.01309453,-0.02548444,-0.00652477,-0.01309453,0.02548444,0.00652477,
 -0.00235308,0.,0.,0.00143181,-0.00355141,-0.00314203,0.03898296,0.,-0.
 00772829,0.00102760,0.,-0.01101324,-0.01541862,-0.01742454,-0.04194832
 ,-0.00461764,0.01742454,-0.04194833,-0.00461764,0.,-0.00634504,-0.0052
 5361,0.00229213,-0.00168380,0.00015001,0.,0.10865346,0.,-0.00102760,-0
 .00061552,0.,-0.02475409,-0.05918267,-0.00348675,0.00276947,-0.0044777
 0,0.00348675,0.00276947,-0.00447770,0.,-0.00499404,-0.00060300,0.00130
 466,-0.00174035,-0.00122162,0.,0.02633325,0.06966626,0.00048747,-0.001
 34473,0.00055600,-0.00261559,-0.00128074,0.00073030,0.00078946,0.00179
 046,-0.00230775,0.00120002,0.00008175,-0.00076901,-0.01391683,0.003833
 71,0.01190283,-0.00484124,0.00726109,0.00307792,-0.00084702,-0.0025317
 5,-0.00021967,0.05044782,-0.00090030,0.00470170,-0.00139881,0.00145186
 ,-0.00565685,0.00127537,-0.00177854,0.00097236,0.00022807,0.00379429,-
 0.00016611,-0.00022417,0.00745120,0.00065677,-0.00056520,-0.00134874,-
 0.00498338,0.00277379,0.00076823,-0.00154325,0.00159214,-0.01520395,0.
 05481793,-0.00104865,0.00004191,0.00168455,0.00053069,-0.00360014,-0.0
 0481501,0.00074075,-0.00175633,-0.00058643,-0.00149766,0.00077403,-0.0
 0056025,0.01296352,-0.00012933,-0.01694636,0.00276913,-0.00323958,-0.0
 0050252,0.00279383,-0.00035294,-0.00029858,0.00651462,0.01570262,0.066
 42150,0.00048747,0.00134473,-0.00055600,-0.00261559,0.00128074,-0.0007
 3030,0.00120002,-0.00008175,0.00076901,0.00078946,-0.00179046,0.002307
 75,-0.01391683,-0.00383371,-0.01190283,-0.00055971,0.00612604,0.012208
 04,-0.00084702,0.00253175,0.00021967,-0.00774987,-0.00028336,-0.002038
 57,0.05044782,0.00090030,0.00470170,-0.00139881,-0.00145186,-0.0056568
 5,0.00127537,-0.00379429,-0.00016611,-0.00022417,0.00177854,0.00097236
 ,0.00022807,-0.00745120,0.00065677,-0.00056520,0.00786809,-0.01325528,
 -0.01452631,-0.00076823,-0.00154325,0.00159214,0.00028336,0.00247128,-
 0.00614563,0.01520395,0.05481793,0.00104865,0.00004191,0.00168455,-0.0
 0053069,-0.00360014,-0.00481501,0.00149766,0.00077403,-0.00056025,-0.0
 0074075,-0.00175633,-0.00058643,-0.01296352,-0.00012933,-0.01694636,0.
 00962906,-0.02321912,-0.02541157,-0.00279383,-0.00035294,-0.00029858,0
 .00203857,-0.00614563,-0.00206469,-0.00651462,0.01570262,0.06642150,-0
 .00350082,0.,0.,0.01305669,0.,0.,-0.00311787,0.,0.00219916,-0.00311787
 ,0.,-0.00219916,0.01305669,0.,0.,-0.00789433,0.,0.00396392,-0.00350083
 ,0.,0.,-0.01125262,0.00841488,-0.01384767,-0.01125262,-0.00841488,0.01
 384767,0.04792314,0.,-0.00261953,0.00359767,0.,-0.00201956,-0.01144536
 ,0.,-0.00250896,0.,0.,-0.00250896,0.,0.,-0.00201956,0.01144536,0.,0.00
 038174,0.,0.,-0.00261953,-0.00359767,0.01429816,-0.00687102,0.01235986
 ,-0.01429816,-0.00687102,0.01235986,0.,0.04101669,0.,-0.00303637,-0.00
 063837,0.,-0.00250593,-0.00863740,-0.00323378,0.,-0.00260974,0.0032337
 8,0.,-0.00260974,0.,0.00250593,-0.00863740,-0.00240331,0.,-0.00779862,
 0.,0.00303637,-0.00063837,-0.01329154,0.01085277,-0.01277156,0.0132915
 4,0.01085277,-0.01277156,0.,0.,0.09045452,0.00143181,0.00229213,-0.001
 30466,-0.02382194,0.01064030,-0.00092011,-0.00728914,0.,0.00172050,0.0
 0544850,0.,0.00751201,-0.02382194,-0.01064030,-0.00092010,-0.00161304,
 0.,-0.00300941,0.00143181,-0.00229213,-0.00130466,-0.00055971,-0.00786
 809,-0.00962906,-0.00484124,0.00134874,-0.00276913,-0.00789433,0.,0.00
 240331,0.06693017,-0.00355141,-0.00168380,0.00174035,0.01519331,-0.005
 49374,-0.00382213,0.,-0.00129702,0.,0.,0.00060201,0.,-0.01519331,-0.00
 549374,0.00382213,0.,-0.00054587,0.,0.00355141,-0.00168380,-0.00174035
 ,-0.00612604,-0.01325528,-0.02321912,-0.00726109,-0.00498338,-0.003239
 58,0.,0.00038174,0.,0.,0.05169154,0.00314203,-0.00015001,-0.00122162,-
 0.00047397,-0.00460639,-0.00040991,0.00219132,0.,0.00132150,0.00337949
 ,0.,-0.02000206,-0.00047397,0.00460639,-0.00040991,0.00300941,0.,-0.00
 570335,0.00314203,0.00015001,-0.00122162,-0.01220804,-0.01452631,-0.02
 541157,-0.00307792,0.00277379,-0.00050252,-0.00396392,0.,-0.00779862,0
 .02061951,0.,0.08727377,-0.00084702,0.00253175,-0.00021967,-0.01391683
 ,-0.00383371,0.01190283,0.00078946,-0.00179046,-0.00230775,0.00120002,
 -0.00008175,-0.00076901,-0.00261559,0.00128074,0.00073030,-0.00484124,
 -0.00726109,0.00307792,0.00048747,0.00134473,0.00055600,-0.00349782,0.
 00328192,0.00286242,-0.00764406,-0.00222060,0.00111334,-0.01125262,-0.
 01429816,-0.01329154,-0.00055971,0.00612604,-0.01220804,0.05044782,-0.
 00076823,-0.00154325,-0.00159214,-0.00745120,0.00065677,0.00056520,0.0
 0177854,0.00097236,-0.00022807,-0.00379429,-0.00016611,0.00022417,-0.0
 0145186,-0.00565685,-0.00127537,0.00134874,-0.00498338,-0.00277379,0.0
 0090030,0.00470170,0.00139881,-0.00328192,-0.02681478,0.00341717,-0.00
 222060,-0.00432935,0.00614747,-0.00841488,-0.00687102,-0.01085277,0.00
 786809,-0.01325528,0.01452631,0.01520395,0.05481793,0.00279383,0.00035
 294,-0.00029858,0.01296352,0.00012933,-0.01694636,0.00074075,0.0017563
 3,-0.00058643,-0.00149766,-0.00077403,-0.00056025,0.00053069,0.0036001
 4,-0.00481501,0.00276913,0.00323958,-0.00050252,-0.00104865,-0.0000419
 1,0.00168455,0.00286242,-0.00341717,-0.00388517,-0.00111334,-0.0061474
 7,-0.00026390,-0.01384767,-0.01235986,-0.01277156,-0.00962906,0.023219
 12,-0.02541157,0.00651462,-0.01570262,0.06642150,-0.00084702,-0.002531
 75,0.00021967,-0.01391683,0.00383371,-0.01190283,0.00120002,0.00008175
 ,0.00076901,0.00078946,0.00179046,0.00230775,-0.00261559,-0.00128074,-
 0.00073030,-0.00055971,-0.00612604,0.01220804,0.00048747,-0.00134473,-
 0.00055600,-0.00764406,0.00222060,-0.00111334,-0.00349782,-0.00328192,
 -0.00286242,-0.01125262,0.01429816,0.01329154,-0.00484124,0.00726109,-
 0.00307792,-0.00774987,0.00028336,-0.00203857,0.05044782,0.00076823,-0
 .00154325,-0.00159214,0.00745120,0.00065677,0.00056520,0.00379429,-0.0
 0016611,0.00022417,-0.00177854,0.00097236,-0.00022807,0.00145186,-0.00
 565685,-0.00127537,-0.00786809,-0.01325528,0.01452631,-0.00090030,0.00
 470170,0.00139881,0.00222060,-0.00432935,0.00614747,0.00328192,-0.0268
 1478,0.00341717,0.00841488,-0.00687102,-0.01085277,-0.00134874,-0.0049
 8338,-0.00277379,-0.00028336,0.00247128,0.00614563,-0.01520395,0.05481
 793,-0.00279383,0.00035294,-0.00029858,-0.01296352,0.00012933,-0.01694
 636,0.00149766,-0.00077403,-0.00056025,-0.00074075,0.00175633,-0.00058
 643,-0.00053069,0.00360014,-0.00481501,0.00962906,0.02321912,-0.025411
 57,0.00104865,-0.00004191,0.00168455,0.00111334,-0.00614747,-0.0002639
 0,-0.00286242,-0.00341717,-0.00388517,0.01384767,-0.01235986,-0.012771
 56,-0.00276913,0.00323958,-0.00050252,0.00203857,0.00614563,-0.0020646
 9,-0.00651462,-0.01570262,0.06642150\\0.,-0.00001028,0.00000273,0.,-0.
 00005744,0.00009562,0.00000470,0.,-0.00002588,-0.00000470,0.,-0.000025
 88,0.,0.00005744,0.00009562,0.00000547,0.,-0.00002267,0.,0.00001028,0.
 00000273,-0.00001272,-0.00001672,-0.00002249,0.00001272,-0.00001672,-0
 .00002249,0.,0.,-0.00000965,-0.00000547,0.,-0.00002267,-0.00001272,0.0
 0001672,-0.00002249,0.00001272,0.00001672,-0.00002249\\\@
 Job cpu time:  1 days  8 hours 43 minutes 16.4 seconds.
 File lengths (MBytes):  RWF=  12603 Int=      0 D2E=      0 Chk=     81 Scr=      1
 Normal termination of Gaussian 09 at Sat Jan  7 17:56:57 2012.
