 Entering Gaussian System, Link 0=g09
 Initial command:
 /usr/local/chem/g09A2/l1.exe /temp0/tam/Gau-4808.inp -scrdir=/temp0/tam/
 Entering Link 1 = /usr/local/chem/g09A2/l1.exe PID=      4809.
  
 Copyright (c) 1988,1990,1992,1993,1995,1998,2003,2009, Gaussian, Inc.
                  All Rights Reserved.
  
 This is part of the Gaussian(R) 09 program.  It is based on
 the Gaussian(R) 03 system (copyright 2003, Gaussian, Inc.),
 the Gaussian(R) 98 system (copyright 1998, Gaussian, Inc.),
 the Gaussian(R) 94 system (copyright 1995, Gaussian, Inc.),
 the Gaussian 92(TM) system (copyright 1992, Gaussian, Inc.),
 the Gaussian 90(TM) system (copyright 1990, Gaussian, Inc.),
 the Gaussian 88(TM) system (copyright 1988, Gaussian, Inc.),
 the Gaussian 86(TM) system (copyright 1986, Carnegie Mellon
 University), and the Gaussian 82(TM) system (copyright 1983,
 Carnegie Mellon University). Gaussian is a federally registered
 trademark of Gaussian, Inc.
  
 This software contains proprietary and confidential information,
 including trade secrets, belonging to Gaussian, Inc.
  
 This software is provided under written license and may be
 used, copied, transmitted, or stored only in accord with that
 written license.
  
 The following legend is applicable only to US Government
 contracts under FAR:
  
                    RESTRICTED RIGHTS LEGEND
  
 Use, reproduction and disclosure by the US Government is
 subject to restrictions as set forth in subparagraphs (a)
 and (c) of the Commercial Computer Software - Restricted
 Rights clause in FAR 52.227-19.
  
 Gaussian, Inc.
 340 Quinnipiac St., Bldg. 40, Wallingford CT 06492
  
  
 ---------------------------------------------------------------
 Warning -- This program may not be used in any manner that
 competes with the business of Gaussian, Inc. or will provide
 assistance to any competitor of Gaussian, Inc.  The licensee
 of this program is prohibited from giving any competitor of
 Gaussian, Inc. access to this program.  By using this program,
 the user acknowledges that Gaussian, Inc. is engaged in the
 business of creating and licensing software in the field of
 computational chemistry and represents and warrants to the
 licensee that it is not a competitor of Gaussian, Inc. and that
 it will not use this program in any manner prohibited above.
 ---------------------------------------------------------------
  

 Cite this work as:
 Gaussian 09, Revision A.02,
 M. J. Frisch, G. W. Trucks, H. B. Schlegel, G. E. Scuseria, 
 M. A. Robb, J. R. Cheeseman, G. Scalmani, V. Barone, B. Mennucci, 
 G. A. Petersson, H. Nakatsuji, M. Caricato, X. Li, H. P. Hratchian, 
 A. F. Izmaylov, J. Bloino, G. Zheng, J. L. Sonnenberg, M. Hada, 
 M. Ehara, K. Toyota, R. Fukuda, J. Hasegawa, M. Ishida, T. Nakajima, 
 Y. Honda, O. Kitao, H. Nakai, T. Vreven, J. A. Montgomery, Jr., 
 J. E. Peralta, F. Ogliaro, M. Bearpark, J. J. Heyd, E. Brothers, 
 K. N. Kudin, V. N. Staroverov, R. Kobayashi, J. Normand, 
 K. Raghavachari, A. Rendell, J. C. Burant, S. S. Iyengar, J. Tomasi, 
 M. Cossi, N. Rega, J. M. Millam, M. Klene, J. E. Knox, J. B. Cross, 
 V. Bakken, C. Adamo, J. Jaramillo, R. Gomperts, R. E. Stratmann, 
 O. Yazyev, A. J. Austin, R. Cammi, C. Pomelli, J. W. Ochterski, 
 R. L. Martin, K. Morokuma, V. G. Zakrzewski, G. A. Voth, 
 P. Salvador, J. J. Dannenberg, S. Dapprich, A. D. Daniels, 
 O. Farkas, J. B. Foresman, J. V. Ortiz, J. Cioslowski, 
 and D. J. Fox, Gaussian, Inc., Wallingford CT, 2009.
 
 ******************************************
 Gaussian 09:  AM64L-G09RevA.02 11-Jun-2009
                21-Dec-2011 
 ******************************************
 %NprocShared=6
 Will use up to    6 processors via shared memory.
 %mem=17750MB
 %chk=S9L-ne-d-01
 -----------------------
 # G4 scfcyc=500 scf=xqc
 -----------------------
 1/14=-1,18=20,19=15,26=3,38=1/1,3;
 2/9=110,12=2,17=6,18=5,40=1/2;
 3/5=35,7=104,11=2,16=1,25=1,30=1,71=1,74=-5/1,2,3;
 4//1;
 5/5=2,7=500,8=3,13=1,38=5/2,8;
 6/7=2,8=2,9=2,10=2,28=1/1;
 7//1,2,3,16;
 1/14=-1,18=20,19=15/3(2);
 2/9=110/2;
 99//99;
 2/9=110/2;
 3/5=35,7=104,11=2,16=1,25=1,30=1,71=1,74=-5/1,2,3;
 4/5=5,16=3/1;
 5/5=2,7=500,8=3,13=1,38=5/2,8;
 7//1,2,3,16;
 1/14=-1,18=20,19=15/3(-5);
 2/9=110/2;
 6/7=2,8=2,9=2,10=2,19=2,28=1/1;
 99/9=1/99;
 -----
 si8-n
 -----
 Symbolic Z-matrix:
 Charge =  0 Multiplicity = 1
 Si                    0.80233   1.17448   1.4585 
 Si                   -0.80233  -1.17448   1.4585 
 Si                    0.80233   1.17448  -1.4585 
 Si                   -0.80233  -1.17448  -1.4585 
 Si                   -1.21582   0.71291   0. 
 Si                    1.21582  -0.71291   0. 
 Si                   -0.36005   2.82695   0. 
 Si                    0.36005  -2.82695   0. 
 

 GradGradGradGradGradGradGradGradGradGradGradGradGradGradGradGradGradGrad
 Berny optimization.
 Initialization pass.
                           ----------------------------
                           !    Initial Parameters    !
                           ! (Angstroms and Degrees)  !
 --------------------------                            --------------------------
 ! Name  Definition              Value          Derivative Info.                !
 --------------------------------------------------------------------------------
 ! R1    R(1,2)                  2.8447         estimate D2E/DX2                !
 ! R2    R(1,3)                  2.917          estimate D2E/DX2                !
 ! R3    R(1,5)                  2.5324         estimate D2E/DX2                !
 ! R4    R(1,6)                  2.4208         estimate D2E/DX2                !
 ! R5    R(1,7)                  2.4918         estimate D2E/DX2                !
 ! R6    R(2,4)                  2.917          estimate D2E/DX2                !
 ! R7    R(2,5)                  2.4208         estimate D2E/DX2                !
 ! R8    R(2,6)                  2.5324         estimate D2E/DX2                !
 ! R9    R(2,8)                  2.4918         estimate D2E/DX2                !
 ! R10   R(3,4)                  2.8447         estimate D2E/DX2                !
 ! R11   R(3,5)                  2.5324         estimate D2E/DX2                !
 ! R12   R(3,6)                  2.4208         estimate D2E/DX2                !
 ! R13   R(3,7)                  2.4918         estimate D2E/DX2                !
 ! R14   R(4,5)                  2.4208         estimate D2E/DX2                !
 ! R15   R(4,6)                  2.5324         estimate D2E/DX2                !
 ! R16   R(4,8)                  2.4918         estimate D2E/DX2                !
 ! R17   R(5,6)                  2.8188         estimate D2E/DX2                !
 ! R18   R(5,7)                  2.2807         estimate D2E/DX2                !
 ! R19   R(6,8)                  2.2807         estimate D2E/DX2                !
 ! A1    A(2,1,3)               90.0            estimate D2E/DX2                !
 ! A2    A(2,1,7)              106.5264         estimate D2E/DX2                !
 ! A3    A(6,1,7)              104.127          estimate D2E/DX2                !
 ! A4    A(1,2,4)               90.0            estimate D2E/DX2                !
 ! A5    A(1,2,8)              106.5264         estimate D2E/DX2                !
 ! A6    A(5,2,8)              104.127          estimate D2E/DX2                !
 ! A7    A(1,3,4)               90.0            estimate D2E/DX2                !
 ! A8    A(4,3,7)              106.5264         estimate D2E/DX2                !
 ! A9    A(6,3,7)              104.127          estimate D2E/DX2                !
 ! A10   A(2,4,3)               90.0            estimate D2E/DX2                !
 ! A11   A(3,4,8)              106.5264         estimate D2E/DX2                !
 ! A12   A(5,4,8)              104.127          estimate D2E/DX2                !
 ! A13   A(1,5,4)              110.6687         estimate D2E/DX2                !
 ! A14   A(2,5,3)              110.6687         estimate D2E/DX2                !
 ! A15   A(2,5,7)              131.1923         estimate D2E/DX2                !
 ! A16   A(4,5,7)              131.1923         estimate D2E/DX2                !
 ! A17   A(6,5,7)               98.3476         estimate D2E/DX2                !
 ! A18   A(1,6,4)              110.6687         estimate D2E/DX2                !
 ! A19   A(1,6,8)              131.1923         estimate D2E/DX2                !
 ! A20   A(2,6,3)              110.6687         estimate D2E/DX2                !
 ! A21   A(3,6,8)              131.1923         estimate D2E/DX2                !
 ! A22   A(5,6,8)               98.3476         estimate D2E/DX2                !
 ! D1    D(3,1,2,4)              0.0            estimate D2E/DX2                !
 ! D2    D(3,1,2,8)             52.3712         estimate D2E/DX2                !
 ! D3    D(7,1,2,4)             52.3712         estimate D2E/DX2                !
 ! D4    D(7,1,2,8)            104.7424         estimate D2E/DX2                !
 ! D5    D(2,1,3,4)              0.0            estimate D2E/DX2                !
 ! D6    D(7,1,6,4)            -42.0143         estimate D2E/DX2                !
 ! D7    D(7,1,6,8)           -112.4721         estimate D2E/DX2                !
 ! D8    D(1,2,4,3)              0.0            estimate D2E/DX2                !
 ! D9    D(8,2,5,3)            -42.0143         estimate D2E/DX2                !
 ! D10   D(8,2,5,7)           -112.4721         estimate D2E/DX2                !
 ! D11   D(1,3,4,2)              0.0            estimate D2E/DX2                !
 ! D12   D(1,3,4,8)            -52.3712         estimate D2E/DX2                !
 ! D13   D(7,3,4,2)            -52.3712         estimate D2E/DX2                !
 ! D14   D(7,3,4,8)           -104.7424         estimate D2E/DX2                !
 ! D15   D(7,3,6,2)             42.0143         estimate D2E/DX2                !
 ! D16   D(7,3,6,8)            112.4721         estimate D2E/DX2                !
 ! D17   D(8,4,5,1)             42.0143         estimate D2E/DX2                !
 ! D18   D(8,4,5,7)            112.4721         estimate D2E/DX2                !
 ! D19   D(7,5,6,8)            180.0            estimate D2E/DX2                !
 --------------------------------------------------------------------------------
 Trust Radius=3.00D-01 FncErr=1.00D-07 GrdErr=1.00D-06
 Number of steps in this run=  70 maximum allowed number of steps= 100.
 GradGradGradGradGradGradGradGradGradGradGradGradGradGradGradGradGradGrad

                          Input orientation:                          
 ---------------------------------------------------------------------
 Center     Atomic      Atomic             Coordinates (Angstroms)
 Number     Number       Type             X           Y           Z
 ---------------------------------------------------------------------
      1         14           0        0.802327    1.174479    1.458498
      2         14           0       -0.802327   -1.174479    1.458498
      3         14           0        0.802327    1.174479   -1.458498
      4         14           0       -0.802327   -1.174479   -1.458498
      5         14           0       -1.215822    0.712914    0.000000
      6         14           0        1.215822   -0.712914    0.000000
      7         14           0       -0.360054    2.826954    0.000000
      8         14           0        0.360054   -2.826954    0.000000
 ---------------------------------------------------------------------
                    Distance matrix (angstroms):
                    1          2          3          4          5
     1  Si   0.000000
     2  Si   2.844735   0.000000
     3  Si   2.916996   4.074479   0.000000
     4  Si   4.074479   2.916996   2.844735   0.000000
     5  Si   2.532426   2.420836   2.532426   2.420836   0.000000
     6  Si   2.420836   2.532426   2.420836   2.532426   2.818843
     7  Si   2.491791   4.281855   2.491791   4.281855   2.280680
     8  Si   4.281855   2.491791   4.281855   2.491791   3.874796
                    6          7          8
     6  Si   0.000000
     7  Si   3.874796   0.000000
     8  Si   2.280680   5.699581   0.000000
 Stoichiometry    Si8
 Framework group  C2H[SGH(Si4),X(Si4)]
 Deg. of freedom     6
 Full point group                 C2H     NOp   4
 Largest Abelian subgroup         C2H     NOp   4
 Largest concise Abelian subgroup C2H     NOp   4
                         Standard orientation:                         
 ---------------------------------------------------------------------
 Center     Atomic      Atomic             Coordinates (Angstroms)
 Number     Number       Type             X           Y           Z
 ---------------------------------------------------------------------
      1         14           0        0.668443    1.255513    1.458498
      2         14           0       -0.668443   -1.255513    1.458498
      3         14           0        0.668443    1.255513   -1.458498
      4         14           0       -0.668443   -1.255513   -1.458498
      5         14           0       -1.286783    0.575029    0.000000
      6         14           0        1.286783   -0.575029    0.000000
      7         14           0       -0.668443    2.770287    0.000000
      8         14           0        0.668443   -2.770287    0.000000
 ---------------------------------------------------------------------
 Rotational constants (GHZ):      1.2632700      0.6381268      0.5822202
 Standard basis: GTBas3 (6D, 7F)
 There are    76 symmetry adapted basis functions of AG  symmetry.
 There are    52 symmetry adapted basis functions of BG  symmetry.
 There are    52 symmetry adapted basis functions of AU  symmetry.
 There are    76 symmetry adapted basis functions of BU  symmetry.
 Integral buffers will be    131072 words long.
 Raffenetti 2 integral format.
 Two-electron integral symmetry is turned on.
   256 basis functions,   544 primitive gaussians,   280 cartesian basis functions
    56 alpha electrons       56 beta electrons
       nuclear repulsion energy       993.0161744507 Hartrees.
 NAtoms=    8 NActive=    8 NUniq=    3 SFac= 3.00D+00 NAtFMM=   80 NAOKFM=F Big=F
 One-electron integrals computed using PRISM.
 NBasis=   256 RedAO= T  NBF=    76    52    52    76
 NBsUse=   256 1.00D-06 NBFU=    76    52    52    76
 Harris functional with IExCor=  402 diagonalized for initial guess.
 ExpMin= 7.78D-02 ExpMax= 1.61D+04 ExpMxC= 2.43D+03 IAcc=2 IRadAn=         0 AccDes= 0.00D+00
 HarFok:  IExCor=  402 AccDes= 0.00D+00 IRadAn=         0 IDoV= 1
 ScaDFX=  1.000000  1.000000  1.000000  1.000000
 FoFCou: FMM=F IPFlag=           0 FMFlag=      100000 FMFlg1=           0
         NFxFlg=           0 DoJE=T BraDBF=F KetDBF=T FulRan=T
         Omega=  0.000000  0.000000  1.000000  0.000000  0.000000 ICntrl=     500 IOpCl=  0
         NMat0=    1 NMatS0=    1 NMatT0=    0 NMatD0=    1 NMtDS0=    0 NMtDT0=    0
         I1Cent=           4 NGrid=           0.
 Petite list used in FoFCou.
 Initial guess orbital symmetries:
       Occupied  (AG) (BU) (BG) (BU) (AU) (AG) (AG) (BU) (AG) (BU)
                 (BU) (BG) (AU) (AG) (AG) (BU) (AG) (BU) (AG) (BU)
                 (BG) (AU) (BU) (AG) (BG) (BU) (AG) (AU) (AU) (BU)
                 (BG) (AG) (AU) (BU) (BG) (AG) (AU) (BG) (BU) (AG)
                 (AG) (BU) (AU) (BU) (AG) (BG) (AG) (BU) (BG) (AG)
                 (AG) (AU) (BU) (AG) (BU) (AU)
       Virtual   (BU) (AU) (BG) (BU) (AG) (BG) (BU) (AU) (AG) (BU)
                 (BG) (AG) (BG) (AU) (BU) (AG) (AG) (AG) (AU) (BU)
                 (BG) (AG) (AU) (AG) (BU) (BG) (BU) (AG) (AU) (BU)
                 (BU) (BG) (BG) (AU) (AG) (BU) (AG) (AU) (AG) (BU)
                 (BU) (AU) (BG) (AG) (BU) (BG) (AU) (BG) (AG) (BU)
                 (AU) (BG) (AG) (BU) (AU) (BU) (AG) (AG) (BU) (BG)
                 (AU) (BU) (AG) (BG) (AU) (AG) (BG) (AG) (BU) (BU)
                 (BG) (BU) (AU) (AG) (BG) (AU) (BU) (AG) (AG) (BG)
                 (AU) (BU) (AG) (BG) (AU) (BU) (AG) (BU) (AG) (BG)
                 (BU) (AU) (AG) (AG) (BU) (AU) (AG) (BG) (BU) (AU)
                 (AU) (AG) (BU) (BU) (BG) (BU) (AG) (AG) (BG) (BU)
                 (AU) (BU) (AU) (BG) (AU) (AG) (BU) (BG) (AG) (BG)
                 (AU) (BG) (AG) (AG) (BU) (BU) (AU) (AG) (BG) (BU)
                 (AU) (BG) (AG) (BU) (AG) (AU) (BG) (AG) (BU) (BG)
                 (AU) (BU) (BG) (AU) (AG) (AG) (BU) (BU) (BG) (AU)
                 (AG) (BU) (AU) (BU) (AG) (BG) (AG) (BU) (BG) (AU)
                 (BU) (AG) (BG) (AU) (BU) (AG) (BG) (BU) (AG) (AG)
                 (AU) (BG) (AG) (AU) (AU) (AG) (BU) (BU) (BG) (AU)
                 (BU) (AG) (AU) (BU) (AU) (BG) (BU) (AG) (BG) (BU)
                 (AG) (BG) (AG) (BU) (AU) (BG) (AG) (BU) (BU) (AG)
 The electronic state of the initial guess is 1-AG.
 Requested convergence on RMS density matrix=1.00D-08 within 128 cycles.
 Requested convergence on MAX density matrix=1.00D-06.
 Requested convergence on             energy=1.00D-06.
 No special actions if energy rises.
 Keep R1 ints in memory in canonical form, NReq=785253056.
 Integral accuracy reduced to 1.0D-05 until final iterations.
 Initial convergence to 1.0D-05 achieved.  Increase integral accuracy.
 SCF Done:  E(RB3LYP) =  -2315.90839526     A.U. after   14 cycles
             Convg  =    0.3470D-08             -V/T =  2.0035
 QCSCF skips out because SCF is already converged.

 **********************************************************************

            Population analysis using the SCF density.

 **********************************************************************

 Orbital symmetries:
       Occupied  (BG) (BU) (AU) (AG) (AG) (BU) (AG) (BU) (AG) (BU)
                 (AU) (BU) (AG) (BG) (AG) (BU) (AG) (BU) (AU) (BG)
                 (BU) (AG) (AU) (BG) (BU) (AG) (BG) (AU) (AG) (BU)
                 (AU) (BU) (BG) (AG) (AU) (BG) (AG) (BU) (BU) (AG)
                 (AG) (BU) (AU) (BU) (AG) (BG) (AG) (BU) (BG) (AG)
                 (AG) (BU) (AU) (AG) (BU) (AU)
       Virtual   (BU) (AU) (BG) (AG) (BU) (BG) (AU) (BU) (AG) (BU)
                 (BG) (AG) (BG) (BU) (AU) (AG) (AG) (AG) (AU) (BU)
                 (BG) (AG) (AG) (BU) (AU) (BG) (BU) (BU) (AG) (AU)
                 (BG) (BU) (AG) (AU) (BU) (AG) (BG) (AU) (AG) (BU)
                 (BU) (BG) (AG) (BU) (AU) (BG) (AU) (AG) (BG) (AU)
                 (BU) (BU) (AG) (BG) (AU) (BU) (AG) (AG) (BG) (BU)
                 (AU) (AG) (BU) (BG) (AU) (AG) (BG) (AG) (BU) (BU)
                 (BG) (BU) (AU) (AG) (AU) (BG) (BU) (BG) (AG) (AG)
                 (BU) (AU) (AG) (AU) (BG) (BU) (AG) (BU) (AG) (BG)
                 (AG) (BU) (AU) (BU) (AG) (AU) (AG) (BU) (AU) (BG)
                 (AG) (AU) (BU) (BU) (BG) (BU) (AG) (AG) (BU) (BG)
                 (AU) (AU) (BG) (BU) (AU) (AG) (BU) (BG) (BG) (AG)
                 (AU) (BG) (AG) (AG) (BU) (BU) (AU) (BG) (BU) (AG)
                 (AU) (BG) (BU) (AG) (AU) (AG) (BG) (AG) (BU) (BG)
                 (BG) (AU) (BU) (AU) (AG) (BU) (AG) (BG) (BU) (AU)
                 (AG) (BU) (AU) (BU) (AG) (BG) (AG) (BU) (BG) (AU)
                 (BU) (AG) (BG) (AU) (BU) (AG) (BG) (BU) (AG) (AG)
                 (AU) (AU) (BG) (AG) (AU) (BU) (AG) (BU) (BG) (BU)
                 (AU) (AU) (AG) (BU) (AU) (BG) (BU) (AG) (BG) (BU)
                 (AG) (BG) (AG) (BU) (AU) (BG) (AG) (BU) (BU) (AG)
 The electronic state is 1-AG.
 Alpha  occ. eigenvalues --  -66.16031 -66.16031 -66.16031 -66.16030 -66.15958
 Alpha  occ. eigenvalues --  -66.15957 -66.13998 -66.13997  -5.30581  -5.30579
 Alpha  occ. eigenvalues --   -5.30464  -5.30464  -5.30464  -5.30463  -5.28566
 Alpha  occ. eigenvalues --   -5.28565  -3.66590  -3.66588  -3.66472  -3.66471
 Alpha  occ. eigenvalues --   -3.66471  -3.66469  -3.66442  -3.66441  -3.66223
 Alpha  occ. eigenvalues --   -3.66219  -3.66210  -3.66208  -3.66189  -3.66184
 Alpha  occ. eigenvalues --   -3.66090  -3.66088  -3.66087  -3.66086  -3.64411
 Alpha  occ. eigenvalues --   -3.64409  -3.64388  -3.64388  -3.64258  -3.64258
 Alpha  occ. eigenvalues --   -0.67510  -0.57997  -0.50563  -0.49449  -0.46132
 Alpha  occ. eigenvalues --   -0.40508  -0.37036  -0.32408  -0.29822  -0.29429
 Alpha  occ. eigenvalues --   -0.27812  -0.25850  -0.25738  -0.22841  -0.22304
 Alpha  occ. eigenvalues --   -0.20943
 Alpha virt. eigenvalues --   -0.11482  -0.10415  -0.08481  -0.06931  -0.05729
 Alpha virt. eigenvalues --   -0.05319  -0.03906  -0.03100  -0.01345  -0.01021
 Alpha virt. eigenvalues --   -0.00152   0.01551   0.03484   0.04911   0.05035
 Alpha virt. eigenvalues --    0.06186   0.11193   0.12687   0.13299   0.13439
 Alpha virt. eigenvalues --    0.14052   0.14383   0.16650   0.17200   0.17765
 Alpha virt. eigenvalues --    0.17804   0.19056   0.20322   0.20449   0.20699
 Alpha virt. eigenvalues --    0.22769   0.22942   0.23159   0.23759   0.24120
 Alpha virt. eigenvalues --    0.24141   0.24379   0.24730   0.27334   0.27376
 Alpha virt. eigenvalues --    0.28897   0.29731   0.30330   0.31232   0.31341
 Alpha virt. eigenvalues --    0.31454   0.33112   0.34348   0.34682   0.35713
 Alpha virt. eigenvalues --    0.35882   0.37441   0.38528   0.38631   0.41251
 Alpha virt. eigenvalues --    0.42350   0.43579   0.44088   0.46344   0.46669
 Alpha virt. eigenvalues --    0.47179   0.47753   0.48000   0.48456   0.48921
 Alpha virt. eigenvalues --    0.51627   0.55273   0.55495   0.55981   0.58288
 Alpha virt. eigenvalues --    0.59466   0.61141   0.61936   0.64095   0.64688
 Alpha virt. eigenvalues --    0.64942   0.65405   0.66145   0.66652   0.67826
 Alpha virt. eigenvalues --    0.69020   0.69671   0.70875   0.72100   0.72672
 Alpha virt. eigenvalues --    0.73730   0.76928   0.77188   0.80931   0.84925
 Alpha virt. eigenvalues --    0.86134   0.86232   0.86642   0.90822   0.90947
 Alpha virt. eigenvalues --    0.93110   0.94534   0.94887   0.96124   0.96456
 Alpha virt. eigenvalues --    0.97032   0.97614   0.99564   1.00824   1.01856
 Alpha virt. eigenvalues --    1.03163   1.03620   1.05395   1.05688   1.05988
 Alpha virt. eigenvalues --    1.06765   1.08594   1.08613   1.08811   1.12103
 Alpha virt. eigenvalues --    1.13614   1.15851   1.18298   1.19185   1.19425
 Alpha virt. eigenvalues --    1.20295   1.22141   1.23081   1.23656   1.25094
 Alpha virt. eigenvalues --    1.26386   1.26928   1.27849   1.29541   1.29585
 Alpha virt. eigenvalues --    1.32482   1.32968   1.34329   1.34746   1.35006
 Alpha virt. eigenvalues --    1.35371   1.37131   1.39081   1.40237   1.45721
 Alpha virt. eigenvalues --    1.46326   1.46470   1.47535   1.47572   1.50734
 Alpha virt. eigenvalues --    1.51789   1.52222   1.53127   1.53667   1.56187
 Alpha virt. eigenvalues --    1.58620   1.60228   1.72543   1.74140   1.75125
 Alpha virt. eigenvalues --    1.75946   1.76193   1.79432   1.79584   1.79903
 Alpha virt. eigenvalues --    1.81664   1.82733   1.84977   1.85292   1.86790
 Alpha virt. eigenvalues --    1.88331   1.89545   1.91350   1.92109   1.92680
 Alpha virt. eigenvalues --    1.93778   1.95152   1.96366   1.96741   1.98464
 Alpha virt. eigenvalues --    1.98465   2.00091   2.03493   2.04658   2.04939
 Alpha virt. eigenvalues --    2.04950   2.08855   2.09701   2.11190   2.12282
 Alpha virt. eigenvalues --    2.12550   2.18050   2.18680   2.21452   2.27419
 Alpha virt. eigenvalues --    2.29401   2.30086   2.50455   2.70455   2.82699
 Alpha virt. eigenvalues --    2.86898   2.90322   2.92447   2.95930   3.04643
          Condensed to atoms (all electrons):
              1          2          3          4          5          6
     1  Si  13.590957   0.051745   0.017710   0.004278   0.062555   0.148281
     2  Si   0.051745  13.590957   0.004278   0.017710   0.148281   0.062555
     3  Si   0.017710   0.004278  13.590957   0.051745   0.062555   0.148281
     4  Si   0.004278   0.017710   0.051745  13.590957   0.148281   0.062555
     5  Si   0.062555   0.148281   0.062555   0.148281  13.262486  -0.004369
     6  Si   0.148281   0.062555   0.148281   0.062555  -0.004369  13.262486
     7  Si   0.133915  -0.013515   0.133915  -0.013515   0.263430  -0.009848
     8  Si  -0.013515   0.133915  -0.013515   0.133915  -0.009848   0.263430
              7          8
     1  Si   0.133915  -0.013515
     2  Si  -0.013515   0.133915
     3  Si   0.133915  -0.013515
     4  Si  -0.013515   0.133915
     5  Si   0.263430  -0.009848
     6  Si  -0.009848   0.263430
     7  Si  13.578979   0.001416
     8  Si   0.001416  13.578979
 Mulliken atomic charges:
              1
     1  Si   0.004073
     2  Si   0.004073
     3  Si   0.004073
     4  Si   0.004073
     5  Si   0.066630
     6  Si   0.066630
     7  Si  -0.074777
     8  Si  -0.074777
 Sum of Mulliken atomic charges =   0.00000
 Mulliken charges with hydrogens summed into heavy atoms:
              1
     1  Si   0.004073
     2  Si   0.004073
     3  Si   0.004073
     4  Si   0.004073
     5  Si   0.066630
     6  Si   0.066630
     7  Si  -0.074777
     8  Si  -0.074777
 Sum of Mulliken charges with hydrogens summed into heavy atoms =   0.00000
 Electronic spatial extent (au):  <R**2>=           2077.1877
 Charge=              0.0000 electrons
 Dipole moment (field-independent basis, Debye):
    X=              0.0000    Y=              0.0000    Z=              0.0000  Tot=              0.0000
 Quadrupole moment (field-independent basis, Debye-Ang):
   XX=           -102.3269   YY=           -110.3465   ZZ=           -105.4657
   XY=              1.4101   XZ=              0.0000   YZ=              0.0000
 Traceless Quadrupole moment (field-independent basis, Debye-Ang):
   XX=              3.7194   YY=             -4.3001   ZZ=              0.5807
   XY=              1.4101   XZ=              0.0000   YZ=              0.0000
 Octapole moment (field-independent basis, Debye-Ang**2):
  XXX=              0.0000  YYY=              0.0000  ZZZ=              0.0000  XYY=              0.0000
  XXY=              0.0000  XXZ=              0.0000  XZZ=              0.0000  YZZ=              0.0000
  YYZ=              0.0000  XYZ=              0.0000
 Hexadecapole moment (field-independent basis, Debye-Ang**3):
 XXXX=           -638.5081 YYYY=          -2063.3813 ZZZZ=           -882.9436 XXXY=             74.7704
 XXXZ=              0.0000 YYYX=            110.4258 YYYZ=              0.0000 ZZZX=              0.0000
 ZZZY=              0.0000 XXYY=           -445.3635 XXZZ=           -263.0528 YYZZ=           -474.9718
 XXYZ=              0.0000 YYXZ=              0.0000 ZZXY=              8.1220
 N-N= 9.930161744507D+02 E-N=-7.499102592816D+03  KE= 2.307822598589D+03
 Symmetry AG   KE= 8.163686542503D+02
 Symmetry BG   KE= 3.372510094141D+02
 Symmetry AU   KE= 3.391812966602D+02
 Symmetry BU   KE= 8.150216382640D+02
 Calling FoFJK, ICntrl=      2127 FMM=F ISym2X=1 I1Cent= 0 IOpClX= 0 NMat=1 NMatS=1 NMatT=0.
 ***** Axes restored to original set *****
 -------------------------------------------------------------------
 Center     Atomic                   Forces (Hartrees/Bohr)
 Number     Number              X              Y              Z
 -------------------------------------------------------------------
      1       14          -0.001499899    0.000231869   -0.001632341
      2       14           0.001499899   -0.000231869   -0.001632341
      3       14          -0.001499899    0.000231869    0.001632341
      4       14           0.001499899   -0.000231869    0.001632341
      5       14           0.002479397   -0.000078040    0.000000000
      6       14          -0.002479397    0.000078040    0.000000000
      7       14           0.000886384   -0.000760096    0.000000000
      8       14          -0.000886384    0.000760096    0.000000000
 -------------------------------------------------------------------
 Cartesian Forces:  Max     0.002479397 RMS     0.001205989

 GradGradGradGradGradGradGradGradGradGradGradGradGradGradGradGradGradGrad
 Berny optimization.
 Internal  Forces:  Max     0.001023823 RMS     0.000387380
 Search for a local minimum.
 Step number   1 out of a maximum of   70
 All quantities printed in internal units (Hartrees-Bohrs-Radians)
 Mixed Optimization -- En-DIIS/RFO-DIIS
 Second derivative matrix not updated -- first step.
     Eigenvalues ---    0.03587   0.04996   0.05490   0.06298   0.07292
     Eigenvalues ---    0.08238   0.08908   0.09106   0.09581   0.09686
     Eigenvalues ---    0.10036   0.10056   0.10156   0.11599   0.12203
     Eigenvalues ---    0.14107   0.15132   0.152951000.000001000.00000
     Eigenvalues --- 1000.000001000.000001000.000001000.000001000.00000
     Eigenvalues --- 1000.000001000.000001000.000001000.000001000.00000
     Eigenvalues --- 1000.000001000.000001000.000001000.000001000.00000
     Eigenvalues --- 1000.000001000.000001000.000001000.000001000.00000
     Eigenvalues --- 1000.000001000.000001000.000001000.000001000.00000
     Eigenvalues --- 1000.000001000.000001000.000001000.000001000.00000
     Eigenvalues --- 1000.000001000.000001000.000001000.000001000.00000
     Eigenvalues --- 1000.000001000.000001000.000001000.000001000.00000
 RFO step:  Lambda=-1.03500175D-04 EMin= 3.58735494D-02
 Linear search not attempted -- first point.
 Iteration  1 RMS(Cart)=  0.00239857 RMS(Int)=  0.00000407
 Iteration  2 RMS(Cart)=  0.00000175 RMS(Int)=  0.00000303
 Iteration  3 RMS(Cart)=  0.00000000 RMS(Int)=  0.00000303
 ClnCor:  largest displacement from symmetrization is 3.19D-12 for atom     8.
 Variable       Old X    -DE/DX   Delta X   Delta X   Delta X     New X
                                 (Linear)    (Quad)   (Total)
    R1        5.37577  -0.00020   0.00000  -0.00253  -0.00253   5.37324
    R2        5.51232  -0.00067   0.00000  -0.00877  -0.00877   5.50355
    R3        4.78559  -0.00102   0.00000  -0.01139  -0.01139   4.77420
    R4        4.57472   0.00006   0.00000  -0.00140  -0.00140   4.57331
    R5        4.70880  -0.00075   0.00000  -0.00891  -0.00891   4.69990
    R6        5.51232  -0.00067   0.00000  -0.00877  -0.00877   5.50355
    R7        4.57472   0.00006   0.00000  -0.00140  -0.00140   4.57331
    R8        4.78559  -0.00102   0.00000  -0.01139  -0.01139   4.77420
    R9        4.70880  -0.00075   0.00000  -0.00891  -0.00891   4.69990
   R10        5.37577  -0.00020   0.00000  -0.00253  -0.00253   5.37324
   R11        4.78559  -0.00102   0.00000  -0.01139  -0.01139   4.77420
   R12        4.57472   0.00006   0.00000  -0.00140  -0.00140   4.57331
   R13        4.70880  -0.00075   0.00000  -0.00891  -0.00891   4.69990
   R14        4.57472   0.00006   0.00000  -0.00140  -0.00140   4.57331
   R15        4.78559  -0.00102   0.00000  -0.01139  -0.01139   4.77420
   R16        4.70880  -0.00075   0.00000  -0.00891  -0.00891   4.69990
   R17        5.32684  -0.00085   0.00000  -0.01125  -0.01125   5.31559
   R18        4.30986   0.00007   0.00000  -0.00002  -0.00003   4.30983
   R19        4.30986   0.00007   0.00000  -0.00002  -0.00003   4.30983
    A1        1.57080   0.00000   0.00000   0.00000   0.00000   1.57080
    A2        1.85924   0.00034   0.00000   0.00317   0.00318   1.86241
    A3        1.81736   0.00012   0.00000   0.00113   0.00113   1.81849
    A4        1.57080   0.00000   0.00000   0.00000   0.00000   1.57080
    A5        1.85924   0.00034   0.00000   0.00317   0.00318   1.86241
    A6        1.81736   0.00012   0.00000   0.00113   0.00113   1.81849
    A7        1.57080   0.00000   0.00000   0.00000   0.00000   1.57080
    A8        1.85924   0.00034   0.00000   0.00317   0.00318   1.86241
    A9        1.81736   0.00012   0.00000   0.00113   0.00113   1.81849
   A10        1.57080   0.00000   0.00000   0.00000   0.00000   1.57080
   A11        1.85924   0.00034   0.00000   0.00317   0.00318   1.86241
   A12        1.81736   0.00012   0.00000   0.00113   0.00113   1.81849
   A13        1.93153   0.00007   0.00000   0.00096   0.00097   1.93250
   A14        1.93153   0.00007   0.00000   0.00096   0.00097   1.93250
   A15        2.28974   0.00008   0.00000   0.00101   0.00101   2.29075
   A16        2.28974   0.00008   0.00000   0.00101   0.00101   2.29075
   A17        1.71649   0.00014   0.00000   0.00135   0.00135   1.71784
   A18        1.93153   0.00007   0.00000   0.00096   0.00097   1.93250
   A19        2.28974   0.00008   0.00000   0.00101   0.00101   2.29075
   A20        1.93153   0.00007   0.00000   0.00096   0.00097   1.93250
   A21        2.28974   0.00008   0.00000   0.00101   0.00101   2.29075
   A22        1.71649   0.00014   0.00000   0.00135   0.00135   1.71784
    D1        0.00000   0.00000   0.00000   0.00000   0.00000   0.00000
    D2        0.91405  -0.00011   0.00000  -0.00096  -0.00096   0.91309
    D3        0.91405  -0.00011   0.00000  -0.00096  -0.00096   0.91309
    D4        1.82810  -0.00021   0.00000  -0.00192  -0.00193   1.82617
    D5        0.00000   0.00000   0.00000   0.00000   0.00000   0.00000
    D6       -0.73329  -0.00012   0.00000  -0.00119  -0.00119  -0.73448
    D7       -1.96301  -0.00012   0.00000  -0.00129  -0.00129  -1.96430
    D8        0.00000   0.00000   0.00000   0.00000   0.00000   0.00000
    D9       -0.73329  -0.00012   0.00000  -0.00119  -0.00119  -0.73448
   D10       -1.96301  -0.00012   0.00000  -0.00129  -0.00129  -1.96430
   D11        0.00000   0.00000   0.00000   0.00000   0.00000   0.00000
   D12       -0.91405   0.00011   0.00000   0.00096   0.00096  -0.91309
   D13       -0.91405   0.00011   0.00000   0.00096   0.00096  -0.91309
   D14       -1.82810   0.00021   0.00000   0.00192   0.00193  -1.82617
   D15        0.73329   0.00012   0.00000   0.00119   0.00119   0.73448
   D16        1.96301   0.00012   0.00000   0.00129   0.00129   1.96430
   D17        0.73329   0.00012   0.00000   0.00119   0.00119   0.73448
   D18        1.96301   0.00012   0.00000   0.00129   0.00129   1.96430
   D19        3.14159   0.00000   0.00000   0.00000   0.00000   3.14159
         Item               Value     Threshold  Converged?
 Maximum Force            0.001024     0.000450     NO 
 RMS     Force            0.000387     0.000300     NO 
 Maximum Displacement     0.006174     0.001800     NO 
 RMS     Displacement     0.002399     0.001200     NO 
 Predicted change in Energy=-5.181423D-05
 GradGradGradGradGradGradGradGradGradGradGradGradGradGradGradGradGradGrad

                          Input orientation:                          
 ---------------------------------------------------------------------
 Center     Atomic      Atomic             Coordinates (Angstroms)
 Number     Number       Type             X           Y           Z
 ---------------------------------------------------------------------
      1         14           0        0.799353    1.175697    1.456177
      2         14           0       -0.799353   -1.175697    1.456177
      3         14           0        0.799353    1.175697   -1.456177
      4         14           0       -0.799353   -1.175697   -1.456177
      5         14           0       -1.212555    0.712600    0.000000
      6         14           0        1.212555   -0.712600    0.000000
      7         14           0       -0.357578    2.826944    0.000000
      8         14           0        0.357578   -2.826944    0.000000
 ---------------------------------------------------------------------
                    Distance matrix (angstroms):
                    1          2          3          4          5
     1  Si   0.000000
     2  Si   2.843397   0.000000
     3  Si   2.912354   4.070223   0.000000
     4  Si   4.070223   2.912354   2.843397   0.000000
     5  Si   2.526397   2.420093   2.526397   2.420093   0.000000
     6  Si   2.420093   2.526397   2.420093   2.526397   2.812890
     7  Si   2.487078   4.282143   2.487078   4.282143   2.280665
     8  Si   4.282143   2.487078   4.282143   2.487078   3.872169
                    6          7          8
     6  Si   0.000000
     7  Si   3.872169   0.000000
     8  Si   2.280665   5.698938   0.000000
 Stoichiometry    Si8
 Framework group  C2H[SGH(Si4),X(Si4)]
 Deg. of freedom     6
 Full point group                 C2H     NOp   4
 Largest Abelian subgroup         C2H     NOp   4
 Largest concise Abelian subgroup C2H     NOp   4
                         Standard orientation:                         
 ---------------------------------------------------------------------
 Center     Atomic      Atomic             Coordinates (Angstroms)
 Number     Number       Type             X           Y           Z
 ---------------------------------------------------------------------
      1         14           0        0.665549    1.256293    1.456177
      2         14           0       -0.665549   -1.256293    1.456177
      3         14           0        0.665549    1.256293   -1.456177
      4         14           0       -0.665549   -1.256293   -1.456177
      5         14           0       -1.283412    0.575276    0.000000
      6         14           0        1.283412   -0.575276    0.000000
      7         14           0       -0.665549    2.770653    0.000000
      8         14           0        0.665549   -2.770653    0.000000
 ---------------------------------------------------------------------
 Rotational constants (GHZ):      1.2690868      0.6387593      0.5825321
 Standard basis: GTBas3 (6D, 7F)
 There are    76 symmetry adapted basis functions of AG  symmetry.
 There are    52 symmetry adapted basis functions of BG  symmetry.
 There are    52 symmetry adapted basis functions of AU  symmetry.
 There are    76 symmetry adapted basis functions of BU  symmetry.
 Integral buffers will be    131072 words long.
 Raffenetti 2 integral format.
 Two-electron integral symmetry is turned on.
   256 basis functions,   544 primitive gaussians,   280 cartesian basis functions
    56 alpha electrons       56 beta electrons
       nuclear repulsion energy       994.0863799834 Hartrees.
 NAtoms=    8 NActive=    8 NUniq=    3 SFac= 3.00D+00 NAtFMM=   80 NAOKFM=F Big=F
 One-electron integrals computed using PRISM.
 NBasis=   256 RedAO= T  NBF=    76    52    52    76
 NBsUse=   256 1.00D-06 NBFU=    76    52    52    76
 Initial guess read from the read-write file.
 B after Tr=     0.000000    0.000000    0.000000
         Rot=    1.000000    0.000000    0.000000    0.000000 Ang=   0.00 deg.
 Initial guess orbital symmetries:
       Occupied  (BG) (BU) (AU) (AG) (AG) (BU) (AG) (BU) (AG) (BU)
                 (AU) (BU) (AG) (BG) (AG) (BU) (AG) (BU) (AU) (BG)
                 (BU) (AG) (AU) (BG) (BU) (AG) (BG) (AU) (AG) (BU)
                 (AU) (BU) (BG) (AG) (AU) (BG) (AG) (BU) (BU) (AG)
                 (AG) (BU) (AU) (BU) (AG) (BG) (AG) (BU) (BG) (AG)
                 (AG) (BU) (AU) (AG) (BU) (AU)
       Virtual   (BU) (AU) (BG) (AG) (BU) (BG) (AU) (BU) (AG) (BU)
                 (BG) (AG) (BG) (BU) (AU) (AG) (AG) (AG) (AU) (BU)
                 (BG) (AG) (AG) (BU) (AU) (BG) (BU) (BU) (AG) (AU)
                 (BG) (BU) (AG) (AU) (BU) (AG) (BG) (AU) (AG) (BU)
                 (BU) (BG) (AG) (BU) (AU) (BG) (AU) (AG) (BG) (AU)
                 (BU) (BU) (AG) (BG) (AU) (BU) (AG) (AG) (BG) (BU)
                 (AU) (AG) (BU) (BG) (AU) (AG) (BG) (AG) (BU) (BU)
                 (BG) (BU) (AU) (AG) (AU) (BG) (BU) (BG) (AG) (AG)
                 (BU) (AU) (AG) (AU) (BG) (BU) (AG) (BU) (AG) (BG)
                 (AG) (BU) (AU) (BU) (AG) (AU) (AG) (BU) (AU) (BG)
                 (AG) (AU) (BU) (BU) (BG) (BU) (AG) (AG) (BU) (BG)
                 (AU) (AU) (BG) (BU) (AU) (AG) (BU) (BG) (BG) (AG)
                 (AU) (BG) (AG) (AG) (BU) (BU) (AU) (BG) (BU) (AG)
                 (AU) (BG) (BU) (AG) (AU) (AG) (BG) (AG) (BU) (BG)
                 (BG) (AU) (BU) (AU) (AG) (BU) (AG) (BG) (BU) (AU)
                 (AG) (BU) (AU) (BU) (AG) (BG) (AG) (BU) (BG) (AU)
                 (BU) (AG) (BG) (AU) (BU) (AG) (BG) (BU) (AG) (AG)
                 (AU) (AU) (BG) (AG) (AU) (BU) (AG) (BU) (BG) (BU)
                 (AU) (AU) (AG) (BU) (AU) (BG) (BU) (AG) (BG) (BU)
                 (AG) (BG) (AG) (BU) (AU) (BG) (AG) (BU) (BU) (AG)
 Requested convergence on RMS density matrix=1.00D-08 within 128 cycles.
 Requested convergence on MAX density matrix=1.00D-06.
 Requested convergence on             energy=1.00D-06.
 No special actions if energy rises.
 Keep R1 ints in memory in canonical form, NReq=785253056.
 SCF Done:  E(RB3LYP) =  -2315.90847752     A.U. after   10 cycles
             Convg  =    0.2459D-08             -V/T =  2.0035
 QCSCF skips out because SCF is already converged.
 Calling FoFJK, ICntrl=      2127 FMM=F ISym2X=1 I1Cent= 0 IOpClX= 0 NMat=1 NMatS=1 NMatT=0.
 ***** Axes restored to original set *****
 -------------------------------------------------------------------
 Center     Atomic                   Forces (Hartrees/Bohr)
 Number     Number              X              Y              Z
 -------------------------------------------------------------------
      1       14          -0.000833854    0.000082827   -0.001004063
      2       14           0.000833854   -0.000082827   -0.001004063
      3       14          -0.000833854    0.000082827    0.001004063
      4       14           0.000833854   -0.000082827    0.001004063
      5       14           0.001532548   -0.000184652    0.000000000
      6       14          -0.001532548    0.000184652    0.000000000
      7       14           0.000490456   -0.000424976    0.000000000
      8       14          -0.000490456    0.000424976    0.000000000
 -------------------------------------------------------------------
 Cartesian Forces:  Max     0.001532548 RMS     0.000720219

 GradGradGradGradGradGradGradGradGradGradGradGradGradGradGradGradGradGrad
 Berny optimization.
 Using GEDIIS/GDIIS optimizer.
 Internal  Forces:  Max     0.000590188 RMS     0.000226006
 Search for a local minimum.
 Step number   2 out of a maximum of   70
 All quantities printed in internal units (Hartrees-Bohrs-Radians)
 Mixed Optimization -- En-DIIS/RFO-DIIS
 Swaping is turned off.
 Update second derivatives using D2CorX and points    1    2
 DE= -8.23D-05 DEPred=-5.18D-05 R= 1.59D+00
 SS=  1.41D+00  RLast= 3.49D-02 DXNew= 5.0454D-01 1.0470D-01
 Trust test= 1.59D+00 RLast= 3.49D-02 DXMaxT set to 3.00D-01
     Eigenvalues ---    0.03357   0.03579   0.04981   0.05528   0.06300
     Eigenvalues ---    0.07529   0.08910   0.09104   0.09478   0.09680
     Eigenvalues ---    0.10028   0.10060   0.10154   0.11606   0.12044
     Eigenvalues ---    0.14113   0.15074   0.152951000.000001000.00000
     Eigenvalues --- 1000.000001000.000001000.000001000.000001000.00000
     Eigenvalues --- 1000.000001000.000001000.000001000.000001000.00000
     Eigenvalues --- 1000.000001000.000001000.000001000.000001000.00000
     Eigenvalues --- 1000.000001000.000001000.000001000.000001000.00000
     Eigenvalues --- 1000.000001000.000001000.000001000.000001000.00000
     Eigenvalues --- 1000.000001000.000001000.000001000.000001000.00000
     Eigenvalues --- 1000.000001000.000001000.000001000.000001000.00000
     Eigenvalues --- 1000.000001000.000001000.000001000.000001000.00000
 En-DIIS/RFO-DIIS IScMMF=        0 using points:     2    1
 RFO step:  Lambda=-1.64103644D-05.
 DIIS coeffs:      2.42887     -1.42887
 Iteration  1 RMS(Cart)=  0.00340490 RMS(Int)=  0.00001064
 Iteration  2 RMS(Cart)=  0.00000316 RMS(Int)=  0.00000945
 Iteration  3 RMS(Cart)=  0.00000000 RMS(Int)=  0.00000945
 ClnCor:  largest displacement from symmetrization is 3.99D-12 for atom     8.
 Variable       Old X    -DE/DX   Delta X   Delta X   Delta X     New X
                                  (DIIS)     (GDIIS)  (Total)
    R1        5.37324  -0.00011  -0.00361   0.00023  -0.00338   5.36987
    R2        5.50355  -0.00042  -0.01253  -0.00115  -0.01370   5.48985
    R3        4.77420  -0.00059  -0.01628  -0.00010  -0.01638   4.75782
    R4        4.57331  -0.00003  -0.00200  -0.00151  -0.00352   4.56980
    R5        4.69990  -0.00042  -0.01272   0.00027  -0.01245   4.68745
    R6        5.50355  -0.00042  -0.01253  -0.00115  -0.01370   5.48985
    R7        4.57331  -0.00003  -0.00200  -0.00151  -0.00352   4.56980
    R8        4.77420  -0.00059  -0.01628  -0.00010  -0.01638   4.75782
    R9        4.69990  -0.00042  -0.01272   0.00027  -0.01245   4.68745
   R10        5.37324  -0.00011  -0.00361   0.00023  -0.00338   5.36987
   R11        4.77420  -0.00059  -0.01628  -0.00010  -0.01638   4.75782
   R12        4.57331  -0.00003  -0.00200  -0.00151  -0.00352   4.56980
   R13        4.69990  -0.00042  -0.01272   0.00027  -0.01245   4.68745
   R14        4.57331  -0.00003  -0.00200  -0.00151  -0.00352   4.56980
   R15        4.77420  -0.00059  -0.01628  -0.00010  -0.01638   4.75782
   R16        4.69990  -0.00042  -0.01272   0.00027  -0.01245   4.68745
   R17        5.31559  -0.00057  -0.01607  -0.00181  -0.01787   5.29772
   R18        4.30983   0.00004  -0.00004   0.00021   0.00015   4.30999
   R19        4.30983   0.00004  -0.00004   0.00021   0.00015   4.30999
    A1        1.57080   0.00000   0.00000   0.00000   0.00000   1.57080
    A2        1.86241   0.00018   0.00454  -0.00037   0.00417   1.86659
    A3        1.81849   0.00006   0.00161  -0.00003   0.00159   1.82007
    A4        1.57080   0.00000   0.00000   0.00000   0.00000   1.57080
    A5        1.86241   0.00018   0.00454  -0.00037   0.00417   1.86659
    A6        1.81849   0.00006   0.00161  -0.00003   0.00159   1.82007
    A7        1.57080   0.00000   0.00000   0.00000   0.00000   1.57080
    A8        1.86241   0.00018   0.00454  -0.00037   0.00417   1.86659
    A9        1.81849   0.00006   0.00161  -0.00003   0.00159   1.82007
   A10        1.57080   0.00000   0.00000   0.00000   0.00000   1.57080
   A11        1.86241   0.00018   0.00454  -0.00037   0.00417   1.86659
   A12        1.81849   0.00006   0.00161  -0.00003   0.00159   1.82007
   A13        1.93250   0.00005   0.00138   0.00024   0.00163   1.93413
   A14        1.93250   0.00005   0.00138   0.00024   0.00163   1.93413
   A15        2.29075   0.00006   0.00145   0.00026   0.00170   2.29245
   A16        2.29075   0.00006   0.00145   0.00026   0.00170   2.29245
   A17        1.71784   0.00008   0.00193   0.00009   0.00203   1.71987
   A18        1.93250   0.00005   0.00138   0.00024   0.00163   1.93413
   A19        2.29075   0.00006   0.00145   0.00026   0.00170   2.29245
   A20        1.93250   0.00005   0.00138   0.00024   0.00163   1.93413
   A21        2.29075   0.00006   0.00145   0.00026   0.00170   2.29245
   A22        1.71784   0.00008   0.00193   0.00009   0.00203   1.71987
    D1        0.00000   0.00000   0.00000   0.00000   0.00000   0.00000
    D2        0.91309  -0.00005  -0.00138   0.00029  -0.00110   0.91199
    D3        0.91309  -0.00005  -0.00138   0.00029  -0.00110   0.91199
    D4        1.82617  -0.00011  -0.00275   0.00058  -0.00220   1.82397
    D5        0.00000   0.00000   0.00000   0.00000   0.00000   0.00000
    D6       -0.73448  -0.00007  -0.00170   0.00012  -0.00158  -0.73606
    D7       -1.96430  -0.00008  -0.00185  -0.00017  -0.00203  -1.96633
    D8        0.00000   0.00000   0.00000   0.00000   0.00000   0.00000
    D9       -0.73448  -0.00007  -0.00170   0.00012  -0.00158  -0.73606
   D10       -1.96430  -0.00008  -0.00185  -0.00017  -0.00203  -1.96633
   D11        0.00000   0.00000   0.00000   0.00000   0.00000   0.00000
   D12       -0.91309   0.00005   0.00138  -0.00029   0.00110  -0.91199
   D13       -0.91309   0.00005   0.00138  -0.00029   0.00110  -0.91199
   D14       -1.82617   0.00011   0.00275  -0.00058   0.00220  -1.82397
   D15        0.73448   0.00007   0.00170  -0.00012   0.00158   0.73606
   D16        1.96430   0.00008   0.00185   0.00017   0.00203   1.96633
   D17        0.73448   0.00007   0.00170  -0.00012   0.00158   0.73606
   D18        1.96430   0.00008   0.00185   0.00017   0.00203   1.96633
   D19        3.14159   0.00000   0.00000   0.00000   0.00000   3.14159
         Item               Value     Threshold  Converged?
 Maximum Force            0.000590     0.000450     NO 
 RMS     Force            0.000226     0.000300     YES
 Maximum Displacement     0.009349     0.001800     NO 
 RMS     Displacement     0.003405     0.001200     NO 
 Predicted change in Energy=-4.428552D-05
 GradGradGradGradGradGradGradGradGradGradGradGradGradGradGradGradGradGrad

                          Input orientation:                          
 ---------------------------------------------------------------------
 Center     Atomic      Atomic             Coordinates (Angstroms)
 Number     Number       Type             X           Y           Z
 ---------------------------------------------------------------------
      1         14           0        0.795466    1.177252    1.452553
      2         14           0       -0.795466   -1.177252    1.452553
      3         14           0        0.795466    1.177252   -1.452553
      4         14           0       -0.795466   -1.177252   -1.452553
      5         14           0       -1.207607    0.711683    0.000000
      6         14           0        1.207607   -0.711683    0.000000
      7         14           0       -0.354300    2.826788    0.000000
      8         14           0        0.354300   -2.826788    0.000000
 ---------------------------------------------------------------------
                    Distance matrix (angstroms):
                    1          2          3          4          5
     1  Si   0.000000
     2  Si   2.841611   0.000000
     3  Si   2.905106   4.063790   0.000000
     4  Si   4.063790   2.905106   2.841611   0.000000
     5  Si   2.517731   2.418232   2.517731   2.418232   0.000000
     6  Si   2.418232   2.517731   2.418232   2.517731   2.803432
     7  Si   2.480492   4.282158   2.480492   4.282158   2.280746
     8  Si   4.282158   2.480492   4.282158   2.480492   3.867858
                    6          7          8
     6  Si   0.000000
     7  Si   3.867858   0.000000
     8  Si   2.280746   5.697809   0.000000
 Stoichiometry    Si8
 Framework group  C2H[SGH(Si4),X(Si4)]
 Deg. of freedom     6
 Full point group                 C2H     NOp   4
 Largest Abelian subgroup         C2H     NOp   4
 Largest concise Abelian subgroup C2H     NOp   4
                         Standard orientation:                         
 ---------------------------------------------------------------------
 Center     Atomic      Atomic             Coordinates (Angstroms)
 Number     Number       Type             X           Y           Z
 ---------------------------------------------------------------------
      1         14           0        0.661751    1.257288    1.452553
      2         14           0       -0.661751   -1.257288    1.452553
      3         14           0        0.661751    1.257288   -1.452553
      4         14           0       -0.661751   -1.257288   -1.452553
      5         14           0       -1.278285    0.575148    0.000000
      6         14           0        1.278285   -0.575148    0.000000
      7         14           0       -0.661751    2.770982    0.000000
      8         14           0        0.661751   -2.770982    0.000000
 ---------------------------------------------------------------------
 Rotational constants (GHZ):      1.2776686      0.6397354      0.5831315
 Standard basis: GTBas3 (6D, 7F)
 There are    76 symmetry adapted basis functions of AG  symmetry.
 There are    52 symmetry adapted basis functions of BG  symmetry.
 There are    52 symmetry adapted basis functions of AU  symmetry.
 There are    76 symmetry adapted basis functions of BU  symmetry.
 Integral buffers will be    131072 words long.
 Raffenetti 2 integral format.
 Two-electron integral symmetry is turned on.
   256 basis functions,   544 primitive gaussians,   280 cartesian basis functions
    56 alpha electrons       56 beta electrons
       nuclear repulsion energy       995.7149478387 Hartrees.
 NAtoms=    8 NActive=    8 NUniq=    3 SFac= 3.00D+00 NAtFMM=   80 NAOKFM=F Big=F
 One-electron integrals computed using PRISM.
 NBasis=   256 RedAO= T  NBF=    76    52    52    76
 NBsUse=   256 1.00D-06 NBFU=    76    52    52    76
 Initial guess read from the read-write file.
 B after Tr=     0.000000    0.000000    0.000000
         Rot=    1.000000    0.000000    0.000000    0.000000 Ang=   0.00 deg.
 Initial guess orbital symmetries:
       Occupied  (BG) (BU) (AU) (AG) (AG) (BU) (AG) (BU) (AG) (BU)
                 (AU) (BU) (AG) (BG) (AG) (BU) (AG) (BU) (AU) (BG)
                 (BU) (AG) (AU) (BG) (BU) (AG) (BG) (AU) (AG) (BU)
                 (AU) (BU) (BG) (AG) (AU) (BG) (AG) (BU) (BU) (AG)
                 (AG) (BU) (AU) (BU) (AG) (BG) (AG) (BU) (BG) (AG)
                 (AG) (BU) (AU) (AG) (BU) (AU)
       Virtual   (BU) (AU) (BG) (AG) (BU) (BG) (AU) (BU) (AG) (BU)
                 (BG) (AG) (BG) (BU) (AU) (AG) (AG) (AG) (AU) (BU)
                 (BG) (AG) (AG) (BU) (AU) (BG) (BU) (BU) (AG) (AU)
                 (BG) (BU) (AG) (AU) (BU) (AG) (BG) (AU) (AG) (BU)
                 (BU) (BG) (AG) (BU) (AU) (BG) (AU) (AG) (BG) (AU)
                 (BU) (BU) (AG) (BG) (AU) (BU) (AG) (AG) (BG) (BU)
                 (AU) (AG) (BU) (BG) (AU) (AG) (BG) (AG) (BU) (BU)
                 (BG) (BU) (AU) (AG) (AU) (BG) (BU) (BG) (AG) (AG)
                 (BU) (AU) (AG) (AU) (BG) (BU) (AG) (BU) (AG) (BG)
                 (AG) (BU) (AU) (BU) (AG) (AU) (AG) (BU) (AU) (BG)
                 (AG) (AU) (BU) (BU) (BG) (BU) (AG) (AG) (BU) (BG)
                 (AU) (BG) (AU) (BU) (AU) (AG) (BU) (BG) (BG) (AG)
                 (AU) (BG) (AG) (AG) (BU) (BU) (AU) (BG) (BU) (AG)
                 (AU) (BG) (BU) (AG) (AU) (AG) (BG) (AG) (BU) (BG)
                 (BG) (AU) (BU) (AU) (AG) (BU) (AG) (BG) (BU) (AU)
                 (AG) (BU) (AU) (BU) (AG) (BG) (AG) (BG) (BU) (AU)
                 (BU) (AG) (BG) (AU) (BU) (AG) (BG) (BU) (AG) (AG)
                 (AU) (AU) (BG) (AG) (BU) (AU) (AG) (BU) (BG) (BU)
                 (AU) (AU) (AG) (BU) (AU) (BG) (BU) (AG) (BG) (BU)
                 (AG) (BG) (AG) (BU) (AU) (BG) (AG) (BU) (BU) (AG)
 Requested convergence on RMS density matrix=1.00D-08 within 128 cycles.
 Requested convergence on MAX density matrix=1.00D-06.
 Requested convergence on             energy=1.00D-06.
 No special actions if energy rises.
 Keep R1 ints in memory in canonical form, NReq=785253056.
 SCF Done:  E(RB3LYP) =  -2315.90852152     A.U. after   10 cycles
             Convg  =    0.2834D-08             -V/T =  2.0035
 QCSCF skips out because SCF is already converged.
 Calling FoFJK, ICntrl=      2127 FMM=F ISym2X=1 I1Cent= 0 IOpClX= 0 NMat=1 NMatS=1 NMatT=0.
 ***** Axes restored to original set *****
 -------------------------------------------------------------------
 Center     Atomic                   Forces (Hartrees/Bohr)
 Number     Number              X              Y              Z
 -------------------------------------------------------------------
      1       14           0.000118857   -0.000032582   -0.000028672
      2       14          -0.000118857    0.000032582   -0.000028672
      3       14           0.000118857   -0.000032582    0.000028672
      4       14          -0.000118857    0.000032582    0.000028672
      5       14           0.000117267   -0.000205151    0.000000000
      6       14          -0.000117267    0.000205151    0.000000000
      7       14          -0.000061510    0.000042106    0.000000000
      8       14           0.000061510   -0.000042106    0.000000000
 -------------------------------------------------------------------
 Cartesian Forces:  Max     0.000205151 RMS     0.000088231

 GradGradGradGradGradGradGradGradGradGradGradGradGradGradGradGradGradGrad
 Berny optimization.
 Using GEDIIS/GDIIS optimizer.
 Internal  Forces:  Max     0.000118093 RMS     0.000034229
 Search for a local minimum.
 Step number   3 out of a maximum of   70
 All quantities printed in internal units (Hartrees-Bohrs-Radians)
 Mixed Optimization -- En-DIIS/RFO-DIIS
 Swaping is turned off.
 Update second derivatives using D2CorX and points    1    2    3
 DE= -4.40D-05 DEPred=-4.43D-05 R= 9.94D-01
 SS=  1.41D+00  RLast= 5.11D-02 DXNew= 5.0454D-01 1.5329D-01
 Trust test= 9.94D-01 RLast= 5.11D-02 DXMaxT set to 3.00D-01
     Eigenvalues ---    0.03296   0.03566   0.04960   0.05563   0.06303
     Eigenvalues ---    0.07523   0.08912   0.09101   0.09653   0.09673
     Eigenvalues ---    0.10019   0.10065   0.10149   0.11614   0.12146
     Eigenvalues ---    0.14121   0.15100   0.152951000.000001000.00000
     Eigenvalues --- 1000.000001000.000001000.000001000.000001000.00000
     Eigenvalues --- 1000.000001000.000001000.000001000.000001000.00000
     Eigenvalues --- 1000.000001000.000001000.000001000.000001000.00000
     Eigenvalues --- 1000.000001000.000001000.000001000.000001000.00000
     Eigenvalues --- 1000.000001000.000001000.000001000.000001000.00000
     Eigenvalues --- 1000.000001000.000001000.000001000.000001000.00000
     Eigenvalues --- 1000.000001000.000001000.000001000.000001000.00000
     Eigenvalues --- 1000.000001000.000001000.000001000.000001000.00000
 En-DIIS/RFO-DIIS IScMMF=        0 using points:     3    2    1
 RFO step:  Lambda=-2.20941620D-07.
 DIIS coeffs:      1.89400     -2.22483      1.33084
 Iteration  1 RMS(Cart)=  0.00045932 RMS(Int)=  0.00000987
 Iteration  2 RMS(Cart)=  0.00000013 RMS(Int)=  0.00000987
 ClnCor:  largest displacement from symmetrization is 6.21D-12 for atom     8.
 Variable       Old X    -DE/DX   Delta X   Delta X   Delta X     New X
                                  (DIIS)     (GDIIS)  (Total)
    R1        5.36987   0.00006   0.00035   0.00129   0.00163   5.37149
    R2        5.48985  -0.00002  -0.00057  -0.00026  -0.00083   5.48903
    R3        4.75782   0.00003   0.00052   0.00008   0.00060   4.75842
    R4        4.56980  -0.00008  -0.00128  -0.00011  -0.00138   4.56842
    R5        4.68745   0.00003   0.00072  -0.00005   0.00066   4.68811
    R6        5.48985  -0.00002  -0.00057  -0.00026  -0.00083   5.48903
    R7        4.56980  -0.00008  -0.00128  -0.00011  -0.00138   4.56842
    R8        4.75782   0.00003   0.00052   0.00008   0.00060   4.75842
    R9        4.68745   0.00003   0.00072  -0.00005   0.00066   4.68811
   R10        5.36987   0.00006   0.00035   0.00129   0.00163   5.37149
   R11        4.75782   0.00003   0.00052   0.00008   0.00060   4.75842
   R12        4.56980  -0.00008  -0.00128  -0.00011  -0.00138   4.56842
   R13        4.68745   0.00003   0.00072  -0.00005   0.00066   4.68811
   R14        4.56980  -0.00008  -0.00128  -0.00011  -0.00138   4.56842
   R15        4.75782   0.00003   0.00052   0.00008   0.00060   4.75842
   R16        4.68745   0.00003   0.00072  -0.00005   0.00066   4.68811
   R17        5.29772  -0.00012  -0.00101  -0.00108  -0.00210   5.29562
   R18        4.30999   0.00000   0.00017   0.00015   0.00033   4.31032
   R19        4.30999   0.00000   0.00017   0.00015   0.00033   4.31032
    A1        1.57080   0.00000   0.00000   0.00000   0.00000   1.57080
    A2        1.86659  -0.00004  -0.00050  -0.00018  -0.00068   1.86591
    A3        1.82007  -0.00002  -0.00008  -0.00007  -0.00016   1.81991
    A4        1.57080   0.00000   0.00000   0.00000   0.00000   1.57080
    A5        1.86659  -0.00004  -0.00050  -0.00018  -0.00068   1.86591
    A6        1.82007  -0.00002  -0.00008  -0.00007  -0.00016   1.81991
    A7        1.57080   0.00000   0.00000   0.00000   0.00000   1.57080
    A8        1.86659  -0.00004  -0.00050  -0.00018  -0.00068   1.86591
    A9        1.82007  -0.00002  -0.00008  -0.00007  -0.00016   1.81991
   A10        1.57080   0.00000   0.00000   0.00000   0.00000   1.57080
   A11        1.86659  -0.00004  -0.00050  -0.00018  -0.00068   1.86591
   A12        1.82007  -0.00002  -0.00008  -0.00007  -0.00016   1.81991
   A13        1.93413   0.00002   0.00017   0.00028   0.00044   1.93457
   A14        1.93413   0.00002   0.00017   0.00028   0.00044   1.93457
   A15        2.29245   0.00002   0.00017   0.00026   0.00044   2.29289
   A16        2.29245   0.00002   0.00017   0.00026   0.00044   2.29289
   A17        1.71987   0.00000   0.00001   0.00015   0.00015   1.72002
   A18        1.93413   0.00002   0.00017   0.00028   0.00044   1.93457
   A19        2.29245   0.00002   0.00017   0.00026   0.00044   2.29289
   A20        1.93413   0.00002   0.00017   0.00028   0.00044   1.93457
   A21        2.29245   0.00002   0.00017   0.00026   0.00044   2.29289
   A22        1.71987   0.00000   0.00001   0.00015   0.00015   1.72002
    D1        0.00000   0.00000   0.00000   0.00000   0.00000   0.00000
    D2        0.91199   0.00002   0.00030   0.00007   0.00039   0.91237
    D3        0.91199   0.00002   0.00030   0.00007   0.00039   0.91237
    D4        1.82397   0.00003   0.00060   0.00014   0.00077   1.82474
    D5        0.00000   0.00000   0.00000   0.00000   0.00000   0.00000
    D6       -0.73606   0.00001   0.00017   0.00012   0.00030  -0.73577
    D7       -1.96633  -0.00001  -0.00009  -0.00007  -0.00015  -1.96648
    D8        0.00000   0.00000   0.00000   0.00000   0.00000   0.00000
    D9       -0.73606   0.00001   0.00017   0.00012   0.00030  -0.73577
   D10       -1.96633  -0.00001  -0.00009  -0.00007  -0.00015  -1.96648
   D11        0.00000   0.00000   0.00000   0.00000   0.00000   0.00000
   D12       -0.91199  -0.00002  -0.00030  -0.00007  -0.00039  -0.91237
   D13       -0.91199  -0.00002  -0.00030  -0.00007  -0.00039  -0.91237
   D14       -1.82397  -0.00003  -0.00060  -0.00014  -0.00077  -1.82474
   D15        0.73606  -0.00001  -0.00017  -0.00012  -0.00030   0.73577
   D16        1.96633   0.00001   0.00009   0.00007   0.00015   1.96648
   D17        0.73606  -0.00001  -0.00017  -0.00012  -0.00030   0.73577
   D18        1.96633   0.00001   0.00009   0.00007   0.00015   1.96648
   D19        3.14159   0.00000   0.00000   0.00000   0.00000   3.14159
         Item               Value     Threshold  Converged?
 Maximum Force            0.000118     0.000450     YES
 RMS     Force            0.000034     0.000300     YES
 Maximum Displacement     0.001386     0.001800     YES
 RMS     Displacement     0.000459     0.001200     YES
 Predicted change in Energy=-3.928413D-08
 Optimization completed.
    -- Stationary point found.
                           ----------------------------
                           !   Optimized Parameters   !
                           ! (Angstroms and Degrees)  !
 --------------------------                            --------------------------
 ! Name  Definition              Value          Derivative Info.                !
 --------------------------------------------------------------------------------
 ! R1    R(1,2)                  2.8416         -DE/DX =    0.0001              !
 ! R2    R(1,3)                  2.9051         -DE/DX =    0.0                 !
 ! R3    R(1,5)                  2.5177         -DE/DX =    0.0                 !
 ! R4    R(1,6)                  2.4182         -DE/DX =   -0.0001              !
 ! R5    R(1,7)                  2.4805         -DE/DX =    0.0                 !
 ! R6    R(2,4)                  2.9051         -DE/DX =    0.0                 !
 ! R7    R(2,5)                  2.4182         -DE/DX =   -0.0001              !
 ! R8    R(2,6)                  2.5177         -DE/DX =    0.0                 !
 ! R9    R(2,8)                  2.4805         -DE/DX =    0.0                 !
 ! R10   R(3,4)                  2.8416         -DE/DX =    0.0001              !
 ! R11   R(3,5)                  2.5177         -DE/DX =    0.0                 !
 ! R12   R(3,6)                  2.4182         -DE/DX =   -0.0001              !
 ! R13   R(3,7)                  2.4805         -DE/DX =    0.0                 !
 ! R14   R(4,5)                  2.4182         -DE/DX =   -0.0001              !
 ! R15   R(4,6)                  2.5177         -DE/DX =    0.0                 !
 ! R16   R(4,8)                  2.4805         -DE/DX =    0.0                 !
 ! R17   R(5,6)                  2.8034         -DE/DX =   -0.0001              !
 ! R18   R(5,7)                  2.2807         -DE/DX =    0.0                 !
 ! R19   R(6,8)                  2.2807         -DE/DX =    0.0                 !
 ! A1    A(2,1,3)               90.0            -DE/DX =    0.0                 !
 ! A2    A(2,1,7)              106.9476         -DE/DX =    0.0                 !
 ! A3    A(6,1,7)              104.2825         -DE/DX =    0.0                 !
 ! A4    A(1,2,4)               90.0            -DE/DX =    0.0                 !
 ! A5    A(1,2,8)              106.9476         -DE/DX =    0.0                 !
 ! A6    A(5,2,8)              104.2825         -DE/DX =    0.0                 !
 ! A7    A(1,3,4)               90.0            -DE/DX =    0.0                 !
 ! A8    A(4,3,7)              106.9476         -DE/DX =    0.0                 !
 ! A9    A(6,3,7)              104.2825         -DE/DX =    0.0                 !
 ! A10   A(2,4,3)               90.0            -DE/DX =    0.0                 !
 ! A11   A(3,4,8)              106.9476         -DE/DX =    0.0                 !
 ! A12   A(5,4,8)              104.2825         -DE/DX =    0.0                 !
 ! A13   A(1,5,4)              110.8175         -DE/DX =    0.0                 !
 ! A14   A(2,5,3)              110.8175         -DE/DX =    0.0                 !
 ! A15   A(2,5,7)              131.3478         -DE/DX =    0.0                 !
 ! A16   A(4,5,7)              131.3478         -DE/DX =    0.0                 !
 ! A17   A(6,5,7)               98.5414         -DE/DX =    0.0                 !
 ! A18   A(1,6,4)              110.8175         -DE/DX =    0.0                 !
 ! A19   A(1,6,8)              131.3478         -DE/DX =    0.0                 !
 ! A20   A(2,6,3)              110.8175         -DE/DX =    0.0                 !
 ! A21   A(3,6,8)              131.3478         -DE/DX =    0.0                 !
 ! A22   A(5,6,8)               98.5414         -DE/DX =    0.0                 !
 ! D1    D(3,1,2,4)              0.0            -DE/DX =    0.0                 !
 ! D2    D(3,1,2,8)             52.253          -DE/DX =    0.0                 !
 ! D3    D(7,1,2,4)             52.253          -DE/DX =    0.0                 !
 ! D4    D(7,1,2,8)            104.5059         -DE/DX =    0.0                 !
 ! D5    D(2,1,3,4)              0.0            -DE/DX =    0.0                 !
 ! D6    D(7,1,6,4)            -42.1733         -DE/DX =    0.0                 !
 ! D7    D(7,1,6,8)           -112.6622         -DE/DX =    0.0                 !
 ! D8    D(1,2,4,3)              0.0            -DE/DX =    0.0                 !
 ! D9    D(8,2,5,3)            -42.1733         -DE/DX =    0.0                 !
 ! D10   D(8,2,5,7)           -112.6622         -DE/DX =    0.0                 !
 ! D11   D(1,3,4,2)              0.0            -DE/DX =    0.0                 !
 ! D12   D(1,3,4,8)            -52.253          -DE/DX =    0.0                 !
 ! D13   D(7,3,4,2)            -52.253          -DE/DX =    0.0                 !
 ! D14   D(7,3,4,8)           -104.5059         -DE/DX =    0.0                 !
 ! D15   D(7,3,6,2)             42.1733         -DE/DX =    0.0                 !
 ! D16   D(7,3,6,8)            112.6622         -DE/DX =    0.0                 !
 ! D17   D(8,4,5,1)             42.1733         -DE/DX =    0.0                 !
 ! D18   D(8,4,5,7)            112.6622         -DE/DX =    0.0                 !
 ! D19   D(7,5,6,8)            180.0            -DE/DX =    0.0                 !
 --------------------------------------------------------------------------------
 GradGradGradGradGradGradGradGradGradGradGradGradGradGradGradGradGradGrad

                          Input orientation:                          
 ---------------------------------------------------------------------
 Center     Atomic      Atomic             Coordinates (Angstroms)
 Number     Number       Type             X           Y           Z
 ---------------------------------------------------------------------
      1         14           0        0.795466    1.177252    1.452553
      2         14           0       -0.795466   -1.177252    1.452553
      3         14           0        0.795466    1.177252   -1.452553
      4         14           0       -0.795466   -1.177252   -1.452553
      5         14           0       -1.207607    0.711683    0.000000
      6         14           0        1.207607   -0.711683    0.000000
      7         14           0       -0.354300    2.826788    0.000000
      8         14           0        0.354300   -2.826788    0.000000
 ---------------------------------------------------------------------
                    Distance matrix (angstroms):
                    1          2          3          4          5
     1  Si   0.000000
     2  Si   2.841611   0.000000
     3  Si   2.905106   4.063790   0.000000
     4  Si   4.063790   2.905106   2.841611   0.000000
     5  Si   2.517731   2.418232   2.517731   2.418232   0.000000
     6  Si   2.418232   2.517731   2.418232   2.517731   2.803432
     7  Si   2.480492   4.282158   2.480492   4.282158   2.280746
     8  Si   4.282158   2.480492   4.282158   2.480492   3.867858
                    6          7          8
     6  Si   0.000000
     7  Si   3.867858   0.000000
     8  Si   2.280746   5.697809   0.000000
 Stoichiometry    Si8
 Framework group  C2H[SGH(Si4),X(Si4)]
 Deg. of freedom     6
 Full point group                 C2H     NOp   4
 Largest Abelian subgroup         C2H     NOp   4
 Largest concise Abelian subgroup C2H     NOp   4
                         Standard orientation:                         
 ---------------------------------------------------------------------
 Center     Atomic      Atomic             Coordinates (Angstroms)
 Number     Number       Type             X           Y           Z
 ---------------------------------------------------------------------
      1         14           0        0.661751    1.257288    1.452553
      2         14           0       -0.661751   -1.257288    1.452553
      3         14           0        0.661751    1.257288   -1.452553
      4         14           0       -0.661751   -1.257288   -1.452553
      5         14           0       -1.278285    0.575148    0.000000
      6         14           0        1.278285   -0.575148    0.000000
      7         14           0       -0.661751    2.770982    0.000000
      8         14           0        0.661751   -2.770982    0.000000
 ---------------------------------------------------------------------
 Rotational constants (GHZ):      1.2776686      0.6397354      0.5831315

 **********************************************************************

            Population analysis using the SCF density.

 **********************************************************************

 Orbital symmetries:
       Occupied  (BG) (BU) (AU) (AG) (AG) (BU) (AG) (BU) (AG) (BU)
                 (AU) (BU) (AG) (BG) (AG) (BU) (AG) (BU) (BG) (AU)
                 (BU) (AG) (AU) (BG) (BU) (AG) (BG) (AU) (AG) (BU)
                 (AU) (BU) (BG) (AG) (AU) (BG) (AG) (BU) (BU) (AG)
                 (AG) (BU) (AU) (BU) (AG) (BG) (AG) (BU) (BG) (AG)
                 (AG) (AU) (BU) (AG) (BU) (AU)
       Virtual   (BU) (AU) (BG) (AG) (BU) (BG) (AU) (BU) (AG) (BU)
                 (BG) (AG) (BG) (BU) (AU) (AG) (AG) (AG) (AU) (BU)
                 (BG) (AG) (AG) (BU) (AU) (BG) (BU) (BU) (AG) (AU)
                 (BG) (BU) (AG) (AU) (BU) (AG) (BG) (AU) (BU) (AG)
                 (BU) (BG) (AG) (BU) (AU) (BG) (AU) (AG) (BG) (AU)
                 (BU) (BU) (AG) (BG) (AU) (BU) (AG) (AG) (BG) (BU)
                 (AU) (AG) (BU) (BG) (AU) (AG) (BG) (AG) (BU) (BU)
                 (BG) (BU) (AU) (AG) (AU) (BG) (BU) (BG) (AG) (AG)
                 (BU) (AU) (AG) (AU) (BG) (BU) (AG) (BU) (AG) (BG)
                 (AG) (BU) (AU) (BU) (AG) (AU) (AG) (BU) (AU) (BG)
                 (AG) (AU) (BU) (BU) (BG) (BU) (AG) (AG) (BU) (BG)
                 (AU) (BG) (AU) (BU) (AU) (AG) (BU) (BG) (AG) (BG)
                 (AU) (BG) (AG) (AG) (BU) (BU) (AU) (BG) (BU) (AG)
                 (AU) (BG) (BU) (AG) (AU) (AG) (BG) (AG) (BU) (BG)
                 (AU) (BG) (BU) (AU) (AG) (BU) (AG) (BG) (BU) (AU)
                 (AG) (BU) (AU) (BU) (AG) (BG) (AG) (BG) (AU) (BU)
                 (BU) (AG) (BG) (AU) (BU) (AG) (BG) (BU) (AG) (AG)
                 (AU) (AU) (AG) (BG) (BU) (AU) (AG) (BU) (AU) (BU)
                 (BG) (AU) (AG) (BU) (AU) (BG) (BU) (AG) (BG) (BU)
                 (AG) (BG) (AG) (BU) (AU) (BG) (AG) (BU) (BU) (AG)
 The electronic state is 1-AG.
 Alpha  occ. eigenvalues --  -66.15988 -66.15987 -66.15987 -66.15986 -66.15942
 Alpha  occ. eigenvalues --  -66.15941 -66.14017 -66.14017  -5.30574  -5.30572
 Alpha  occ. eigenvalues --   -5.30431  -5.30431  -5.30430  -5.30430  -5.28591
 Alpha  occ. eigenvalues --   -5.28590  -3.66583  -3.66580  -3.66440  -3.66438
 Alpha  occ. eigenvalues --   -3.66436  -3.66434  -3.66432  -3.66429  -3.66206
 Alpha  occ. eigenvalues --   -3.66202  -3.66179  -3.66177  -3.66171  -3.66166
 Alpha  occ. eigenvalues --   -3.66056  -3.66054  -3.66053  -3.66053  -3.64436
 Alpha  occ. eigenvalues --   -3.64434  -3.64412  -3.64411  -3.64284  -3.64284
 Alpha  occ. eigenvalues --   -0.67779  -0.58256  -0.50650  -0.49407  -0.46284
 Alpha  occ. eigenvalues --   -0.40548  -0.37006  -0.32498  -0.29823  -0.29484
 Alpha  occ. eigenvalues --   -0.27815  -0.25862  -0.25859  -0.22935  -0.22301
 Alpha  occ. eigenvalues --   -0.20948
 Alpha virt. eigenvalues --   -0.11482  -0.10297  -0.08484  -0.06919  -0.05666
 Alpha virt. eigenvalues --   -0.05364  -0.03782  -0.03172  -0.01337  -0.00897
 Alpha virt. eigenvalues --   -0.00069   0.01638   0.03644   0.04894   0.05018
 Alpha virt. eigenvalues --    0.06249   0.11153   0.12564   0.13251   0.13369
 Alpha virt. eigenvalues --    0.14078   0.14422   0.16710   0.17200   0.17770
 Alpha virt. eigenvalues --    0.17809   0.19106   0.20385   0.20565   0.20777
 Alpha virt. eigenvalues --    0.22771   0.22941   0.23129   0.23816   0.24174
 Alpha virt. eigenvalues --    0.24190   0.24442   0.24765   0.27436   0.27472
 Alpha virt. eigenvalues --    0.28975   0.29753   0.30325   0.31251   0.31467
 Alpha virt. eigenvalues --    0.31534   0.33110   0.34372   0.34732   0.35772
 Alpha virt. eigenvalues --    0.35978   0.37595   0.38609   0.38728   0.41443
 Alpha virt. eigenvalues --    0.42468   0.43732   0.44121   0.46548   0.46759
 Alpha virt. eigenvalues --    0.47290   0.47932   0.48142   0.48543   0.48917
 Alpha virt. eigenvalues --    0.51646   0.55455   0.55630   0.56016   0.58454
 Alpha virt. eigenvalues --    0.59562   0.61166   0.62155   0.64257   0.65000
 Alpha virt. eigenvalues --    0.65199   0.65479   0.66133   0.66754   0.68021
 Alpha virt. eigenvalues --    0.69161   0.69878   0.70864   0.72233   0.72750
 Alpha virt. eigenvalues --    0.73995   0.77131   0.77327   0.81106   0.85160
 Alpha virt. eigenvalues --    0.86299   0.86338   0.86869   0.91127   0.91180
 Alpha virt. eigenvalues --    0.93223   0.94730   0.95025   0.96252   0.96729
 Alpha virt. eigenvalues --    0.97253   0.97795   0.99683   1.00977   1.02024
 Alpha virt. eigenvalues --    1.03170   1.03991   1.05482   1.05883   1.06189
 Alpha virt. eigenvalues --    1.07069   1.08711   1.08801   1.08937   1.12140
 Alpha virt. eigenvalues --    1.13839   1.16112   1.18335   1.19442   1.19561
 Alpha virt. eigenvalues --    1.20445   1.22435   1.23369   1.23975   1.25162
 Alpha virt. eigenvalues --    1.26774   1.27317   1.28216   1.29707   1.29795
 Alpha virt. eigenvalues --    1.32923   1.33231   1.34789   1.34838   1.35508
 Alpha virt. eigenvalues --    1.35659   1.37521   1.39375   1.40549   1.45917
 Alpha virt. eigenvalues --    1.46553   1.46621   1.47769   1.48087   1.51010
 Alpha virt. eigenvalues --    1.52089   1.52575   1.53446   1.53895   1.56560
 Alpha virt. eigenvalues --    1.59199   1.60633   1.72686   1.74271   1.75129
 Alpha virt. eigenvalues --    1.76074   1.76379   1.79169   1.79432   1.79553
 Alpha virt. eigenvalues --    1.81711   1.82840   1.84666   1.85572   1.86686
 Alpha virt. eigenvalues --    1.88230   1.89389   1.92134   1.92703   1.92982
 Alpha virt. eigenvalues --    1.94100   1.94324   1.96851   1.96971   1.98626
 Alpha virt. eigenvalues --    1.99086   2.00696   2.03487   2.05184   2.05194
 Alpha virt. eigenvalues --    2.05315   2.08594   2.10017   2.11461   2.12866
 Alpha virt. eigenvalues --    2.13050   2.18413   2.19300   2.21816   2.27630
 Alpha virt. eigenvalues --    2.29707   2.30746   2.50369   2.70559   2.83195
 Alpha virt. eigenvalues --    2.87243   2.90591   2.92277   2.96656   3.05104
          Condensed to atoms (all electrons):
              1          2          3          4          5          6
     1  Si  13.588987   0.051542   0.017651   0.004468   0.062727   0.149857
     2  Si   0.051542  13.588987   0.004468   0.017651   0.149857   0.062727
     3  Si   0.017651   0.004468  13.588987   0.051542   0.062727   0.149857
     4  Si   0.004468   0.017651   0.051542  13.588987   0.149857   0.062727
     5  Si   0.062727   0.149857   0.062727   0.149857  13.259095  -0.004941
     6  Si   0.149857   0.062727   0.149857   0.062727  -0.004941  13.259095
     7  Si   0.134742  -0.013394   0.134742  -0.013394   0.263257  -0.010152
     8  Si  -0.013394   0.134742  -0.013394   0.134742  -0.010152   0.263257
              7          8
     1  Si   0.134742  -0.013394
     2  Si  -0.013394   0.134742
     3  Si   0.134742  -0.013394
     4  Si  -0.013394   0.134742
     5  Si   0.263257  -0.010152
     6  Si  -0.010152   0.263257
     7  Si  13.577227   0.001380
     8  Si   0.001380  13.577227
 Mulliken atomic charges:
              1
     1  Si   0.003419
     2  Si   0.003419
     3  Si   0.003419
     4  Si   0.003419
     5  Si   0.067572
     6  Si   0.067572
     7  Si  -0.074411
     8  Si  -0.074411
 Sum of Mulliken atomic charges =   0.00000
 Mulliken charges with hydrogens summed into heavy atoms:
              1
     1  Si   0.003419
     2  Si   0.003419
     3  Si   0.003419
     4  Si   0.003419
     5  Si   0.067572
     6  Si   0.067572
     7  Si  -0.074411
     8  Si  -0.074411
 Sum of Mulliken charges with hydrogens summed into heavy atoms =   0.00000
 Electronic spatial extent (au):  <R**2>=           2069.9671
 Charge=              0.0000 electrons
 Dipole moment (field-independent basis, Debye):
    X=              0.0000    Y=              0.0000    Z=              0.0000  Tot=              0.0000
 Quadrupole moment (field-independent basis, Debye-Ang):
   XX=           -102.3743   YY=           -109.9842   ZZ=           -105.5102
   XY=              1.3348   XZ=              0.0000   YZ=              0.0000
 Traceless Quadrupole moment (field-independent basis, Debye-Ang):
   XX=              3.5819   YY=             -4.0280   ZZ=              0.4460
   XY=              1.3348   XZ=              0.0000   YZ=              0.0000
 Octapole moment (field-independent basis, Debye-Ang**2):
  XXX=              0.0000  YYY=              0.0000  ZZZ=              0.0000  XYY=              0.0000
  XXY=              0.0000  XXZ=              0.0000  XZZ=              0.0000  YZZ=              0.0000
  YYZ=              0.0000  XYZ=              0.0000
 Hexadecapole moment (field-independent basis, Debye-Ang**3):
 XXXX=           -631.4329 YYYY=          -2059.0958 ZZZZ=           -878.0099 XXXY=             73.9575
 XXXZ=              0.0000 YYYX=            109.1753 YYYZ=              0.0000 ZZZX=              0.0000
 ZZZY=              0.0000 XXYY=           -444.1227 XXZZ=           -260.8972 YYZZ=           -473.8073
 XXYZ=              0.0000 YYXZ=              0.0000 ZZXY=              7.7538
 N-N= 9.957149478387D+02 E-N=-7.504519102904D+03  KE= 2.307859378882D+03
 Symmetry AG   KE= 8.163828131983D+02
 Symmetry BG   KE= 3.372563860082D+02
 Symmetry AU   KE= 3.391929967902D+02
[...]
 Alpha virt. eigenvalues --    0.45151   0.45851   0.46404   0.46635   0.48362
 Alpha virt. eigenvalues --    0.49697   0.49933   0.51220   0.51938   0.52234
 Alpha virt. eigenvalues --    0.52273   0.53107   0.54024   0.54779   0.56109
 Alpha virt. eigenvalues --    0.56798   0.56998   0.57016   0.57415   0.58675
 Alpha virt. eigenvalues --    0.59437   0.59504   0.59740   0.60607   0.61669
 Alpha virt. eigenvalues --    0.62048   0.63506   0.63748   0.64207   0.65682
 Alpha virt. eigenvalues --    0.66243   0.68351   0.69247   0.69530   0.71098
 Alpha virt. eigenvalues --    0.71396   0.71980   0.72136   0.72667   0.74115
 Alpha virt. eigenvalues --    0.74582   0.74617   0.75266   0.75866   0.76444
 Alpha virt. eigenvalues --    0.78291   0.78583   0.79163   0.80730   0.81123
 Alpha virt. eigenvalues --    0.81934   0.82830   0.83107   0.83356   0.83650
 Alpha virt. eigenvalues --    0.84036   0.84241   0.84260   0.85817   0.85986
 Alpha virt. eigenvalues --    0.86384   0.86826   0.86848   0.87273   0.88446
 Alpha virt. eigenvalues --    0.88742   0.88917   0.89442   0.90351   0.90743
 Alpha virt. eigenvalues --    0.90918   0.91081   0.91229   0.91767   0.92441
 Alpha virt. eigenvalues --    0.92592   0.94330   0.94485   0.94640   0.95602
 Alpha virt. eigenvalues --    0.96244   0.96739   0.96841   0.97658   0.97719
 Alpha virt. eigenvalues --    0.99367   0.99605   0.99680   1.00702   1.01136
 Alpha virt. eigenvalues --    1.01154   1.01573   1.02061   1.02503   1.03329
 Alpha virt. eigenvalues --    1.03729   1.05313   1.05488   1.05613   1.05943
 Alpha virt. eigenvalues --    1.06484   1.07501   1.08095   1.08232   1.08604
 Alpha virt. eigenvalues --    1.09203   1.09615   1.09642   1.10974   1.11630
 Alpha virt. eigenvalues --    1.11759   1.12594   1.13342   1.14270   1.16355
 Alpha virt. eigenvalues --    1.19280   1.20216   1.21582   1.23246   1.25334
 Alpha virt. eigenvalues --    1.25809   1.26663   1.27182   1.27344   1.29520
 Alpha virt. eigenvalues --    1.30791   1.32477   1.33558   1.33630   1.33733
 Alpha virt. eigenvalues --    1.36538   1.36902   1.37057   1.38188   1.38306
 Alpha virt. eigenvalues --    1.40935   1.41353   1.42609   1.42645   1.43424
 Alpha virt. eigenvalues --    1.43801   1.44421   1.44634   1.45201   1.46516
 Alpha virt. eigenvalues --    1.46654   1.48130   1.49200   1.49548   1.50384
 Alpha virt. eigenvalues --    1.51367   1.53703   1.54247   1.55765   1.55846
 Alpha virt. eigenvalues --    1.56887   1.57387   1.57924   1.58439   1.59103
 Alpha virt. eigenvalues --    1.59703   1.60230   1.61740   1.61767   1.61926
 Alpha virt. eigenvalues --    1.63134   1.64475   1.64520   1.65472   1.66562
 Alpha virt. eigenvalues --    1.66912   1.67565   1.67742   1.68685   1.69884
 Alpha virt. eigenvalues --    1.69885   1.70404   1.70649   1.71323   1.72968
 Alpha virt. eigenvalues --    1.73489   1.74309   1.74843   1.76108   1.76845
 Alpha virt. eigenvalues --    1.77958   1.78756   1.78888   1.78950   1.79130
 Alpha virt. eigenvalues --    1.80822   1.81953   1.82591   1.82794   1.83110
 Alpha virt. eigenvalues --    1.84058   1.84061   1.84749   1.85040   1.85085
 Alpha virt. eigenvalues --    1.85805   1.86851   1.87694   1.87876   1.88639
 Alpha virt. eigenvalues --    1.88771   1.89835   1.90715   1.92506   1.92879
 Alpha virt. eigenvalues --    1.94087   1.95131   1.95634   1.96055   1.96335
 Alpha virt. eigenvalues --    1.96833   1.97293   1.98207   1.98509   1.99083
 Alpha virt. eigenvalues --    2.00410   2.01001   2.01877   2.02843   2.03210
 Alpha virt. eigenvalues --    2.04327   2.04444   2.04941   2.05251   2.06211
 Alpha virt. eigenvalues --    2.07696   2.08795   2.09902   2.10752   2.11098
 Alpha virt. eigenvalues --    2.13184   2.13411   2.13587   2.13743   2.15096
 Alpha virt. eigenvalues --    2.15659   2.16106   2.16152   2.16856   2.18439
 Alpha virt. eigenvalues --    2.19069   2.19333   2.20910   2.21076   2.22753
 Alpha virt. eigenvalues --    2.22906   2.24392   2.24415   2.26019   2.26293
 Alpha virt. eigenvalues --    2.26798   2.27931   2.28277   2.30081   2.30861
 Alpha virt. eigenvalues --    2.30989   2.31016   2.31491   2.31689   2.33358
 Alpha virt. eigenvalues --    2.35983   2.37396   2.38266   2.38436   2.42323
 Alpha virt. eigenvalues --    2.43768   2.44223   2.44491   2.44677   2.44746
 Alpha virt. eigenvalues --    2.44894   2.46581   2.47477   2.49727   2.50283
 Alpha virt. eigenvalues --    2.51231   2.51468   2.55305   2.57112   2.58382
 Alpha virt. eigenvalues --    2.59455   2.60706   2.61255   2.63481   2.64008
 Alpha virt. eigenvalues --    2.64957   2.71778   2.72928   2.73242   2.74073
 Alpha virt. eigenvalues --    2.76093   2.77902   2.81031   2.84392   2.85174
 Alpha virt. eigenvalues --    2.85281   2.86573   2.89554   2.91436   2.91542
 Alpha virt. eigenvalues --    2.92813   2.93045   2.96747   2.98658   3.01140
 Alpha virt. eigenvalues --    3.01278   3.04217   3.05001   3.05181   3.06960
 Alpha virt. eigenvalues --    3.07014   3.07539   3.14879   3.18315   3.19498
 Alpha virt. eigenvalues --    3.19887   3.20323   3.21981   3.23894   3.25660
 Alpha virt. eigenvalues --    3.25920   3.26145   3.28428   3.29430   3.30383
 Alpha virt. eigenvalues --    3.31297   3.31311   3.33503   3.33591   3.34026
 Alpha virt. eigenvalues --    3.34676   3.36201   3.36774   3.37640   3.38203
 Alpha virt. eigenvalues --    3.38821   3.39016   3.40619   3.40623   3.41839
 Alpha virt. eigenvalues --    3.42378   3.43064   3.43586   3.44484   3.45152
 Alpha virt. eigenvalues --    3.45855   3.46117   3.47366   3.47425   3.48573
 Alpha virt. eigenvalues --    3.49839   3.50291   3.51198   3.51459   3.52186
 Alpha virt. eigenvalues --    3.52253   3.53530   3.54188   3.54239   3.54627
 Alpha virt. eigenvalues --    3.55675   3.55961   3.56443   3.56508   3.57202
 Alpha virt. eigenvalues --    3.59021   3.59221   3.59883   3.60281   3.60650
 Alpha virt. eigenvalues --    3.61149   3.61165   3.62854   3.63076   3.63186
 Alpha virt. eigenvalues --    3.63665   3.64846   3.65197   3.65504   3.66131
 Alpha virt. eigenvalues --    3.66215   3.66488   3.67192   3.68877   3.69134
 Alpha virt. eigenvalues --    3.69229   3.70815   3.73300   3.73609   3.74585
 Alpha virt. eigenvalues --    3.74817   3.75229   3.76368   3.76653   3.77588
 Alpha virt. eigenvalues --    3.79071   3.80027   3.80603   3.80805   3.81587
 Alpha virt. eigenvalues --    3.81757   3.82271   3.83512   3.85026   3.85115
 Alpha virt. eigenvalues --    3.85713   3.86147   3.86916   3.87294   3.87984
 Alpha virt. eigenvalues --    3.89529   3.92446   3.92542   3.93293   3.94344
 Alpha virt. eigenvalues --    3.94834   3.95778   3.97583   3.97828   3.98544
 Alpha virt. eigenvalues --    3.98871   3.99195   3.99739   4.01062   4.04474
 Alpha virt. eigenvalues --    4.04727   4.06062   4.06075   4.07088   4.07330
 Alpha virt. eigenvalues --    4.09038   4.09891   4.10551   4.11696   4.12323
 Alpha virt. eigenvalues --    4.13590   4.15160   4.16144   4.16316   4.18248
 Alpha virt. eigenvalues --    4.19683   4.19945   4.22434   4.23120   4.23347
 Alpha virt. eigenvalues --    4.24782   4.25286   4.26866   4.27371   4.28093
 Alpha virt. eigenvalues --    4.28950   4.29044   4.29149   4.30264   4.30983
 Alpha virt. eigenvalues --    4.31290   4.32373   4.33347   4.33375   4.34593
 Alpha virt. eigenvalues --    4.35011   4.35600   4.36473   4.36859   4.36875
 Alpha virt. eigenvalues --    4.37427   4.37881   4.38712   4.39692   4.40400
 Alpha virt. eigenvalues --    4.40949   4.42433   4.42758   4.43656   4.43788
 Alpha virt. eigenvalues --    4.47275   4.47698   4.48137   4.48959   4.51220
 Alpha virt. eigenvalues --    4.51535   4.53686   4.53764   4.53785   4.55918
 Alpha virt. eigenvalues --    4.56270   4.57445   4.58540   4.58690   4.59351
 Alpha virt. eigenvalues --    4.60155   4.61211   4.61334   4.63156   4.63864
 Alpha virt. eigenvalues --    4.64072   4.64765   4.65595   4.65880   4.67626
 Alpha virt. eigenvalues --    4.68526   4.69391   4.70323   4.71166   4.71695
 Alpha virt. eigenvalues --    4.73717   4.74143   4.75734   4.76294   4.78851
 Alpha virt. eigenvalues --    4.79033   4.79627   4.80258   4.81285   4.83952
 Alpha virt. eigenvalues --    4.84193   4.85151   4.85886   4.86299   4.86444
 Alpha virt. eigenvalues --    4.87913   4.88123   4.89782   4.90748   4.91877
 Alpha virt. eigenvalues --    4.92498   4.92712   4.93390   4.96914   4.98310
 Alpha virt. eigenvalues --    4.98694   4.99634   5.02556   5.04142   5.06460
 Alpha virt. eigenvalues --    5.06523   5.06565   5.07878   5.10659   5.10872
 Alpha virt. eigenvalues --    5.14404   5.17983   5.18775   5.19533   5.22808
 Alpha virt. eigenvalues --    5.25029   5.25826   5.26511   5.27152   5.29221
 Alpha virt. eigenvalues --    5.30725   5.31916   5.34972   5.35511   5.39007
 Alpha virt. eigenvalues --    5.42467   5.42660   5.42676   5.47328   5.49076
 Alpha virt. eigenvalues --    5.51142   5.52815   5.67055   5.71010   5.72311
 Alpha virt. eigenvalues --    5.80714   5.87812   5.92923   5.93121   6.36218
 Alpha virt. eigenvalues --    6.58540   6.62846   6.63276   6.67871   6.71546
 Alpha virt. eigenvalues --    6.72908   6.76304   6.76833   6.79567   6.84669
 Alpha virt. eigenvalues --    6.89534   6.91564   6.92050   6.92742   6.99269
 Alpha virt. eigenvalues --    6.99880   7.00133   7.00820   7.01737   7.02458
 Alpha virt. eigenvalues --    7.07922   7.09354   7.10543   7.14629   7.15505
 Alpha virt. eigenvalues --    7.18566   7.22102   7.25081   7.26809   7.28432
 Alpha virt. eigenvalues --    7.35218   7.40046   7.41662   7.42049   7.43400
 Alpha virt. eigenvalues --    7.60868   7.67659   7.68561   7.74867  13.82947
 Alpha virt. eigenvalues --   13.86142  13.89645  13.94245  13.96310  14.05213
 Alpha virt. eigenvalues --   14.05387  14.11067  14.22251  14.24157  14.28688
 Alpha virt. eigenvalues --   14.34913  14.38364  14.39404  14.45374  14.49829
 Alpha virt. eigenvalues --   14.52524  14.59580  14.64101  14.66403  14.73785
 Alpha virt. eigenvalues --   14.74942  15.29461  15.35785  40.67057  41.53850
 Alpha virt. eigenvalues --   41.58123  41.90238  42.39667  43.51999  44.43978
 Alpha virt. eigenvalues --   45.14815
          Condensed to atoms (all electrons):
              1          2          3          4          5          6
     1  Si  13.246677   0.118841   0.048061  -0.003289   0.129792   0.260060
     2  Si   0.118841  13.246677  -0.003289   0.048061   0.260060   0.129792
     3  Si   0.048061  -0.003289  13.246677   0.118841   0.129792   0.260060
     4  Si  -0.003289   0.048061   0.118841  13.246677   0.260060   0.129792
     5  Si   0.129792   0.260060   0.129792   0.260060  12.652608   0.044126
     6  Si   0.260060   0.129792   0.260060   0.129792   0.044126  12.652608
     7  Si   0.250611  -0.015544   0.250611  -0.015544   0.384144  -0.011175
     8  Si  -0.015544   0.250611  -0.015544   0.250611  -0.011175   0.384144
              7          8
     1  Si   0.250611  -0.015544
     2  Si  -0.015544   0.250611
     3  Si   0.250611  -0.015544
     4  Si  -0.015544   0.250611
     5  Si   0.384144  -0.011175
     6  Si  -0.011175   0.384144
     7  Si  13.233981   0.003096
     8  Si   0.003096  13.233981
 Mulliken atomic charges:
              1
     1  Si  -0.035208
     2  Si  -0.035208
     3  Si  -0.035208
     4  Si  -0.035208
     5  Si   0.150595
     6  Si   0.150595
     7  Si  -0.080179
     8  Si  -0.080179
 Sum of Mulliken atomic charges =   0.00000
 Mulliken charges with hydrogens summed into heavy atoms:
              1
     1  Si  -0.035208
     2  Si  -0.035208
     3  Si  -0.035208
     4  Si  -0.035208
     5  Si   0.150595
     6  Si   0.150595
     7  Si  -0.080179
     8  Si  -0.080179
 Sum of Mulliken charges with hydrogens summed into heavy atoms =   0.00000
 Electronic spatial extent (au):  <R**2>=           2078.5195
 Charge=              0.0000 electrons
 Dipole moment (field-independent basis, Debye):
    X=              0.0000    Y=              0.0000    Z=              0.0000  Tot=              0.0000
 Quadrupole moment (field-independent basis, Debye-Ang):
   XX=           -105.0608   YY=           -114.1732   ZZ=           -110.1380
   XY=              1.3208   XZ=              0.0000   YZ=              0.0000
 Traceless Quadrupole moment (field-independent basis, Debye-Ang):
   XX=              4.7299   YY=             -4.3826   ZZ=             -0.3473
   XY=              1.3208   XZ=              0.0000   YZ=              0.0000
 Octapole moment (field-independent basis, Debye-Ang**2):
  XXX=              0.0000  YYY=              0.0000  ZZZ=              0.0000  XYY=              0.0000
  XXY=              0.0000  XXZ=              0.0000  XZZ=              0.0000  YZZ=              0.0000
  YYZ=              0.0000  XYZ=              0.0000
 Hexadecapole moment (field-independent basis, Debye-Ang**3):
 XXXX=           -655.2250 YYYY=          -2156.4213 ZZZZ=           -936.1883 XXXY=             75.0445
 XXXZ=              0.0000 YYYX=            124.6501 YYYZ=              0.0000 ZZZX=              0.0000
 ZZZY=              0.0000 XXYY=           -461.5863 XXZZ=           -276.9674 YYZZ=           -491.8649
 XXYZ=              0.0000 YYXZ=              0.0000 ZZXY=              0.2070
 N-N= 9.957149478387D+02 E-N=-7.506687268692D+03  KE= 2.311369604734D+03
 Symmetry AG   KE= 8.174746248329D+02
 Symmetry BG   KE= 3.379231304133D+02
 Symmetry AU   KE= 3.397190814581D+02
 Symmetry BU   KE= 8.162527680299D+02
 1\1\GINC-NODE48\SP\RHF\GFHFB2\Si8\TAM\21-Dec-2011\0\\#N Geom=AllCheck 
 Guess=TCheck SCRF=Check HF/GFHFB2 SCF=Tight\\si8-n\\0,1\Si,0,0.7954659
 015,1.1772521355,1.4525527772\Si,0,-0.7954659015,-1.1772521428,1.45255
 27713\Si,0,0.7954659015,1.1772521428,-1.4525527713\Si,0,-0.7954659015,
 -1.1772521355,-1.4525527772\Si,0,-1.2076074553,0.7116828406,0.00000000
 18\Si,0,1.2076074553,-0.7116828406,-0.0000000018\Si,0,-0.3542998272,2.
 8267878521,0.0000000071\Si,0,0.3542998272,-2.8267878521,-0.0000000071\
 \Version=AM64L-G09RevA.02\State=1-AG\HF=-2311.4166595\RMSD=7.371e-09\D
 ipole=0.,0.,0.\Quadrupole=3.6490849,-3.3908766,-0.2582083,0.2208875,0.
 ,0.\PG=C02H [SGH(Si4),X(Si4)]\\@


 IT CANNOT BE MY BEAUTY, FOR I HAVE NONE; AND IT CANNOT BE MY WIT,
 FOR HE HAS NOT ENOUGH TO KNOW THAT I HAVE ANY.
 -- CATHARINE SEDLEY, PUZZLED ABOUT WHY SHE WAS MISTRESS TO JAMES II
 Diagonal vibrational polarizability:
        0.0000000       0.0000000       0.0000000

 Temperature=              298.150000 Pressure=                      1.000000
 E(ZPE)=                     0.011241 E(Thermal)=                    0.022627
 E(CCSD(T))=             -2311.980724 E(Empiric)=                   -0.111152
 DE(Plus)=                  -0.014330 DE(2DF)=                      -0.273801
 E(Delta-G3XP)=             -2.514257 DE(HF)=                       -0.052772
 G4(0 K)=                -2314.935794 G4 Energy=                 -2314.924408
 G4 Enthalpy=            -2314.923464 G4 Free Energy=            -2314.973455
 1\1\GINC-NODE48\Mixed\G4\G4\Si8\TAM\21-Dec-2011\0\\# G4 scfcyc=500 scf
 =xqc\\si8-n\\0,1\Si,0,0.7954659015,1.1772521355,1.4525527772\Si,0,-0.7
 954659015,-1.1772521428,1.4525527713\Si,0,0.7954659015,1.1772521428,-1
 .4525527713\Si,0,-0.7954659015,-1.1772521355,-1.4525527772\Si,0,-1.207
 6074553,0.7116828406,0.0000000018\Si,0,1.2076074553,-0.7116828406,-0.0
 000000018\Si,0,-0.3542998272,2.8267878521,0.0000000071\Si,0,0.35429982
 72,-2.8267878521,-0.0000000071\\Version=AM64L-G09RevA.02\State=1-AG\MP
 2/GTBas1=-2311.914961\MP4/GTBas1=-2312.0132351\CCSD(T)/G3Bas1=-2311.98
 07237\MP2/GTBas2=-2311.9275394\MP4/GTBas2=-2312.0275648\MP2/GTBas3=-23
 12.1677527\MP4/GTBas3=-2312.2870361\HF/GTLargeXP=-2311.3658237\MP2/GTL
 argeXP=-2314.6945882\HF/GFHFB1=-2311.4087123\HF/GFHFB2=-2311.4166595\G
 4=-2314.9357944\FreqCoord=1.5032127019,2.2246841255,2.7449269425,-1.50
 32127019,-2.2246841393,2.7449269313,1.5032127019,2.2246841393,-2.74492
 69313,-1.5032127019,-2.2246841255,-2.7449269425,-2.2820473666,1.344885
 6622,0.0000000034,2.2820473666,-1.3448856622,-0.0000000034,-0.66952964
 24,5.3418548762,0.0000000134,0.6695296424,-5.3418548762,-0.0000000134\
 PG=C02H [SGH(Si4),X(Si4)]\NImag=0\\0.04300804,-0.00949419,0.06114704,0
 .02924851,0.01885350,0.06979578,-0.00346252,0.00375680,-0.00060466,0.0
 4300804,0.00375680,-0.00604160,0.00078278,-0.00949419,0.06114704,0.000
 60466,-0.00078278,0.00127362,-0.02924851,-0.01885350,0.06979578,-0.000
 58832,-0.00658457,-0.00429817,-0.00266806,-0.00364009,0.00401663,0.043
 00804,-0.00658457,0.00539171,-0.00122195,-0.00364009,-0.00595270,0.006
 35447,-0.00949419,0.06114704,0.00429817,0.00122195,-0.01071068,0.00401
 663,0.00635447,-0.00801267,-0.02924851,-0.01885350,0.06979578,-0.00266
 806,-0.00364009,-0.00401663,-0.00058832,-0.00658457,0.00429817,-0.0034
 6252,0.00375680,0.00060466,0.04300804,-0.00364009,-0.00595270,-0.00635
 447,-0.00658457,0.00539171,0.00122195,0.00375680,-0.00604160,-0.000782
 78,-0.00949419,0.06114704,-0.00401663,-0.00635447,-0.00801267,-0.00429
 817,-0.00122195,-0.01071068,-0.00060466,0.00078278,0.00127362,0.029248
 51,0.01885350,0.06979578,-0.02582318,-0.00307444,-0.01574895,0.0030432
 6,0.00519397,-0.00060868,-0.02582318,-0.00307444,0.01574895,0.00304326
 ,0.00519397,0.00060868,0.08135086,-0.00141461,0.00832318,-0.00754831,0
 .00484644,-0.04087748,0.01919084,-0.00141461,0.00832318,0.00754831,0.0
 0484644,-0.04087748,-0.01919084,0.02482630,0.15891793,-0.02410948,-0.0
 0986070,-0.01684714,-0.00106785,0.01776522,-0.02011581,0.02410948,0.00
 986070,-0.01684714,0.00106785,-0.01776522,-0.02011581,0.,0.,0.07082135
 ,0.00304326,0.00519397,0.00060868,-0.02582318,-0.00307444,0.01574895,0
 .00304326,0.00519397,-0.00060868,-0.02582318,-0.00307444,-0.01574895,-
 0.02195569,-0.00096139,0.,0.08135086,0.00484644,-0.04087748,-0.0191908
 4,-0.00141462,0.00832318,0.00754831,0.00484644,-0.04087748,0.01919084,
 -0.00141461,0.00832318,-0.00754831,-0.00096139,0.00409436,0.,0.0248263
 0,0.15891793,0.00106785,-0.01776522,-0.02011581,0.02410948,0.00986070,
 -0.01684714,-0.00106785,0.01776522,-0.02011581,-0.02410948,-0.00986070
 ,-0.01684714,0.,0.,0.00301844,0.,0.,0.07082135,-0.01452884,0.01343169,
 -0.00647408,0.00101961,0.00041083,-0.00128529,-0.01452884,0.01343169,0
 .00647408,0.00101961,0.00041083,0.00128529,-0.01432739,-0.03065434,0.,
 0.00049206,-0.00007423,0.,0.03899330,0.00934395,-0.02313810,0.01187179
 ,0.00318626,0.00114794,-0.00280749,0.00934395,-0.02313810,-0.01187179,
 0.00318626,0.00114794,0.00280749,-0.02493082,-0.08682075,0.,-0.0031731
 3,-0.01108294,0.,0.00136021,0.14812314,-0.00688792,0.01500943,-0.01480
 575,0.00020516,0.00032171,-0.00057737,0.00688792,-0.01500943,-0.014805
 75,-0.00020516,-0.00032171,-0.00057737,0.,0.,-0.00576599,0.,0.,0.00585
 209,0.,0.,0.03061438,0.00101961,0.00041083,0.00128529,-0.01452884,0.01
 343169,0.00647408,0.00101961,0.00041083,-0.00128529,-0.01452884,0.0134
 3169,-0.00647408,0.00049206,-0.00007423,0.,-0.01432739,-0.03065434,0.,
 0.00186048,0.00168332,0.,0.03899330,0.00318626,0.00114794,0.00280749,0
 .00934395,-0.02313810,-0.01187179,0.00318626,0.00114794,-0.00280749,0.
 00934395,-0.02313810,0.01187179,-0.00317313,-0.01108294,0.,-0.02493082
 ,-0.08682075,0.,0.00168332,-0.00623913,0.,0.00136021,0.14812314,-0.000
 20516,-0.00032171,-0.00057737,0.00688792,-0.01500943,-0.01480575,0.000
 20516,0.00032171,-0.00057737,-0.00688792,0.01500943,-0.01480575,0.,0.,
 0.00585209,0.,0.,-0.00576599,0.,0.,0.00006576,0.,0.,0.03061438\\-0.000
 11887,0.00003255,0.00002865,0.00011887,-0.00003255,0.00002865,-0.00011
 887,0.00003255,-0.00002865,0.00011887,-0.00003255,-0.00002865,-0.00011
 726,0.00020514,0.,0.00011726,-0.00020514,0.,0.00006151,-0.00004215,0.,
 -0.00006151,0.00004215,0.\\\@
 Job cpu time:  0 days  5 hours 51 minutes 57.9 seconds.
 File lengths (MBytes):  RWF=   1847 Int=      0 D2E=      0 Chk=     32 Scr=      1
 Normal termination of Gaussian 09 at Wed Dec 21 05:55:05 2011.
