 Entering Gaussian System, Link 0=g09
 Initial command:
 /usr/local/chem/g09A2/l1.exe /temp0/tam/Gau-26518.inp -scrdir=/temp0/tam/
 Entering Link 1 = /usr/local/chem/g09A2/l1.exe PID=     26519.
  
 Copyright (c) 1988,1990,1992,1993,1995,1998,2003,2009, Gaussian, Inc.
                  All Rights Reserved.
  
 This is part of the Gaussian(R) 09 program.  It is based on
 the Gaussian(R) 03 system (copyright 2003, Gaussian, Inc.),
 the Gaussian(R) 98 system (copyright 1998, Gaussian, Inc.),
 the Gaussian(R) 94 system (copyright 1995, Gaussian, Inc.),
 the Gaussian 92(TM) system (copyright 1992, Gaussian, Inc.),
 the Gaussian 90(TM) system (copyright 1990, Gaussian, Inc.),
 the Gaussian 88(TM) system (copyright 1988, Gaussian, Inc.),
 the Gaussian 86(TM) system (copyright 1986, Carnegie Mellon
 University), and the Gaussian 82(TM) system (copyright 1983,
 Carnegie Mellon University). Gaussian is a federally registered
 trademark of Gaussian, Inc.
  
 This software contains proprietary and confidential information,
 including trade secrets, belonging to Gaussian, Inc.
  
 This software is provided under written license and may be
 used, copied, transmitted, or stored only in accord with that
 written license.
  
 The following legend is applicable only to US Government
 contracts under FAR:
  
                    RESTRICTED RIGHTS LEGEND
  
 Use, reproduction and disclosure by the US Government is
 subject to restrictions as set forth in subparagraphs (a)
 and (c) of the Commercial Computer Software - Restricted
 Rights clause in FAR 52.227-19.
  
 Gaussian, Inc.
 340 Quinnipiac St., Bldg. 40, Wallingford CT 06492
  
  
 ---------------------------------------------------------------
 Warning -- This program may not be used in any manner that
 competes with the business of Gaussian, Inc. or will provide
 assistance to any competitor of Gaussian, Inc.  The licensee
 of this program is prohibited from giving any competitor of
 Gaussian, Inc. access to this program.  By using this program,
 the user acknowledges that Gaussian, Inc. is engaged in the
 business of creating and licensing software in the field of
 computational chemistry and represents and warrants to the
 licensee that it is not a competitor of Gaussian, Inc. and that
 it will not use this program in any manner prohibited above.
 ---------------------------------------------------------------
  

 Cite this work as:
 Gaussian 09, Revision A.02,
 M. J. Frisch, G. W. Trucks, H. B. Schlegel, G. E. Scuseria, 
 M. A. Robb, J. R. Cheeseman, G. Scalmani, V. Barone, B. Mennucci, 
 G. A. Petersson, H. Nakatsuji, M. Caricato, X. Li, H. P. Hratchian, 
 A. F. Izmaylov, J. Bloino, G. Zheng, J. L. Sonnenberg, M. Hada, 
 M. Ehara, K. Toyota, R. Fukuda, J. Hasegawa, M. Ishida, T. Nakajima, 
 Y. Honda, O. Kitao, H. Nakai, T. Vreven, J. A. Montgomery, Jr., 
 J. E. Peralta, F. Ogliaro, M. Bearpark, J. J. Heyd, E. Brothers, 
 K. N. Kudin, V. N. Staroverov, R. Kobayashi, J. Normand, 
 K. Raghavachari, A. Rendell, J. C. Burant, S. S. Iyengar, J. Tomasi, 
 M. Cossi, N. Rega, J. M. Millam, M. Klene, J. E. Knox, J. B. Cross, 
 V. Bakken, C. Adamo, J. Jaramillo, R. Gomperts, R. E. Stratmann, 
 O. Yazyev, A. J. Austin, R. Cammi, C. Pomelli, J. W. Ochterski, 
 R. L. Martin, K. Morokuma, V. G. Zakrzewski, G. A. Voth, 
 P. Salvador, J. J. Dannenberg, S. Dapprich, A. D. Daniels, 
 O. Farkas, J. B. Foresman, J. V. Ortiz, J. Cioslowski, 
 and D. J. Fox, Gaussian, Inc., Wallingford CT, 2009.
 
 ******************************************
 Gaussian 09:  AM64L-G09RevA.02 11-Jun-2009
                 6-Dec-2011 
 ******************************************
 %NprocShared=6
 Will use up to    6 processors via shared memory.
 %mem=19500MB
 %chk=S7B-ne-d-04
 -----------------------
 # G4 scfcyc=500 scf=xqc
 -----------------------
 1/14=-1,18=20,19=15,26=3,38=1/1,3;
 2/9=110,12=2,17=6,18=5,40=1/2;
 3/5=35,7=104,11=2,16=1,25=1,30=1,71=1,74=-5/1,2,3;
 4//1;
 5/5=2,7=500,8=3,13=1,38=5/2,8;
 6/7=2,8=2,9=2,10=2,28=1/1;
 7//1,2,3,16;
 1/14=-1,18=20,19=15/3(2);
 2/9=110/2;
 99//99;
 2/9=110/2;
 3/5=35,7=104,11=2,16=1,25=1,30=1,71=1,74=-5/1,2,3;
 4/5=5,16=3/1;
 5/5=2,7=500,8=3,13=1,38=5/2,8;
 7//1,2,3,16;
 1/14=-1,18=20,19=15/3(-5);
 2/9=110/2;
 6/7=2,8=2,9=2,10=2,19=2,28=1/1;
 99/9=1/99;
 -------------
 Si-an-quartet
 -------------
 Symbolic Z-matrix:
 Charge = -1 Multiplicity = 4
 Si                    0.       -0.1       0. 
 

 GradGradGradGradGradGradGradGradGradGradGradGradGradGradGradGradGradGrad
 Berny optimization.
 Initialization pass.
 No Z-matrix variables, so optimization will use Cartesian coordinates.
 Trust Radius=1.00D-01 FncErr=1.00D-07 GrdErr=1.00D-06
 Number of steps in this run=  20 maximum allowed number of steps= 100.
 GradGradGradGradGradGradGradGradGradGradGradGradGradGradGradGradGradGrad

                          Input orientation:                          
 ---------------------------------------------------------------------
 Center     Atomic      Atomic             Coordinates (Angstroms)
 Number     Number       Type             X           Y           Z
 ---------------------------------------------------------------------
      1         14           0        0.000000   -0.100000    0.000000
 ---------------------------------------------------------------------
 Stoichiometry    Si(1-,4)
 Framework group  OH[O(Si)]
 Deg. of freedom     0
 Full point group                 OH      NOp  48
 Largest Abelian subgroup         D2H     NOp   8
 Largest concise Abelian subgroup C1      NOp   1
                         Standard orientation:                         
 ---------------------------------------------------------------------
 Center     Atomic      Atomic             Coordinates (Angstroms)
 Number     Number       Type             X           Y           Z
 ---------------------------------------------------------------------
      1         14           0        0.000000    0.000000    0.000000
 ---------------------------------------------------------------------
 Standard basis: GTBas3 (6D, 7F)
 There are    10 symmetry adapted basis functions of AG  symmetry.
 There are     2 symmetry adapted basis functions of B1G symmetry.
 There are     2 symmetry adapted basis functions of B2G symmetry.
 There are     2 symmetry adapted basis functions of B3G symmetry.
 There are     1 symmetry adapted basis functions of AU  symmetry.
 There are     5 symmetry adapted basis functions of B1U symmetry.
 There are     5 symmetry adapted basis functions of B2U symmetry.
 There are     5 symmetry adapted basis functions of B3U symmetry.
 Integral buffers will be    131072 words long.
 Raffenetti 2 integral format.
 Two-electron integral symmetry is turned on.
    32 basis functions,    68 primitive gaussians,    35 cartesian basis functions
     9 alpha electrons        6 beta electrons
       nuclear repulsion energy         0.0000000000 Hartrees.
 NAtoms=    1 NActive=    1 NUniq=    1 SFac= 7.50D-01 NAtFMM=   80 NAOKFM=F Big=F
 One-electron integrals computed using PRISM.
 NBasis=    32 RedAO= T  NBF=    10     2     2     2     1     5     5     5
 NBsUse=    32 1.00D-06 NBFU=    10     2     2     2     1     5     5     5
 Harris functional with IExCor=  402 diagonalized for initial guess.
 ExpMin= 7.78D-02 ExpMax= 1.61D+04 ExpMxC= 2.43D+03 IAcc=2 IRadAn=         0 AccDes= 0.00D+00
 HarFok:  IExCor=  402 AccDes= 0.00D+00 IRadAn=         0 IDoV= 1
 ScaDFX=  1.000000  1.000000  1.000000  1.000000
 FoFCou: FMM=F IPFlag=           0 FMFlag=      100000 FMFlg1=           0
         NFxFlg=           0 DoJE=T BraDBF=F KetDBF=T FulRan=T
         Omega=  0.000000  0.000000  1.000000  0.000000  0.000000 ICntrl=     500 IOpCl=  0
         NMat0=    1 NMatS0=    1 NMatT0=    0 NMatD0=    1 NMtDS0=    0 NMtDT0=    0
         I1Cent=           4 NGrid=           0.
 Petite list used in FoFCou.
 Initial guess orbital symmetries:
 Alpha Orbitals:
       Occupied  (A1G) (A1G) (T1U) (T1U) (T1U) (A1G) (T1U) (T1U)
                 (T1U)
       Virtual   (A1G) (T1U) (T1U) (T1U) (T2G) (T2G) (T2G) (EG)
                 (EG) (A1G) (?A) (?A) (?A) (?A) (?A) (?A) (A2U)
                 (EG) (EG) (T2G) (T2G) (T2G) (A1G)
 Beta  Orbitals:
       Occupied  (A1G) (A1G) (T1U) (T1U) (T1U) (A1G)
       Virtual   (T1U) (T1U) (T1U) (A1G) (T1U) (T1U) (T1U) (T2G)
                 (T2G) (T2G) (EG) (EG) (A1G) (?A) (?A) (?A) (?A)
                 (?A) (?A) (A2U) (EG) (EG) (T2G) (T2G) (T2G) (A1G)
 The electronic state of the initial guess is 4-A1G.
 Initial guess <Sx>= 0.0000 <Sy>= 0.0000 <Sz>= 1.5000 <S**2>= 3.7500 S= 1.5000
 Requested convergence on RMS density matrix=1.00D-08 within 128 cycles.
 Requested convergence on MAX density matrix=1.00D-06.
 Requested convergence on             energy=1.00D-06.
 No special actions if energy rises.
 Keep R1 and R2 ints in memory in canonical form, NReq=2367783.
 Integral accuracy reduced to 1.0D-05 until final iterations.
 Initial convergence to 1.0D-05 achieved.  Increase integral accuracy.
 SCF Done:  E(UB3LYP) =  -289.407004091     A.U. after   10 cycles
             Convg  =    0.2138D-08             -V/T =  2.0028
 <Sx>= 0.0000 <Sy>= 0.0000 <Sz>= 1.5000 <S**2>= 3.7504 S= 1.5001
 <L.S>= 0.000000000000E+00
 Annihilation of the first spin contaminant:
 S**2 before annihilation     3.7504,   after     3.7500
 QCSCF skips out because SCF is already converged.

 **********************************************************************

            Population analysis using the SCF density.

 **********************************************************************

 Orbital symmetries:
 Alpha Orbitals:
       Occupied  (A1G) (A1G) (T1U) (T1U) (T1U) (A1G) (T1U) (T1U)
                 (T1U)
       Virtual   (A1G) (T1U) (T1U) (T1U) (EG) (EG) (T2G) (T2G)
                 (T2G) (A1G) (T1U) (T1U) (T1U) (T2U) (T2U) (T2U)
                 (A2U) (EG) (EG) (T2G) (T2G) (T2G) (A1G)
 Beta  Orbitals:
       Occupied  (A1G) (A1G) (T1U) (T1U) (T1U) (A1G)
       Virtual   (T1U) (T1U) (T1U) (A1G) (T1U) (T1U) (T1U) (T2G)
                 (T2G) (T2G) (EG) (EG) (A1G) (A2U) (T2U) (T2U)
                 (T2U) (T1U) (T1U) (T1U) (T2G) (T2G) (T2G) (EG)
                 (EG) (A1G)
 The electronic state is 4-A1G.
 Alpha  occ. eigenvalues --  -65.86723  -5.01687  -3.37621  -3.37621  -3.37621
 Alpha  occ. eigenvalues --   -0.19236   0.05760   0.05760   0.05760
 Alpha virt. eigenvalues --    0.31987   0.46424   0.46424   0.46424   0.52089
 Alpha virt. eigenvalues --    0.52089   0.52089   0.52089   0.52089   0.98982
 Alpha virt. eigenvalues --    1.19536   1.19536   1.19536   1.19536   1.19536
 Alpha virt. eigenvalues --    1.19536   1.19536   1.87927   1.87927   1.87927
 Alpha virt. eigenvalues --    1.87927   1.87927   2.70546
  Beta  occ. eigenvalues --  -65.86072  -5.00985  -3.36568  -3.36568  -3.36568
  Beta  occ. eigenvalues --   -0.10825
  Beta virt. eigenvalues --    0.16667   0.16667   0.16667   0.34634   0.50488
  Beta virt. eigenvalues --    0.50488   0.50488   0.58984   0.58984   0.58984
  Beta virt. eigenvalues --    0.58984   0.58984   1.02349   1.25702   1.25702
  Beta virt. eigenvalues --    1.25702   1.25702   1.25702   1.25702   1.25702
  Beta virt. eigenvalues --    1.90285   1.90285   1.90285   1.90285   1.90285
  Beta virt. eigenvalues --    2.73989
          Condensed to atoms (all electrons):
              1
     1  Si  15.000000
 Mulliken atomic charges:
              1
     1  Si  -1.000000
 Sum of Mulliken atomic charges =  -1.00000
 Mulliken charges with hydrogens summed into heavy atoms:
              1
     1  Si  -1.000000
 Sum of Mulliken charges with hydrogens summed into heavy atoms =  -1.00000
          Atomic-Atomic Spin Densities.
              1
     1  Si   3.000000
 Mulliken atomic spin densities:
              1
     1  Si   3.000000
 Sum of Mulliken atomic spin densities =   3.00000
 Electronic spatial extent (au):  <R**2>=             46.1961
 Charge=             -1.0000 electrons
 Dipole moment (field-independent basis, Debye):
    X=              0.0000    Y=              0.0000    Z=              0.0000  Tot=              0.0000
 Quadrupole moment (field-independent basis, Debye-Ang):
   XX=            -20.7118   YY=            -20.7118   ZZ=            -20.7118
   XY=              0.0000   XZ=              0.0000   YZ=              0.0000
 Traceless Quadrupole moment (field-independent basis, Debye-Ang):
   XX=              0.0000   YY=              0.0000   ZZ=              0.0000
   XY=              0.0000   XZ=              0.0000   YZ=              0.0000
 Octapole moment (field-independent basis, Debye-Ang**2):
  XXX=              0.0000  YYY=              0.0000  ZZZ=              0.0000  XYY=              0.0000
  XXY=              0.0000  XXZ=              0.0000  XZZ=              0.0000  YZZ=              0.0000
  YYZ=              0.0000  XYZ=              0.0000
 Hexadecapole moment (field-independent basis, Debye-Ang**3):
 XXXX=            -51.0744 YYYY=            -51.0744 ZZZZ=            -51.0744 XXXY=              0.0000
 XXXZ=              0.0000 YYYX=              0.0000 YYYZ=              0.0000 ZZZX=              0.0000
 ZZZY=              0.0000 XXYY=            -17.0248 XXZZ=            -17.0248 YYZZ=            -17.0248
 XXYZ=              0.0000 YYXZ=              0.0000 ZZXY=              0.0000
 N-N= 0.000000000000D+00 E-N=-1.030641466778D+03  KE= 4.317388105181D+02
 Symmetry AG   KE= 3.199972694112D+02
 Symmetry B1G  KE= 8.524254069418D-35
 Symmetry B2G  KE= 3.753216343998D-35
 Symmetry B3G  KE= 3.753216343997D-35
 Symmetry AU   KE= 2.715981338274D-51
 Symmetry B1U  KE= 3.724718036895D+01
 Symmetry B2U  KE= 3.724718036895D+01
 Symmetry B3U  KE= 3.724718036895D+01
                          Isotropic Fermi Contact Couplings
        Atom                 a.u.       MegaHertz       Gauss      10(-4) cm-1
     1  Si(29)            -0.09923      29.39610      10.48926       9.80548
 --------------------------------------------------------
       Center         ----  Spin Dipole Couplings  ----
                      3XX-RR        3YY-RR        3ZZ-RR
 --------------------------------------------------------
     1   Atom        0.000000      0.000000      0.000000
 --------------------------------------------------------
                        XY            XZ            YZ
 --------------------------------------------------------
     1   Atom        0.000000      0.000000      0.000000
 --------------------------------------------------------


 ---------------------------------------------------------------------------------
              Anisotropic Spin Dipole Couplings in Principal Axis System
 ---------------------------------------------------------------------------------

       Atom             a.u.   MegaHertz   Gauss  10(-4) cm-1        Axes

              Baa     0.0000     0.000     0.000     0.000  0.0000  0.0000  1.0000
     1 Si(29) Bbb     0.0000     0.000     0.000     0.000  0.0000  1.0000  0.0000
              Bcc     0.0000     0.000     0.000     0.000  1.0000  0.0000  0.0000
 

 ---------------------------------------------------------------------------------

 Calling FoFJK, ICntrl=      2127 FMM=F ISym2X=1 I1Cent= 0 IOpClX= 1 NMat=1 NMatS=1 NMatT=0.
 ***** Axes restored to original set *****
 -------------------------------------------------------------------
 Center     Atomic                   Forces (Hartrees/Bohr)
 Number     Number              X              Y              Z
 -------------------------------------------------------------------
      1       14           0.000000000    0.000000000    0.000000000
 -------------------------------------------------------------------
 Cartesian Forces:  Max     0.000000000 RMS     0.000000000

 GradGradGradGradGradGradGradGradGradGradGradGradGradGradGradGradGradGrad
 Berny optimization.
 Search for a local minimum.
 Step number   1 out of a maximum of   20
 All quantities printed in internal units (Hartrees-Bohrs-Radians)
 Mixed Optimization -- En-DIIS/RFO-DIIS
 Second derivative matrix not updated -- first step.
 The second derivative matrix:
                          X1        Y1        Z1
           X1           0.00000
           Y1           0.00000   0.00000
           Z1           0.00000   0.00000   0.00000
     Eigenvalues --- 
 RFO step:  Lambda=-5.96046448D-09 EMin= 0.00000000D+00
 ClnCor:  largest displacement from symmetrization is 0.00D+00 for atom     0.
 Linear search not attempted -- first point.
 ClnCor:  largest displacement from symmetrization is 0.00D+00 for atom     0.
 TrRot=  0.000000  0.000000  0.000000  0.000000  0.000000  0.000000
 Variable       Old X    -DE/DX   Delta X   Delta X   Delta X     New X
                                 (Linear)    (Quad)   (Total)
    X1        0.00000   0.00000   0.00000   0.00000   0.00000   0.00000
    Y1       -0.18897   0.00000   0.00000   0.00000   0.00000  -0.18897
    Z1        0.00000   0.00000   0.00000   0.00000   0.00000   0.00000
         Item               Value     Threshold  Converged?
 Maximum Force            0.000000     0.000450     YES
 RMS     Force            0.000000     0.000300     YES
 Maximum Displacement     0.000000     0.001800     YES
 RMS     Displacement     0.000000     0.001200     YES
 Predicted change in Energy= 0.000000D+00
 Optimization completed.
    -- Stationary point found.
 GradGradGradGradGradGradGradGradGradGradGradGradGradGradGradGradGradGrad

                          Input orientation:                          
 ---------------------------------------------------------------------
 Center     Atomic      Atomic             Coordinates (Angstroms)
 Number     Number       Type             X           Y           Z
 ---------------------------------------------------------------------
      1         14           0        0.000000   -0.100000    0.000000
 ---------------------------------------------------------------------
 Stoichiometry    Si(1-,4)
 Framework group  OH[O(Si)]
 Deg. of freedom     0
 Full point group                 OH      NOp  48
 Largest Abelian subgroup         D2H     NOp   8
 Largest concise Abelian subgroup C1      NOp   1
                         Standard orientation:                         
 ---------------------------------------------------------------------
 Center     Atomic      Atomic             Coordinates (Angstroms)
 Number     Number       Type             X           Y           Z
 ---------------------------------------------------------------------
      1         14           0        0.000000    0.000000    0.000000
 ---------------------------------------------------------------------
 1\1\GINC-NODE43\FOpt\UB3LYP\GTBas3\Si1(1-,4)\TAM\06-Dec-2011\0\\# G4 s
 cfcyc=500 scf=xqc\\Si-an-quartet\\-1,4\Si,0.,-0.1,0.\\Version=AM64L-G0
 9RevA.02\State=4-A1G\HF=-289.4070041\S2=3.750368\S2-1=0.\S2A=3.75\RMSD
 =2.138e-09\RMSF=0.000e+00\Dipole=0.,0.,0.\Quadrupole=0.,0.,0.,0.,0.,0.
 \PG=OH [O(Si1)]\\@


 MICHAEL FARADAY, ASKED BY A POLITICIAN WHAT GOOD
 HIS ELECTRICAL DISCOVERIES WERE, REPLIED 
 "AT PRESENT I DO NOT KNOW, BUT ONE DAY YOU WILL BE
 ABLE TO TAX THEM."
 Job cpu time:  0 days  0 hours  0 minutes 14.3 seconds.
 File lengths (MBytes):  RWF=      5 Int=      0 D2E=      0 Chk=      2 Scr=      1
 Normal termination of Gaussian 09 at Tue Dec  6 18:51:13 2011.
 Link1:  Proceeding to internal job step number  2.
 ----------------------------------------------------------
 #N Geom=AllCheck Guess=TCheck SCRF=Check B3LYP/GTBas3 Freq
 ----------------------------------------------------------
 1/10=4,29=7,30=1,38=1,40=1/1,3;
 2/12=2,40=1/2;
 3/5=35,11=2,14=-4,16=1,25=1,30=1,70=2,71=2,74=-5,116=-2/1,2,3;
 4/5=101/1;
 5/5=2,7=500,8=3,13=1,98=1/2,8;
 8/6=4,10=90,11=11/1;
 11/6=1,8=1,9=11,15=111,16=1/1,2,10;
 10/6=1/2;
 6/7=2,8=2,9=2,10=2,18=1,28=1/1;
 7/8=1,10=1,25=1/1,2,3,16;
 1/10=4,30=1/3;
 99//99;
 -------------
 Si-an-quartet
 -------------
 No Z-matrix found on checkpoint file.
 Cartesian coordinates read from the checkpoint file:
 S7B-ne-d-04.chk
 Charge = -1 Multiplicity = 4
  Si                                                0.000000000000     -0.100000000000      0.000000000000
 Recover connectivity data from disk.

 GradGradGradGradGradGradGradGradGradGradGradGradGradGradGradGradGradGrad
 Berny optimization.
 Initialization pass.
 Trust Radius=3.00D-01 FncErr=1.00D-07 GrdErr=1.00D-07
 Number of steps in this run=   2 maximum allowed number of steps=   2.
 GradGradGradGradGradGradGradGradGradGradGradGradGradGradGradGradGradGrad

                          Input orientation:                          
 ---------------------------------------------------------------------
 Center     Atomic      Atomic             Coordinates (Angstroms)
 Number     Number       Type             X           Y           Z
 ---------------------------------------------------------------------
      1         14           0        0.000000   -0.100000    0.000000
 ---------------------------------------------------------------------
 Stoichiometry    Si(1-,4)
 Framework group  OH[O(Si)]
 Deg. of freedom     0
 Full point group                 OH      NOp  48
 Largest Abelian subgroup         D2H     NOp   8
 Largest concise Abelian subgroup C1      NOp   1
                         Standard orientation:                         
 ---------------------------------------------------------------------
 Center     Atomic      Atomic             Coordinates (Angstroms)
 Number     Number       Type             X           Y           Z
 ---------------------------------------------------------------------
      1         14           0        0.000000    0.000000    0.000000
 ---------------------------------------------------------------------
 Standard basis: GTBas3 (6D, 7F)
 There are    10 symmetry adapted basis functions of AG  symmetry.
 There are     2 symmetry adapted basis functions of B1G symmetry.
 There are     2 symmetry adapted basis functions of B2G symmetry.
 There are     2 symmetry adapted basis functions of B3G symmetry.
 There are     1 symmetry adapted basis functions of AU  symmetry.
 There are     5 symmetry adapted basis functions of B1U symmetry.
 There are     5 symmetry adapted basis functions of B2U symmetry.
 There are     5 symmetry adapted basis functions of B3U symmetry.
 Integral buffers will be    131072 words long.
 Raffenetti 2 integral format.
 Two-electron integral symmetry is turned on.
    32 basis functions,    68 primitive gaussians,    35 cartesian basis functions
     9 alpha electrons        6 beta electrons
       nuclear repulsion energy         0.0000000000 Hartrees.
 NAtoms=    1 NActive=    1 NUniq=    1 SFac= 7.50D-01 NAtFMM=   80 NAOKFM=F Big=F
 One-electron integrals computed using PRISM.
 NBasis=    32 RedAO= T  NBF=    10     2     2     2     1     5     5     5
 NBsUse=    32 1.00D-06 NBFU=    10     2     2     2     1     5     5     5
 Initial guess read from the checkpoint file:  S7B-ne-d-04.chk
 B after Tr=     0.000000    0.000000    0.000000
         Rot=    1.000000    0.000000    0.000000    0.000000 Ang=   0.00 deg.
 Initial guess orbital symmetries:
 Alpha Orbitals:
       Occupied  (A1G) (A1G) (T1U) (T1U) (T1U) (A1G) (T1U) (T1U)
                 (T1U)
       Virtual   (A1G) (T1U) (T1U) (T1U) (EG) (EG) (T2G) (T2G)
                 (T2G) (A1G) (T1U) (T1U) (T1U) (T2U) (T2U) (T2U)
                 (A2U) (EG) (EG) (T2G) (T2G) (T2G) (A1G)
 Beta  Orbitals:
       Occupied  (A1G) (A1G) (T1U) (T1U) (T1U) (A1G)
       Virtual   (T1U) (T1U) (T1U) (A1G) (T1U) (T1U) (T1U) (T2G)
                 (T2G) (T2G) (EG) (EG) (A1G) (A2U) (T2U) (T2U)
                 (T2U) (T1U) (T1U) (T1U) (T2G) (T2G) (T2G) (EG)
                 (EG) (A1G)
 Initial guess <Sx>= 0.0000 <Sy>= 0.0000 <Sz>= 1.5000 <S**2>= 3.7504 S= 1.5001
 Requested convergence on RMS density matrix=1.00D-08 within 128 cycles.
 Requested convergence on MAX density matrix=1.00D-06.
 Requested convergence on             energy=1.00D-06.
 No special actions if energy rises.
 Keep R1 and R2 ints in memory in canonical form, NReq=2367783.
 SCF Done:  E(UB3LYP) =  -289.407004091     A.U. after    1 cycles
             Convg  =    0.1931D-09             -V/T =  2.0028
 <Sx>= 0.0000 <Sy>= 0.0000 <Sz>= 1.5000 <S**2>= 3.7504 S= 1.5001
 <L.S>= 0.000000000000E+00
 Annihilation of the first spin contaminant:
 S**2 before annihilation     3.7504,   after     3.7500
 QCSCF skips out because SCF is already converged.
 Range of M.O.s used for correlation:     1    32
 NBasis=    32 NAE=     9 NBE=     6 NFC=     0 NFV=     0
 NROrb=     32 NOA=     9 NOB=     6 NVA=    23 NVB=    26
 Symmetrizing basis deriv contribution to polar:
 IMax=3 JMax=2 DiffMx= 0.00D+00
 G2DrvN: will do     2 centers at a time, making    1 passes doing MaxLOS=3.
 Calling FoFCou, ICntrl=  3107 FMM=F I1Cent=   0 AccDes= 0.00D+00.
 FoFDir/FoFCou used for L=0 through L=3.
 End of G2Drv Frequency-dependent properties file   721 does not exist.
 End of G2Drv Frequency-dependent properties file   722 does not exist.
          IDoAtm=1
          Differentiating once with respect to electric field.
                with respect to dipole field.
          Differentiating once with respect to nuclear coordinates.
          Keep R1 and R2 ints in memory in canonical form, NReq=2338798.
 CalDSu exits because no D1Ps are significant.
          There are     6 degrees of freedom in the 1st order CPHF.  IDoFFX=5.
      3 vectors produced by pass  0 Test12= 6.05D-15 1.67D-08 XBig12= 6.70D+01 5.22D+00.
 AX will form     3 AO Fock derivatives at one time.
      3 vectors produced by pass  1 Test12= 6.05D-15 1.67D-08 XBig12= 9.96D+00 2.32D+00.
      3 vectors produced by pass  2 Test12= 6.05D-15 1.67D-08 XBig12= 1.43D-01 2.91D-01.
      3 vectors produced by pass  3 Test12= 6.05D-15 1.67D-08 XBig12= 2.99D-03 3.33D-02.
      3 vectors produced by pass  4 Test12= 6.05D-15 1.67D-08 XBig12= 1.39D-05 1.66D-03.
      3 vectors produced by pass  5 Test12= 6.05D-15 1.67D-08 XBig12= 2.00D-08 9.00D-05.
      3 vectors produced by pass  6 Test12= 6.05D-15 1.67D-08 XBig12= 3.08D-11 2.96D-06.
      3 vectors produced by pass  7 Test12= 6.05D-15 1.67D-08 XBig12= 4.29D-15 2.86D-08.
 Inverted reduced A of dimension    24 with in-core refinement.
 Isotropic polarizability for W=    0.000000       33.60 Bohr**3.
 End of Minotr Frequency-dependent properties file   721 does not exist.
 End of Minotr Frequency-dependent properties file   722 does not exist.

 **********************************************************************

            Population analysis using the SCF density.

 **********************************************************************

 Orbital symmetries:
 Alpha Orbitals:
       Occupied  (A1G) (A1G) (T1U) (T1U) (T1U) (A1G) (T1U) (T1U)
                 (T1U)
       Virtual   (A1G) (T1U) (T1U) (T1U) (EG) (EG) (T2G) (T2G)
                 (T2G) (A1G) (T1U) (T1U) (T1U) (T2U) (T2U) (T2U)
                 (A2U) (EG) (EG) (T2G) (T2G) (T2G) (A1G)
 Beta  Orbitals:
       Occupied  (A1G) (A1G) (T1U) (T1U) (T1U) (A1G)
       Virtual   (T1U) (T1U) (T1U) (A1G) (T1U) (T1U) (T1U) (T2G)
                 (T2G) (T2G) (EG) (EG) (A1G) (A2U) (T2U) (T2U)
                 (T2U) (T1U) (T1U) (T1U) (T2G) (T2G) (T2G) (EG)
                 (EG) (A1G)
 The electronic state is 4-A1G.
 Alpha  occ. eigenvalues --  -65.86723  -5.01687  -3.37621  -3.37621  -3.37621
 Alpha  occ. eigenvalues --   -0.19236   0.05760   0.05760   0.05760
 Alpha virt. eigenvalues --    0.31987   0.46424   0.46424   0.46424   0.52089
 Alpha virt. eigenvalues --    0.52089   0.52089   0.52089   0.52089   0.98982
 Alpha virt. eigenvalues --    1.19536   1.19536   1.19536   1.19536   1.19536
 Alpha virt. eigenvalues --    1.19536   1.19536   1.87927   1.87927   1.87927
 Alpha virt. eigenvalues --    1.87927   1.87927   2.70546
  Beta  occ. eigenvalues --  -65.86072  -5.00985  -3.36568  -3.36568  -3.36568
  Beta  occ. eigenvalues --   -0.10825
  Beta virt. eigenvalues --    0.16667   0.16667   0.16667   0.34634   0.50488
  Beta virt. eigenvalues --    0.50488   0.50488   0.58984   0.58984   0.58984
  Beta virt. eigenvalues --    0.58984   0.58984   1.02349   1.25702   1.25702
  Beta virt. eigenvalues --    1.25702   1.25702   1.25702   1.25702   1.25702
  Beta virt. eigenvalues --    1.90285   1.90285   1.90285   1.90285   1.90285
  Beta virt. eigenvalues --    2.73989
          Condensed to atoms (all electrons):
              1
     1  Si  15.000000
 Mulliken atomic charges:
              1
     1  Si  -1.000000
 Sum of Mulliken atomic charges =  -1.00000
 Mulliken charges with hydrogens summed into heavy atoms:
              1
     1  Si  -1.000000
 Sum of Mulliken charges with hydrogens summed into heavy atoms =  -1.00000
          Atomic-Atomic Spin Densities.
              1
     1  Si   3.000000
 Mulliken atomic spin densities:
              1
     1  Si   3.000000
 Sum of Mulliken atomic spin densities =   3.00000
 APT atomic charges:
              1
     1  Si  -1.000000
 Sum of APT charges=  -1.00000
 APT Atomic charges with hydrogens summed into heavy atoms:
              1
     1  Si  -1.000000
 Sum of APT charges=  -1.00000
 Electronic spatial extent (au):  <R**2>=             46.1961
 Charge=             -1.0000 electrons
 Dipole moment (field-independent basis, Debye):
    X=              0.0000    Y=              0.0000    Z=              0.0000  Tot=              0.0000
 Quadrupole moment (field-independent basis, Debye-Ang):
   XX=            -20.7118   YY=            -20.7118   ZZ=            -20.7118
   XY=              0.0000   XZ=              0.0000   YZ=              0.0000
 Traceless Quadrupole moment (field-independent basis, Debye-Ang):
   XX=              0.0000   YY=              0.0000   ZZ=              0.0000
   XY=              0.0000   XZ=              0.0000   YZ=              0.0000
 Octapole moment (field-independent basis, Debye-Ang**2):
  XXX=              0.0000  YYY=              0.0000  ZZZ=              0.0000  XYY=              0.0000
  XXY=              0.0000  XXZ=              0.0000  XZZ=              0.0000  YZZ=              0.0000
  YYZ=              0.0000  XYZ=              0.0000
 Hexadecapole moment (field-independent basis, Debye-Ang**3):
 XXXX=            -51.0744 YYYY=            -51.0744 ZZZZ=            -51.0744 XXXY=              0.0000
 XXXZ=              0.0000 YYYX=              0.0000 YYYZ=              0.0000 ZZZX=              0.0000
 ZZZY=              0.0000 XXYY=            -17.0248 XXZZ=            -17.0248 YYZZ=            -17.0248
 XXYZ=              0.0000 YYXZ=              0.0000 ZZXY=              0.0000
 N-N= 0.000000000000D+00 E-N=-1.030641466755D+03  KE= 4.317388105114D+02
 Symmetry AG   KE= 3.199972694144D+02
 Symmetry B1G  KE= 8.524253921130D-35
 Symmetry B2G  KE= 3.753216278706D-35
 Symmetry B3G  KE= 3.753216278706D-35
 Symmetry AU   KE= 3.536743672710D-53
 Symmetry B1U  KE= 3.724718036566D+01
 Symmetry B2U  KE= 3.724718036566D+01
 Symmetry B3U  KE= 3.724718036566D+01
  Exact polarizability:  33.605   0.000  33.605   0.000   0.000  33.605
 Approx polarizability:  44.337   0.000  44.337   0.000   0.000  44.337
                          Isotropic Fermi Contact Couplings
        Atom                 a.u.       MegaHertz       Gauss      10(-4) cm-1
     1  Si(29)            -0.09923      29.39610      10.48926       9.80548
 --------------------------------------------------------
       Center         ----  Spin Dipole Couplings  ----
                      3XX-RR        3YY-RR        3ZZ-RR
 --------------------------------------------------------
     1   Atom        0.000000      0.000000      0.000000
 --------------------------------------------------------
                        XY            XZ            YZ
 --------------------------------------------------------
     1   Atom        0.000000      0.000000      0.000000
 --------------------------------------------------------


 ---------------------------------------------------------------------------------
              Anisotropic Spin Dipole Couplings in Principal Axis System
 ---------------------------------------------------------------------------------

       Atom             a.u.   MegaHertz   Gauss  10(-4) cm-1        Axes

              Baa     0.0000     0.000     0.000     0.000  0.0000  1.0000  0.0000
     1 Si(29) Bbb     0.0000     0.000     0.000     0.000  0.0000  0.0000  1.0000
              Bcc     0.0000     0.000     0.000     0.000  1.0000  0.0000  0.0000
 

 ---------------------------------------------------------------------------------

 Calling FoFJK, ICntrl=    100127 FMM=F ISym2X=1 I1Cent= 0 IOpClX= 1 NMat=1 NMatS=1 NMatT=0.
 Full mass-weighted force constant matrix:
 Low frequencies ---    0.0000    0.0000    0.0000
 Diagonal vibrational polarizability:
        0.0000000       0.0000000       0.0000000
 Harmonic frequencies (cm**-1), IR intensities (KM/Mole), Raman scattering
 activities (A**4/AMU), depolarization ratios for plane and unpolarized
 incident light, reduced masses (AMU), force constants (mDyne/A),
 and normal coordinates:

 -------------------
 - Thermochemistry -
 -------------------
 Temperature   298.150 Kelvin.  Pressure   1.00000 Atm.
 Atom     1 has atomic number 14 and mass  27.97693
 Molecular mass:    27.97693 amu.
 Zero-point vibrational energy          0.0 (Joules/Mol)
                                    0.00000 (Kcal/Mol)
 Vibrational temperatures: 
          (Kelvin)
 
 Zero-point correction=                           0.000000 (Hartree/Particle)
 Thermal correction to Energy=                    0.001416
 Thermal correction to Enthalpy=                  0.002360
 Thermal correction to Gibbs Free Energy=        -0.016016
 Sum of electronic and zero-point Energies=           -289.407004
 Sum of electronic and thermal Energies=              -289.405588
 Sum of electronic and thermal Enthalpies=            -289.404644
 Sum of electronic and thermal Free Energies=         -289.423020
 
                     E (Thermal)             CV                S
                      KCal/Mol        Cal/Mol-Kelvin    Cal/Mol-Kelvin
 Total                    0.889              2.981             38.676
 Electronic               0.000              0.000              2.755
 Translational            0.889              2.981             35.921
 Rotational               0.000              0.000              0.000
 Vibrational              0.000              0.000              0.000
                       Q            Log10(Q)             Ln(Q)
 Total Bot       0.232657D+08          7.366715         16.962489
 Total V=0       0.232657D+08          7.366715         16.962489
 Vib (Bot)       0.100000D+01          0.000000          0.000000
 Vib (V=0)       0.100000D+01          0.000000          0.000000
 Electronic      0.400000D+01          0.602060          1.386294
 Translational   0.581641D+07          6.764655         15.576194
 Rotational      0.100000D+01          0.000000          0.000000
 ***** Axes restored to original set *****
 -------------------------------------------------------------------
 Center     Atomic                   Forces (Hartrees/Bohr)
 Number     Number              X              Y              Z
 -------------------------------------------------------------------
      1       14           0.000000000    0.000000000    0.000000000
 -------------------------------------------------------------------
 Cartesian Forces:  Max     0.000000000 RMS     0.000000000

 GradGradGradGradGradGradGradGradGradGradGradGradGradGradGradGradGradGrad
 Berny optimization.
 Search for a local minimum.
 Step number   1 out of a maximum of    2
 All quantities printed in internal units (Hartrees-Bohrs-Radians)
 Second derivative matrix not updated -- analytic derivatives used.
 The second derivative matrix:
                          X1        Y1        Z1
           X1           0.00000
           Y1           0.00000   0.00000
           Z1           0.00000   0.00000   0.00000
     Eigenvalues --- 
 Angle between quadratic step and forces=  90.00 degrees.
 ClnCor:  largest displacement from symmetrization is 0.00D+00 for atom     0.
 Linear search not attempted -- first point.
 ClnCor:  largest displacement from symmetrization is 0.00D+00 for atom     0.
 TrRot=  0.000000  0.000000  0.000000  0.000000  0.000000  0.000000
 Variable       Old X    -DE/DX   Delta X   Delta X   Delta X     New X
                                 (Linear)    (Quad)   (Total)
    X1        0.00000   0.00000   0.00000   0.00000   0.00000   0.00000
    Y1       -0.18897   0.00000   0.00000   0.00000   0.00000  -0.18897
    Z1        0.00000   0.00000   0.00000   0.00000   0.00000   0.00000
         Item               Value     Threshold  Converged?
 Maximum Force            0.000000     0.000450     YES
 RMS     Force            0.000000     0.000300     YES
 Maximum Displacement     0.000000     0.001800     YES
 RMS     Displacement     0.000000     0.001200     YES
 Predicted change in Energy= 0.000000D+00
 Optimization completed.
    -- Stationary point found.
 GradGradGradGradGradGradGradGradGradGradGradGradGradGradGradGradGradGrad

 1\1\GINC-NODE43\Freq\UB3LYP\GTBas3\Si1(1-,4)\TAM\06-Dec-2011\0\\#N Geo
 m=AllCheck Guess=TCheck SCRF=Check B3LYP/GTBas3 Freq\\Si-an-quartet\\-
 1,4\Si,0.,-0.1,0.\\Version=AM64L-G09RevA.02\State=4-A1G\HF=-289.407004
 1\S2=3.750368\S2-1=0.\S2A=3.75\RMSD=1.931e-10\RMSF=0.000e+00\Thermal=0
 .0014163\Dipole=0.,0.,0.\DipoleDeriv=-1.,0.,0.,0.,-1.,0.,0.,0.,-1.\Pol
 ar=33.6046746,0.,33.6046746,0.,0.,33.6046746\PG=OH [O(Si1)]\NImag=0\\0
 .,0.,0.,0.,0.,0.\\0.,0.,0.\\\@


 I WOULD TAKE COUNSEL OF MYSELF.
 I WOULD STOP AND LOOK WITHIN
 AND LOOKING WITHIN, LOOK BACK, ALSO
 THAT I MAY LOOK AHEAD WITH CLEARER UNDERSTANDING
 OF THE WAY I HAVE BEEN MOVING, AND IN WHAT DIRECTION.
 I NEED TO KNOW IF I AM GOING FORWARD OR RETREATING,
 WHETHER I HAVE BEEN WASTING, OR ENJOYING
 THE PRECIOUS MOMENTS OF LIFE.  THERE HAVE BEEN FRICTIONS,
 ANNOYANCES AND SOMETIMES WRATH,
 BUT WERE THEY BECAUSE I WAS RIGHT AND OTHERS WRONG.....
 HAVE I HAD MY THOUGHTS TOO SHARPLY FOCUSED
 ON THAT WHICH PLEASED ME, SERVED MY SELF-ESTEEM,
 UNDERGIRDED MY SECURITY,
 OF WHICH I DID NOT INQUIRE WHETHER IT SERVED OR HAMPERED OTHERS.....
 HAVE I BEEN TRYING TO STOP THE CLOCK
 TO HOLD THE WORLD
 IN PERPETUATION OF WHAT WAS AN IS ALREADY SLIPPING AWAY.....
 HAVE I BEEN CRITICAL OF OTHERS FOR WHAT REALLY NEEDED CHANGING IN ME...
 LET ME INDEED TAKE COUNSEL OF MYSELF
 AND SET MY DIRECTIONS STRAIGHT.

                          R.T. WESTON AS ADAPTED BY D. OSBORN 1967
 Job cpu time:  0 days  0 hours  0 minutes 25.2 seconds.
 File lengths (MBytes):  RWF=      5 Int=      0 D2E=      0 Chk=      2 Scr=      1
 Normal termination of Gaussian 09 at Tue Dec  6 18:51:17 2011.
 Link1:  Proceeding to internal job step number  3.
 -----------------------------------------------------------------
 #N Geom=AllCheck Guess=TCheck SCRF=Check CCSD(T,E4T,FrzG4)/GTBas1
 -----------------------------------------------------------------
 1/29=7,38=1,40=1/1;
 2/12=2,40=1/2;
 3/5=33,11=9,14=-4,16=1,25=1,30=1,70=2,116=-2/1,2,3;
 4/5=101/1;
 5/5=2,7=500,8=3,13=1/2,8;
 8/6=4,9=120000,10=6/1,4;
 9/5=7,14=4/13;
 6/7=2,8=2,9=2,10=2/1;
 99/5=1,9=1/99;
 -------------
 Si-an-quartet
 -------------
 No Z-matrix found on checkpoint file.
 Cartesian coordinates read from the checkpoint file:
 S7B-ne-d-04.chk
 Charge = -1 Multiplicity = 4
  Si                                                0.000000000000     -0.100000000000      0.000000000000
 Recover connectivity data from disk.
                          Input orientation:                          
 ---------------------------------------------------------------------
 Center     Atomic      Atomic             Coordinates (Angstroms)
 Number     Number       Type             X           Y           Z
 ---------------------------------------------------------------------
      1         14           0        0.000000   -0.100000    0.000000
 ---------------------------------------------------------------------
 Stoichiometry    Si(1-,4)
 Framework group  OH[O(Si)]
 Deg. of freedom     0
 Full point group                 OH      NOp  48
 Largest Abelian subgroup         D2H     NOp   8
 Largest concise Abelian subgroup C1      NOp   1
                         Standard orientation:                         
 ---------------------------------------------------------------------
 Center     Atomic      Atomic             Coordinates (Angstroms)
 Number     Number       Type             X           Y           Z
 ---------------------------------------------------------------------
      1         14           0        0.000000    0.000000    0.000000
 ---------------------------------------------------------------------
 Standard basis: GTBas1 (6D, 7F)
 There are     7 symmetry adapted basis functions of AG  symmetry.
 There are     1 symmetry adapted basis functions of B1G symmetry.
 There are     1 symmetry adapted basis functions of B2G symmetry.
 There are     1 symmetry adapted basis functions of B3G symmetry.
 There are     0 symmetry adapted basis functions of AU  symmetry.
 There are     3 symmetry adapted basis functions of B1U symmetry.
 There are     3 symmetry adapted basis functions of B2U symmetry.
 There are     3 symmetry adapted basis functions of B3U symmetry.
 Integral buffers will be    131072 words long.
 Raffenetti 2 integral format.
 Two-electron integral symmetry is turned on.
    19 basis functions,    52 primitive gaussians,    19 cartesian basis functions
     9 alpha electrons        6 beta electrons
       nuclear repulsion energy         0.0000000000 Hartrees.
 NAtoms=    1 NActive=    1 NUniq=    1 SFac= 7.50D-01 NAtFMM=   80 NAOKFM=F Big=F
 One-electron integrals computed using PRISM.
 NBasis=    19 RedAO= T  NBF=     7     1     1     1     0     3     3     3
 NBsUse=    19 1.00D-06 NBFU=     7     1     1     1     0     3     3     3
 Initial guess read from the checkpoint file:  S7B-ne-d-04.chk
 B after Tr=     0.000000    0.000000    0.000000
         Rot=    1.000000    0.000000    0.000000    0.000000 Ang=   0.00 deg.
 Initial guess orbital symmetries:
 Alpha Orbitals:
       Occupied  (A1G) (A1G) (T1U) (T1U) (T1U) (A1G) (T1U) (T1U)
                 (T1U)
       Virtual   (A1G) (T1U) (T1U) (T1U) (EG) (EG) (T2G) (T2G)
                 (T2G) (A1G)
 Beta  Orbitals:
       Occupied  (A1G) (A1G) (T1U) (T1U) (T1U) (A1G)
       Virtual   (T1U) (T1U) (T1U) (A1G) (T1U) (T1U) (T1U) (T2G)
                 (T2G) (T2G) (EG) (EG) (A1G)
 Initial guess <Sx>= 0.0000 <Sy>= 0.0000 <Sz>= 1.5000 <S**2>= 3.7501 S= 1.5000
 Requested convergence on RMS density matrix=1.00D-08 within 128 cycles.
 Requested convergence on MAX density matrix=1.00D-06.
 Requested convergence on             energy=1.00D-06.
 No special actions if energy rises.
 Keep R1 and R2 ints in memory in canonical form, NReq=876293.
 SCF Done:  E(UHF) =  -288.854862210     A.U. after    8 cycles
             Convg  =    0.2473D-08             -V/T =  2.0001
 <Sx>= 0.0000 <Sy>= 0.0000 <Sz>= 1.5000 <S**2>= 3.7507 S= 1.5002
 <L.S>= 0.000000000000E+00
 Annihilation of the first spin contaminant:
 S**2 before annihilation     3.7507,   after     3.7500
 QCSCF skips out because SCF is already converged.
 ExpMin= 7.78D-02 ExpMax= 1.61D+04 ExpMxC= 2.43D+03 IAcc=3 IRadAn=         5 AccDes= 0.00D+00
 HarFok:  IExCor=  205 AccDes= 0.00D+00 IRadAn=         5 IDoV=-2
 ScaDFX=  1.000000  1.000000  1.000000  1.000000
 Range of M.O.s used for correlation:     6    19
 NBasis=    19 NAE=     9 NBE=     6 NFC=     5 NFV=     0
 NROrb=     14 NOA=     4 NOB=     1 NVA=    10 NVB=    13
 Semi-Direct transformation.
 ModeAB=           2 MOrb=             4 LenV=    2555738071
 LASXX=          535 LTotXX=         535 LenRXX=         535
 LTotAB=         771 MaxLAS=       10640 LenRXY=       10640
 NonZer=       12488 LenScr=      785920 LnRSAI=           0
 LnScr1=           0 LExtra=           0 Total=       797095
 MaxDsk=          -1 SrtSym=           F ITran=            4
 JobTyp=1 Pass  1:  I=   1 to   4.
 (rs|ai) integrals will be sorted in core.
 ModeAB=           2 MOrb=             1 LenV=    2555738071
 LASXX=          166 LTotXX=         166 LenRXX=        2660
 LTotAB=         134 MaxLAS=        2660 LenRXY=         134
 NonZer=        3122 LenScr=      785920 LnRSAI=           0
 LnScr1=           0 LExtra=           0 Total=       788714
 MaxDsk=          -1 SrtSym=           F ITran=            4
 JobTyp=2 Pass  1:  I=   1 to   1.
 (rs|ai) integrals will be sorted in core.
 Spin components of T(2) and E(2):
     alpha-alpha T2 =       0.6074956876D-02 E2=     -0.1075209154D-01
     alpha-beta  T2 =       0.1994936126D-01 E2=     -0.3440650176D-01
     beta-beta   T2 =       0.0000000000D+00 E2=      0.0000000000D+00
 ANorm=    0.1012928585D+01
 E2 =    -0.4515859331D-01 EUMP2 =    -0.28890002080363D+03
 (S**2,0)=  0.37507D+01           (S**2,1)=  0.37501D+01
 E(PUHF)=      -0.28885494607D+03        E(PMP2)=      -0.28890006754D+03
 R2 and R3 integrals will be kept in memory, NReq=      856290.
 Iterations=  50 Convergence= 0.100D-06
 Iteration Nr.   1
 **********************
 DD1Dir will call FoFMem   1 times, MxPair=        14
 NAB=     4 NAA=     6 NBB=     0.
 E(PMP3)=      -0.28891105444D+03
 MP4(R+Q)=  0.89162919D-03
 Time for triples=        0.14 seconds.
 MP4(T)=   -0.63174112D-03
 E3=       -0.11007529D-01        EUMP3=      -0.28891102833D+03
 E4(DQ)=   -0.20880593D-02        UMP4(DQ)=   -0.28891311639D+03
 E4(SDQ)=  -0.23399270D-02        UMP4(SDQ)=  -0.28891336826D+03
 E4(SDTQ)= -0.29716681D-02        UMP4(SDTQ)= -0.28891400000D+03
 DE(Corr)= -0.55250071E-01 E(Corr)=     -288.91011228    
 NORM(A)=   0.10220659D+01
 Iteration Nr.   2
 **********************
 DD1Dir will call FoFMem   1 times, MxPair=        14
 NAB=     4 NAA=     6 NBB=     0.
 DE(Corr)= -0.58439817E-01 E(CORR)=     -288.91330203     Delta=-3.19D-03
 NORM(A)=   0.10227420D+01
 Iteration Nr.   3
 **********************
 DD1Dir will call FoFMem   1 times, MxPair=        14
 NAB=     4 NAA=     6 NBB=     0.
 DE(Corr)= -0.58709005E-01 E(CORR)=     -288.91357121     Delta=-2.69D-04
 NORM(A)=   0.10228806D+01
 Iteration Nr.   4
 **********************
 DD1Dir will call FoFMem   1 times, MxPair=        14
 NAB=     4 NAA=     6 NBB=     0.
 DE(Corr)= -0.58753158E-01 E(CORR)=     -288.91361537     Delta=-4.42D-05
 NORM(A)=   0.10228579D+01
 Iteration Nr.   5
 **********************
 DD1Dir will call FoFMem   1 times, MxPair=        14
 NAB=     4 NAA=     6 NBB=     0.
 DE(Corr)= -0.58746835E-01 E(CORR)=     -288.91360904     Delta= 6.32D-06
 NORM(A)=   0.10228700D+01
 Iteration Nr.   6
 **********************
 DD1Dir will call FoFMem   1 times, MxPair=        14
 NAB=     4 NAA=     6 NBB=     0.
 DE(Corr)= -0.58750155E-01 E(CORR)=     -288.91361236     Delta=-3.32D-06
 NORM(A)=   0.10228664D+01
 Iteration Nr.   7
 **********************
 DD1Dir will call FoFMem   1 times, MxPair=        14
 NAB=     4 NAA=     6 NBB=     0.
 DE(Corr)= -0.58749195E-01 E(CORR)=     -288.91361141     Delta= 9.59D-07
 NORM(A)=   0.10228669D+01
 Iteration Nr.   8
 **********************
 DD1Dir will call FoFMem   1 times, MxPair=        14
 NAB=     4 NAA=     6 NBB=     0.
 DE(Corr)= -0.58749317E-01 E(CORR)=     -288.91361153     Delta=-1.22D-07
 NORM(A)=   0.10228669D+01
 Iteration Nr.   9
 **********************
 DD1Dir will call FoFMem   1 times, MxPair=        14
 NAB=     4 NAA=     6 NBB=     0.
 DE(Corr)= -0.58749310E-01 E(CORR)=     -288.91361152     Delta= 7.45D-09
 NORM(A)=   0.10228669D+01
 Largest amplitude= 4.48D-02
 Time for triples=        0.14 seconds.
 T4(CCSD)= -0.10167546D-02
 T5(CCSD)=  0.50627867D-04
 CCSD(T)= -0.28891457765D+03

 S**2, projected HF & approx projected MPn energies after annihilation of
 unwanted spin states (see manual for definitions):

 spins       (S**2,0) (S**2,1)    PUHF        PMP2        PMP3        PMP4
 annihilated
 s+1         3.75000  3.75000 -288.854946 -288.900068 -288.911054


 **********************************************************************

            Population analysis using the SCF density.

 **********************************************************************

 Orbital symmetries:
 Alpha Orbitals:
       Occupied  (A1G) (A1G) (T1U) (T1U) (T1U) (A1G) (T1U) (T1U)
                 (T1U)
       Virtual   (A1G) (T1U) (T1U) (T1U) (EG) (EG) (T2G) (T2G)
                 (T2G) (A1G)
 Beta  Orbitals:
       Occupied  (A1G) (A1G) (T1U) (T1U) (T1U) (A1G)
       Virtual   (T1U) (T1U) (T1U) (A1G) (T1U) (T1U) (T1U) (EG)
                 (EG) (T2G) (T2G) (T2G) (A1G)
 The electronic state is 4-A1G.
 Alpha  occ. eigenvalues --  -68.51046  -5.86543  -3.97204  -3.97204  -3.97204
 Alpha  occ. eigenvalues --   -0.37885  -0.04423  -0.04423  -0.04423
 Alpha virt. eigenvalues --    0.51160   0.60768   0.60768   0.60768   1.04836
 Alpha virt. eigenvalues --    1.04836   1.04836   1.04836   1.04836   3.48268
  Beta  occ. eigenvalues --  -68.50083  -5.85432  -3.95049  -3.95049  -3.95049
  Beta  occ. eigenvalues --   -0.17033
  Beta virt. eigenvalues --    0.30480   0.30480   0.30480   0.56877   0.69203
  Beta virt. eigenvalues --    0.69203   0.69203   1.15234   1.15234   1.15234
  Beta virt. eigenvalues --    1.15234   1.15234   3.50585
          Condensed to atoms (all electrons):
              1
     1  Si  15.000000
 Mulliken atomic charges:
              1
     1  Si  -1.000000
 Sum of Mulliken atomic charges =  -1.00000
 Mulliken charges with hydrogens summed into heavy atoms:
              1
     1  Si  -1.000000
 Sum of Mulliken charges with hydrogens summed into heavy atoms =  -1.00000
          Atomic-Atomic Spin Densities.
              1
     1  Si   3.000000
 Mulliken atomic spin densities:
              1
     1  Si   3.000000
 Sum of Mulliken atomic spin densities =   3.00000
 Electronic spatial extent (au):  <R**2>=             46.8969
 Charge=             -1.0000 electrons
 Dipole moment (field-independent basis, Debye):
    X=              0.0000    Y=              0.0000    Z=              0.0000  Tot=              0.0000
 Quadrupole moment (field-independent basis, Debye-Ang):
   XX=            -21.0260   YY=            -21.0260   ZZ=            -21.0260
   XY=              0.0000   XZ=              0.0000   YZ=              0.0000
 Traceless Quadrupole moment (field-independent basis, Debye-Ang):
   XX=              0.0000   YY=              0.0000   ZZ=              0.0000
   XY=              0.0000   XZ=              0.0000   YZ=              0.0000
 Octapole moment (field-independent basis, Debye-Ang**2):
  XXX=              0.0000  YYY=              0.0000  ZZZ=              0.0000  XYY=              0.0000
  XXY=              0.0000  XXZ=              0.0000  XZZ=              0.0000  YZZ=              0.0000
  YYZ=              0.0000  XYZ=              0.0000
 Hexadecapole moment (field-independent basis, Debye-Ang**3):
 XXXX=            -52.2802 YYYY=            -52.2802 ZZZZ=            -52.2802 XXXY=              0.0000
 XXXZ=              0.0000 YYYX=              0.0000 YYYZ=              0.0000 ZZZX=              0.0000
 ZZZY=              0.0000 XXYY=            -17.4267 XXZZ=            -17.4267 YYZZ=            -17.4267
 XXYZ=              0.0000 YYXZ=              0.0000 ZZXY=              0.0000
 N-N= 0.000000000000D+00 E-N=-1.031053982485D+03  KE= 4.321764954255D+02
 Symmetry AG   KE= 3.200877207822D+02
 Symmetry B1G  KE= 2.088591342906D-35
 Symmetry B2G  KE= 9.196036509812D-36
 Symmetry B3G  KE= 9.196036509813D-36
 Symmetry AU   KE= 0.000000000000D+00
 Symmetry B1U  KE= 3.736292488110D+01
 Symmetry B2U  KE= 3.736292488110D+01
 Symmetry B3U  KE= 3.736292488110D+01
 1\1\GINC-NODE43\SP\UCCSD(T)\GTBas1\Si1(1-,4)\TAM\06-Dec-2011\0\\#N Geo
 m=AllCheck Guess=TCheck SCRF=Check CCSD(T,E4T,FrzG4)/GTBas1\\Si-an-qua
 rtet\\-1,4\Si,0.,-0.1,0.\\Version=AM64L-G09RevA.02\State=4-A1G\HF=-288
 .8548622\MP2=-288.9000208\MP3=-288.9110283\MP4D=-288.914008\MP4DQ=-288
 .9131164\MP4SDTQ=-288.914\PUHF=-288.8549461\PMP2-0=-288.9000675\PMP3-0
 =-288.9110544\MP4SDQ=-288.9133683\CCSD=-288.9136115\CCSD(T)=-288.91457
 76\S2=3.750737\S2-1=3.750084\S2A=3.75\RMSD=2.473e-09\PG=OH [O(Si1)]\\@


 LIFE IS SO UNCERTAIN - EAT DESSERT FIRST.
 Job cpu time:  0 days  0 hours  0 minutes  6.6 seconds.
 File lengths (MBytes):  RWF=     12 Int=      0 D2E=      0 Chk=      2 Scr=      1
 Normal termination of Gaussian 09 at Tue Dec  6 18:51:19 2011.
 Link1:  Proceeding to internal job step number  4.
 ---------------------------------------------------------
 #N Geom=AllCheck Guess=TCheck SCRF=Check MP4=FrzG4/GTBas2
 ---------------------------------------------------------
 1/29=7,38=1,40=1/1;
 2/12=2,40=1/2;
 3/5=34,11=9,14=-4,16=1,25=1,30=1,70=2,116=-2/1,2,3;
 4/5=101/1;
 5/5=2,7=500,8=3,13=1/2,8;
 8/6=4,9=120000,10=6/1,4;
 9/5=5/13;
 6/7=2,8=2,9=2,10=2/1;
 99/5=1,9=1/99;
 -------------
 Si-an-quartet
 -------------
 No Z-matrix found on checkpoint file.
 Cartesian coordinates read from the checkpoint file:
 S7B-ne-d-04.chk
 Charge = -1 Multiplicity = 4
  Si                                                0.000000000000     -0.100000000000      0.000000000000
 Recover connectivity data from disk.
                          Input orientation:                          
 ---------------------------------------------------------------------
 Center     Atomic      Atomic             Coordinates (Angstroms)
 Number     Number       Type             X           Y           Z
 ---------------------------------------------------------------------
      1         14           0        0.000000   -0.100000    0.000000
 ---------------------------------------------------------------------
 Stoichiometry    Si(1-,4)
 Framework group  OH[O(Si)]
 Deg. of freedom     0
 Full point group                 OH      NOp  48
 Largest Abelian subgroup         D2H     NOp   8
 Largest concise Abelian subgroup C1      NOp   1
                         Standard orientation:                         
 ---------------------------------------------------------------------
 Center     Atomic      Atomic             Coordinates (Angstroms)
 Number     Number       Type             X           Y           Z
 ---------------------------------------------------------------------
      1         14           0        0.000000    0.000000    0.000000
 ---------------------------------------------------------------------
 Standard basis: GTBas2 (6D, 7F)
 There are     8 symmetry adapted basis functions of AG  symmetry.
 There are     1 symmetry adapted basis functions of B1G symmetry.
 There are     1 symmetry adapted basis functions of B2G symmetry.
 There are     1 symmetry adapted basis functions of B3G symmetry.
 There are     0 symmetry adapted basis functions of AU  symmetry.
 There are     4 symmetry adapted basis functions of B1U symmetry.
 There are     4 symmetry adapted basis functions of B2U symmetry.
 There are     4 symmetry adapted basis functions of B3U symmetry.
 Integral buffers will be    131072 words long.
 Raffenetti 2 integral format.
 Two-electron integral symmetry is turned on.
    23 basis functions,    56 primitive gaussians,    23 cartesian basis functions
     9 alpha electrons        6 beta electrons
       nuclear repulsion energy         0.0000000000 Hartrees.
 NAtoms=    1 NActive=    1 NUniq=    1 SFac= 7.50D-01 NAtFMM=   80 NAOKFM=F Big=F
 One-electron integrals computed using PRISM.
 NBasis=    23 RedAO= T  NBF=     8     1     1     1     0     4     4     4
 NBsUse=    23 1.00D-06 NBFU=     8     1     1     1     0     4     4     4
 Initial guess read from the checkpoint file:  S7B-ne-d-04.chk
 B after Tr=     0.000000    0.000000    0.000000
         Rot=    1.000000    0.000000    0.000000    0.000000 Ang=   0.00 deg.
 Initial guess orbital symmetries:
 Alpha Orbitals:
       Occupied  (A1G) (A1G) (T1U) (T1U) (T1U) (A1G) (T1U) (T1U)
                 (T1U)
       Virtual   (A1G) (T1U) (T1U) (T1U) (EG) (EG) (T2G) (T2G)
                 (T2G) (A1G) (A1G) (T1U) (T1U) (T1U)
 Beta  Orbitals:
       Occupied  (A1G) (A1G) (T1U) (T1U) (T1U) (A1G)
       Virtual   (T1U) (T1U) (T1U) (A1G) (T1U) (T1U) (T1U) (EG)
                 (EG) (T2G) (T2G) (T2G) (A1G) (A1G) (T1U) (T1U)
                 (T1U)
 Initial guess <Sx>= 0.0000 <Sy>= 0.0000 <Sz>= 1.5000 <S**2>= 3.7507 S= 1.5002
 Requested convergence on RMS density matrix=1.00D-08 within 128 cycles.
 Requested convergence on MAX density matrix=1.00D-06.
 Requested convergence on             energy=1.00D-06.
 No special actions if energy rises.
 Keep R1 and R2 ints in memory in canonical form, NReq=916795.
 SCF Done:  E(UHF) =  -288.864777825     A.U. after   10 cycles
             Convg  =    0.8103D-08             -V/T =  2.0003
 <Sx>= 0.0000 <Sy>= 0.0000 <Sz>= 1.5000 <S**2>= 3.7507 S= 1.5002
 <L.S>= 0.000000000000E+00
 Annihilation of the first spin contaminant:
 S**2 before annihilation     3.7507,   after     3.7500
 QCSCF skips out because SCF is already converged.
 ExpMin= 3.31D-02 ExpMax= 1.61D+04 ExpMxC= 2.43D+03 IAcc=3 IRadAn=         5 AccDes= 0.00D+00
 HarFok:  IExCor=  205 AccDes= 0.00D+00 IRadAn=         5 IDoV=-2
 ScaDFX=  1.000000  1.000000  1.000000  1.000000
 Range of M.O.s used for correlation:     6    23
 NBasis=    23 NAE=     9 NBE=     6 NFC=     5 NFV=     0
 NROrb=     18 NOA=     4 NOB=     1 NVA=    14 NVB=    17
 Semi-Direct transformation.
 ModeAB=           2 MOrb=             4 LenV=    2555735244
 LASXX=         1257 LTotXX=        1257 LenRXX=        1257
 LTotAB=        1665 MaxLAS=       19872 LenRXY=       19872
 NonZer=       22680 LenScr=      785920 LnRSAI=           0
 LnScr1=           0 LExtra=           0 Total=       807049
 MaxDsk=          -1 SrtSym=           F ITran=            4
 JobTyp=1 Pass  1:  I=   1 to   4.
 (rs|ai) integrals will be sorted in core.
 ModeAB=           2 MOrb=             1 LenV=    2555735244
 LASXX=          384 LTotXX=         384 LenRXX=        4968
 LTotAB=         318 MaxLAS=        4968 LenRXY=         318
 NonZer=        5670 LenScr=      785920 LnRSAI=           0
 LnScr1=           0 LExtra=           0 Total=       791206
 MaxDsk=          -1 SrtSym=           F ITran=            4
 JobTyp=2 Pass  1:  I=   1 to   1.
 (rs|ai) integrals will be sorted in core.
 Spin components of T(2) and E(2):
     alpha-alpha T2 =       0.8239052999D-02 E2=     -0.1201234614D-01
     alpha-beta  T2 =       0.2116820791D-01 E2=     -0.3541700361D-01
     beta-beta   T2 =       0.0000000000D+00 E2=      0.0000000000D+00
 ANorm=    0.1014597093D+01
 E2 =    -0.4742934975D-01 EUMP2 =    -0.28891220717491D+03
 (S**2,0)=  0.37507D+01           (S**2,1)=  0.37500D+01
 E(PUHF)=      -0.28886487601D+03        E(PMP2)=      -0.28891225737D+03
 R2 and R3 integrals will be kept in memory, NReq=      896452.
 DD1Dir will call FoFMem   1 times, MxPair=        14
 NAB=     4 NAA=     6 NBB=     0.
 E(PMP3)=      -0.28892369616D+03
 MP4(D)= -0.31798639D-02
 MP4(S)= -0.30307783D-03
 MP4(R+Q)=  0.10296315D-02
 Time for triples=        0.20 seconds.
 MP4(T)=   -0.87220283D-03
 E3=       -0.11464526D-01        EUMP3=      -0.28892367170D+03
 E4(DQ)=   -0.21502324D-02        UMP4(DQ)=   -0.28892582193D+03
 E4(SDQ)=  -0.24533102D-02        UMP4(SDQ)=  -0.28892612501D+03
 E4(SDTQ)= -0.33255130D-02        UMP4(SDTQ)= -0.28892699721D+03
 Largest amplitude= 3.10D-02

 S**2, projected HF & approx projected MPn energies after annihilation of
 unwanted spin states (see manual for definitions):

 spins       (S**2,0) (S**2,1)    PUHF        PMP2        PMP3        PMP4
 annihilated
 s+1         3.75000  3.75000 -288.864876 -288.912257 -288.923696 -288.927022


 **********************************************************************

            Population analysis using the SCF density.

 **********************************************************************

 Orbital symmetries:
 Alpha Orbitals:
       Occupied  (A1G) (A1G) (T1U) (T1U) (T1U) (A1G) (T1U) (T1U)
                 (T1U)
       Virtual   (A1G) (T1U) (T1U) (T1U) (A1G) (T1U) (T1U) (T1U)
                 (EG) (T2G) (T2G) (T2G) (EG) (A1G)
 Beta  Orbitals:
       Occupied  (A1G) (A1G) (T1U) (T1U) (T1U) (A1G)
       Virtual   (T1U) (T1U) (T1U) (A1G) (T1U) (T1U) (T1U) (A1G)
                 (T1U) (T1U) (T1U) (T2G) (T2G) (T2G) (EG) (EG)
                 (A1G)
 The electronic state is 4-A1G.
 Alpha  occ. eigenvalues --  -68.54368  -5.89792  -4.00418  -4.00418  -4.00418
 Alpha  occ. eigenvalues --   -0.39881  -0.06076  -0.06076  -0.06076
 Alpha virt. eigenvalues --    0.21347   0.24308   0.24308   0.24308   0.66370
 Alpha virt. eigenvalues --    0.70980   0.70980   0.70980   1.02067   1.02067
 Alpha virt. eigenvalues --    1.02067   1.02067   1.02067   3.48743
  Beta  occ. eigenvalues --  -68.53409  -5.88693  -3.98284  -3.98284  -3.98284
  Beta  occ. eigenvalues --   -0.20144
  Beta virt. eigenvalues --    0.20919   0.20919   0.20919   0.23781   0.33577
  Beta virt. eigenvalues --    0.33577   0.33577   0.70908   0.77453   0.77453
  Beta virt. eigenvalues --    0.77453   1.11933   1.11933   1.11933   1.11933
  Beta virt. eigenvalues --    1.11933   3.51031
          Condensed to atoms (all electrons):
              1
     1  Si  15.000000
 Mulliken atomic charges:
              1
     1  Si  -1.000000
 Sum of Mulliken atomic charges =  -1.00000
 Mulliken charges with hydrogens summed into heavy atoms:
              1
     1  Si  -1.000000
 Sum of Mulliken charges with hydrogens summed into heavy atoms =  -1.00000
          Atomic-Atomic Spin Densities.
              1
     1  Si   3.000000
 Mulliken atomic spin densities:
              1
     1  Si   3.000000
 Sum of Mulliken atomic spin densities =   3.00000
 Electronic spatial extent (au):  <R**2>=             53.4660
 Charge=             -1.0000 electrons
 Dipole moment (field-independent basis, Debye):
    X=              0.0000    Y=              0.0000    Z=              0.0000  Tot=              0.0000
 Quadrupole moment (field-independent basis, Debye-Ang):
   XX=            -23.9712   YY=            -23.9712   ZZ=            -23.9712
   XY=              0.0000   XZ=              0.0000   YZ=              0.0000
 Traceless Quadrupole moment (field-independent basis, Debye-Ang):
   XX=              0.0000   YY=              0.0000   ZZ=              0.0000
   XY=              0.0000   XZ=              0.0000   YZ=              0.0000
 Octapole moment (field-independent basis, Debye-Ang**2):
  XXX=              0.0000  YYY=              0.0000  ZZZ=              0.0000  XYY=              0.0000
  XXY=              0.0000  XXZ=              0.0000  XZZ=              0.0000  YZZ=              0.0000
  YYZ=              0.0000  XYZ=              0.0000
 Hexadecapole moment (field-independent basis, Debye-Ang**3):
 XXXX=            -84.5202 YYYY=            -84.5202 ZZZZ=            -84.5202 XXXY=              0.0000
 XXXZ=              0.0000 YYYX=              0.0000 YYYZ=              0.0000 ZZZX=              0.0000
 ZZZY=              0.0000 XXYY=            -28.1734 XXZZ=            -28.1734 YYZZ=            -28.1734
 XXYZ=              0.0000 YYXZ=              0.0000 ZZXY=              0.0000
 N-N= 0.000000000000D+00 E-N=-1.030617099596D+03  KE= 4.321230499793D+02
 Symmetry AG   KE= 3.201456630268D+02
 Symmetry B1G  KE= 2.061736637217D-35
 Symmetry B2G  KE= 9.077795641475D-36
 Symmetry B3G  KE= 9.077795641480D-36
 Symmetry AU   KE= 0.000000000000D+00
 Symmetry B1U  KE= 3.732579565085D+01
 Symmetry B2U  KE= 3.732579565085D+01
 Symmetry B3U  KE= 3.732579565085D+01
 1\1\GINC-NODE43\SP\UMP4SDTQ\GTBas2\Si1(1-,4)\TAM\06-Dec-2011\0\\#N Geo
 m=AllCheck Guess=TCheck SCRF=Check MP4=FrzG4/GTBas2\\Si-an-quartet\\-1
 ,4\Si,0.,-0.1,0.\\Version=AM64L-G09RevA.02\State=4-A1G\HF=-288.8647778
 \MP2=-288.9122072\MP3=-288.9236717\MP4D=-288.9268516\MP4DQ=-288.925821
 9\MP4SDQ=-288.926125\MP4SDTQ=-288.9269972\PUHF=-288.864876\PMP2-0=-288
 .9122574\PMP3-0=-288.9236962\S2=3.75068\S2-1=3.750015\S2A=3.75\RMSD=8.
 103e-09\PG=OH [O(Si1)]\\@


 ALL SCIENCE IS EITHER PHYSICS, OR STAMP COLLECTING.
   --ERNEST RUTHERFORD, 1871-1937.
 Job cpu time:  0 days  0 hours  0 minutes  4.6 seconds.
 File lengths (MBytes):  RWF=     12 Int=      0 D2E=      0 Chk=      2 Scr=      1
 Normal termination of Gaussian 09 at Tue Dec  6 18:51:20 2011.
 Link1:  Proceeding to internal job step number  5.
 ---------------------------------------------------------
 #N Geom=AllCheck Guess=TCheck SCRF=Check MP4=FrzG4/GTBas3
 ---------------------------------------------------------
 1/29=7,38=1,40=1/1;
 2/12=2,40=1/2;
 3/5=35,11=9,14=-4,16=1,25=1,30=1,70=2,116=-2/1,2,3;
 4/5=101/1;
 5/5=2,7=500,8=3,13=1/2,8;
 8/6=4,9=120000,10=6/1,4;
 9/5=5/13;
 6/7=2,8=2,9=2,10=2/1;
 99/5=1,9=1/99;
 -------------
 Si-an-quartet
 -------------
 No Z-matrix found on checkpoint file.
 Cartesian coordinates read from the checkpoint file:
 S7B-ne-d-04.chk
 Charge = -1 Multiplicity = 4
  Si                                                0.000000000000     -0.100000000000      0.000000000000
 Recover connectivity data from disk.
                          Input orientation:                          
 ---------------------------------------------------------------------
 Center     Atomic      Atomic             Coordinates (Angstroms)
 Number     Number       Type             X           Y           Z
 ---------------------------------------------------------------------
      1         14           0        0.000000   -0.100000    0.000000
 ---------------------------------------------------------------------
 Stoichiometry    Si(1-,4)
 Framework group  OH[O(Si)]
 Deg. of freedom     0
 Full point group                 OH      NOp  48
 Largest Abelian subgroup         D2H     NOp   8
 Largest concise Abelian subgroup C1      NOp   1
                         Standard orientation:                         
 ---------------------------------------------------------------------
 Center     Atomic      Atomic             Coordinates (Angstroms)
 Number     Number       Type             X           Y           Z
 ---------------------------------------------------------------------
      1         14           0        0.000000    0.000000    0.000000
 ---------------------------------------------------------------------
 Standard basis: GTBas3 (6D, 7F)
 There are    10 symmetry adapted basis functions of AG  symmetry.
 There are     2 symmetry adapted basis functions of B1G symmetry.
 There are     2 symmetry adapted basis functions of B2G symmetry.
 There are     2 symmetry adapted basis functions of B3G symmetry.
 There are     1 symmetry adapted basis functions of AU  symmetry.
 There are     5 symmetry adapted basis functions of B1U symmetry.
 There are     5 symmetry adapted basis functions of B2U symmetry.
 There are     5 symmetry adapted basis functions of B3U symmetry.
 Integral buffers will be    131072 words long.
 Raffenetti 2 integral format.
 Two-electron integral symmetry is turned on.
    32 basis functions,    68 primitive gaussians,    35 cartesian basis functions
     9 alpha electrons        6 beta electrons
       nuclear repulsion energy         0.0000000000 Hartrees.
 NAtoms=    1 NActive=    1 NUniq=    1 SFac= 7.50D-01 NAtFMM=   80 NAOKFM=F Big=F
 One-electron integrals computed using PRISM.
 NBasis=    32 RedAO= T  NBF=    10     2     2     2     1     5     5     5
 NBsUse=    32 1.00D-06 NBFU=    10     2     2     2     1     5     5     5
 Initial guess read from the checkpoint file:  S7B-ne-d-04.chk
 B after Tr=     0.000000    0.000000    0.000000
         Rot=    1.000000    0.000000    0.000000    0.000000 Ang=   0.00 deg.
 Initial guess orbital symmetries:
 Alpha Orbitals:
       Occupied  (A1G) (A1G) (T1U) (T1U) (T1U) (A1G) (T1U) (T1U)
                 (T1U)
       Virtual   (A1G) (T1U) (T1U) (T1U) (A1G) (EG) (T2G) (T2G)
                 (T2G) (EG) (A1G) (EG) (EG) (T2G) (T2G) (T2G) (A2U)
                 (?A) (?A) (?A) (?A) (?A) (?A)
 Beta  Orbitals:
       Occupied  (A1G) (A1G) (T1U) (T1U) (T1U) (A1G)
       Virtual   (T1U) (T1U) (T1U) (A1G) (T1U) (T1U) (T1U) (A1G)
                 (T2G) (T2G) (T2G) (EG) (EG) (A1G) (EG) (EG) (T2G)
                 (T2G) (T2G) (A2U) (?A) (?A) (?A) (?A) (?A) (?A)
 Initial guess <Sx>= 0.0000 <Sy>= 0.0000 <Sz>= 1.5000 <S**2>= 3.7506 S= 1.5001
 Requested convergence on RMS density matrix=1.00D-08 within 128 cycles.
 Requested convergence on MAX density matrix=1.00D-06.
 Requested convergence on             energy=1.00D-06.
 No special actions if energy rises.
 Keep R1 and R2 ints in memory in canonical form, NReq=2360162.
 SCF Done:  E(UHF) =  -288.855061662     A.U. after    9 cycles
             Convg  =    0.4335D-09             -V/T =  1.9998
 <Sx>= 0.0000 <Sy>= 0.0000 <Sz>= 1.5000 <S**2>= 3.7507 S= 1.5002
 <L.S>= 0.000000000000E+00
 Annihilation of the first spin contaminant:
 S**2 before annihilation     3.7507,   after     3.7500
 QCSCF skips out because SCF is already converged.
 ExpMin= 7.78D-02 ExpMax= 1.61D+04 ExpMxC= 2.43D+03 IAcc=3 IRadAn=         5 AccDes= 0.00D+00
 HarFok:  IExCor=  205 AccDes= 0.00D+00 IRadAn=         5 IDoV=-2
 ScaDFX=  1.000000  1.000000  1.000000  1.000000
 Range of M.O.s used for correlation:     6    32
 NBasis=    32 NAE=     9 NBE=     6 NFC=     5 NFV=     0
 NROrb=     27 NOA=     4 NOB=     1 NVA=    23 NVB=    26
 Semi-Direct transformation.
 ModeAB=           2 MOrb=             4 LenV=    2555674346
 LASXX=         4389 LTotXX=        4389 LenRXX=        4389
 LTotAB=        5194 MaxLAS=       68040 LenRXY=       68040
 NonZer=       78084 LenScr=      785920 LnRSAI=           0
 LnScr1=           0 LExtra=           0 Total=       858349
 MaxDsk=          -1 SrtSym=           F ITran=            4
 JobTyp=1 Pass  1:  I=   1 to   4.
 (rs|ai) integrals will be sorted in core.
 ModeAB=           2 MOrb=             1 LenV=    2555674346
 LASXX=         1215 LTotXX=        1215 LenRXX=       17010
 LTotAB=        1073 MaxLAS=       17010 LenRXY=        1073
 NonZer=       19521 LenScr=      785920 LnRSAI=           0
 LnScr1=           0 LExtra=           0 Total=       804003
 MaxDsk=          -1 SrtSym=           F ITran=            4
 JobTyp=2 Pass  1:  I=   1 to   1.
 (rs|ai) integrals will be sorted in core.
 Spin components of T(2) and E(2):
     alpha-alpha T2 =       0.1217550490D-01 E2=     -0.1868443041D-01
     alpha-beta  T2 =       0.3353443230D-01 E2=     -0.5052745998D-01
     beta-beta   T2 =       0.0000000000D+00 E2=      0.0000000000D+00
 ANorm=    0.1022599598D+01
 E2 =    -0.6921189039D-01 EUMP2 =    -0.28892427355198D+03
 (S**2,0)=  0.37507D+01           (S**2,1)=  0.37499D+01
 E(PUHF)=      -0.28885521434D+03        E(PMP2)=      -0.28892433939D+03
 R2 and R3 integrals will be kept in memory, NReq=     2337530.
 DD1Dir will call FoFMem   1 times, MxPair=        14
 NAB=     4 NAA=     6 NBB=     0.
 E(PMP3)=      -0.28893946324D+03
 MP4(D)= -0.41257875D-02
 MP4(S)= -0.22199739D-03
 MP4(R+Q)=  0.24002955D-02
 Time for triples=        0.51 seconds.
 MP4(T)=   -0.22603530D-02
 E3=       -0.15168290D-01        EUMP3=      -0.28893944184D+03
 E4(DQ)=   -0.17254920D-02        UMP4(DQ)=   -0.28894116733D+03
 E4(SDQ)=  -0.19474894D-02        UMP4(SDQ)=  -0.28894138933D+03
 E4(SDTQ)= -0.42078425D-02        UMP4(SDTQ)= -0.28894364968D+03
 Largest amplitude= 4.72D-02

 S**2, projected HF & approx projected MPn energies after annihilation of
 unwanted spin states (see manual for definitions):

 spins       (S**2,0) (S**2,1)    PUHF        PMP2        PMP3        PMP4
 annihilated
 s+1         3.75000  3.75000 -288.855214 -288.924339 -288.939463 -288.943671


 **********************************************************************

            Population analysis using the SCF density.

 **********************************************************************

 Orbital symmetries:
 Alpha Orbitals:
       Occupied  (A1G) (A1G) (T1U) (T1U) (T1U) (A1G) (T1U) (T1U)
                 (T1U)
       Virtual   (A1G) (T1U) (T1U) (T1U) (T2G) (T2G) (T2G) (EG)
                 (EG) (A1G) (?A) (?A) (?A) (?A) (A2U) (?A) (?A)
                 (EG) (T2G) (T2G) (T2G) (EG) (A1G)
 Beta  Orbitals:
       Occupied  (A1G) (A1G) (T1U) (T1U) (T1U) (A1G)
       Virtual   (T1U) (T1U) (T1U) (A1G) (T1U) (T1U) (T1U) (T2G)
                 (T2G) (T2G) (EG) (EG) (A1G) (?A) (?A) (?A) (A2U)
                 (?A) (?A) (?A) (EG) (T2G) (T2G) (T2G) (EG) (A1G)
 The electronic state is 4-A1G.
 Alpha  occ. eigenvalues --  -68.50769  -5.86418  -3.97069  -3.97069  -3.97069
 Alpha  occ. eigenvalues --   -0.37951  -0.04482  -0.04482  -0.04482
 Alpha virt. eigenvalues --    0.41482   0.60744   0.60744   0.60744   0.66621
 Alpha virt. eigenvalues --    0.66621   0.66621   0.66621   0.66621   1.16762
 Alpha virt. eigenvalues --    1.40167   1.40167   1.40167   1.40167   1.40167
 Alpha virt. eigenvalues --    1.40167   1.40167   2.17887   2.17887   2.17887
 Alpha virt. eigenvalues --    2.17887   2.17887   2.96795
  Beta  occ. eigenvalues --  -68.49818  -5.85336  -3.94923  -3.94923  -3.94923
  Beta  occ. eigenvalues --   -0.17042
  Beta virt. eigenvalues --    0.30430   0.30430   0.30430   0.45811   0.69194
  Beta virt. eigenvalues --    0.69194   0.69194   0.78678   0.78678   0.78678
  Beta virt. eigenvalues --    0.78678   0.78678   1.20555   1.46636   1.46636
  Beta virt. eigenvalues --    1.46636   1.46636   1.46636   1.46636   1.46636
  Beta virt. eigenvalues --    2.20873   2.20873   2.20873   2.20873   2.20873
  Beta virt. eigenvalues --    2.99252
          Condensed to atoms (all electrons):
              1
     1  Si  15.000000
 Mulliken atomic charges:
              1
     1  Si  -1.000000
 Sum of Mulliken atomic charges =  -1.00000
 Mulliken charges with hydrogens summed into heavy atoms:
              1
     1  Si  -1.000000
 Sum of Mulliken charges with hydrogens summed into heavy atoms =  -1.00000
          Atomic-Atomic Spin Densities.
              1
     1  Si   3.000000
 Mulliken atomic spin densities:
              1
     1  Si   3.000000
 Sum of Mulliken atomic spin densities =   3.00000
 Electronic spatial extent (au):  <R**2>=             47.0095
 Charge=             -1.0000 electrons
 Dipole moment (field-independent basis, Debye):
    X=              0.0000    Y=              0.0000    Z=              0.0000  Tot=              0.0000
 Quadrupole moment (field-independent basis, Debye-Ang):
   XX=            -21.0765   YY=            -21.0765   ZZ=            -21.0765
   XY=              0.0000   XZ=              0.0000   YZ=              0.0000
 Traceless Quadrupole moment (field-independent basis, Debye-Ang):
   XX=              0.0000   YY=              0.0000   ZZ=              0.0000
   XY=              0.0000   XZ=              0.0000   YZ=              0.0000
 Octapole moment (field-independent basis, Debye-Ang**2):
  XXX=              0.0000  YYY=              0.0000  ZZZ=              0.0000  XYY=              0.0000
  XXY=              0.0000  XXZ=              0.0000  XZZ=              0.0000  YZZ=              0.0000
  YYZ=              0.0000  XYZ=              0.0000
 Hexadecapole moment (field-independent basis, Debye-Ang**3):
 XXXX=            -52.6357 YYYY=            -52.6357 ZZZZ=            -52.6357 XXXY=              0.0000
 XXXZ=              0.0000 YYYX=              0.0000 YYYZ=              0.0000 ZZZX=              0.0000
 ZZZY=              0.0000 XXYY=            -17.5452 XXZZ=            -17.5452 YYZZ=            -17.5452
 XXYZ=              0.0000 YYXZ=              0.0000 ZZXY=              0.0000
 N-N= 0.000000000000D+00 E-N=-1.031190127804D+03  KE= 4.322966839951D+02
 Symmetry AG   KE= 3.202109026637D+02
 Symmetry B1G  KE= 8.324698272721D-35
 Symmetry B2G  KE= 3.665352224556D-35
 Symmetry B3G  KE= 3.665352224556D-35
 Symmetry AU   KE= 6.205907315472D-62
 Symmetry B1U  KE= 3.736192711045D+01
 Symmetry B2U  KE= 3.736192711045D+01
 Symmetry B3U  KE= 3.736192711045D+01
 1\1\GINC-NODE43\SP\UMP4SDTQ\GTBas3\Si1(1-,4)\TAM\06-Dec-2011\0\\#N Geo
 m=AllCheck Guess=TCheck SCRF=Check MP4=FrzG4/GTBas3\\Si-an-quartet\\-1
 ,4\Si,0.,-0.1,0.\\Version=AM64L-G09RevA.02\State=4-A1G\HF=-288.8550617
 \MP2=-288.9242736\MP3=-288.9394418\MP4D=-288.9435676\MP4DQ=-288.941167
 3\MP4SDQ=-288.9413893\MP4SDTQ=-288.9436497\PUHF=-288.8552143\PMP2-0=-2
 88.9243394\PMP3-0=-288.9394632\S2=3.750731\S2-1=3.749899\S2A=3.75\RMSD
 =4.335e-10\PG=OH [O(Si1)]\\@


 I DO NOT DEFINE TIME, SPACE, PLACE, AND MOTION, AS BEING WELL KNOWN TO ALL.
                                            -- NEWTON (1642-1726), PRINCIPIA
 Job cpu time:  0 days  0 hours  0 minutes  9.2 seconds.
 File lengths (MBytes):  RWF=     12 Int=      0 D2E=      0 Chk=      2 Scr=      1
 Normal termination of Gaussian 09 at Tue Dec  6 18:51:22 2011.
 Link1:  Proceeding to internal job step number  6.
 -----------------------------------------------------------
 #N Geom=AllCheck Guess=TCheck SCRF=Check MP2=Full/GTLargeXP
 -----------------------------------------------------------
 1/29=7,38=1,40=1/1;
 2/12=2,40=1/2;
 3/5=31,11=9,14=-4,16=1,25=1,30=1,70=2,116=-2/1,2,3;
 4/5=101/1;
 5/5=2,7=500,8=3,13=1/2,8;
 8/10=90/1;
 9/16=-3/6;
 6/7=2,8=2,9=2,10=2/1;
 99/5=1,9=1/99;
 -------------
 Si-an-quartet
 -------------
 No Z-matrix found on checkpoint file.
 Cartesian coordinates read from the checkpoint file:
 S7B-ne-d-04.chk
 Charge = -1 Multiplicity = 4
  Si                                                0.000000000000     -0.100000000000      0.000000000000
 Recover connectivity data from disk.
                          Input orientation:                          
 ---------------------------------------------------------------------
 Center     Atomic      Atomic             Coordinates (Angstroms)
 Number     Number       Type             X           Y           Z
 ---------------------------------------------------------------------
      1         14           0        0.000000   -0.100000    0.000000
 ---------------------------------------------------------------------
 Stoichiometry    Si(1-,4)
 Framework group  OH[O(Si)]
 Deg. of freedom     0
 Full point group                 OH      NOp  48
 Largest Abelian subgroup         D2H     NOp   8
 Largest concise Abelian subgroup C1      NOp   1
                         Standard orientation:                         
 ---------------------------------------------------------------------
 Center     Atomic      Atomic             Coordinates (Angstroms)
 Number     Number       Type             X           Y           Z
 ---------------------------------------------------------------------
      1         14           0        0.000000    0.000000    0.000000
 ---------------------------------------------------------------------
 Standard basis: GTlargeXP (5D, 7F)
 There are    17 symmetry adapted basis functions of AG  symmetry.
 There are     5 symmetry adapted basis functions of B1G symmetry.
 There are     5 symmetry adapted basis functions of B2G symmetry.
 There are     5 symmetry adapted basis functions of B3G symmetry.
 There are     3 symmetry adapted basis functions of AU  symmetry.
 There are    12 symmetry adapted basis functions of B1U symmetry.
 There are    12 symmetry adapted basis functions of B2U symmetry.
 There are    12 symmetry adapted basis functions of B3U symmetry.
 Integral buffers will be    131072 words long.
 Raffenetti 2 integral format.
 Two-electron integral symmetry is turned on.
    71 basis functions,   104 primitive gaussians,    85 cartesian basis functions
     9 alpha electrons        6 beta electrons
       nuclear repulsion energy         0.0000000000 Hartrees.
 NAtoms=    1 NActive=    1 NUniq=    1 SFac= 7.50D-01 NAtFMM=   80 NAOKFM=F Big=F
 One-electron integrals computed using PRISM.
 NBasis=    71 RedAO= T  NBF=    17     5     5     5     3    12    12    12
 NBsUse=    71 1.00D-06 NBFU=    17     5     5     5     3    12    12    12
[...]
   XY=              0.0000   XZ=              0.0000   YZ=              0.0000
 Traceless Quadrupole moment (field-independent basis, Debye-Ang):
   XX=              0.0000   YY=              0.0000   ZZ=              0.0000
   XY=              0.0000   XZ=              0.0000   YZ=              0.0000
 Octapole moment (field-independent basis, Debye-Ang**2):
  XXX=              0.0000  YYY=              0.0000  ZZZ=              0.0000  XYY=              0.0000
  XXY=              0.0000  XXZ=              0.0000  XZZ=              0.0000  YZZ=              0.0000
  YYZ=              0.0000  XYZ=              0.0000
 Hexadecapole moment (field-independent basis, Debye-Ang**3):
 XXXX=            -98.8276 YYYY=            -98.8276 ZZZZ=            -98.8276 XXXY=              0.0000
 XXXZ=              0.0000 YYYX=              0.0000 YYYZ=              0.0000 ZZZX=              0.0000
 ZZZY=              0.0000 XXYY=            -32.9425 XXZZ=            -32.9425 YYZZ=            -32.9425
 XXYZ=              0.0000 YYXZ=              0.0000 ZZXY=              0.0000
 N-N= 0.000000000000D+00 E-N=-1.030771481406D+03  KE= 4.322971690901D+02
 Symmetry AG   KE= 3.203723524341D+02
 Symmetry B1G  KE= 2.908120341644D-60
 Symmetry B2G  KE= 2.844484803056D-60
 Symmetry B3G  KE= 2.907396639926D-60
 Symmetry AU   KE= 5.762665295727D-61
 Symmetry B1U  KE= 3.730827221866D+01
 Symmetry B2U  KE= 3.730827221866D+01
 Symmetry B3U  KE= 3.730827221866D+01
                          Isotropic Fermi Contact Couplings
        Atom                 a.u.       MegaHertz       Gauss      10(-4) cm-1
     1  Si(29)            -0.31298      92.71804      33.08410      30.92741
 --------------------------------------------------------
       Center         ----  Spin Dipole Couplings  ----
                      3XX-RR        3YY-RR        3ZZ-RR
 --------------------------------------------------------
     1   Atom        0.000000      0.000000      0.000000
 --------------------------------------------------------
                        XY            XZ            YZ
 --------------------------------------------------------
     1   Atom        0.000000      0.000000      0.000000
 --------------------------------------------------------


 ---------------------------------------------------------------------------------
              Anisotropic Spin Dipole Couplings in Principal Axis System
 ---------------------------------------------------------------------------------

       Atom             a.u.   MegaHertz   Gauss  10(-4) cm-1        Axes

              Baa     0.0000     0.000     0.000     0.000  0.0000  1.0000  0.0000
     1 Si(29) Bbb     0.0000     0.000     0.000     0.000  1.0000  0.0000  0.0000
              Bcc     0.0000     0.000     0.000     0.000  0.0000  0.0000  1.0000
 

 ---------------------------------------------------------------------------------

 1\1\GINC-NODE43\SP\UHF\GFHFB1\Si1(1-,4)\TAM\06-Dec-2011\0\\#N Geom=All
 Check Guess=TCheck SCRF=Check HF/GFHFB1 SCF=Tight\\Si-an-quartet\\-1,4
 \Si,0.,-0.1,0.\\Version=AM64L-G09RevA.02\State=4-A1G\HF=-288.8896541\S
 2=3.750752\S2-1=0.\S2A=3.75\RMSD=8.267e-09\Dipole=0.,0.,0.\Quadrupole=
 0.,0.,0.,0.,0.,0.\PG=OH [O(Si1)]\\@


 UNLESS WE CHANGE DIRECTIONS, WE WILL WIND UP WHERE WE ARE HEADED.
     -- CONFUCIUS
 Job cpu time:  0 days  0 hours  0 minutes 16.2 seconds.
 File lengths (MBytes):  RWF=     12 Int=      0 D2E=      0 Chk=      2 Scr=      1
 Normal termination of Gaussian 09 at Tue Dec  6 18:51:29 2011.
 Link1:  Proceeding to internal job step number  8.
 ------------------------------------------------------------
 #N Geom=AllCheck Guess=TCheck SCRF=Check HF/GFHFB2 SCF=Tight
 ------------------------------------------------------------
 1/29=7,38=1,40=1/1;
 2/12=2,40=1/2;
 3/5=37,11=9,14=-4,16=1,25=1,30=1,70=2,116=-2/1,2,3;
 4/5=101/1;
 5/5=2,7=500,8=3,13=1,32=2/2,8;
 6/7=2,8=2,9=2,10=2,28=1/1;
 99/5=1,9=1/99;
 -------------
 Si-an-quartet
 -------------
 No Z-matrix found on checkpoint file.
 Cartesian coordinates read from the checkpoint file:
 S7B-ne-d-04.chk
 Charge = -1 Multiplicity = 4
  Si                                                0.000000000000     -0.100000000000      0.000000000000
 Recover connectivity data from disk.
                          Input orientation:                          
 ---------------------------------------------------------------------
 Center     Atomic      Atomic             Coordinates (Angstroms)
 Number     Number       Type             X           Y           Z
 ---------------------------------------------------------------------
      1         14           0        0.000000   -0.100000    0.000000
 ---------------------------------------------------------------------
 Stoichiometry    Si(1-,4)
 Framework group  OH[O(Si)]
 Deg. of freedom     0
 Full point group                 OH      NOp  48
 Largest Abelian subgroup         D2H     NOp   8
 Largest concise Abelian subgroup C1      NOp   1
                         Standard orientation:                         
 ---------------------------------------------------------------------
 Center     Atomic      Atomic             Coordinates (Angstroms)
 Number     Number       Type             X           Y           Z
 ---------------------------------------------------------------------
      1         14           0        0.000000    0.000000    0.000000
 ---------------------------------------------------------------------
 Standard basis: GFHFB2 (5D, 7F)
 There are    22 symmetry adapted basis functions of AG  symmetry.
 There are     8 symmetry adapted basis functions of B1G symmetry.
 There are     8 symmetry adapted basis functions of B2G symmetry.
 There are     8 symmetry adapted basis functions of B3G symmetry.
 There are     5 symmetry adapted basis functions of AU  symmetry.
 There are    16 symmetry adapted basis functions of B1U symmetry.
 There are    16 symmetry adapted basis functions of B2U symmetry.
 There are    16 symmetry adapted basis functions of B3U symmetry.
 Integral buffers will be    131072 words long.
 Raffenetti 2 integral format.
 Two-electron integral symmetry is turned on.
    99 basis functions,   196 primitive gaussians,   134 cartesian basis functions
     9 alpha electrons        6 beta electrons
       nuclear repulsion energy         0.0000000000 Hartrees.
 NAtoms=    1 NActive=    1 NUniq=    1 SFac= 7.50D-01 NAtFMM=   80 NAOKFM=F Big=F
 One-electron integrals computed using PRISM.
 NBasis=    99 RedAO= T  NBF=    22     8     8     8     5    16    16    16
 NBsUse=    99 1.00D-06 NBFU=    22     8     8     8     5    16    16    16
 Initial guess read from the checkpoint file:  S7B-ne-d-04.chk
 B after Tr=     0.000000    0.000000    0.000000
         Rot=    1.000000    0.000000    0.000000    0.000000 Ang=   0.00 deg.
 Initial guess orbital symmetries:
 Alpha Orbitals:
       Occupied  (A1G) (A1G) (T1U) (T1U) (T1U) (A1G) (T1U) (T1U)
                 (T1U)
       Virtual   (T1U) (T1U) (T1U) (A1G) (EG) (EG) (T2G) (T2G)
                 (T2G) (T1U) (T1U) (T1U) (A1G) (?A) (?A) (A2U)
                 (?A) (?A) (?A) (?A) (EG) (EG) (T2G) (T2G) (T2G)
                 (T1U) (T1U) (T1U) (A1G) (T2G) (T2G) (?B) (?B)
                 (T2G) (?B) (?B) (?B) (?B) (T2G) (EG) (T2G) (T2G)
                 (EG) (?A) (?A) (?A) (A2U) (?A) (?A) (?A) (T1U)
                 (T1U) (T1U) (A1G) (EG) (EG) (T2G) (T2G) (T2G)
                 (A1G) (T2G) (?B) (?B) (T2G) (?B) (?B) (T2G) (?B)
                 (?B) (EU) (EU) (A2U) (?C) (?C) (?C) (T1U) (?A)
                 (?A) (?C) (?C) (?C) (T1U) (?A) (?A) (?C) (?C)
                 (?C) (T1U) (?A) (?A)
 Beta  Orbitals:
       Occupied  (A1G) (A1G) (T1U) (T1U) (T1U) (A1G)
       Virtual   (T1U) (T1U) (T1U) (A1G) (T1U) (T1U) (T1U) (T1U)
                 (T1U) (T1U) (EG) (EG) (T2G) (T2G) (T2G) (A1G)
                 (?A) (?A) (?A) (A2U) (?A) (?A) (?A) (EG) (EG)
                 (T2G) (T2G) (T2G) (T1U) (T1U) (T1U) (A1G) (T2G)
                 (T2G) (T2G) (EG) (EG) (T2G) (T2G) (?B) (?B) (T2G)
                 (?B) (?B) (?B) (?B) (?A) (?A) (?A) (A2U) (?A)
                 (?A) (?A) (T1U) (T1U) (T1U) (A1G) (EG) (EG) (T2G)
                 (T2G) (T2G) (A1G) (T2G) (?B) (?B) (T2G) (?B) (?B)
                 (T2G) (?B) (?B) (EU) (EU) (A2U) (?C) (?C) (?C)
                 (T1U) (?A) (?A) (?C) (?C) (?C) (T1U) (?A) (?A)
                 (?C) (?C) (?C) (T1U) (?A) (?A)
 Initial guess <Sx>= 0.0000 <Sy>= 0.0000 <Sz>= 1.5000 <S**2>= 3.7508 S= 1.5002
 Requested convergence on RMS density matrix=1.00D-08 within 128 cycles.
 Requested convergence on MAX density matrix=1.00D-06.
 Requested convergence on             energy=1.00D-06.
 No special actions if energy rises.
 Keep R1 and R2 ints in memory in canonical form, NReq=98345096.
 SCF Done:  E(UHF) =  -288.889977398     A.U. after    8 cycles
             Convg  =    0.3659D-08             -V/T =  2.0000
 <Sx>= 0.0000 <Sy>= 0.0000 <Sz>= 1.5000 <S**2>= 3.7508 S= 1.5002
 <L.S>= 0.000000000000E+00
 Annihilation of the first spin contaminant:
 S**2 before annihilation     3.7508,   after     3.7500
 QCSCF skips out because SCF is already converged.

 **********************************************************************

            Population analysis using the SCF density.

 **********************************************************************

 Orbital symmetries:
 Alpha Orbitals:
       Occupied  (A1G) (A1G) (T1U) (T1U) (T1U) (A1G) (T1U) (T1U)
                 (T1U)
       Virtual   (T1U) (T1U) (T1U) (A1G) (T1U) (T1U) (T1U) (A1G)
                 (T2G) (T2G) (T2G) (EG) (EG) (?A) (?A) (?A) (A2U)
                 (?A) (?A) (?A) (T2G) (T2G) (T2G) (EG) (EG) (T1U)
                 (T1U) (T1U) (A1G) (T2G) (T2G) (?B) (?B) (?B) (?B)
                 (?B) (?B) (T2G) (A2U) (?A) (?A) (?A) (?A) (?A)
                 (?A) (EG) (EG) (T2G) (T2G) (T2G) (T1U) (T1U) (T1U)
                 (A2U) (?A) (?A) (?A) (?A) (?A) (?A) (?C) (EU)
                 (?C) (?C) (EU) (?C) (?C) (?C) (?C) (?C) (?C) (A1G)
                 (?B) (?B) (T2G) (?B) (T2G) (?B) (?B) (?B) (T2G)
                 (T2G) (T2G) (T2G) (EG) (EG) (T1U) (T1U) (T1U)
                 (A1G)
 Beta  Orbitals:
       Occupied  (A1G) (A1G) (T1U) (T1U) (T1U) (A1G)
       Virtual   (T1U) (T1U) (T1U) (A1G) (T1U) (T1U) (T1U) (A1G)
                 (T1U) (T1U) (T1U) (T2G) (T2G) (T2G) (EG) (EG)
                 (?A) (?A) (?A) (A2U) (?A) (?A) (?A) (T2G) (T2G)
                 (T2G) (EG) (EG) (T1U) (T1U) (T1U) (A1G) (T2G)
                 (T2G) (?B) (?B) (?B) (?B) (?B) (?B) (T2G) (A2U)
                 (?A) (?A) (?A) (?A) (?A) (?A) (EG) (EG) (T2G)
                 (T2G) (T2G) (T1U) (T1U) (T1U) (A2U) (?A) (?A)
                 (?A) (?A) (?A) (?A) (?C) (?C) (?C) (EU) (EU) (?C)
                 (?C) (?C) (?C) (?C) (?C) (A1G) (?B) (?B) (?B)
                 (T2G) (T2G) (?B) (?B) (?B) (T2G) (T2G) (T2G) (T2G)
                 (EG) (EG) (T1U) (T1U) (T1U) (A1G)
 The electronic state is 4-A1G.
 Alpha  occ. eigenvalues --  -68.55913  -5.90302  -4.01009  -4.01009  -4.01009
 Alpha  occ. eigenvalues --   -0.40063  -0.06202  -0.06202  -0.06202
 Alpha virt. eigenvalues --    0.16483   0.16483   0.16483   0.17876   0.42591
 Alpha virt. eigenvalues --    0.42591   0.42591   0.45249   0.46257   0.46257
 Alpha virt. eigenvalues --    0.46257   0.46257   0.46257   0.80261   0.80261
 Alpha virt. eigenvalues --    0.80261   0.80261   0.80261   0.80261   0.80261
 Alpha virt. eigenvalues --    1.07321   1.07321   1.07321   1.07321   1.07321
 Alpha virt. eigenvalues --    1.13622   1.13622   1.13622   1.26822   1.74308
 Alpha virt. eigenvalues --    1.74308   1.74308   1.74308   1.74308   1.74308
 Alpha virt. eigenvalues --    1.74308   1.74308   1.74308   1.78934   1.78934
 Alpha virt. eigenvalues --    1.78934   1.78934   1.78934   1.78934   1.78934
 Alpha virt. eigenvalues --    2.59688   2.59688   2.59688   2.59688   2.59688
 Alpha virt. eigenvalues --    3.37257   3.37257   3.37257   3.68631   3.68631
 Alpha virt. eigenvalues --    3.68631   3.68631   3.68631   3.68631   3.68631
 Alpha virt. eigenvalues --    3.71443   3.71443   3.71443   3.71443   3.71443
 Alpha virt. eigenvalues --    3.71443   3.71443   3.71443   3.71443   3.71443
 Alpha virt. eigenvalues --    3.71443   4.13239   4.21591   4.21591   4.21591
 Alpha virt. eigenvalues --    4.21591   4.21591   4.21591   4.21591   4.21591
 Alpha virt. eigenvalues --    4.21591   6.40347   6.40347   6.40347   6.40347
 Alpha virt. eigenvalues --    6.40347  13.17514  13.17514  13.17514  34.70183
  Beta  occ. eigenvalues --  -68.54824  -5.89194  -3.98699  -3.98699  -3.98699
  Beta  occ. eigenvalues --   -0.20412
  Beta virt. eigenvalues --    0.15721   0.15721   0.15721   0.19397   0.27536
  Beta virt. eigenvalues --    0.27536   0.27536   0.48900   0.49001   0.49001
  Beta virt. eigenvalues --    0.49001   0.54854   0.54854   0.54854   0.54854
  Beta virt. eigenvalues --    0.54854   0.84053   0.84053   0.84053   0.84053
  Beta virt. eigenvalues --    0.84053   0.84053   0.84053   1.13305   1.13305
  Beta virt. eigenvalues --    1.13305   1.13305   1.13305   1.18466   1.18466
  Beta virt. eigenvalues --    1.18466   1.30395   1.77685   1.77685   1.77685
  Beta virt. eigenvalues --    1.77685   1.77685   1.77685   1.77685   1.77685
  Beta virt. eigenvalues --    1.77685   1.83209   1.83209   1.83209   1.83209
  Beta virt. eigenvalues --    1.83209   1.83209   1.83209   2.61754   2.61754
  Beta virt. eigenvalues --    2.61754   2.61754   2.61754   3.40043   3.40043
  Beta virt. eigenvalues --    3.40043   3.70901   3.70901   3.70901   3.70901
  Beta virt. eigenvalues --    3.70901   3.70901   3.70901   3.74060   3.74060
  Beta virt. eigenvalues --    3.74060   3.74060   3.74060   3.74060   3.74060
  Beta virt. eigenvalues --    3.74060   3.74060   3.74060   3.74060   4.15192
  Beta virt. eigenvalues --    4.24089   4.24089   4.24089   4.24089   4.24089
  Beta virt. eigenvalues --    4.24089   4.24089   4.24089   4.24089   6.41507
  Beta virt. eigenvalues --    6.41507   6.41507   6.41507   6.41507  13.19163
  Beta virt. eigenvalues --   13.19163  13.19163  34.71137
          Condensed to atoms (all electrons):
              1
     1  Si  15.000000
 Mulliken atomic charges:
              1
     1  Si  -1.000000
 Sum of Mulliken atomic charges =  -1.00000
 Mulliken charges with hydrogens summed into heavy atoms:
              1
     1  Si  -1.000000
 Sum of Mulliken charges with hydrogens summed into heavy atoms =  -1.00000
          Atomic-Atomic Spin Densities.
              1
     1  Si   3.000000
 Mulliken atomic spin densities:
              1
     1  Si   3.000000
 Sum of Mulliken atomic spin densities =   3.00000
 Electronic spatial extent (au):  <R**2>=             54.7975
 Charge=             -1.0000 electrons
 Dipole moment (field-independent basis, Debye):
    X=              0.0000    Y=              0.0000    Z=              0.0000  Tot=              0.0000
 Quadrupole moment (field-independent basis, Debye-Ang):
   XX=            -24.5682   YY=            -24.5682   ZZ=            -24.5682
   XY=              0.0000   XZ=              0.0000   YZ=              0.0000
 Traceless Quadrupole moment (field-independent basis, Debye-Ang):
   XX=              0.0000   YY=              0.0000   ZZ=              0.0000
   XY=              0.0000   XZ=              0.0000   YZ=              0.0000
 Octapole moment (field-independent basis, Debye-Ang**2):
  XXX=              0.0000  YYY=              0.0000  ZZZ=              0.0000  XYY=              0.0000
  XXY=              0.0000  XXZ=              0.0000  XZZ=              0.0000  YZZ=              0.0000
  YYZ=              0.0000  XYZ=              0.0000
 Hexadecapole moment (field-independent basis, Debye-Ang**3):
 XXXX=            -98.9099 YYYY=            -98.9099 ZZZZ=            -98.9099 XXXY=              0.0000
 XXXZ=              0.0000 YYYX=              0.0000 YYYZ=              0.0000 ZZZX=              0.0000
 ZZZY=              0.0000 XXYY=            -32.9700 XXZZ=            -32.9700 YYZZ=            -32.9700
 XXYZ=              0.0000 YYXZ=              0.0000 ZZXY=              0.0000
 N-N= 0.000000000000D+00 E-N=-1.030695300869D+03  KE= 4.322405893512D+02
 Symmetry AG   KE= 3.203727158705D+02
 Symmetry B1G  KE= 1.947341629912D-58
 Symmetry B2G  KE= 1.979006759684D-58
 Symmetry B3G  KE= 1.994251135103D-58
 Symmetry AU   KE= 3.983608259751D-59
 Symmetry B1U  KE= 3.728929116022D+01
 Symmetry B2U  KE= 3.728929116022D+01
 Symmetry B3U  KE= 3.728929116022D+01
                          Isotropic Fermi Contact Couplings
        Atom                 a.u.       MegaHertz       Gauss      10(-4) cm-1
     1  Si(29)            -0.33062      97.94457      34.94906      32.67079
 --------------------------------------------------------
       Center         ----  Spin Dipole Couplings  ----
                      3XX-RR        3YY-RR        3ZZ-RR
 --------------------------------------------------------
     1   Atom        0.000000      0.000000      0.000000
 --------------------------------------------------------
                        XY            XZ            YZ
 --------------------------------------------------------
     1   Atom        0.000000      0.000000      0.000000
 --------------------------------------------------------


 ---------------------------------------------------------------------------------
              Anisotropic Spin Dipole Couplings in Principal Axis System
 ---------------------------------------------------------------------------------

       Atom             a.u.   MegaHertz   Gauss  10(-4) cm-1        Axes

              Baa     0.0000     0.000     0.000     0.000  1.0000  0.0000  0.0000
     1 Si(29) Bbb     0.0000     0.000     0.000     0.000  0.0000  0.0000  1.0000
              Bcc     0.0000     0.000     0.000     0.000  0.0000  1.0000  0.0000
 

 ---------------------------------------------------------------------------------

 1\1\GINC-NODE43\SP\UHF\GFHFB2\Si1(1-,4)\TAM\06-Dec-2011\0\\#N Geom=All
 Check Guess=TCheck SCRF=Check HF/GFHFB2 SCF=Tight\\Si-an-quartet\\-1,4
 \Si,0.,-0.1,0.\\Version=AM64L-G09RevA.02\State=4-A1G\HF=-288.8899774\S
 2=3.750752\S2-1=0.\S2A=3.75\RMSD=3.659e-09\Dipole=0.,0.,0.\Quadrupole=
 0.,0.,0.,0.,0.,0.\PG=OH [O(Si1)]\\@


 When I told the people of Northern Ireland that I was
 an atheist, a woman in the audience stood up and said,
 "Yes, but is it the God of the Catholics or the God
 of the Protestants in whom you don't believe?"
                               -- Quentin Crisp
 Diagonal vibrational polarizability:
        0.0000000       0.0000000       0.0000000

 Temperature=              298.150000 Pressure=                      1.000000
 E(ZPE)=                     0.000000 E(Thermal)=                    0.001416
 E(CCSD(T))=              -288.914578 E(Empiric)=                   -0.011358
 DE(Plus)=                  -0.012997 DE(2DF)=                      -0.029650
 E(Delta-G3XP)=             -0.311000 DE(HF)=                       -0.006983
 G4(0 K)=                 -289.286566 G4 Energy=                  -289.285149
 G4 Enthalpy=             -289.284205 G4 Free Energy=             -289.302581
 1\1\GINC-NODE43\Mixed\G4\G4\Si1(1-,4)\TAM\06-Dec-2011\0\\# G4 scfcyc=5
 00 scf=xqc\\Si-an-quartet\\-1,4\Si,0.,-0.1,0.\\Version=AM64L-G09RevA.0
 2\State=4-A1G\MP2/GTBas1=-288.9000208\MP4/GTBas1=-288.914\CCSD(T)/G3Ba
 s1=-288.9145776\MP2/GTBas2=-288.9122072\MP4/GTBas2=-288.9269972\MP2/GT
 Bas3=-288.9242736\MP4/GTBas3=-288.9436497\HF/GTLargeXP=-288.8830731\MP
 2/GTLargeXP=-289.2474599\HF/GFHFB1=-288.8896541\HF/GFHFB2=-288.8899774
 \G4=-289.2865657\FreqCoord=0.,-0.1889726133,0.\PG=OH [O(Si1)]\NImag=0\
 \0.,0.,0.,0.,0.,0.\\0.,0.,0.\\\@
 Job cpu time:  0 days  0 hours  1 minutes 11.7 seconds.
 File lengths (MBytes):  RWF=     12 Int=      0 D2E=      0 Chk=      2 Scr=      1
 Normal termination of Gaussian 09 at Tue Dec  6 18:51:41 2011.
