 Entering Gaussian System, Link 0=g09
 Initial command:
 /usr/local/chem/g09A2/l1.exe /temp0/tam/Gau-11318.inp -scrdir=/temp0/tam/
 Entering Link 1 = /usr/local/chem/g09A2/l1.exe PID=     11319.
  
 Copyright (c) 1988,1990,1992,1993,1995,1998,2003,2009, Gaussian, Inc.
                  All Rights Reserved.
  
 This is part of the Gaussian(R) 09 program.  It is based on
 the Gaussian(R) 03 system (copyright 2003, Gaussian, Inc.),
 the Gaussian(R) 98 system (copyright 1998, Gaussian, Inc.),
 the Gaussian(R) 94 system (copyright 1995, Gaussian, Inc.),
 the Gaussian 92(TM) system (copyright 1992, Gaussian, Inc.),
 the Gaussian 90(TM) system (copyright 1990, Gaussian, Inc.),
 the Gaussian 88(TM) system (copyright 1988, Gaussian, Inc.),
 the Gaussian 86(TM) system (copyright 1986, Carnegie Mellon
 University), and the Gaussian 82(TM) system (copyright 1983,
 Carnegie Mellon University). Gaussian is a federally registered
 trademark of Gaussian, Inc.
  
 This software contains proprietary and confidential information,
 including trade secrets, belonging to Gaussian, Inc.
  
 This software is provided under written license and may be
 used, copied, transmitted, or stored only in accord with that
 written license.
  
 The following legend is applicable only to US Government
 contracts under FAR:
  
                    RESTRICTED RIGHTS LEGEND
  
 Use, reproduction and disclosure by the US Government is
 subject to restrictions as set forth in subparagraphs (a)
 and (c) of the Commercial Computer Software - Restricted
 Rights clause in FAR 52.227-19.
  
 Gaussian, Inc.
 340 Quinnipiac St., Bldg. 40, Wallingford CT 06492
  
  
 ---------------------------------------------------------------
 Warning -- This program may not be used in any manner that
 competes with the business of Gaussian, Inc. or will provide
 assistance to any competitor of Gaussian, Inc.  The licensee
 of this program is prohibited from giving any competitor of
 Gaussian, Inc. access to this program.  By using this program,
 the user acknowledges that Gaussian, Inc. is engaged in the
 business of creating and licensing software in the field of
 computational chemistry and represents and warrants to the
 licensee that it is not a competitor of Gaussian, Inc. and that
 it will not use this program in any manner prohibited above.
 ---------------------------------------------------------------
  

 Cite this work as:
 Gaussian 09, Revision A.02,
 M. J. Frisch, G. W. Trucks, H. B. Schlegel, G. E. Scuseria, 
 M. A. Robb, J. R. Cheeseman, G. Scalmani, V. Barone, B. Mennucci, 
 G. A. Petersson, H. Nakatsuji, M. Caricato, X. Li, H. P. Hratchian, 
 A. F. Izmaylov, J. Bloino, G. Zheng, J. L. Sonnenberg, M. Hada, 
 M. Ehara, K. Toyota, R. Fukuda, J. Hasegawa, M. Ishida, T. Nakajima, 
 Y. Honda, O. Kitao, H. Nakai, T. Vreven, J. A. Montgomery, Jr., 
 J. E. Peralta, F. Ogliaro, M. Bearpark, J. J. Heyd, E. Brothers, 
 K. N. Kudin, V. N. Staroverov, R. Kobayashi, J. Normand, 
 K. Raghavachari, A. Rendell, J. C. Burant, S. S. Iyengar, J. Tomasi, 
 M. Cossi, N. Rega, J. M. Millam, M. Klene, J. E. Knox, J. B. Cross, 
 V. Bakken, C. Adamo, J. Jaramillo, R. Gomperts, R. E. Stratmann, 
 O. Yazyev, A. J. Austin, R. Cammi, C. Pomelli, J. W. Ochterski, 
 R. L. Martin, K. Morokuma, V. G. Zakrzewski, G. A. Voth, 
 P. Salvador, J. J. Dannenberg, S. Dapprich, A. D. Daniels, 
 O. Farkas, J. B. Foresman, J. V. Ortiz, J. Cioslowski, 
 and D. J. Fox, Gaussian, Inc., Wallingford CT, 2009.
 
 ******************************************
 Gaussian 09:  AM64L-G09RevA.02 11-Jun-2009
                17-Dec-2011 
 ******************************************
 %NprocShared=12
 Will use up to   12 processors via shared memory.
 %mem=70050MB
 %chk=S9L-ne-d-01
 -----------------------
 # G4 scfcyc=500 scf=xqc
 -----------------------
 1/14=-1,18=20,19=15,26=3,38=1/1,3;
 2/9=110,12=2,17=6,18=5,40=1/2;
 3/5=35,7=104,11=2,16=1,25=1,30=1,71=1,74=-5/1,2,3;
 4//1;
 5/5=2,7=500,8=3,13=1,38=5/2,8;
 6/7=2,8=2,9=2,10=2,28=1/1;
 7//1,2,3,16;
 1/14=-1,18=20,19=15/3(2);
 2/9=110/2;
 99//99;
 2/9=110/2;
 3/5=35,7=104,11=2,16=1,25=1,30=1,71=1,74=-5/1,2,3;
 4/5=5,16=3/1;
 5/5=2,7=500,8=3,13=1,38=5/2,8;
 7//1,2,3,16;
 1/14=-1,18=20,19=15/3(-5);
 2/9=110/2;
 6/7=2,8=2,9=2,10=2,19=2,28=1/1;
 99/9=1/99;
 ------
 si12-n
 ------
 Symbolic Z-matrix:
 Charge =  0 Multiplicity = 1
 Si                   -0.06485  -0.15867   3.67118 
 Si                   -1.74399   0.03346   1.83844 
 Si                    0.71976   0.79603   1.72593 
 Si                    0.58881  -1.67809   1.79244 
 Si                    2.02651  -0.62389   0. 
 Si                   -1.17483   1.57719   0. 
 Si                   -1.00592  -1.30425   0. 
 Si                   -1.74399   0.03346  -1.83844 
 Si                    0.71976   0.79603  -1.72593 
 Si                    0.58881  -1.67809  -1.79244 
 Si                   -0.06485  -0.15867  -3.67118 
 Si                    1.15478   2.3655    0. 
 

 GradGradGradGradGradGradGradGradGradGradGradGradGradGradGradGradGradGrad
 Berny optimization.
 Initialization pass.
                           ----------------------------
                           !    Initial Parameters    !
                           ! (Angstroms and Degrees)  !
 --------------------------                            --------------------------
 ! Name  Definition              Value          Derivative Info.                !
 --------------------------------------------------------------------------------
 ! R1    R(1,2)                  2.4931         estimate D2E/DX2                !
 ! R2    R(1,3)                  2.3046         estimate D2E/DX2                !
 ! R3    R(1,4)                  2.5031         estimate D2E/DX2                !
 ! R4    R(2,3)                  2.5815         estimate D2E/DX2                !
 ! R5    R(2,4)                  2.8937         estimate D2E/DX2                !
 ! R6    R(2,6)                  2.4672         estimate D2E/DX2                !
 ! R7    R(2,7)                  2.3904         estimate D2E/DX2                !
 ! R8    R(3,4)                  2.4785         estimate D2E/DX2                !
 ! R9    R(3,5)                  2.5889         estimate D2E/DX2                !
 ! R10   R(3,6)                  2.6793         estimate D2E/DX2                !
 ! R11   R(3,12)                 2.373          estimate D2E/DX2                !
 ! R12   R(4,5)                  2.5281         estimate D2E/DX2                !
 ! R13   R(4,7)                  2.4281         estimate D2E/DX2                !
 ! R14   R(5,9)                  2.5889         estimate D2E/DX2                !
 ! R15   R(5,10)                 2.5281         estimate D2E/DX2                !
 ! R16   R(6,7)                  2.8864         estimate D2E/DX2                !
 ! R17   R(6,8)                  2.4672         estimate D2E/DX2                !
 ! R18   R(6,9)                  2.6793         estimate D2E/DX2                !
 ! R19   R(6,12)                 2.4594         estimate D2E/DX2                !
 ! R20   R(7,8)                  2.3904         estimate D2E/DX2                !
 ! R21   R(7,10)                 2.4281         estimate D2E/DX2                !
 ! R22   R(8,9)                  2.5815         estimate D2E/DX2                !
 ! R23   R(8,10)                 2.8937         estimate D2E/DX2                !
 ! R24   R(8,11)                 2.4931         estimate D2E/DX2                !
 ! R25   R(9,10)                 2.4785         estimate D2E/DX2                !
 ! R26   R(9,11)                 2.3046         estimate D2E/DX2                !
 ! R27   R(9,12)                 2.373          estimate D2E/DX2                !
 ! R28   R(10,11)                2.5031         estimate D2E/DX2                !
 ! A1    A(1,2,6)              116.1444         estimate D2E/DX2                !
 ! A2    A(1,2,7)              108.3183         estimate D2E/DX2                !
 ! A3    A(3,2,7)               80.6253         estimate D2E/DX2                !
 ! A4    A(4,2,6)               99.9196         estimate D2E/DX2                !
 ! A5    A(1,3,5)              120.4875         estimate D2E/DX2                !
 ! A6    A(1,3,6)              115.0732         estimate D2E/DX2                !
 ! A7    A(1,3,12)             161.8608         estimate D2E/DX2                !
 ! A8    A(2,3,5)              110.4116         estimate D2E/DX2                !
 ! A9    A(2,3,12)             113.7048         estimate D2E/DX2                !
 ! A10   A(4,3,6)              105.722          estimate D2E/DX2                !
 ! A11   A(4,3,12)             133.5839         estimate D2E/DX2                !
 ! A12   A(5,3,6)               95.013          estimate D2E/DX2                !
 ! A13   A(5,3,12)              77.6047         estimate D2E/DX2                !
 ! A14   A(1,4,5)              115.3117         estimate D2E/DX2                !
 ! A15   A(1,4,7)              106.8039         estimate D2E/DX2                !
 ! A16   A(2,4,5)              102.8906         estimate D2E/DX2                !
 ! A17   A(3,4,7)               82.0214         estimate D2E/DX2                !
 ! A18   A(5,4,7)               77.6378         estimate D2E/DX2                !
 ! A19   A(3,5,9)               83.6187         estimate D2E/DX2                !
 ! A20   A(3,5,10)             114.4768         estimate D2E/DX2                !
 ! A21   A(4,5,9)              114.4768         estimate D2E/DX2                !
 ! A22   A(4,5,10)              90.3093         estimate D2E/DX2                !
 ! A23   A(2,6,8)               96.3462         estimate D2E/DX2                !
 ! A24   A(2,6,9)              117.4336         estimate D2E/DX2                !
 ! A25   A(2,6,12)             114.7769         estimate D2E/DX2                !
 ! A26   A(3,6,7)               70.5833         estimate D2E/DX2                !
 ! A27   A(3,6,8)              117.4336         estimate D2E/DX2                !
 ! A28   A(3,6,9)               80.2082         estimate D2E/DX2                !
 ! A29   A(7,6,9)               70.5833         estimate D2E/DX2                !
 ! A30   A(7,6,12)             105.3404         estimate D2E/DX2                !
 ! A31   A(8,6,12)             114.7769         estimate D2E/DX2                !
 ! A32   A(2,7,8)              100.5441         estimate D2E/DX2                !
 ! A33   A(2,7,10)             148.947          estimate D2E/DX2                !
 ! A34   A(4,7,6)              101.0773         estimate D2E/DX2                !
 ! A35   A(4,7,8)              148.947          estimate D2E/DX2                !
 ! A36   A(4,7,10)              95.1567         estimate D2E/DX2                !
 ! A37   A(6,7,10)             101.0773         estimate D2E/DX2                !
 ! A38   A(6,8,10)              99.9196         estimate D2E/DX2                !
 ! A39   A(6,8,11)             116.1444         estimate D2E/DX2                !
 ! A40   A(7,8,9)               80.6253         estimate D2E/DX2                !
 ! A41   A(7,8,11)             108.3183         estimate D2E/DX2                !
 ! A42   A(5,9,6)               95.013          estimate D2E/DX2                !
 ! A43   A(5,9,8)              110.4116         estimate D2E/DX2                !
 ! A44   A(5,9,11)             120.4875         estimate D2E/DX2                !
 ! A45   A(5,9,12)              77.6047         estimate D2E/DX2                !
 ! A46   A(6,9,10)             105.722          estimate D2E/DX2                !
 ! A47   A(6,9,11)             115.0732         estimate D2E/DX2                !
 ! A48   A(8,9,12)             113.7048         estimate D2E/DX2                !
 ! A49   A(10,9,12)            133.5839         estimate D2E/DX2                !
 ! A50   A(11,9,12)            161.8608         estimate D2E/DX2                !
 ! A51   A(5,10,7)              77.6378         estimate D2E/DX2                !
 ! A52   A(5,10,8)             102.8906         estimate D2E/DX2                !
 ! A53   A(5,10,11)            115.3117         estimate D2E/DX2                !
 ! A54   A(7,10,9)              82.0214         estimate D2E/DX2                !
 ! A55   A(7,10,11)            106.8039         estimate D2E/DX2                !
 ! A56   A(3,12,9)              93.3221         estimate D2E/DX2                !
 ! D1    D(7,2,3,5)             -6.5397         estimate D2E/DX2                !
 ! D2    D(7,2,3,12)            78.4835         estimate D2E/DX2                !
 ! D3    D(6,2,4,5)              3.0379         estimate D2E/DX2                !
 ! D4    D(1,2,6,8)            132.8054         estimate D2E/DX2                !
 ! D5    D(1,2,6,9)             73.3572         estimate D2E/DX2                !
 ! D6    D(1,2,6,12)            11.7574         estimate D2E/DX2                !
 ! D7    D(4,2,6,8)             77.314          estimate D2E/DX2                !
 ! D8    D(4,2,6,9)             17.8658         estimate D2E/DX2                !
 ! D9    D(4,2,6,12)           -43.734          estimate D2E/DX2                !
 ! D10   D(1,2,7,8)           -144.4099         estimate D2E/DX2                !
 ! D11   D(1,2,7,10)           -68.3331         estimate D2E/DX2                !
 ! D12   D(3,2,7,8)            -97.4435         estimate D2E/DX2                !
 ! D13   D(3,2,7,10)           -21.3666         estimate D2E/DX2                !
 ! D14   D(6,3,4,7)              6.4505         estimate D2E/DX2                !
 ! D15   D(12,3,4,7)           -53.9029         estimate D2E/DX2                !
 ! D16   D(1,3,5,9)            141.9576         estimate D2E/DX2                !
 ! D17   D(1,3,5,10)            91.5998         estimate D2E/DX2                !
 ! D18   D(2,3,5,9)             74.3095         estimate D2E/DX2                !
 ! D19   D(2,3,5,10)            23.9518         estimate D2E/DX2                !
 ! D20   D(6,3,5,9)             18.9125         estimate D2E/DX2                !
 ! D21   D(6,3,5,10)           -31.4452         estimate D2E/DX2                !
 ! D22   D(12,3,5,9)           -36.6317         estimate D2E/DX2                !
 ! D23   D(12,3,5,10)          -86.9894         estimate D2E/DX2                !
 ! D24   D(1,3,6,7)            -72.7901         estimate D2E/DX2                !
 ! D25   D(1,3,6,8)            -96.8576         estimate D2E/DX2                !
 ! D26   D(1,3,6,9)           -145.5209         estimate D2E/DX2                !
 ! D27   D(4,3,6,7)             -5.6952         estimate D2E/DX2                !
 ! D28   D(4,3,6,8)            -29.7627         estimate D2E/DX2                !
 ! D29   D(4,3,6,9)            -78.426          estimate D2E/DX2                !
 ! D30   D(5,3,6,7)             54.3182         estimate D2E/DX2                !
 ! D31   D(5,3,6,8)             30.2507         estimate D2E/DX2                !
 ! D32   D(5,3,6,9)            -18.4126         estimate D2E/DX2                !
 ! D33   D(1,3,12,9)          -135.7007         estimate D2E/DX2                !
 ! D34   D(2,3,12,9)           -66.6754         estimate D2E/DX2                !
 ! D35   D(4,3,12,9)            17.3264         estimate D2E/DX2                !
 ! D36   D(5,3,12,9)            40.3917         estimate D2E/DX2                !
 ! D37   D(1,4,5,9)            -80.0964         estimate D2E/DX2                !
 ! D38   D(1,4,5,10)          -134.576          estimate D2E/DX2                !
 ! D39   D(2,4,5,9)            -23.5755         estimate D2E/DX2                !
 ! D40   D(2,4,5,10)           -78.0551         estimate D2E/DX2                !
 ! D41   D(7,4,5,9)             22.832          estimate D2E/DX2                !
 ! D42   D(7,4,5,10)           -31.6476         estimate D2E/DX2                !
 ! D43   D(1,4,7,6)             43.9116         estimate D2E/DX2                !
 ! D44   D(1,4,7,8)             79.411          estimate D2E/DX2                !
 ! D45   D(1,4,7,10)           146.2829         estimate D2E/DX2                !
 ! D46   D(3,4,7,6)             -5.8709         estimate D2E/DX2                !
 ! D47   D(3,4,7,8)             29.6285         estimate D2E/DX2                !
 ! D48   D(3,4,7,10)            96.5003         estimate D2E/DX2                !
 ! D49   D(5,4,7,6)            -69.1067         estimate D2E/DX2                !
 ! D50   D(5,4,7,8)            -33.6074         estimate D2E/DX2                !
 ! D51   D(5,4,7,10)            33.2645         estimate D2E/DX2                !
 ! D52   D(3,5,9,6)            -18.9125         estimate D2E/DX2                !
 ! D53   D(3,5,9,8)            -74.3095         estimate D2E/DX2                !
 ! D54   D(3,5,9,11)          -141.9576         estimate D2E/DX2                !
 ! D55   D(3,5,9,12)            36.6317         estimate D2E/DX2                !
 ! D56   D(4,5,9,6)             31.4452         estimate D2E/DX2                !
 ! D57   D(4,5,9,8)            -23.9518         estimate D2E/DX2                !
 ! D58   D(4,5,9,11)           -91.5998         estimate D2E/DX2                !
 ! D59   D(4,5,9,12)            86.9894         estimate D2E/DX2                !
 ! D60   D(3,5,10,7)           -22.832          estimate D2E/DX2                !
 ! D61   D(3,5,10,8)            23.5755         estimate D2E/DX2                !
 ! D62   D(3,5,10,11)           80.0964         estimate D2E/DX2                !
 ! D63   D(4,5,10,7)            31.6476         estimate D2E/DX2                !
 ! D64   D(4,5,10,8)            78.0551         estimate D2E/DX2                !
 ! D65   D(4,5,10,11)          134.576          estimate D2E/DX2                !
 ! D66   D(3,6,7,4)              5.7021         estimate D2E/DX2                !
 ! D67   D(3,6,7,10)           -91.8631         estimate D2E/DX2                !
 ! D68   D(9,6,7,4)             91.8631         estimate D2E/DX2                !
 ! D69   D(9,6,7,10)            -5.7021         estimate D2E/DX2                !
 ! D70   D(12,6,7,4)            48.7826         estimate D2E/DX2                !
 ! D71   D(12,6,7,10)          -48.7826         estimate D2E/DX2                !
 ! D72   D(2,6,8,10)           -77.314          estimate D2E/DX2                !
 ! D73   D(2,6,8,11)          -132.8054         estimate D2E/DX2                !
 ! D74   D(3,6,8,10)           -17.8658         estimate D2E/DX2                !
 ! D75   D(3,6,8,11)           -73.3572         estimate D2E/DX2                !
 ! D76   D(12,6,8,10)           43.734          estimate D2E/DX2                !
 ! D77   D(12,6,8,11)          -11.7574         estimate D2E/DX2                !
 ! D78   D(2,6,9,5)            -30.2507         estimate D2E/DX2                !
 ! D79   D(2,6,9,10)            29.7627         estimate D2E/DX2                !
 ! D80   D(2,6,9,11)            96.8576         estimate D2E/DX2                !
 ! D81   D(3,6,9,5)             18.4126         estimate D2E/DX2                !
 ! D82   D(3,6,9,10)            78.426          estimate D2E/DX2                !
 ! D83   D(3,6,9,11)           145.5209         estimate D2E/DX2                !
 ! D84   D(7,6,9,5)            -54.3182         estimate D2E/DX2                !
 ! D85   D(7,6,9,10)             5.6952         estimate D2E/DX2                !
 ! D86   D(7,6,9,11)            72.7901         estimate D2E/DX2                !
 ! D87   D(2,7,8,9)             97.4435         estimate D2E/DX2                !
 ! D88   D(2,7,8,11)           144.4099         estimate D2E/DX2                !
 ! D89   D(4,7,8,9)             21.3666         estimate D2E/DX2                !
 ! D90   D(4,7,8,11)            68.3331         estimate D2E/DX2                !
 ! D91   D(2,7,10,5)            33.6074         estimate D2E/DX2                !
 ! D92   D(2,7,10,9)           -29.6285         estimate D2E/DX2                !
 ! D93   D(2,7,10,11)          -79.411          estimate D2E/DX2                !
 ! D94   D(4,7,10,5)           -33.2645         estimate D2E/DX2                !
 ! D95   D(4,7,10,9)           -96.5003         estimate D2E/DX2                !
 ! D96   D(4,7,10,11)         -146.2829         estimate D2E/DX2                !
 ! D97   D(6,7,10,5)            69.1067         estimate D2E/DX2                !
 ! D98   D(6,7,10,9)             5.8709         estimate D2E/DX2                !
 ! D99   D(6,7,10,11)          -43.9116         estimate D2E/DX2                !
 ! D100  D(7,8,9,5)              6.5397         estimate D2E/DX2                !
 ! D101  D(7,8,9,12)           -78.4835         estimate D2E/DX2                !
 ! D102  D(6,8,10,5)            -3.0379         estimate D2E/DX2                !
 ! D103  D(6,9,10,7)            -6.4505         estimate D2E/DX2                !
 ! D104  D(12,9,10,7)           53.9029         estimate D2E/DX2                !
 ! D105  D(5,9,12,3)           -40.3917         estimate D2E/DX2                !
 ! D106  D(8,9,12,3)            66.6754         estimate D2E/DX2                !
 ! D107  D(10,9,12,3)          -17.3264         estimate D2E/DX2                !
 ! D108  D(11,9,12,3)          135.7007         estimate D2E/DX2                !
 --------------------------------------------------------------------------------
 Trust Radius=3.00D-01 FncErr=1.00D-07 GrdErr=1.00D-06
 Number of steps in this run= 100 maximum allowed number of steps= 100.
 GradGradGradGradGradGradGradGradGradGradGradGradGradGradGradGradGradGrad

                          Input orientation:                          
 ---------------------------------------------------------------------
 Center     Atomic      Atomic             Coordinates (Angstroms)
 Number     Number       Type             X           Y           Z
 ---------------------------------------------------------------------
      1         14           0       -0.064848   -0.158666    3.671177
      2         14           0       -1.743993    0.033461    1.838438
      3         14           0        0.719757    0.796029    1.725927
      4         14           0        0.588810   -1.678091    1.792436
      5         14           0        2.026512   -0.623893    0.000000
      6         14           0       -1.174827    1.577186    0.000000
      7         14           0       -1.005919   -1.304249    0.000000
      8         14           0       -1.743993    0.033461   -1.838438
      9         14           0        0.719757    0.796029   -1.725927
     10         14           0        0.588810   -1.678091   -1.792436
     11         14           0       -0.064848   -0.158666   -3.671177
     12         14           0        1.154785    2.365501    0.000000
 ---------------------------------------------------------------------
                    Distance matrix (angstroms):
                    1          2          3          4          5
     1  Si   0.000000
     2  Si   2.493065   0.000000
     3  Si   2.304570   2.581518   0.000000
     4  Si   2.503116   2.893699   2.478475   0.000000
     5  Si   4.250619   4.246019   2.588940   2.528072   0.000000
     6  Si   4.209843   2.467163   2.679268   4.113401   3.885012
     7  Si   3.959232   2.390413   3.219930   2.428116   3.107816
     8  Si   5.763011   3.676876   4.399576   4.642696   4.246019
     9  Si   5.536766   4.399576   3.451854   4.303173   2.588940
    10  Si   5.708501   4.642696   4.303173   3.584872   2.528072
    11  Si   7.342354   5.763011   5.536766   5.708501   4.250619
    12  Si   4.619141   4.149841   2.373040   4.459125   3.113902
                    6          7          8          9         10
     6  Si   0.000000
     7  Si   2.886381   0.000000
     8  Si   2.467163   2.390413   0.000000
     9  Si   2.679268   3.219930   2.581518   0.000000
    10  Si   4.113401   2.428116   2.893699   2.478475   0.000000
    11  Si   4.209843   3.959232   2.493065   2.304570   2.503116
    12  Si   2.459376   4.258604   4.149841   2.373040   4.459125
                   11         12
    11  Si   0.000000
    12  Si   4.619141   0.000000
 Stoichiometry    Si12
 Framework group  CS[SG(Si4),X(Si8)]
 Deg. of freedom    17
 Full point group                 CS      NOp   2
 Largest Abelian subgroup         CS      NOp   2
 Largest concise Abelian subgroup CS      NOp   2
                         Standard orientation:                         
 ---------------------------------------------------------------------
 Center     Atomic      Atomic             Coordinates (Angstroms)
 Number     Number       Type             X           Y           Z
 ---------------------------------------------------------------------
      1         14           0       -0.158666    0.064851    3.671177
      2         14           0        0.033490    1.743993    1.838438
      3         14           0        0.796016   -0.719770    1.725927
      4         14           0       -1.678102   -0.588781    1.792436
      5         14           0       -0.623928   -2.026501    0.000000
      6         14           0        1.577205    1.174800    0.000000
      7         14           0       -1.304233    1.005941    0.000000
      8         14           0        0.033490    1.743993   -1.838438
      9         14           0        0.796016   -0.719770   -1.725927
     10         14           0       -1.678102   -0.588781   -1.792436
     11         14           0       -0.158666    0.064851   -3.671177
     12         14           0        2.365481   -1.154825    0.000000
 ---------------------------------------------------------------------
 Rotational constants (GHZ):      0.5510952      0.2925300      0.2857191
 Standard basis: GTBas3 (6D, 7F)
 There are   216 symmetry adapted basis functions of A'  symmetry.
 There are   168 symmetry adapted basis functions of A"  symmetry.
 Integral buffers will be    131072 words long.
 Raffenetti 2 integral format.
 Two-electron integral symmetry is turned on.
   384 basis functions,   816 primitive gaussians,   420 cartesian basis functions
    84 alpha electrons       84 beta electrons
       nuclear repulsion energy      2077.7106253181 Hartrees.
 NAtoms=   12 NActive=   12 NUniq=    8 SFac= 1.69D+00 NAtFMM=   80 NAOKFM=F Big=F
 One-electron integrals computed using PRISM.
 NBasis=   384 RedAO= T  NBF=   216   168
 NBsUse=   384 1.00D-06 NBFU=   216   168
 Harris functional with IExCor=  402 diagonalized for initial guess.
 ExpMin= 7.78D-02 ExpMax= 1.61D+04 ExpMxC= 2.43D+03 IAcc=2 IRadAn=         0 AccDes= 0.00D+00
 HarFok:  IExCor=  402 AccDes= 0.00D+00 IRadAn=         0 IDoV= 1
 ScaDFX=  1.000000  1.000000  1.000000  1.000000
 FoFCou: FMM=F IPFlag=           0 FMFlag=      100000 FMFlg1=           0
         NFxFlg=           0 DoJE=T BraDBF=F KetDBF=T FulRan=T
         Omega=  0.000000  0.000000  1.000000  0.000000  0.000000 ICntrl=     500 IOpCl=  0
         NMat0=    1 NMatS0=    1 NMatT0=    0 NMatD0=    1 NMtDS0=    0 NMtDT0=    0
         I1Cent=           4 NGrid=           0.
 Petite list used in FoFCou.
 Initial guess orbital symmetries:
       Occupied  (A') (A") (A') (A') (A") (A') (A") (A') (A') (A')
                 (A") (A') (A') (A") (A') (A') (A") (A') (A") (A')
                 (A') (A') (A") (A') (A') (A") (A') (A") (A') (A")
                 (A") (A') (A') (A') (A") (A') (A') (A") (A') (A")
                 (A') (A") (A') (A") (A') (A") (A') (A") (A') (A")
                 (A') (A") (A') (A") (A') (A') (A") (A') (A") (A')
                 (A') (A") (A') (A') (A') (A") (A") (A") (A') (A')
                 (A') (A') (A') (A") (A') (A") (A") (A') (A') (A")
                 (A') (A") (A') (A")
       Virtual   (A') (A') (A") (A') (A') (A") (A') (A") (A') (A')
                 (A') (A") (A') (A') (A") (A") (A") (A') (A") (A")
                 (A') (A") (A') (A') (A") (A') (A") (A') (A") (A')
                 (A') (A') (A') (A") (A") (A') (A") (A') (A") (A')
                 (A') (A') (A') (A") (A') (A") (A') (A") (A') (A")
                 (A') (A') (A') (A") (A") (A') (A') (A') (A") (A")
                 (A") (A') (A") (A') (A") (A") (A') (A') (A') (A")
                 (A') (A") (A') (A") (A') (A") (A") (A') (A') (A')
                 (A") (A") (A") (A") (A') (A') (A") (A') (A') (A')
                 (A") (A") (A') (A') (A") (A') (A") (A') (A') (A")
                 (A') (A') (A") (A') (A') (A") (A') (A") (A') (A')
                 (A") (A") (A') (A") (A') (A") (A') (A") (A') (A')
                 (A") (A') (A') (A") (A") (A") (A') (A') (A") (A')
                 (A") (A') (A") (A') (A") (A') (A') (A") (A') (A")
                 (A') (A") (A") (A') (A') (A') (A") (A') (A") (A')
                 (A") (A') (A") (A') (A") (A') (A") (A') (A") (A')
                 (A') (A") (A') (A") (A') (A") (A') (A") (A') (A")
                 (A') (A') (A') (A") (A") (A") (A') (A") (A') (A')
                 (A") (A') (A") (A') (A") (A') (A") (A') (A") (A')
                 (A") (A') (A") (A') (A") (A') (A') (A') (A") (A')
                 (A") (A') (A') (A") (A') (A") (A') (A") (A") (A')
                 (A") (A') (A') (A") (A") (A') (A") (A') (A') (A')
                 (A') (A") (A") (A") (A') (A") (A') (A') (A') (A")
                 (A') (A") (A') (A") (A') (A") (A') (A") (A') (A")
                 (A") (A') (A') (A") (A") (A') (A') (A") (A") (A')
                 (A") (A') (A") (A') (A') (A") (A') (A") (A') (A')
                 (A") (A') (A') (A") (A") (A') (A") (A') (A') (A")
                 (A') (A") (A") (A') (A') (A") (A") (A') (A') (A')
                 (A") (A') (A') (A") (A') (A') (A") (A") (A') (A")
                 (A') (A') (A') (A") (A") (A") (A') (A') (A') (A')
 The electronic state of the initial guess is 1-A'.
 Requested convergence on RMS density matrix=1.00D-08 within 128 cycles.
 Requested convergence on MAX density matrix=1.00D-06.
 Requested convergence on             energy=1.00D-06.
 No special actions if energy rises.
 Keep R1 ints in memory in canonical form, NReq=3946169510.
 Integral accuracy reduced to 1.0D-05 until final iterations.
 EnCoef did     4 forward-backward iterations
 Initial convergence to 1.0D-05 achieved.  Increase integral accuracy.
 SCF Done:  E(RB3LYP) =  -3473.91492233     A.U. after   17 cycles
             Convg  =    0.4814D-08             -V/T =  2.0036
 QCSCF skips out because SCF is already converged.

 **********************************************************************

            Population analysis using the SCF density.

 **********************************************************************

 Orbital symmetries:
       Occupied  (A') (A') (A") (A') (A') (A') (A") (A') (A") (A')
                 (A") (A') (A') (A') (A") (A') (A') (A') (A") (A')
                 (A') (A") (A") (A') (A') (A') (A") (A') (A") (A')
                 (A") (A') (A") (A') (A") (A') (A') (A") (A') (A')
                 (A") (A') (A') (A") (A') (A") (A") (A') (A") (A')
                 (A') (A") (A') (A") (A") (A') (A') (A") (A') (A")
                 (A') (A") (A') (A') (A') (A") (A") (A') (A") (A')
                 (A') (A') (A') (A') (A") (A") (A") (A') (A') (A')
                 (A") (A") (A") (A')
       Virtual   (A') (A') (A') (A") (A') (A") (A') (A") (A') (A')
                 (A') (A") (A') (A') (A") (A") (A') (A") (A") (A")
                 (A') (A") (A') (A') (A") (A') (A") (A') (A") (A')
                 (A') (A') (A') (A") (A") (A') (A") (A') (A') (A')
                 (A") (A') (A") (A') (A') (A") (A") (A") (A') (A')
                 (A') (A") (A') (A') (A') (A') (A") (A") (A') (A")
                 (A') (A') (A") (A") (A") (A") (A') (A') (A') (A")
                 (A') (A") (A') (A") (A') (A") (A') (A") (A') (A")
                 (A') (A") (A") (A") (A') (A") (A') (A') (A') (A")
                 (A") (A') (A') (A') (A") (A") (A') (A') (A') (A")
                 (A') (A') (A") (A') (A') (A") (A') (A") (A') (A")
                 (A') (A') (A") (A") (A') (A") (A') (A') (A") (A')
                 (A") (A') (A") (A') (A") (A') (A") (A') (A') (A")
                 (A") (A') (A") (A') (A') (A") (A') (A") (A') (A')
                 (A") (A") (A') (A") (A') (A') (A") (A') (A") (A')
                 (A") (A') (A") (A') (A") (A') (A") (A') (A") (A')
                 (A') (A") (A') (A") (A') (A") (A') (A") (A') (A')
                 (A") (A') (A') (A") (A") (A") (A') (A") (A') (A')
                 (A") (A') (A') (A") (A") (A') (A") (A') (A") (A')
                 (A") (A') (A") (A') (A") (A') (A') (A') (A") (A')
                 (A") (A') (A') (A') (A") (A") (A') (A") (A") (A')
                 (A') (A") (A') (A") (A") (A') (A") (A') (A') (A')
                 (A') (A") (A") (A") (A") (A') (A') (A') (A') (A')
                 (A") (A") (A') (A") (A') (A") (A') (A") (A') (A")
                 (A") (A') (A') (A") (A") (A') (A') (A") (A") (A')
                 (A") (A') (A") (A') (A') (A") (A') (A") (A') (A')
                 (A") (A') (A') (A") (A") (A') (A') (A") (A') (A")
                 (A') (A") (A") (A') (A') (A") (A') (A") (A') (A')
                 (A") (A') (A') (A") (A') (A') (A") (A") (A') (A")
                 (A') (A') (A') (A") (A") (A') (A") (A') (A') (A')
 The electronic state is 1-A'.
 Alpha  occ. eigenvalues --  -66.17162 -66.16267 -66.16266 -66.15961 -66.15948
 Alpha  occ. eigenvalues --  -66.15535 -66.15449 -66.15449 -66.15446 -66.15445
 Alpha  occ. eigenvalues --  -66.14439 -66.14439  -5.31505  -5.30819  -5.30819
 Alpha  occ. eigenvalues --   -5.30323  -5.30225  -5.29904  -5.29894  -5.29893
 Alpha  occ. eigenvalues --   -5.29893  -5.29893  -5.28881  -5.28881  -3.67612
 Alpha  occ. eigenvalues --   -3.67304  -3.67123  -3.66802  -3.66801  -3.66711
 Alpha  occ. eigenvalues --   -3.66711  -3.66453  -3.66451  -3.66216  -3.66126
 Alpha  occ. eigenvalues --   -3.66104  -3.66034  -3.65998  -3.65989  -3.65853
 Alpha  occ. eigenvalues --   -3.65851  -3.65820  -3.65817  -3.65816  -3.65738
 Alpha  occ. eigenvalues --   -3.65738  -3.65706  -3.65700  -3.65689  -3.65666
 Alpha  occ. eigenvalues --   -3.65563  -3.65562  -3.65548  -3.65547  -3.64726
 Alpha  occ. eigenvalues --   -3.64725  -3.64671  -3.64671  -3.64615  -3.64615
 Alpha  occ. eigenvalues --   -0.67980  -0.62190  -0.57197  -0.55517  -0.52471
 Alpha  occ. eigenvalues --   -0.46259  -0.44649  -0.43279  -0.43012  -0.39942
 Alpha  occ. eigenvalues --   -0.36835  -0.31972  -0.31150  -0.29422  -0.29081
 Alpha  occ. eigenvalues --   -0.28304  -0.26992  -0.25696  -0.24845  -0.23465
 Alpha  occ. eigenvalues --   -0.23391  -0.22517  -0.21795  -0.21753
 Alpha virt. eigenvalues --   -0.10686  -0.09935  -0.09099  -0.08711  -0.07471
 Alpha virt. eigenvalues --   -0.06985  -0.06173  -0.05406  -0.05058  -0.04199
 Alpha virt. eigenvalues --   -0.03210  -0.02727  -0.01331  -0.00722   0.00669
 Alpha virt. eigenvalues --    0.01292   0.01533   0.01980   0.04278   0.05284
 Alpha virt. eigenvalues --    0.05594   0.06280   0.07796   0.11166   0.11744
 Alpha virt. eigenvalues --    0.11922   0.12609   0.12856   0.13764   0.14336
 Alpha virt. eigenvalues --    0.14599   0.15320   0.15817   0.16218   0.16460
 Alpha virt. eigenvalues --    0.17077   0.17534   0.17834   0.18310   0.19456
 Alpha virt. eigenvalues --    0.19636   0.19926   0.19991   0.20735   0.21025
 Alpha virt. eigenvalues --    0.22857   0.22994   0.24032   0.24132   0.24689
 Alpha virt. eigenvalues --    0.24837   0.25974   0.26099   0.26659   0.27419
 Alpha virt. eigenvalues --    0.28311   0.28364   0.29146   0.29803   0.29915
 Alpha virt. eigenvalues --    0.30266   0.30616   0.30918   0.31902   0.32452
 Alpha virt. eigenvalues --    0.32903   0.33317   0.34064   0.35010   0.36248
 Alpha virt. eigenvalues --    0.36395   0.36783   0.37863   0.38415   0.38740
 Alpha virt. eigenvalues --    0.40259   0.40740   0.40792   0.42047   0.42337
 Alpha virt. eigenvalues --    0.42891   0.43536   0.45769   0.46316   0.46752
 Alpha virt. eigenvalues --    0.47507   0.47921   0.48756   0.49656   0.50155
 Alpha virt. eigenvalues --    0.50327   0.50456   0.51324   0.51692   0.52428
 Alpha virt. eigenvalues --    0.53021   0.53932   0.54833   0.56359   0.56661
 Alpha virt. eigenvalues --    0.57181   0.58666   0.58731   0.59933   0.60782
 Alpha virt. eigenvalues --    0.60820   0.61580   0.63625   0.63857   0.64987
 Alpha virt. eigenvalues --    0.65057   0.65526   0.65806   0.66575   0.66860
 Alpha virt. eigenvalues --    0.68182   0.68696   0.69490   0.70225   0.70440
 Alpha virt. eigenvalues --    0.71712   0.71726   0.72308   0.72912   0.74121
 Alpha virt. eigenvalues --    0.74240   0.74467   0.76198   0.77517   0.77688
 Alpha virt. eigenvalues --    0.82090   0.82477   0.84205   0.85368   0.86936
 Alpha virt. eigenvalues --    0.87309   0.88264   0.89344   0.90106   0.91858
 Alpha virt. eigenvalues --    0.92303   0.92961   0.93605   0.93691   0.94235
 Alpha virt. eigenvalues --    0.96112   0.97353   0.98136   0.99447   0.99875
 Alpha virt. eigenvalues --    1.00526   1.01108   1.02294   1.03286   1.03419
 Alpha virt. eigenvalues --    1.04341   1.05811   1.06039   1.07465   1.08525
 Alpha virt. eigenvalues --    1.10221   1.10700   1.11534   1.11708   1.12541
 Alpha virt. eigenvalues --    1.13411   1.14776   1.15661   1.15685   1.18051
 Alpha virt. eigenvalues --    1.18061   1.18512   1.19064   1.20181   1.20480
 Alpha virt. eigenvalues --    1.22441   1.23489   1.24378   1.24722   1.25331
 Alpha virt. eigenvalues --    1.25396   1.26795   1.27870   1.27974   1.29603
 Alpha virt. eigenvalues --    1.30504   1.31131   1.32136   1.32535   1.32553
 Alpha virt. eigenvalues --    1.33234   1.34497   1.35287   1.35889   1.36690
 Alpha virt. eigenvalues --    1.36889   1.38300   1.39044   1.40396   1.40955
 Alpha virt. eigenvalues --    1.42249   1.42973   1.44136   1.44409   1.44617
 Alpha virt. eigenvalues --    1.45209   1.46235   1.47343   1.49001   1.49062
 Alpha virt. eigenvalues --    1.50595   1.50595   1.52191   1.53038   1.53258
 Alpha virt. eigenvalues --    1.54472   1.54967   1.55510   1.56356   1.58066
 Alpha virt. eigenvalues --    1.60729   1.60790   1.63049   1.64056   1.68657
 Alpha virt. eigenvalues --    1.69037   1.72310   1.72855   1.75219   1.76045
 Alpha virt. eigenvalues --    1.76251   1.77872   1.78249   1.79730   1.80878
 Alpha virt. eigenvalues --    1.81783   1.82572   1.83104   1.84768   1.84879
 Alpha virt. eigenvalues --    1.86671   1.87348   1.88210   1.88307   1.89193
 Alpha virt. eigenvalues --    1.91052   1.91315   1.91339   1.92713   1.94041
 Alpha virt. eigenvalues --    1.94248   1.94610   1.95992   1.96052   1.96718
 Alpha virt. eigenvalues --    1.97400   1.98589   1.99022   1.99751   2.00339
 Alpha virt. eigenvalues --    2.02018   2.03432   2.04323   2.05057   2.06066
 Alpha virt. eigenvalues --    2.06229   2.07935   2.08808   2.09379   2.10203
 Alpha virt. eigenvalues --    2.10485   2.11636   2.13399   2.15895   2.18120
 Alpha virt. eigenvalues --    2.18591   2.19623   2.19639   2.21564   2.24321
 Alpha virt. eigenvalues --    2.26433   2.27665   2.28524   2.29481   2.30517
 Alpha virt. eigenvalues --    2.33342   2.39201   2.54174   2.60225   2.74881
 Alpha virt. eigenvalues --    2.84151   2.89564   2.94342   3.02000   3.12409
 Alpha virt. eigenvalues --    3.14153   3.14322   3.19558   3.36657   3.51532
          Condensed to atoms (all electrons):
              1          2          3          4          5          6
     1  Si  13.645067   0.138148   0.238423   0.143455  -0.014959  -0.009470
     2  Si   0.138148  13.578657   0.049059  -0.035326   0.006534   0.144243
     3  Si   0.238423   0.049059  13.215201   0.058777   0.049228  -0.004079
     4  Si   0.143455  -0.035326   0.058777  13.650768   0.083036   0.009339
     5  Si  -0.014959   0.006534   0.049228   0.083036  13.768595   0.009328
     6  Si  -0.009470   0.144243  -0.004079   0.009339   0.009328  13.633404
     7  Si  -0.015089   0.191488  -0.009628   0.141745   0.006073  -0.033837
     8  Si   0.001936  -0.037835   0.003976  -0.002669   0.006534   0.144243
     9  Si   0.000430   0.003976  -0.014580   0.008454   0.049228  -0.004079
    10  Si   0.001735  -0.002669   0.008454  -0.035655   0.083036   0.009339
    11  Si  -0.000109   0.001936   0.000430   0.001735  -0.014959  -0.009470
    12  Si  -0.015291  -0.014529   0.201677  -0.007101   0.010024   0.106324
              7          8          9         10         11         12
     1  Si  -0.015089   0.001936   0.000430   0.001735  -0.000109  -0.015291
     2  Si   0.191488  -0.037835   0.003976  -0.002669   0.001936  -0.014529
     3  Si  -0.009628   0.003976  -0.014580   0.008454   0.000430   0.201677
     4  Si   0.141745  -0.002669   0.008454  -0.035655   0.001735  -0.007101
     5  Si   0.006073   0.006534   0.049228   0.083036  -0.014959   0.010024
     6  Si  -0.033837   0.144243  -0.004079   0.009339  -0.009470   0.106324
     7  Si  13.305057   0.191488  -0.009628   0.141745  -0.015089   0.008318
     8  Si   0.191488  13.578657   0.049059  -0.035326   0.138148  -0.014529
     9  Si  -0.009628   0.049059  13.215201   0.058777   0.238423   0.201677
    10  Si   0.141745  -0.035326   0.058777  13.650768   0.143455  -0.007101
    11  Si  -0.015089   0.138148   0.238423   0.143455  13.645067  -0.015291
    12  Si   0.008318  -0.014529   0.201677  -0.007101  -0.015291  13.703282
 Mulliken atomic charges:
              1
     1  Si  -0.114276
     2  Si  -0.023683
     3  Si   0.203061
     4  Si  -0.016557
     5  Si  -0.041701
     6  Si   0.004713
     7  Si   0.097357
     8  Si  -0.023683
     9  Si   0.203061
    10  Si  -0.016557
    11  Si  -0.114276
    12  Si  -0.157461
 Sum of Mulliken atomic charges =   0.00000
 Mulliken charges with hydrogens summed into heavy atoms:
              1
     1  Si  -0.114276
     2  Si  -0.023683
     3  Si   0.203061
     4  Si  -0.016557
     5  Si  -0.041701
     6  Si   0.004713
     7  Si   0.097357
     8  Si  -0.023683
     9  Si   0.203061
    10  Si  -0.016557
    11  Si  -0.114276
    12  Si  -0.157461
 Sum of Mulliken charges with hydrogens summed into heavy atoms =   0.00000
 Electronic spatial extent (au):  <R**2>=           4295.4376
 Charge=              0.0000 electrons
 Dipole moment (field-independent basis, Debye):
    X=             -0.0063    Y=              0.2484    Z=              0.0000  Tot=              0.2485
 Quadrupole moment (field-independent basis, Debye-Ang):
   XX=           -154.0307   YY=           -157.1529   ZZ=           -162.2739
   XY=             -0.7495   XZ=              0.0000   YZ=              0.0000
 Traceless Quadrupole moment (field-independent basis, Debye-Ang):
   XX=              3.7885   YY=              0.6663   ZZ=             -4.4548
   XY=             -0.7495   XZ=              0.0000   YZ=              0.0000
 Octapole moment (field-independent basis, Debye-Ang**2):
  XXX=             -1.8094  YYY=              3.6362  ZZZ=              0.0000  XYY=             -1.8036
  XXY=              5.8001  XXZ=              0.0000  XZZ=              2.1252  YZZ=             -2.8650
  YYZ=              0.0000  XYZ=              0.0000
 Hexadecapole moment (field-independent basis, Debye-Ang**3):
 XXXX=          -1623.6197 YYYY=          -1554.3600 ZZZZ=          -4139.6379 XXXY=             -7.9825
 XXXZ=              0.0000 YYYX=              1.1414 YYYZ=              0.0000 ZZZX=              0.0000
 ZZZY=              0.0000 XXYY=           -525.8125 XXZZ=           -906.8048 YYZZ=           -890.2665
 XXYZ=              0.0000 YYXZ=              0.0000 ZZXY=              4.3818
 N-N= 2.077710625318D+03 E-N=-1.242459358833D+04  KE= 3.461544852007D+03
 Symmetry A'   KE= 2.205528870854D+03
 Symmetry A"   KE= 1.256015981153D+03
 Calling FoFJK, ICntrl=      2127 FMM=F ISym2X=1 I1Cent= 0 IOpClX= 0 NMat=1 NMatS=1 NMatT=0.
 ***** Axes restored to original set *****
 -------------------------------------------------------------------
 Center     Atomic                   Forces (Hartrees/Bohr)
 Number     Number              X              Y              Z
 -------------------------------------------------------------------
      1       14          -0.000089796   -0.000067844   -0.001290742
      2       14           0.001507399   -0.000201818    0.000891927
      3       14          -0.001701549   -0.001332681   -0.001173900
      4       14          -0.000296603    0.001692973    0.000015891
      5       14          -0.002711448    0.001685191    0.000000000
      6       14           0.001933103   -0.001573063    0.000000000
      7       14           0.001832392    0.001922730    0.000000000
      8       14           0.001507399   -0.000201818   -0.000891927
      9       14          -0.001701549   -0.001332681    0.001173900
     10       14          -0.000296603    0.001692973   -0.000015891
     11       14          -0.000089796   -0.000067844    0.001290742
     12       14           0.000107050   -0.002216115    0.000000000
 -------------------------------------------------------------------
 Cartesian Forces:  Max     0.002711448 RMS     0.001246799

 GradGradGradGradGradGradGradGradGradGradGradGradGradGradGradGradGradGrad
 Berny optimization.
 Internal  Forces:  Max     0.001363125 RMS     0.000339450
 Search for a local minimum.
 Step number   1 out of a maximum of  100
 All quantities printed in internal units (Hartrees-Bohrs-Radians)
 Mixed Optimization -- En-DIIS/RFO-DIIS
 Second derivative matrix not updated -- first step.
     Eigenvalues ---    0.02075   0.02314   0.02886   0.03417   0.03721
     Eigenvalues ---    0.05052   0.05447   0.06273   0.06902   0.07054
     Eigenvalues ---    0.07650   0.08066   0.08166   0.08260   0.08539
     Eigenvalues ---    0.08744   0.09132   0.09172   0.09299   0.09668
     Eigenvalues ---    0.10263   0.10383   0.11353   0.11891   0.12002
     Eigenvalues ---    0.12457   0.13002   0.13207   0.13883   0.16841
     Eigenvalues --- 1000.000001000.000001000.000001000.000001000.00000
     Eigenvalues --- 1000.000001000.000001000.000001000.000001000.00000
     Eigenvalues --- 1000.000001000.000001000.000001000.000001000.00000
     Eigenvalues --- 1000.000001000.000001000.000001000.000001000.00000
     Eigenvalues --- 1000.000001000.000001000.000001000.000001000.00000
     Eigenvalues --- 1000.000001000.000001000.000001000.000001000.00000
     Eigenvalues --- 1000.000001000.000001000.000001000.000001000.00000
     Eigenvalues --- 1000.000001000.000001000.000001000.000001000.00000
     Eigenvalues --- 1000.000001000.000001000.000001000.000001000.00000
     Eigenvalues --- 1000.000001000.000001000.000001000.000001000.00000
     Eigenvalues --- 1000.000001000.000001000.000001000.000001000.00000
     Eigenvalues --- 1000.000001000.000001000.000001000.000001000.00000
     Eigenvalues --- 1000.000001000.000001000.000001000.000001000.00000
     Eigenvalues --- 1000.000001000.000001000.000001000.000001000.00000
     Eigenvalues --- 1000.000001000.000001000.000001000.000001000.00000
     Eigenvalues --- 1000.000001000.000001000.000001000.000001000.00000
     Eigenvalues --- 1000.000001000.000001000.000001000.000001000.00000
     Eigenvalues --- 1000.000001000.000001000.000001000.000001000.00000
     Eigenvalues --- 1000.000001000.000001000.000001000.000001000.00000
     Eigenvalues --- 1000.000001000.000001000.000001000.000001000.00000
     Eigenvalues --- 1000.000001000.000001000.000001000.000001000.00000
     Eigenvalues --- 1000.000001000.000001000.000001000.000001000.00000
     Eigenvalues --- 1000.000001000.000001000.000001000.000001000.00000
     Eigenvalues --- 1000.000001000.000001000.000001000.000001000.00000
     Eigenvalues --- 1000.000001000.000001000.000001000.000001000.00000
     Eigenvalues --- 1000.000001000.000001000.000001000.000001000.00000
     Eigenvalues --- 1000.000001000.000001000.000001000.000001000.00000
     Eigenvalues --- 1000.000001000.000001000.000001000.000001000.00000
     Eigenvalues --- 1000.000001000.000001000.000001000.000001000.00000
     Eigenvalues --- 1000.000001000.000001000.000001000.000001000.00000
     Eigenvalues --- 1000.000001000.000001000.000001000.000001000.00000
     Eigenvalues --- 1000.000001000.000001000.000001000.000001000.00000
     Eigenvalues --- 1000.000001000.00000
 RFO step:  Lambda=-2.38181598D-04 EMin= 2.07495777D-02
 Linear search not attempted -- first point.
 Iteration  1 RMS(Cart)=  0.00241133 RMS(Int)=  0.00000978
 Iteration  2 RMS(Cart)=  0.00000410 RMS(Int)=  0.00000611
 Iteration  3 RMS(Cart)=  0.00000000 RMS(Int)=  0.00000611
 ClnCor:  largest displacement from symmetrization is 2.82D-12 for atom    10.
 Variable       Old X    -DE/DX   Delta X   Delta X   Delta X     New X
                                 (Linear)    (Quad)   (Total)
    R1        4.71121  -0.00080   0.00000  -0.00848  -0.00849   4.70272
    R2        4.35501  -0.00043   0.00000  -0.00321  -0.00321   4.35180
    R3        4.73020  -0.00061   0.00000  -0.00576  -0.00577   4.72443
    R4        4.87836  -0.00079   0.00000  -0.01103  -0.01102   4.86734
    R5        5.46830  -0.00061   0.00000  -0.00876  -0.00877   5.45953
    R6        4.66226   0.00006   0.00000  -0.00130  -0.00131   4.66095
    R7        4.51723   0.00019   0.00000  -0.00200  -0.00199   4.51523
    R8        4.68364  -0.00104   0.00000  -0.01170  -0.01169   4.67195
    R9        4.89239  -0.00125   0.00000  -0.01429  -0.01428   4.87811
   R10        5.06308  -0.00081   0.00000  -0.01306  -0.01305   5.05003
   R11        4.48439  -0.00094   0.00000  -0.00824  -0.00824   4.47616
   R12        4.77736  -0.00066   0.00000  -0.00642  -0.00642   4.77095
   R13        4.58847  -0.00041   0.00000  -0.00587  -0.00586   4.58261
   R14        4.89239  -0.00125   0.00000  -0.01429  -0.01428   4.87811
   R15        4.77736  -0.00066   0.00000  -0.00642  -0.00642   4.77095
   R16        5.45447  -0.00136   0.00000  -0.01545  -0.01546   5.43902
   R17        4.66226   0.00006   0.00000  -0.00130  -0.00131   4.66095
   R18        5.06308  -0.00081   0.00000  -0.01306  -0.01305   5.05003
   R19        4.64755  -0.00071   0.00000  -0.00365  -0.00367   4.64388
   R20        4.51723   0.00019   0.00000  -0.00200  -0.00199   4.51523
   R21        4.58847  -0.00041   0.00000  -0.00587  -0.00586   4.58261
   R22        4.87836  -0.00079   0.00000  -0.01103  -0.01102   4.86734
   R23        5.46830  -0.00061   0.00000  -0.00876  -0.00877   5.45953
   R24        4.71121  -0.00080   0.00000  -0.00848  -0.00849   4.70272
   R25        4.68364  -0.00104   0.00000  -0.01170  -0.01169   4.67195
   R26        4.35501  -0.00043   0.00000  -0.00321  -0.00321   4.35180
   R27        4.48439  -0.00094   0.00000  -0.00824  -0.00824   4.47616
   R28        4.73020  -0.00061   0.00000  -0.00576  -0.00577   4.72443
    A1        2.02710   0.00000   0.00000  -0.00007  -0.00006   2.02704
    A2        1.89051  -0.00003   0.00000   0.00038   0.00038   1.89089
    A3        1.40718  -0.00030   0.00000  -0.00263  -0.00263   1.40454
    A4        1.74393  -0.00021   0.00000  -0.00215  -0.00215   1.74177
    A5        2.10290   0.00022   0.00000   0.00235   0.00235   2.10526
    A6        2.00841   0.00017   0.00000   0.00219   0.00218   2.01059
    A7        2.82500   0.00025   0.00000   0.00214   0.00213   2.82713
    A8        1.92705   0.00006   0.00000   0.00170   0.00170   1.92875
    A9        1.98452   0.00022   0.00000   0.00401   0.00401   1.98853
   A10        1.84520   0.00011   0.00000   0.00163   0.00163   1.84683
   A11        2.33148  -0.00020   0.00000  -0.00088  -0.00090   2.33058
   A12        1.65829  -0.00030   0.00000  -0.00184  -0.00184   1.65645
   A13        1.35446  -0.00046   0.00000  -0.00424  -0.00425   1.35021
   A14        2.01257   0.00004   0.00000   0.00012   0.00012   2.01269
   A15        1.86408   0.00008   0.00000   0.00066   0.00065   1.86473
   A16        1.79578  -0.00017   0.00000  -0.00130  -0.00130   1.79448
   A17        1.43154  -0.00016   0.00000  -0.00188  -0.00187   1.42967
   A18        1.35504  -0.00047   0.00000  -0.00332  -0.00332   1.35172
   A19        1.45942   0.00042   0.00000   0.00281   0.00282   1.46224
   A20        1.99800   0.00043   0.00000   0.00243   0.00244   2.00043
   A21        1.99800   0.00043   0.00000   0.00243   0.00244   2.00043
   A22        1.57620   0.00041   0.00000   0.00220   0.00220   1.57840
   A23        1.68156   0.00032   0.00000   0.00243   0.00243   1.68399
   A24        2.04960   0.00022   0.00000   0.00178   0.00178   2.05138
   A25        2.00323  -0.00014   0.00000  -0.00070  -0.00070   2.00253
   A26        1.23191  -0.00005   0.00000  -0.00037  -0.00037   1.23154
   A27        2.04960   0.00022   0.00000   0.00178   0.00178   2.05138
   A28        1.39990   0.00023   0.00000   0.00207   0.00208   1.40197
   A29        1.23191  -0.00005   0.00000  -0.00037  -0.00037   1.23154
   A30        1.83854  -0.00032   0.00000  -0.00188  -0.00189   1.83665
   A31        2.00323  -0.00014   0.00000  -0.00070  -0.00070   2.00253
   A32        1.75483   0.00028   0.00000   0.00300   0.00300   1.75783
   A33        2.59962   0.00036   0.00000   0.00297   0.00296   2.60258
   A34        1.76413   0.00009   0.00000   0.00060   0.00060   1.76473
   A35        2.59962   0.00036   0.00000   0.00297   0.00296   2.60258
   A36        1.66080   0.00034   0.00000   0.00226   0.00226   1.66305
   A37        1.76413   0.00009   0.00000   0.00060   0.00060   1.76473
   A38        1.74393  -0.00021   0.00000  -0.00215  -0.00215   1.74177
   A39        2.02710   0.00000   0.00000  -0.00007  -0.00006   2.02704
   A40        1.40718  -0.00030   0.00000  -0.00263  -0.00263   1.40454
   A41        1.89051  -0.00003   0.00000   0.00038   0.00038   1.89089
   A42        1.65829  -0.00030   0.00000  -0.00184  -0.00184   1.65645
   A43        1.92705   0.00006   0.00000   0.00170   0.00170   1.92875
   A44        2.10290   0.00022   0.00000   0.00235   0.00235   2.10526
   A45        1.35446  -0.00046   0.00000  -0.00424  -0.00425   1.35021
   A46        1.84520   0.00011   0.00000   0.00163   0.00163   1.84683
   A47        2.00841   0.00017   0.00000   0.00219   0.00218   2.01059
   A48        1.98452   0.00022   0.00000   0.00401   0.00401   1.98853
   A49        2.33148  -0.00020   0.00000  -0.00088  -0.00090   2.33058
   A50        2.82500   0.00025   0.00000   0.00214   0.00213   2.82713
   A51        1.35504  -0.00047   0.00000  -0.00332  -0.00332   1.35172
   A52        1.79578  -0.00017   0.00000  -0.00130  -0.00130   1.79448
   A53        2.01257   0.00004   0.00000   0.00012   0.00012   2.01269
   A54        1.43154  -0.00016   0.00000  -0.00188  -0.00187   1.42967
   A55        1.86408   0.00008   0.00000   0.00066   0.00065   1.86473
   A56        1.62878   0.00039   0.00000   0.00103   0.00104   1.62981
    D1       -0.11414   0.00003   0.00000  -0.00024  -0.00024  -0.11438
    D2        1.36980  -0.00040   0.00000  -0.00305  -0.00305   1.36674
    D3        0.05302  -0.00003   0.00000   0.00031   0.00031   0.05333
    D4        2.31789  -0.00001   0.00000   0.00047   0.00047   2.31836
    D5        1.28032  -0.00005   0.00000   0.00033   0.00033   1.28066
    D6        0.20521   0.00001   0.00000   0.00011   0.00011   0.20532
    D7        1.34938   0.00009   0.00000   0.00095   0.00095   1.35033
    D8        0.31182   0.00005   0.00000   0.00081   0.00081   0.31263
    D9       -0.76330   0.00011   0.00000   0.00059   0.00059  -0.76271
   D10       -2.52043  -0.00012   0.00000  -0.00100  -0.00100  -2.52143
   D11       -1.19264   0.00001   0.00000   0.00120   0.00120  -1.19144
   D12       -1.70071  -0.00020   0.00000  -0.00122  -0.00122  -1.70193
   D13       -0.37292  -0.00008   0.00000   0.00098   0.00098  -0.37194
   D14        0.11258   0.00006   0.00000   0.00006   0.00006   0.11264
   D15       -0.94078  -0.00013   0.00000  -0.00404  -0.00403  -0.94482
   D16        2.47763   0.00003   0.00000   0.00070   0.00069   2.47832
   D17        1.59872   0.00000   0.00000   0.00049   0.00048   1.59920
   D18        1.29695   0.00001   0.00000  -0.00031  -0.00032   1.29663
   D19        0.41804  -0.00002   0.00000  -0.00053  -0.00053   0.41751
   D20        0.33009  -0.00006   0.00000  -0.00181  -0.00180   0.32828
   D21       -0.54882  -0.00009   0.00000  -0.00202  -0.00202  -0.55084
   D22       -0.63934  -0.00007   0.00000  -0.00312  -0.00311  -0.64246
   D23       -1.51825  -0.00010   0.00000  -0.00333  -0.00333  -1.52158
   D24       -1.27043  -0.00018   0.00000  -0.00177  -0.00177  -1.27219
   D25       -1.69048  -0.00013   0.00000  -0.00121  -0.00120  -1.69169
   D26       -2.53982  -0.00006   0.00000  -0.00075  -0.00075  -2.54056
   D27       -0.09940  -0.00007   0.00000  -0.00019  -0.00019  -0.09959
   D28       -0.51946  -0.00001   0.00000   0.00037   0.00037  -0.51909
   D29       -1.36879   0.00006   0.00000   0.00083   0.00083  -1.36796
   D30        0.94803  -0.00003   0.00000   0.00086   0.00086   0.94889
   D31        0.52797   0.00002   0.00000   0.00143   0.00142   0.52940
   D32       -0.32136   0.00009   0.00000   0.00188   0.00188  -0.31948
   D33       -2.36842  -0.00013   0.00000  -0.00726  -0.00730  -2.37572
   D34       -1.16371   0.00024   0.00000   0.00314   0.00315  -1.16056
   D35        0.30240   0.00053   0.00000   0.00802   0.00801   0.31042
   D36        0.70497   0.00010   0.00000   0.00296   0.00296   0.70792
   D37       -1.39795   0.00002   0.00000  -0.00097  -0.00097  -1.39892
   D38       -2.34879  -0.00004   0.00000  -0.00101  -0.00101  -2.34980
   D39       -0.41147  -0.00011   0.00000  -0.00189  -0.00190  -0.41337
   D40       -1.36232  -0.00018   0.00000  -0.00193  -0.00193  -1.36425
   D41        0.39849  -0.00010   0.00000  -0.00170  -0.00170   0.39679
   D42       -0.55235  -0.00016   0.00000  -0.00174  -0.00174  -0.55409
   D43        0.76640  -0.00009   0.00000   0.00001   0.00001   0.76642
   D44        1.38598  -0.00004   0.00000   0.00127   0.00127   1.38726
   D45        2.55312   0.00009   0.00000   0.00120   0.00121   2.55433
   D46       -0.10247  -0.00006   0.00000  -0.00004  -0.00004  -0.10251
   D47        0.51711  -0.00001   0.00000   0.00121   0.00122   0.51833
   D48        1.68425   0.00011   0.00000   0.00115   0.00115   1.68540
   D49       -1.20614  -0.00002   0.00000   0.00074   0.00074  -1.20540
   D50       -0.58656   0.00003   0.00000   0.00200   0.00200  -0.58456
   D51        0.58058   0.00016   0.00000   0.00193   0.00193   0.58251
   D52       -0.33009   0.00006   0.00000   0.00181   0.00180  -0.32828
   D53       -1.29695  -0.00001   0.00000   0.00031   0.00032  -1.29663
   D54       -2.47763  -0.00003   0.00000  -0.00070  -0.00069  -2.47832
   D55        0.63934   0.00007   0.00000   0.00312   0.00311   0.64246
   D56        0.54882   0.00009   0.00000   0.00202   0.00202   0.55084
   D57       -0.41804   0.00002   0.00000   0.00053   0.00053  -0.41751
   D58       -1.59872   0.00000   0.00000  -0.00049  -0.00048  -1.59920
   D59        1.51825   0.00010   0.00000   0.00333   0.00333   1.52158
   D60       -0.39849   0.00010   0.00000   0.00170   0.00170  -0.39679
   D61        0.41147   0.00011   0.00000   0.00189   0.00190   0.41337
   D62        1.39795  -0.00002   0.00000   0.00097   0.00097   1.39892
   D63        0.55235   0.00016   0.00000   0.00174   0.00174   0.55409
   D64        1.36232   0.00018   0.00000   0.00193   0.00193   1.36425
   D65        2.34879   0.00004   0.00000   0.00101   0.00101   2.34980
   D66        0.09952   0.00005   0.00000   0.00004   0.00004   0.09956
   D67       -1.60331  -0.00034   0.00000  -0.00258  -0.00258  -1.60590
   D68        1.60331   0.00034   0.00000   0.00258   0.00258   1.60590
   D69       -0.09952  -0.00005   0.00000  -0.00004  -0.00004  -0.09956
   D70        0.85142   0.00020   0.00000   0.00131   0.00131   0.85273
   D71       -0.85142  -0.00020   0.00000  -0.00131  -0.00131  -0.85273
   D72       -1.34938  -0.00009   0.00000  -0.00095  -0.00095  -1.35033
   D73       -2.31789   0.00001   0.00000  -0.00047  -0.00047  -2.31836
   D74       -0.31182  -0.00005   0.00000  -0.00081  -0.00081  -0.31263
   D75       -1.28032   0.00005   0.00000  -0.00033  -0.00033  -1.28066
   D76        0.76330  -0.00011   0.00000  -0.00059  -0.00059   0.76271
   D77       -0.20521  -0.00001   0.00000  -0.00011  -0.00011  -0.20532
   D78       -0.52797  -0.00002   0.00000  -0.00143  -0.00142  -0.52940
   D79        0.51946   0.00001   0.00000  -0.00037  -0.00037   0.51909
   D80        1.69048   0.00013   0.00000   0.00121   0.00120   1.69169
   D81        0.32136  -0.00009   0.00000  -0.00188  -0.00188   0.31948
   D82        1.36879  -0.00006   0.00000  -0.00083  -0.00083   1.36796
   D83        2.53982   0.00006   0.00000   0.00075   0.00075   2.54056
   D84       -0.94803   0.00003   0.00000  -0.00086  -0.00086  -0.94889
   D85        0.09940   0.00007   0.00000   0.00019   0.00019   0.09959
   D86        1.27043   0.00018   0.00000   0.00177   0.00177   1.27219
   D87        1.70071   0.00020   0.00000   0.00122   0.00122   1.70193
   D88        2.52043   0.00012   0.00000   0.00100   0.00100   2.52143
   D89        0.37292   0.00008   0.00000  -0.00098  -0.00098   0.37194
   D90        1.19264  -0.00001   0.00000  -0.00120  -0.00120   1.19144
   D91        0.58656  -0.00003   0.00000  -0.00200  -0.00200   0.58456
   D92       -0.51711   0.00001   0.00000  -0.00121  -0.00122  -0.51833
   D93       -1.38598   0.00004   0.00000  -0.00127  -0.00127  -1.38726
   D94       -0.58058  -0.00016   0.00000  -0.00193  -0.00193  -0.58251
   D95       -1.68425  -0.00011   0.00000  -0.00115  -0.00115  -1.68540
   D96       -2.55312  -0.00009   0.00000  -0.00120  -0.00121  -2.55433
   D97        1.20614   0.00002   0.00000  -0.00074  -0.00074   1.20540
   D98        0.10247   0.00006   0.00000   0.00004   0.00004   0.10251
   D99       -0.76640   0.00009   0.00000  -0.00001  -0.00001  -0.76642
   D100       0.11414  -0.00003   0.00000   0.00024   0.00024   0.11438
   D101      -1.36980   0.00040   0.00000   0.00305   0.00305  -1.36674
   D102      -0.05302   0.00003   0.00000  -0.00031  -0.00031  -0.05333
   D103      -0.11258  -0.00006   0.00000  -0.00006  -0.00006  -0.11264
   D104       0.94078   0.00013   0.00000   0.00404   0.00403   0.94482
   D105      -0.70497  -0.00010   0.00000  -0.00296  -0.00296  -0.70792
   D106       1.16371  -0.00024   0.00000  -0.00314  -0.00315   1.16056
   D107      -0.30240  -0.00053   0.00000  -0.00802  -0.00801  -0.31042
   D108       2.36842   0.00013   0.00000   0.00726   0.00730   2.37572
         Item               Value     Threshold  Converged?
 Maximum Force            0.001363     0.000450     NO 
 RMS     Force            0.000339     0.000300     NO 
 Maximum Displacement     0.015229     0.001800     NO 
 RMS     Displacement     0.002412     0.001200     NO 
 Predicted change in Energy=-1.194696D-04
 GradGradGradGradGradGradGradGradGradGradGradGradGradGradGradGradGradGrad

                          Input orientation:                          
 ---------------------------------------------------------------------
 Center     Atomic      Atomic             Coordinates (Angstroms)
 Number     Number       Type             X           Y           Z
 ---------------------------------------------------------------------
      1         14           0       -0.065395   -0.158313    3.669301
      2         14           0       -1.741650    0.032734    1.839915
      3         14           0        0.716293    0.793752    1.723598
      4         14           0        0.588679   -1.674293    1.791989
      5         14           0        2.019663   -0.618334    0.000000
      6         14           0       -1.171359    1.573171    0.000000
      7         14           0       -1.001725   -1.300029    0.000000
      8         14           0       -1.741650    0.032734   -1.839915
      9         14           0        0.716293    0.793752   -1.723598
     10         14           0        0.588679   -1.674293   -1.791989
     11         14           0       -0.065395   -0.158313   -3.669301
     12         14           0        1.157568    2.357442    0.000000
 ---------------------------------------------------------------------
                    Distance matrix (angstroms):
                    1          2          3          4          5
     1  Si   0.000000
     2  Si   2.488570   0.000000
     3  Si   2.302874   2.575686   0.000000
     4  Si   2.500062   2.889061   2.472287   0.000000
     5  Si   4.245334   4.237529   2.581385   2.524676   0.000000
     6  Si   4.205350   2.466467   2.672362   4.105481   3.871087
     7  Si   3.955250   2.389358   3.210342   2.425012   3.097337
     8  Si   5.761752   3.679829   4.395367   4.640592   4.237529
     9  Si   5.531802   4.395367   3.447196   4.297311   2.581385
    10  Si   5.705410   4.640592   4.297311   3.583978   2.524676
    11  Si   7.338603   5.761752   5.531802   5.705410   4.245334
    12  Si   4.613940   4.146687   2.368679   4.448566   3.098137
                    6          7          8          9         10
     6  Si   0.000000
     7  Si   2.878203   0.000000
     8  Si   2.466467   2.389358   0.000000
     9  Si   2.672362   3.210342   2.575686   0.000000
    10  Si   4.105481   2.425012   2.889061   2.472287   0.000000
    11  Si   4.205350   3.955250   2.488570   2.302874   2.500062
    12  Si   2.457435   4.247310   4.146687   2.368679   4.448566
                   11         12
    11  Si   0.000000
    12  Si   4.613940   0.000000
 Stoichiometry    Si12
 Framework group  CS[SG(Si4),X(Si8)]
 Deg. of freedom    17
 Full point group                 CS      NOp   2
 Largest Abelian subgroup         CS      NOp   2
 Largest concise Abelian subgroup CS      NOp   2
                         Standard orientation:                         
 ---------------------------------------------------------------------
 Center     Atomic      Atomic             Coordinates (Angstroms)
 Number     Number       Type             X           Y           Z
 ---------------------------------------------------------------------
      1         14           0       -0.158862    0.064052    3.669301
      2         14           0        0.017978    1.741865    1.839915
      3         14           0        0.799790   -0.709543    1.723598
      4         14           0       -1.669246   -0.602842    1.791989
      5         14           0       -0.601203   -2.024829    0.000000
      6         14           0        1.563190    1.184645    0.000000
      7         14           0       -1.308469    0.990676    0.000000
      8         14           0        0.017978    1.741865   -1.839915
      9         14           0        0.799790   -0.709543   -1.723598
     10         14           0       -1.669246   -0.602842   -1.791989
     11         14           0       -0.158862    0.064052   -3.669301
     12         14           0        2.367163   -1.137555    0.000000
 ---------------------------------------------------------------------
 Rotational constants (GHZ):      0.5538989      0.2930061      0.2863418
 Standard basis: GTBas3 (6D, 7F)
 There are   216 symmetry adapted basis functions of A'  symmetry.
 There are   168 symmetry adapted basis functions of A"  symmetry.
 Integral buffers will be    131072 words long.
 Raffenetti 2 integral format.
 Two-electron integral symmetry is turned on.
   384 basis functions,   816 primitive gaussians,   420 cartesian basis functions
    84 alpha electrons       84 beta electrons
       nuclear repulsion energy      2080.9683800267 Hartrees.
 NAtoms=   12 NActive=   12 NUniq=    8 SFac= 1.69D+00 NAtFMM=   80 NAOKFM=F Big=F
 One-electron integrals computed using PRISM.
 NBasis=   384 RedAO= T  NBF=   216   168
 NBsUse=   384 1.00D-06 NBFU=   216   168
 Initial guess read from the read-write file.
 B after Tr=     0.000000    0.000000    0.000000
         Rot=    1.000000    0.000000    0.000000    0.000000 Ang=   0.00 deg.
 Initial guess orbital symmetries:
       Occupied  (A') (A') (A") (A') (A') (A') (A") (A') (A") (A')
                 (A") (A') (A') (A') (A") (A') (A') (A') (A") (A')
                 (A') (A") (A") (A') (A') (A') (A") (A') (A") (A')
                 (A") (A') (A") (A') (A") (A') (A') (A") (A') (A')
                 (A") (A') (A') (A") (A') (A") (A") (A') (A") (A')
                 (A') (A") (A') (A") (A") (A') (A') (A") (A') (A")
                 (A') (A") (A') (A') (A') (A") (A") (A') (A") (A')
                 (A') (A') (A') (A') (A") (A") (A") (A') (A') (A')
                 (A") (A") (A") (A')
       Virtual   (A') (A') (A') (A") (A') (A") (A') (A") (A') (A')
                 (A') (A") (A') (A') (A") (A") (A') (A") (A") (A")
                 (A') (A") (A') (A') (A") (A') (A") (A') (A") (A')
                 (A') (A') (A') (A") (A") (A') (A") (A') (A') (A')
                 (A") (A') (A") (A') (A') (A") (A") (A") (A') (A')
                 (A') (A") (A') (A') (A') (A') (A") (A") (A') (A")
                 (A') (A') (A") (A") (A") (A") (A') (A') (A') (A")
                 (A') (A") (A') (A") (A') (A") (A') (A") (A') (A")
                 (A') (A") (A") (A") (A') (A") (A') (A') (A') (A")
                 (A") (A') (A') (A') (A") (A") (A') (A') (A') (A")
                 (A') (A') (A") (A') (A') (A") (A') (A") (A') (A")
                 (A') (A') (A") (A") (A') (A") (A') (A') (A") (A')
                 (A") (A') (A") (A') (A") (A') (A") (A') (A') (A")
                 (A") (A') (A") (A') (A') (A") (A') (A") (A') (A')
                 (A") (A") (A') (A") (A') (A') (A") (A') (A") (A')
                 (A") (A') (A") (A') (A") (A') (A") (A') (A") (A')
                 (A') (A") (A') (A") (A') (A") (A') (A") (A') (A')
                 (A") (A') (A') (A") (A") (A") (A') (A") (A') (A')
                 (A") (A') (A') (A") (A") (A') (A") (A') (A") (A')
                 (A") (A') (A") (A') (A") (A') (A') (A') (A") (A')
                 (A") (A') (A') (A') (A") (A") (A') (A") (A") (A')
                 (A') (A") (A') (A") (A") (A') (A") (A') (A') (A')
                 (A') (A") (A") (A") (A") (A') (A') (A') (A') (A')
                 (A") (A") (A') (A") (A') (A") (A') (A") (A') (A")
                 (A") (A') (A') (A") (A") (A') (A') (A") (A") (A')
                 (A") (A') (A") (A') (A') (A") (A') (A") (A') (A')
                 (A") (A') (A') (A") (A") (A') (A') (A") (A') (A")
                 (A') (A") (A") (A') (A') (A") (A') (A") (A') (A')
                 (A") (A') (A') (A") (A') (A') (A") (A") (A') (A")
                 (A') (A') (A') (A") (A") (A') (A") (A') (A') (A')
 Requested convergence on RMS density matrix=1.00D-08 within 128 cycles.
 Requested convergence on MAX density matrix=1.00D-06.
 Requested convergence on             energy=1.00D-06.
 No special actions if energy rises.
 Keep R1 ints in memory in canonical form, NReq=3946169510.
 SCF Done:  E(RB3LYP) =  -3473.91512574     A.U. after   11 cycles
             Convg  =    0.7540D-08             -V/T =  2.0036
 QCSCF skips out because SCF is already converged.
 Calling FoFJK, ICntrl=      2127 FMM=F ISym2X=1 I1Cent= 0 IOpClX= 0 NMat=1 NMatS=1 NMatT=0.
 ***** Axes restored to original set *****
 -------------------------------------------------------------------
 Center     Atomic                   Forces (Hartrees/Bohr)
 Number     Number              X              Y              Z
 -------------------------------------------------------------------
      1       14           0.000101958   -0.000025967   -0.000730018
      2       14           0.000819635   -0.000232858    0.000668430
      3       14          -0.001484981   -0.000710063   -0.000555455
      4       14          -0.000199556    0.000642545    0.000280425
      5       14          -0.001651803    0.001419827    0.000000000
      6       14           0.001204361   -0.000849918    0.000000000
      7       14           0.001338324    0.001378383    0.000000000
      8       14           0.000819635   -0.000232858   -0.000668430
      9       14          -0.001484981   -0.000710063    0.000555455
     10       14          -0.000199556    0.000642545   -0.000280425
     11       14           0.000101958   -0.000025967    0.000730018
     12       14           0.000635007   -0.001295606    0.000000000
 -------------------------------------------------------------------
 Cartesian Forces:  Max     0.001651803 RMS     0.000803156

 GradGradGradGradGradGradGradGradGradGradGradGradGradGradGradGradGradGrad
 Berny optimization.
 Using GEDIIS/GDIIS optimizer.
 Internal  Forces:  Max     0.000891117 RMS     0.000222484
 Search for a local minimum.
 Step number   2 out of a maximum of  100
 All quantities printed in internal units (Hartrees-Bohrs-Radians)
 Mixed Optimization -- En-DIIS/RFO-DIIS
 Swaping is turned off.
 Update second derivatives using D2CorX and points    1    2
 DE= -2.03D-04 DEPred=-1.19D-04 R= 1.70D+00
 SS=  1.41D+00  RLast= 5.43D-02 DXNew= 5.0454D-01 1.6296D-01
 Trust test= 1.70D+00 RLast= 5.43D-02 DXMaxT set to 3.00D-01
     Eigenvalues ---    0.01979   0.02256   0.02303   0.02891   0.03389
     Eigenvalues ---    0.05044   0.05050   0.05626   0.06262   0.07012
     Eigenvalues ---    0.07045   0.08058   0.08194   0.08265   0.08543
     Eigenvalues ---    0.08749   0.09066   0.09169   0.09289   0.09718
     Eigenvalues ---    0.10069   0.10387   0.11351   0.11545   0.12010
     Eigenvalues ---    0.12045   0.12914   0.13205   0.13946   0.16351
     Eigenvalues --- 1000.000001000.000001000.000001000.000001000.00000
     Eigenvalues --- 1000.000001000.000001000.000001000.000001000.00000
     Eigenvalues --- 1000.000001000.000001000.000001000.000001000.00000
     Eigenvalues --- 1000.000001000.000001000.000001000.000001000.00000
     Eigenvalues --- 1000.000001000.000001000.000001000.000001000.00000
     Eigenvalues --- 1000.000001000.000001000.000001000.000001000.00000
     Eigenvalues --- 1000.000001000.000001000.000001000.000001000.00000
     Eigenvalues --- 1000.000001000.000001000.000001000.000001000.00000
     Eigenvalues --- 1000.000001000.000001000.000001000.000001000.00000
     Eigenvalues --- 1000.000001000.000001000.000001000.000001000.00000
     Eigenvalues --- 1000.000001000.000001000.000001000.000001000.00000
     Eigenvalues --- 1000.000001000.000001000.000001000.000001000.00000
     Eigenvalues --- 1000.000001000.000001000.000001000.000001000.00000
     Eigenvalues --- 1000.000001000.000001000.000001000.000001000.00000
     Eigenvalues --- 1000.000001000.000001000.000001000.000001000.00000
     Eigenvalues --- 1000.000001000.000001000.000001000.000001000.00000
     Eigenvalues --- 1000.000001000.000001000.000001000.000001000.00000
     Eigenvalues --- 1000.000001000.000001000.000001000.000001000.00000
     Eigenvalues --- 1000.000001000.000001000.000001000.000001000.00000
     Eigenvalues --- 1000.000001000.000001000.000001000.000001000.00000
     Eigenvalues --- 1000.000001000.000001000.000001000.000001000.00000
     Eigenvalues --- 1000.000001000.000001000.000001000.000001000.00000
     Eigenvalues --- 1000.000001000.000001000.000001000.000001000.00000
     Eigenvalues --- 1000.000001000.000001000.000001000.000001000.00000
     Eigenvalues --- 1000.000001000.000001000.000001000.000001000.00000
     Eigenvalues --- 1000.000001000.000001000.000001000.000001000.00000
     Eigenvalues --- 1000.000001000.000001000.000001000.000001000.00000
     Eigenvalues --- 1000.000001000.000001000.000001000.000001000.00000
     Eigenvalues --- 1000.000001000.000001000.000001000.000001000.00000
     Eigenvalues --- 1000.000001000.000001000.000001000.000001000.00000
     Eigenvalues --- 1000.000001000.000001000.000001000.000001000.00000
     Eigenvalues --- 1000.000001000.000001000.000001000.000001000.00000
     Eigenvalues --- 1000.000001000.00000
 En-DIIS/RFO-DIIS IScMMF=        0 using points:     2    1
 RFO step:  Lambda=-5.23362915D-05.
 DIIS coeffs:      2.73590     -1.73590
 Iteration  1 RMS(Cart)=  0.00497481 RMS(Int)=  0.00008507
 Iteration  2 RMS(Cart)=  0.00003276 RMS(Int)=  0.00006310
 Iteration  3 RMS(Cart)=  0.00000001 RMS(Int)=  0.00006310
 ClnCor:  largest displacement from symmetrization is 1.39D-11 for atom    11.
 Variable       Old X    -DE/DX   Delta X   Delta X   Delta X     New X
                                  (DIIS)     (GDIIS)  (Total)
    R1        4.70272  -0.00044  -0.01474   0.00120  -0.01372   4.68899
    R2        4.35180  -0.00026  -0.00557  -0.00090  -0.00640   4.34540
    R3        4.72443  -0.00038  -0.01002   0.00024  -0.00985   4.71459
    R4        4.86734  -0.00051  -0.01913  -0.00380  -0.02280   4.84454
    R5        5.45953  -0.00037  -0.01522  -0.00035  -0.01556   5.44397
    R6        4.66095   0.00019  -0.00228   0.00362   0.00125   4.66220
    R7        4.51523   0.00021  -0.00346   0.00085  -0.00259   4.51264
    R8        4.67195  -0.00051  -0.02030   0.00128  -0.01897   4.65297
    R9        4.87811  -0.00076  -0.02478  -0.00193  -0.02665   4.85147
   R10        5.05003  -0.00050  -0.02266  -0.00481  -0.02737   5.02267
   R11        4.47616  -0.00048  -0.01430   0.00156  -0.01277   4.46339
   R12        4.77095  -0.00025  -0.01114   0.00402  -0.00711   4.76383
   R13        4.58261  -0.00016  -0.01018   0.00087  -0.00929   4.57332
   R14        4.87811  -0.00076  -0.02478  -0.00193  -0.02665   4.85147
   R15        4.77095  -0.00025  -0.01114   0.00402  -0.00711   4.76383
   R16        5.43902  -0.00089  -0.02683  -0.00193  -0.02878   5.41023
   R17        4.66095   0.00019  -0.00228   0.00362   0.00125   4.66220
   R18        5.05003  -0.00050  -0.02266  -0.00481  -0.02737   5.02267
   R19        4.64388  -0.00029  -0.00637   0.00690   0.00036   4.64424
   R20        4.51523   0.00021  -0.00346   0.00085  -0.00259   4.51264
   R21        4.58261  -0.00016  -0.01018   0.00087  -0.00929   4.57332
   R22        4.86734  -0.00051  -0.01913  -0.00380  -0.02280   4.84454
   R23        5.45953  -0.00037  -0.01522  -0.00035  -0.01556   5.44397
   R24        4.70272  -0.00044  -0.01474   0.00120  -0.01372   4.68899
   R25        4.67195  -0.00051  -0.02030   0.00128  -0.01897   4.65297
   R26        4.35180  -0.00026  -0.00557  -0.00090  -0.00640   4.34540
   R27        4.47616  -0.00048  -0.01430   0.00156  -0.01277   4.46339
   R28        4.72443  -0.00038  -0.01002   0.00024  -0.00985   4.71459
    A1        2.02704  -0.00001  -0.00011  -0.00094  -0.00102   2.02602
    A2        1.89089  -0.00002   0.00066   0.00007   0.00073   1.89162
    A3        1.40454  -0.00020  -0.00457  -0.00082  -0.00539   1.39915
    A4        1.74177  -0.00013  -0.00373  -0.00032  -0.00405   1.73772
    A5        2.10526   0.00014   0.00408   0.00090   0.00499   2.11025
    A6        2.01059   0.00016   0.00379   0.00266   0.00637   2.01696
    A7        2.82713   0.00024   0.00369   0.00298   0.00653   2.83366
    A8        1.92875   0.00000   0.00296   0.00053   0.00348   1.93223
    A9        1.98853   0.00020   0.00696   0.00403   0.01096   1.99949
   A10        1.84683   0.00008   0.00283   0.00144   0.00425   1.85108
   A11        2.33058  -0.00016  -0.00156  -0.00084  -0.00255   2.32803
   A12        1.65645  -0.00026  -0.00320  -0.00120  -0.00445   1.65200
   A13        1.35021  -0.00037  -0.00738  -0.00363  -0.01106   1.33915
   A14        2.01269  -0.00001   0.00021  -0.00158  -0.00134   2.01136
   A15        1.86473   0.00007   0.00114   0.00035   0.00145   1.86618
   A16        1.79448  -0.00017  -0.00225  -0.00188  -0.00412   1.79037
   A17        1.42967  -0.00014  -0.00325  -0.00184  -0.00507   1.42459
   A18        1.35172  -0.00040  -0.00576  -0.00249  -0.00825   1.34347
   A19        1.46224   0.00033   0.00489   0.00139   0.00631   1.46854
   A20        2.00043   0.00035   0.00423   0.00119   0.00543   2.00586
   A21        2.00043   0.00035   0.00423   0.00119   0.00543   2.00586
   A22        1.57840   0.00031   0.00383   0.00058   0.00439   1.58279
   A23        1.68399   0.00022   0.00421  -0.00023   0.00397   1.68796
[...]
 Alpha virt. eigenvalues --    4.47140   4.47389   4.48683   4.48742   4.49611
 Alpha virt. eigenvalues --    4.49647   4.50067   4.50269   4.50978   4.51409
 Alpha virt. eigenvalues --    4.52001   4.52402   4.52611   4.52674   4.53028
 Alpha virt. eigenvalues --    4.53240   4.54116   4.54455   4.55435   4.56293
 Alpha virt. eigenvalues --    4.56886   4.57804   4.57969   4.58118   4.60131
 Alpha virt. eigenvalues --    4.60215   4.61145   4.62057   4.62234   4.62475
 Alpha virt. eigenvalues --    4.63634   4.63900   4.64032   4.64503   4.64961
 Alpha virt. eigenvalues --    4.65426   4.65789   4.66274   4.66352   4.66536
 Alpha virt. eigenvalues --    4.67377   4.69219   4.69592   4.69615   4.70715
 Alpha virt. eigenvalues --    4.72611   4.73044   4.73266   4.73590   4.74378
 Alpha virt. eigenvalues --    4.74718   4.75041   4.76423   4.76781   4.77781
 Alpha virt. eigenvalues --    4.78350   4.79209   4.79233   4.79288   4.79550
 Alpha virt. eigenvalues --    4.80168   4.80382   4.81578   4.82533   4.82727
 Alpha virt. eigenvalues --    4.83366   4.83924   4.85663   4.86372   4.86888
 Alpha virt. eigenvalues --    4.87082   4.87794   4.88397   4.88680   4.89217
 Alpha virt. eigenvalues --    4.90008   4.90355   4.90393   4.92082   4.92390
 Alpha virt. eigenvalues --    4.92468   4.93663   4.94355   4.95032   4.96191
 Alpha virt. eigenvalues --    4.98052   4.98371   4.98529   4.99436   4.99609
 Alpha virt. eigenvalues --    4.99803   5.00653   5.02574   5.03346   5.05414
 Alpha virt. eigenvalues --    5.05673   5.06042   5.06097   5.06956   5.08185
 Alpha virt. eigenvalues --    5.10068   5.10549   5.12066   5.12142   5.12581
 Alpha virt. eigenvalues --    5.14724   5.16156   5.16681   5.17827   5.18636
 Alpha virt. eigenvalues --    5.19453   5.20664   5.20782   5.21020   5.22598
 Alpha virt. eigenvalues --    5.22796   5.23272   5.23628   5.24510   5.26266
 Alpha virt. eigenvalues --    5.26832   5.28507   5.30607   5.33005   5.33151
 Alpha virt. eigenvalues --    5.33428   5.34352   5.36100   5.36987   5.37839
 Alpha virt. eigenvalues --    5.39055   5.40299   5.40780   5.43061   5.45098
 Alpha virt. eigenvalues --    5.45633   5.47169   5.47807   5.50308   5.50822
 Alpha virt. eigenvalues --    5.51295   5.52019   5.52277   5.56416   5.56467
 Alpha virt. eigenvalues --    5.58610   5.61959   5.63750   5.67442   5.70801
 Alpha virt. eigenvalues --    5.72470   5.75919   5.78490   5.83092   5.88180
 Alpha virt. eigenvalues --    5.88332   5.95292   5.97952   6.00482   6.08774
 Alpha virt. eigenvalues --    6.14534   6.56930   6.59694   6.62898   6.65475
 Alpha virt. eigenvalues --    6.71834   6.74332   6.75532   6.78905   6.79834
 Alpha virt. eigenvalues --    6.80731   6.82968   6.83150   6.84317   6.84614
 Alpha virt. eigenvalues --    6.86324   6.88000   6.88658   6.89575   6.91143
 Alpha virt. eigenvalues --    6.94487   6.94981   6.95540   6.96596   6.97820
 Alpha virt. eigenvalues --    6.99144   6.99351   7.09304   7.10051   7.10178
 Alpha virt. eigenvalues --    7.10967   7.12407   7.14560   7.15320   7.15886
 Alpha virt. eigenvalues --    7.17093   7.17564   7.20432   7.21770   7.28427
 Alpha virt. eigenvalues --    7.30859   7.33485   7.34040   7.34670   7.36182
 Alpha virt. eigenvalues --    7.37671   7.37897   7.38661   7.40163   7.44480
 Alpha virt. eigenvalues --    7.47684   7.49457   7.52296   7.56112   7.62055
 Alpha virt. eigenvalues --    7.68253   7.68693   7.79329   7.86187   7.88260
 Alpha virt. eigenvalues --    8.10826  13.95507  14.04453  14.05082  14.06420
 Alpha virt. eigenvalues --   14.08241  14.08926  14.12835  14.17498  14.20226
 Alpha virt. eigenvalues --   14.23890  14.31141  14.31732  14.34276  14.37790
 Alpha virt. eigenvalues --   14.38878  14.40806  14.42453  14.43238  14.46560
 Alpha virt. eigenvalues --   14.51786  14.51941  14.53019  14.55736  14.61840
 Alpha virt. eigenvalues --   14.63019  14.64697  14.65925  14.67420  14.70791
 Alpha virt. eigenvalues --   14.76691  14.79972  14.88542  15.06654  15.21023
 Alpha virt. eigenvalues --   15.68046  15.71232  41.71659  41.78270  42.27031
 Alpha virt. eigenvalues --   43.17567  43.21970  43.30221  43.58115  44.08032
 Alpha virt. eigenvalues --   45.14547  45.44048  46.01479  47.16333
          Condensed to atoms (all electrons):
              1          2          3          4          5          6
     1  Si  13.283559   0.243879   0.353313   0.243719  -0.011558  -0.011637
     2  Si   0.243879  13.185556   0.166342   0.008285  -0.005844   0.242698
     3  Si   0.353313   0.166342  12.559681   0.165832   0.087245   0.087560
     4  Si   0.243719   0.008285   0.165832  13.183237   0.243851  -0.005692
     5  Si  -0.011558  -0.005844   0.087245   0.243851  13.255208   0.021887
     6  Si  -0.011637   0.242698   0.087560  -0.005692   0.021887  13.256566
     7  Si  -0.012895   0.297880   0.025354   0.299546   0.014266   0.014337
     8  Si  -0.000561  -0.052898  -0.009324   0.007143  -0.005844   0.242698
     9  Si  -0.009686  -0.009324   0.001738  -0.009665   0.087245   0.087560
    10  Si  -0.000612   0.007143  -0.009665  -0.051621   0.243851  -0.005692
    11  Si  -0.001262  -0.000561  -0.009686  -0.000612  -0.011558  -0.011637
    12  Si  -0.021864  -0.021990   0.321207  -0.022031   0.182679   0.182893
              7          8          9         10         11         12
     1  Si  -0.012895  -0.000561  -0.009686  -0.000612  -0.001262  -0.021864
     2  Si   0.297880  -0.052898  -0.009324   0.007143  -0.000561  -0.021990
     3  Si   0.025354  -0.009324   0.001738  -0.009665  -0.009686   0.321207
     4  Si   0.299546   0.007143  -0.009665  -0.051621  -0.000612  -0.022031
     5  Si   0.014266  -0.005844   0.087245   0.243851  -0.011558   0.182679
     6  Si   0.014337   0.242698   0.087560  -0.005692  -0.011637   0.182893
     7  Si  12.532381   0.297880   0.025354   0.299546  -0.012895  -0.009414
     8  Si   0.297880  13.185556   0.166342   0.008285   0.243879  -0.021990
     9  Si   0.025354   0.166342  12.559681   0.165832   0.353313   0.321207
    10  Si   0.299546   0.008285   0.165832  13.183237   0.243719  -0.022031
    11  Si  -0.012895   0.243879   0.353313   0.243719  13.283559  -0.021864
    12  Si  -0.009414  -0.021990   0.321207  -0.022031  -0.021864  13.324587
 Mulliken atomic charges:
              1
     1  Si  -0.054396
     2  Si  -0.061167
     3  Si   0.260403
     4  Si  -0.061992
     5  Si  -0.101425
     6  Si  -0.101539
     7  Si   0.228658
     8  Si  -0.061167
     9  Si   0.260403
    10  Si  -0.061992
    11  Si  -0.054396
    12  Si  -0.191391
 Sum of Mulliken atomic charges =   0.00000
 Mulliken charges with hydrogens summed into heavy atoms:
              1
     1  Si  -0.054396
     2  Si  -0.061167
     3  Si   0.260403
     4  Si  -0.061992
     5  Si  -0.101425
     6  Si  -0.101539
     7  Si   0.228658
     8  Si  -0.061167
     9  Si   0.260403
    10  Si  -0.061992
    11  Si  -0.054396
    12  Si  -0.191391
 Sum of Mulliken charges with hydrogens summed into heavy atoms =   0.00000
 Electronic spatial extent (au):  <R**2>=           4295.0048
 Charge=              0.0000 electrons
 Dipole moment (field-independent basis, Debye):
    X=             -0.4928    Y=              0.0012    Z=              0.0000  Tot=              0.4928
 Quadrupole moment (field-independent basis, Debye-Ang):
   XX=           -159.4851   YY=           -163.6774   ZZ=           -167.1546
   XY=             -0.0231   XZ=              0.0000   YZ=              0.0000
 Traceless Quadrupole moment (field-independent basis, Debye-Ang):
   XX=              3.9539   YY=             -0.2383   ZZ=             -3.7156
   XY=             -0.0231   XZ=              0.0000   YZ=              0.0000
 Octapole moment (field-independent basis, Debye-Ang**2):
  XXX=            -19.0339  YYY=             -0.2104  ZZZ=              0.0000  XYY=              2.5379
  XXY=              0.4245  XXZ=              0.0000  XZZ=              4.6142  YZZ=             -0.0836
  YYZ=              0.0000  XYZ=              0.0000
 Hexadecapole moment (field-independent basis, Debye-Ang**3):
 XXXX=          -1645.7790 YYYY=          -1626.4603 ZZZZ=          -4367.1810 XXXY=             -0.6246
 XXXZ=              0.0000 YYYX=              0.3000 YYYZ=              0.0000 ZZZX=              0.0000
 ZZZY=              0.0000 XXYY=           -553.4755 XXZZ=           -932.8712 YYZZ=           -914.8066
 XXYZ=              0.0000 YYXZ=              0.0000 ZZXY=              0.4492
 N-N= 2.086345989359D+03 E-N=-1.244525457493D+04  KE= 3.467123095533D+03
 Symmetry A'   KE= 2.208891648771D+03
 Symmetry A"   KE= 1.258231446762D+03
 1\1\GINC-NODE79\SP\RHF\GFHFB2\Si12\TAM\17-Dec-2011\0\\#N Geom=AllCheck
  Guess=TCheck SCRF=Check HF/GFHFB2 SCF=Tight\\si12-n\\0,1\Si,0,-0.1122
 482139,-0.1617842918,3.6875406351\Si,0,-1.7680044864,-0.0172523851,1.8
 241717176\Si,0,0.5680995399,0.8381444904,1.7461301568\Si,0,0.636892286
 6,-1.6496270022,1.8282833825\Si,0,1.9503116548,-0.4881457317,0.\Si,0,-
 1.1716083449,1.6369410333,0.\Si,0,-0.8868195518,-1.3151032246,0.\Si,0,
 -1.7680044864,-0.0172523851,-1.8241717176\Si,0,0.5680995399,0.83814449
 04,-1.7461301568\Si,0,0.6368922866,-1.6496270022,-1.8282833825\Si,0,-0
 .1122482139,-0.1617842918,-3.6875406351\Si,0,1.4586404297,2.1473555801
 ,0.\\Version=AM64L-G09RevA.02\State=1-A'\HF=-3467.154967\RMSD=9.886e-0
 9\Dipole=-0.1060809,-0.1622974,0.\Quadrupole=0.7642949,1.9981622,-2.76
 24571,1.4312267,0.,0.\PG=CS [SG(Si4),X(Si8)]\\@


 HE THAT FOLLOWS NATURE IS NEVER LOST.

                             -- BACON
 Diagonal vibrational polarizability:
        0.0000000       0.0000000       0.0000000

 Temperature=              298.150000 Pressure=                      1.000000
 E(ZPE)=                     0.018305 E(Thermal)=                    0.035524
 E(CCSD(T))=             -3468.040007 E(Empiric)=                   -0.166728
 DE(Plus)=                  -0.027741 DE(2DF)=                      -0.432229
 E(Delta-G3XP)=             -3.770385 DE(HF)=                       -0.079072
 G4(0 K)=                -3472.497856 G4 Energy=                 -3472.480638
 G4 Enthalpy=            -3472.479693 G4 Free Energy=            -3472.541949
 1\1\GINC-NODE79\Mixed\G4\G4\Si12\TAM\17-Dec-2011\0\\# G4 scfcyc=500 sc
 f=xqc\\si12-n\\0,1\Si,0,-0.1122482139,-0.1617842918,3.6875406351\Si,0,
 -1.7680044864,-0.0172523851,1.8241717176\Si,0,0.5680995399,0.838144490
 4,1.7461301568\Si,0,0.6368922866,-1.6496270022,1.8282833825\Si,0,1.950
 3116548,-0.4881457317,0.\Si,0,-1.1716083449,1.6369410333,0.\Si,0,-0.88
 68195518,-1.3151032246,0.\Si,0,-1.7680044864,-0.0172523851,-1.82417171
 76\Si,0,0.5680995399,0.8381444904,-1.7461301568\Si,0,0.6368922866,-1.6
 496270022,-1.8282833825\Si,0,-0.1122482139,-0.1617842918,-3.6875406351
 \Si,0,1.4586404297,2.1473555801,0.\\Version=AM64L-G09RevA.02\State=1-A
 '\MP2/GTBas1=-3467.9731215\MP4/GTBas1=-3468.1297442\CCSD(T)/G3Bas1=-34
 68.0400074\MP2/GTBas2=-3467.9979791\MP4/GTBas2=-3468.1574848\MP2/GTBas
 3=-3468.3654858\MP4/GTBas3=-3468.5619731\HF/GTLargeXP=-3467.0788739\MP
 2/GTLargeXP=-3472.1607287\HF/GFHFB1=-3467.142744\HF/GFHFB2=-3467.15496
 7\G4=-3472.4978564\FreqCoord=-0.2121183831,-0.305728004,6.9684419043,-
 3.341044281,-0.0326022829,3.4471849655,1.0735525466,1.5838635466,3.299
 7077888,1.2035519979,-3.1173432555,3.4549548862,3.6855549014,-0.922461
 7458,0.,-2.2140189068,3.0933702486,0.,-1.6758460823,-2.4851849309,0.,-
 3.341044281,-0.0326022829,-3.4471849655,1.0735525466,1.5838635466,-3.2
 997077888,1.2035519979,-3.1173432555,-3.4549548862,-0.2121183831,-0.30
 5728004,-6.9684419043,2.7564309386,4.0579139563,0.\PG=CS [SG(Si4),X(Si
 8)]\NImag=0\\0.03481540,0.00541146,0.03922302,-0.01116367,-0.01614937,
 0.14049415,-0.01444645,0.00129147,-0.01487164,0.08444113,0.00078613,-0
 .00940168,0.00125377,0.00219840,0.04540886,-0.02201977,0.00062985,-0.0
 2657651,-0.00736456,0.00800042,0.08175333,-0.01005138,-0.00992200,0.02
 189690,-0.03922401,-0.01529660,0.00395485,0.07906415,-0.00991406,-0.01
 795376,0.03210668,-0.01098061,-0.00418646,-0.00111998,0.02595020,0.100
 04498,0.02403303,0.03526825,-0.07345591,0.00410930,-0.00485050,0.00386
 146,-0.03854765,-0.05676817,0.14060336,-0.01076213,0.00229059,0.006715
 90,-0.00616936,0.00773973,0.00462678,-0.00004483,0.00035363,-0.0060173
 8,0.04930517,0.00279867,-0.01310905,-0.01345238,0.00011521,-0.00296169
 ,0.00433382,0.00467974,-0.04327550,0.00207574,-0.01183974,0.08047797,0
 .00879906,-0.02031774,-0.02652864,0.00228350,0.00595167,-0.00212752,-0
 .00255776,0.00329983,0.00382057,0.01033322,-0.00377859,0.08245122,0.00
 144630,0.00053480,-0.00357547,-0.01041865,0.00259928,0.00196775,-0.010
 92574,0.00917097,0.00962658,-0.00614413,-0.00568824,0.00625615,0.06371
 704,0.00248251,0.00021227,-0.00118765,-0.00207642,-0.00057795,-0.00163
 937,0.00957267,-0.00498577,-0.00583793,-0.00905373,-0.01032998,0.00636
 741,-0.00938633,0.05018180,0.00114253,-0.00024823,-0.00165473,0.005844
 51,-0.00189952,0.00009739,0.01006375,-0.00915122,-0.01010854,0.0107336
 1,0.00719179,-0.01517499,0.,0.,0.06624218,-0.00066330,0.00163254,0.000
 17899,-0.00468833,-0.00841828,0.00364574,-0.01216586,0.00926015,-0.008
 99718,-0.00210570,0.00120538,-0.00224889,-0.00449864,0.01023499,0.,0.0
 5838378,-0.00030535,0.00231862,-0.00374572,-0.00506665,-0.01182593,0.0
 0814124,0.00876100,-0.00399161,0.00702195,0.00591137,-0.00889868,0.001
 26592,0.00306477,0.00078126,0.,-0.01160795,0.05558686,-0.00065606,0.00
 096160,-0.00162700,0.00274563,0.01260225,-0.01501147,-0.01228429,0.006
 12443,-0.01036470,-0.00393522,0.00472906,0.00008464,0.,0.,-0.00631874,
 0.,0.,0.06633644,-0.00095228,-0.00248486,0.00205971,-0.00765095,0.0121
 3076,0.01218993,0.00229244,-0.00697067,-0.00416872,-0.01712050,0.00804
 045,-0.02211710,-0.00572788,-0.00164637,0.,-0.00469498,-0.00155081,0.,
 0.06179261,-0.00251109,-0.00292764,0.00302497,0.01182190,-0.00904391,-
 0.01880750,-0.00693394,-0.00325862,-0.00626480,0.00840130,0.00032670,0
 .00425979,-0.00186805,-0.00613981,0.,-0.00146192,-0.00637043,0.,-0.014
 91758,0.04946221,-0.00003419,-0.00002045,-0.00706440,0.01377178,-0.024
 04146,-0.02917576,-0.00161455,-0.00238432,0.00280622,-0.02771512,0.003
 84425,-0.02981888,0.,0.,-0.00256658,0.,0.,-0.00250417,0.,0.,0.13553740
 ,0.00137799,0.00091195,0.00088384,0.00441138,0.00076920,0.00177926,-0.
 00138673,0.00080840,0.00314615,-0.00290722,-0.00221183,0.00167528,-0.0
 1041865,-0.00207642,-0.00584451,-0.00468833,-0.00506665,-0.00274563,-0
 .00765095,0.01182190,-0.01377178,0.08444113,0.00004822,-0.00163656,-0.
 00050077,0.00076920,0.00090794,0.00011895,-0.00318647,-0.00222625,-0.0
 0188527,0.00316776,-0.00253341,0.00157303,0.00259928,-0.00057795,0.001
 89952,-0.00841828,-0.01182593,-0.01260225,0.01213076,-0.00904391,0.024
 04146,0.00219840,0.04540886,0.00286422,-0.00010325,-0.00118607,-0.0017
 7926,-0.00011895,-0.01114795,-0.00373333,-0.00049592,-0.00018773,-0.00
 080455,-0.00212666,0.00141557,-0.00196775,0.00163937,0.00009739,-0.003
 64574,-0.00814124,-0.01501147,-0.01218993,0.01880750,-0.02917576,0.007
 36456,-0.00800042,0.08175333,-0.00219008,-0.00021886,-0.00179487,-0.00
 138673,-0.00318647,0.00373333,0.00153227,0.00436841,0.00042977,-0.0013
 2839,0.00087131,-0.00097927,-0.01092574,0.00957267,-0.01006375,-0.0121
 6586,0.00876100,0.01228429,0.00229244,-0.00693394,0.00161455,-0.039224
 01,-0.01529660,-0.00395485,0.07906415,-0.00020250,-0.00236042,-0.00266
 261,0.00080840,-0.00222625,0.00049592,0.00436841,0.00491551,0.00067993
 ,-0.00315802,-0.00231164,0.00368517,0.00917097,-0.00498577,0.00915122,
 0.00926015,-0.00399161,-0.00612443,-0.00697067,-0.00325862,0.00238432,
 -0.01098061,-0.00418646,0.00111998,0.02595020,0.10004498,-0.00248067,-
 0.00367229,-0.00270142,-0.00314615,0.00188527,-0.00018773,-0.00042977,
 -0.00067993,-0.01407408,0.00292605,-0.00224304,-0.00016574,-0.00962658
 ,0.00583793,-0.01010854,0.00899718,-0.00702195,-0.01036470,0.00416872,
 0.00626480,0.00280622,-0.00410930,0.00485050,0.00386146,0.03854765,0.0
 5676817,0.14060336,-0.00157577,-0.00111741,-0.00078989,-0.00290722,0.0
 0316776,0.00080455,-0.00132839,-0.00315802,-0.00292605,0.00091025,-0.0
 0065577,-0.00055223,-0.00614413,-0.00905373,-0.01073361,-0.00210570,0.
 00591137,0.00393522,-0.01712050,0.00840130,0.02771512,-0.00616936,0.00
 773973,-0.00462678,-0.00004483,0.00035363,0.00601738,0.04930517,-0.000
 25556,0.00127811,0.00062151,-0.00221183,-0.00253341,0.00212666,0.00087
 131,-0.00231164,0.00224304,-0.00065577,0.00447900,0.00169888,-0.005688
 24,-0.01032998,-0.00719179,0.00120538,-0.00889868,-0.00472906,0.008040
 45,0.00032670,-0.00384425,0.00011521,-0.00296169,-0.00433382,0.0046797
 4,-0.04327550,-0.00207574,-0.01183974,0.08047797,-0.00115479,0.0026617
 0,-0.00114876,-0.00167528,-0.00157303,0.00141557,0.00097927,-0.0036851
 7,-0.00016574,0.00055223,-0.00169888,-0.01110241,-0.00625615,-0.006367
 41,-0.01517499,0.00224889,-0.00126592,0.00008464,0.02211710,-0.0042597
 9,-0.02981888,-0.00228350,-0.00595167,-0.00212752,0.00255776,-0.003299
 83,0.00382057,-0.01033322,0.00377859,0.08245122,0.00320100,0.00030520,
 0.00057702,0.00137799,0.00004822,-0.00286422,-0.00219008,-0.00020250,0
 .00248067,-0.00157577,-0.00025556,0.00115479,0.00144630,0.00248251,-0.
 00114253,-0.00066330,-0.00030535,0.00065606,-0.00095228,-0.00251109,0.
 00003419,-0.01444645,0.00078613,0.02201977,-0.01005138,-0.00991406,-0.
 02403303,-0.01076213,0.00279867,-0.00879906,0.03481540,0.00030520,0.00
 346673,0.00086412,0.00091195,-0.00163656,0.00010325,-0.00021886,-0.002
 36042,0.00367229,-0.00111741,0.00127811,-0.00266170,0.00053480,0.00021
 227,0.00024823,0.00163254,0.00231862,-0.00096160,-0.00248486,-0.002927
 64,0.00002045,0.00129147,-0.00940168,-0.00062985,-0.00992200,-0.017953
 76,-0.03526825,0.00229059,-0.01310905,0.02031774,0.00541146,0.03922302
 ,-0.00057702,-0.00086412,-0.00231827,-0.00088384,0.00050077,-0.0011860
 7,0.00179487,0.00266261,-0.00270142,0.00078989,-0.00062151,-0.00114876
 ,0.00357547,0.00118765,-0.00165473,-0.00017899,0.00374572,-0.00162700,
 -0.00205971,-0.00302497,-0.00706440,0.01487164,-0.00125377,-0.02657651
 ,-0.02189690,-0.03210668,-0.07345591,-0.00671590,0.01345238,-0.0265286
 4,0.01116367,0.01614937,0.14049415,-0.00019929,0.00136512,-0.00011684,
 -0.00333878,-0.00253813,-0.00045364,-0.00557185,-0.01868590,0.01683148
 ,-0.00205739,0.00294039,-0.00204674,-0.00140606,-0.00105234,0.,-0.0099
 4378,-0.00850676,0.,-0.00450717,-0.00330878,0.,-0.00333878,-0.00253813
 ,0.00045364,-0.00557185,-0.01868590,-0.01683148,-0.00205739,0.00294039
 ,0.00204674,-0.00019929,0.00136512,0.00011684,0.03819164,0.00135635,0.
 00089035,-0.00017253,0.00241898,-0.00192297,-0.00238327,-0.01864544,-0
 .02041049,0.02464547,-0.00203970,-0.00314185,-0.00134368,-0.00504401,-
 0.01346038,0.,-0.00452470,-0.00520250,0.,-0.00331659,-0.00714505,0.,0.
 00241898,-0.00192297,0.00238327,-0.01864544,-0.02041049,-0.02464547,-0
 .00203970,-0.00314185,0.00134368,0.00135635,0.00089035,0.00017253,0.04
 670491,0.07497784,0.00124733,0.00185406,0.00376757,0.00096601,0.002289
 31,-0.00171471,0.02047770,0.03009116,-0.04003348,0.00179459,0.00174641
 ,-0.00170506,0.,0.,-0.00367512,0.,0.,-0.00367649,0.,0.,-0.00396099,-0.
 00096601,-0.00228931,-0.00171471,-0.02047770,-0.03009116,-0.04003348,-
 0.00179459,-0.00174641,-0.00170506,-0.00124733,-0.00185406,0.00376757,
 0.,0.,0.09068396\\0.00003746,0.00001896,0.00002717,-0.00001513,0.00002
 670,-0.00004800,-0.00000105,-0.00005563,-0.00011341,-0.00004264,-0.000
 02307,0.00010985,-0.00004839,0.00015019,0.,0.00016816,0.00023125,0.,0.
 00009233,-0.00022547,0.,-0.00001513,0.00002670,0.00004800,-0.00000105,
 -0.00005563,0.00011341,-0.00004264,-0.00002307,-0.00010985,0.00003746,
 0.00001896,-0.00002717,-0.00016938,-0.00008991,0.\\\@
 Job cpu time:  1 days 16 hours 35 minutes 56.4 seconds.
 File lengths (MBytes):  RWF=  16933 Int=      0 D2E=      0 Chk=     70 Scr=      1
 Normal termination of Gaussian 09 at Sat Dec 17 15:04:17 2011.
