 Entering Gaussian System, Link 0=g09
 Initial command:
 /usr/local/chem/g09A2/l1.exe /temp0/tam/Gau-9159.inp -scrdir=/temp0/tam/
 Entering Link 1 = /usr/local/chem/g09A2/l1.exe PID=      9160.
  
 Copyright (c) 1988,1990,1992,1993,1995,1998,2003,2009, Gaussian, Inc.
                  All Rights Reserved.
  
 This is part of the Gaussian(R) 09 program.  It is based on
 the Gaussian(R) 03 system (copyright 2003, Gaussian, Inc.),
 the Gaussian(R) 98 system (copyright 1998, Gaussian, Inc.),
 the Gaussian(R) 94 system (copyright 1995, Gaussian, Inc.),
 the Gaussian 92(TM) system (copyright 1992, Gaussian, Inc.),
 the Gaussian 90(TM) system (copyright 1990, Gaussian, Inc.),
 the Gaussian 88(TM) system (copyright 1988, Gaussian, Inc.),
 the Gaussian 86(TM) system (copyright 1986, Carnegie Mellon
 University), and the Gaussian 82(TM) system (copyright 1983,
 Carnegie Mellon University). Gaussian is a federally registered
 trademark of Gaussian, Inc.
  
 This software contains proprietary and confidential information,
 including trade secrets, belonging to Gaussian, Inc.
  
 This software is provided under written license and may be
 used, copied, transmitted, or stored only in accord with that
 written license.
  
 The following legend is applicable only to US Government
 contracts under FAR:
  
                    RESTRICTED RIGHTS LEGEND
  
 Use, reproduction and disclosure by the US Government is
 subject to restrictions as set forth in subparagraphs (a)
 and (c) of the Commercial Computer Software - Restricted
 Rights clause in FAR 52.227-19.
  
 Gaussian, Inc.
 340 Quinnipiac St., Bldg. 40, Wallingford CT 06492
  
  
 ---------------------------------------------------------------
 Warning -- This program may not be used in any manner that
 competes with the business of Gaussian, Inc. or will provide
 assistance to any competitor of Gaussian, Inc.  The licensee
 of this program is prohibited from giving any competitor of
 Gaussian, Inc. access to this program.  By using this program,
 the user acknowledges that Gaussian, Inc. is engaged in the
 business of creating and licensing software in the field of
 computational chemistry and represents and warrants to the
 licensee that it is not a competitor of Gaussian, Inc. and that
 it will not use this program in any manner prohibited above.
 ---------------------------------------------------------------
  

 Cite this work as:
 Gaussian 09, Revision A.02,
 M. J. Frisch, G. W. Trucks, H. B. Schlegel, G. E. Scuseria, 
 M. A. Robb, J. R. Cheeseman, G. Scalmani, V. Barone, B. Mennucci, 
 G. A. Petersson, H. Nakatsuji, M. Caricato, X. Li, H. P. Hratchian, 
 A. F. Izmaylov, J. Bloino, G. Zheng, J. L. Sonnenberg, M. Hada, 
 M. Ehara, K. Toyota, R. Fukuda, J. Hasegawa, M. Ishida, T. Nakajima, 
 Y. Honda, O. Kitao, H. Nakai, T. Vreven, J. A. Montgomery, Jr., 
 J. E. Peralta, F. Ogliaro, M. Bearpark, J. J. Heyd, E. Brothers, 
 K. N. Kudin, V. N. Staroverov, R. Kobayashi, J. Normand, 
 K. Raghavachari, A. Rendell, J. C. Burant, S. S. Iyengar, J. Tomasi, 
 M. Cossi, N. Rega, J. M. Millam, M. Klene, J. E. Knox, J. B. Cross, 
 V. Bakken, C. Adamo, J. Jaramillo, R. Gomperts, R. E. Stratmann, 
 O. Yazyev, A. J. Austin, R. Cammi, C. Pomelli, J. W. Ochterski, 
 R. L. Martin, K. Morokuma, V. G. Zakrzewski, G. A. Voth, 
 P. Salvador, J. J. Dannenberg, S. Dapprich, A. D. Daniels, 
 O. Farkas, J. B. Foresman, J. V. Ortiz, J. Cioslowski, 
 and D. J. Fox, Gaussian, Inc., Wallingford CT, 2009.
 
 ******************************************
 Gaussian 09:  AM64L-G09RevA.02 11-Jun-2009
                 4-Jan-2012 
 ******************************************
 %NprocShared=6
 Will use up to    6 processors via shared memory.
 %mem=18050MB
 %chk=S9L-ne-d-01
 -----------------------
 # G4 scfcyc=500 scf=xqc
 -----------------------
 1/14=-1,18=20,19=15,26=3,38=1/1,3;
 2/9=110,12=2,17=6,18=5,40=1/2;
 3/5=35,7=104,11=2,16=1,25=1,30=1,71=1,74=-5/1,2,3;
 4//1;
 5/5=2,7=500,8=3,13=1,38=5/2,8;
 6/7=2,8=2,9=2,10=2,28=1/1;
 7//1,2,3,16;
 1/14=-1,18=20,19=15/3(2);
 2/9=110/2;
 99//99;
 2/9=110/2;
 3/5=35,7=104,11=2,16=1,25=1,30=1,71=1,74=-5/1,2,3;
 4/5=5,16=3/1;
 5/5=2,7=500,8=3,13=1,38=5/2,8;
 7//1,2,3,16;
 1/14=-1,18=20,19=15/3(-5);
 2/9=110/2;
 6/7=2,8=2,9=2,10=2,19=2,28=1/1;
 99/9=1/99;
 -----
 si3-n
 -----
 Symbolic Z-matrix:
 Charge =  0 Multiplicity = 1
 Si                    0.        1.43811  -0.54849 
 Si                    0.       -1.43811  -0.54849 
 Si                    0.        0.        1.09697 
 

 GradGradGradGradGradGradGradGradGradGradGradGradGradGradGradGradGradGrad
 Berny optimization.
 Initialization pass.
                           ----------------------------
                           !    Initial Parameters    !
                           ! (Angstroms and Degrees)  !
 --------------------------                            --------------------------
 ! Name  Definition              Value          Derivative Info.                !
 --------------------------------------------------------------------------------
 ! R1    R(1,3)                  2.1853         estimate D2E/DX2                !
 ! R2    R(2,3)                  2.1853         estimate D2E/DX2                !
 ! A1    A(1,3,2)               82.3059         estimate D2E/DX2                !
 --------------------------------------------------------------------------------
 Trust Radius=3.00D-01 FncErr=1.00D-07 GrdErr=1.00D-06
 Number of steps in this run=  20 maximum allowed number of steps= 100.
 GradGradGradGradGradGradGradGradGradGradGradGradGradGradGradGradGradGrad

                          Input orientation:                          
 ---------------------------------------------------------------------
 Center     Atomic      Atomic             Coordinates (Angstroms)
 Number     Number       Type             X           Y           Z
 ---------------------------------------------------------------------
      1         14           0        0.000000    1.438106   -0.548486
      2         14           0        0.000000   -1.438106   -0.548486
      3         14           0        0.000000    0.000000    1.096973
 ---------------------------------------------------------------------
                    Distance matrix (angstroms):
                    1          2          3
     1  Si   0.000000
     2  Si   2.876212   0.000000
     3  Si   2.185334   2.185334   0.000000
 Stoichiometry    Si3
 Framework group  C2V[C2(Si),SGV(Si2)]
 Deg. of freedom     2
 Full point group                 C2V     NOp   4
 Largest Abelian subgroup         C2V     NOp   4
 Largest concise Abelian subgroup C2      NOp   2
                         Standard orientation:                         
 ---------------------------------------------------------------------
 Center     Atomic      Atomic             Coordinates (Angstroms)
 Number     Number       Type             X           Y           Z
 ---------------------------------------------------------------------
      1         14           0        0.000000    1.438106   -0.548486
      2         14           0        0.000000   -1.438106   -0.548486
      3         14           0        0.000000    0.000000    1.096973
 ---------------------------------------------------------------------
 Rotational constants (GHZ):     10.0077003      4.3672230      3.0404238
 Standard basis: GTBas3 (6D, 7F)
 There are    37 symmetry adapted basis functions of A1  symmetry.
 There are    13 symmetry adapted basis functions of A2  symmetry.
 There are    17 symmetry adapted basis functions of B1  symmetry.
 There are    29 symmetry adapted basis functions of B2  symmetry.
 Integral buffers will be    131072 words long.
 Raffenetti 2 integral format.
 Two-electron integral symmetry is turned on.
    96 basis functions,   204 primitive gaussians,   105 cartesian basis functions
    21 alpha electrons       21 beta electrons
       nuclear repulsion energy       130.9834293676 Hartrees.
 NAtoms=    3 NActive=    3 NUniq=    2 SFac= 1.69D+00 NAtFMM=   80 NAOKFM=F Big=F
 One-electron integrals computed using PRISM.
 NBasis=    96 RedAO= T  NBF=    37    13    17    29
 NBsUse=    96 1.00D-06 NBFU=    37    13    17    29
 Harris functional with IExCor=  402 diagonalized for initial guess.
 ExpMin= 7.78D-02 ExpMax= 1.61D+04 ExpMxC= 2.43D+03 IAcc=2 IRadAn=         0 AccDes= 0.00D+00
 HarFok:  IExCor=  402 AccDes= 0.00D+00 IRadAn=         0 IDoV= 1
 ScaDFX=  1.000000  1.000000  1.000000  1.000000
 FoFCou: FMM=F IPFlag=           0 FMFlag=      100000 FMFlg1=           0
         NFxFlg=           0 DoJE=T BraDBF=F KetDBF=T FulRan=T
         Omega=  0.000000  0.000000  1.000000  0.000000  0.000000 ICntrl=     500 IOpCl=  0
         NMat0=    1 NMatS0=    1 NMatT0=    0 NMatD0=    1 NMtDS0=    0 NMtDT0=    0
         I1Cent=           4 NGrid=           0.
 Petite list used in FoFCou.
 Initial guess orbital symmetries:
       Occupied  (A1) (B2) (A1) (A1) (B2) (A1) (A1) (B2) (B1) (B2)
                 (A1) (B2) (A1) (A2) (B1) (A1) (B2) (A1) (B1) (A1)
                 (B2)
       Virtual   (A1) (A2) (B1) (B2) (B2) (A1) (A1) (A1) (B1) (B2)
                 (A1) (A2) (B2) (A1) (B1) (A2) (A1) (B2) (B1) (B1)
                 (B2) (A1) (A1) (B2) (A2) (B2) (A1) (A2) (B1) (A1)
                 (B2) (A1) (A1) (B2) (B1) (A1) (B2) (B1) (A1) (B2)
                 (A1) (A2) (B1) (B2) (A2) (A1) (B2) (A1) (A2) (B2)
                 (B1) (B2) (A1) (B1) (A2) (A1) (B2) (B1) (A1) (A2)
                 (B2) (B1) (A1) (A1) (B2) (A2) (B1) (A2) (A1) (B2)
                 (A1) (B2) (A1) (B2) (A1)
 The electronic state of the initial guess is 1-A1.
 Requested convergence on RMS density matrix=1.00D-08 within 128 cycles.
 Requested convergence on MAX density matrix=1.00D-06.
 Requested convergence on             energy=1.00D-06.
 No special actions if energy rises.
 Keep R1 ints in memory in canonical form, NReq=17503515.
 Integral accuracy reduced to 1.0D-05 until final iterations.
 Initial convergence to 1.0D-05 achieved.  Increase integral accuracy.
 SCF Done:  E(RB3LYP) =  -868.373338210     A.U. after   14 cycles
             Convg  =    0.3584D-08             -V/T =  2.0033
 QCSCF skips out because SCF is already converged.

 **********************************************************************

            Population analysis using the SCF density.

 **********************************************************************

 Orbital symmetries:
       Occupied  (B2) (A1) (A1) (A1) (B2) (A1) (B2) (A1) (A2) (B1)
                 (A1) (B2) (B1) (A1) (B2) (A1) (B2) (A1) (A1) (B1)
                 (B2)
       Virtual   (A1) (A2) (B1) (B2) (B2) (A1) (A1) (A1) (B1) (B2)
                 (A1) (B2) (A1) (A2) (B1) (A2) (A1) (B2) (B1) (B1)
                 (B2) (A1) (A1) (B2) (A2) (B2) (A1) (A2) (B1) (A1)
                 (B2) (A1) (A1) (B2) (B1) (B2) (B1) (A1) (A1) (B2)
                 (A1) (A2) (B1) (A2) (B2) (A1) (B2) (A1) (A2) (B2)
                 (B1) (B2) (A1) (B1) (A2) (A1) (B2) (B1) (A1) (A2)
                 (B1) (B2) (A1) (B2) (A1) (A2) (B1) (A2) (B2) (A1)
                 (A1) (B2) (A1) (B2) (A1)
 The electronic state is 1-A1.
 Alpha  occ. eigenvalues --  -66.15929 -66.15928 -66.12201  -5.30586  -5.30585
 Alpha  occ. eigenvalues --   -5.27431  -3.66555  -3.66552  -3.66511  -3.66510
 Alpha  occ. eigenvalues --   -3.65992  -3.65992  -3.63327  -3.63308  -3.62975
 Alpha  occ. eigenvalues --   -0.56516  -0.42749  -0.35237  -0.23825  -0.23490
 Alpha  occ. eigenvalues --   -0.22193
 Alpha virt. eigenvalues --   -0.13405  -0.10370  -0.05168  -0.04730   0.03791
 Alpha virt. eigenvalues --    0.04536   0.11013   0.15277   0.17034   0.17594
 Alpha virt. eigenvalues --    0.17728   0.20167   0.21533   0.21554   0.23390
 Alpha virt. eigenvalues --    0.26029   0.26970   0.27080   0.29004   0.29812
 Alpha virt. eigenvalues --    0.31858   0.32857   0.35072   0.35102   0.38605
 Alpha virt. eigenvalues --    0.46053   0.50332   0.50506   0.53358   0.55112
 Alpha virt. eigenvalues --    0.58243   0.75186   0.75921   0.79520   0.81218
 Alpha virt. eigenvalues --    0.88912   0.89179   0.89229   0.89807   0.90596
 Alpha virt. eigenvalues --    0.95503   0.98446   0.99171   1.00284   1.01875
 Alpha virt. eigenvalues --    1.02613   1.07950   1.09753   1.15081   1.20765
 Alpha virt. eigenvalues --    1.23102   1.24976   1.28724   1.31832   1.40230
 Alpha virt. eigenvalues --    1.43403   1.45412   1.59370   1.62977   1.65507
 Alpha virt. eigenvalues --    1.71255   1.71589   1.73144   1.73874   1.74633
 Alpha virt. eigenvalues --    1.78551   1.82811   1.87891   1.96346   1.96860
 Alpha virt. eigenvalues --    2.01096   2.17643   2.46942   2.59727   2.70537
          Condensed to atoms (all electrons):
              1          2          3
     1  Si  13.493904   0.077918   0.381667
     2  Si   0.077918  13.493904   0.381667
     3  Si   0.381667   0.381667  13.329688
 Mulliken atomic charges:
              1
     1  Si   0.046511
     2  Si   0.046511
     3  Si  -0.093022
 Sum of Mulliken atomic charges =   0.00000
 Mulliken charges with hydrogens summed into heavy atoms:
              1
     1  Si   0.046511
     2  Si   0.046511
     3  Si  -0.093022
 Sum of Mulliken charges with hydrogens summed into heavy atoms =   0.00000
 Electronic spatial extent (au):  <R**2>=            386.1580
 Charge=              0.0000 electrons
 Dipole moment (field-independent basis, Debye):
    X=              0.0000    Y=              0.0000    Z=              0.1591  Tot=              0.1591
 Quadrupole moment (field-independent basis, Debye-Ang):
   XX=            -39.6749   YY=            -41.4044   ZZ=            -38.7932
   XY=              0.0000   XZ=              0.0000   YZ=              0.0000
 Traceless Quadrupole moment (field-independent basis, Debye-Ang):
   XX=              0.2826   YY=             -1.4469   ZZ=              1.1643
   XY=              0.0000   XZ=              0.0000   YZ=              0.0000
 Octapole moment (field-independent basis, Debye-Ang**2):
  XXX=              0.0000  YYY=              0.0000  ZZZ=              3.2659  XYY=              0.0000
  XXY=              0.0000  XXZ=             -0.2904  XZZ=              0.0000  YZZ=              0.0000
  YYZ=              6.3648  XYZ=              0.0000
 Hexadecapole moment (field-independent basis, Debye-Ang**3):
 XXXX=            -75.8107 YYYY=           -425.1815 ZZZZ=           -210.6348 XXXY=              0.0000
 XXXZ=              0.0000 YYYX=              0.0000 YYYZ=              0.0000 ZZZX=              0.0000
 ZZZY=              0.0000 XXYY=            -79.0272 XXZZ=            -48.0161 YYZZ=           -116.8456
 XXYZ=              0.0000 YYXZ=              0.0000 ZZXY=              0.0000
 N-N= 1.309834293676D+02 E-N=-2.329782017074D+03  KE= 8.654937995699D+02
 Symmetry A1   KE= 5.018999070327D+02
 Symmetry A2   KE= 2.429695168599D+01
 Symmetry B1   KE= 5.031289295895D+01
 Symmetry B2   KE= 2.889840478923D+02
 Calling FoFJK, ICntrl=      2127 FMM=F ISym2X=1 I1Cent= 0 IOpClX= 0 NMat=1 NMatS=1 NMatT=0.
 ***** Axes restored to original set *****
 -------------------------------------------------------------------
 Center     Atomic                   Forces (Hartrees/Bohr)
 Number     Number              X              Y              Z
 -------------------------------------------------------------------
      1       14           0.000000000   -0.002004206    0.000192745
      2       14           0.000000000    0.002004206    0.000192745
      3       14           0.000000000    0.000000000   -0.000385490
 -------------------------------------------------------------------
 Cartesian Forces:  Max     0.002004206 RMS     0.000957809

 GradGradGradGradGradGradGradGradGradGradGradGradGradGradGradGradGradGrad
 Berny optimization.
 Internal  Forces:  Max     0.005708202 RMS     0.003505728
 Search for a local minimum.
 Step number   1 out of a maximum of   20
 All quantities printed in internal units (Hartrees-Bohrs-Radians)
 Mixed Optimization -- RFO/linear search
 Second derivative matrix not updated -- first step.
 The second derivative matrix:
                          R1        R2        A1
           R1           0.19787
           R2           0.00000   0.19787
           A1           0.00000   0.00000   0.25000
     Eigenvalues ---    0.19787   0.19787   0.25000
 RFO step:  Lambda=-1.51903092D-04 EMin= 1.97871710D-01
 Linear search not attempted -- first point.
 Iteration  1 RMS(Cart)=  0.03505481 RMS(Int)=  0.00022106
 Iteration  2 RMS(Cart)=  0.00015238 RMS(Int)=  0.00000000
 Iteration  3 RMS(Cart)=  0.00000000 RMS(Int)=  0.00000000
 ClnCor:  largest displacement from symmetrization is 3.71D-14 for atom     2.
 Variable       Old X    -DE/DX   Delta X   Delta X   Delta X     New X
                                 (Linear)    (Quad)   (Total)
    R1        4.12968  -0.00146   0.00000  -0.00739  -0.00739   4.12229
    R2        4.12968  -0.00146   0.00000  -0.00739  -0.00739   4.12229
    A1        1.43651  -0.00571   0.00000  -0.02282  -0.02282   1.41369
         Item               Value     Threshold  Converged?
 Maximum Force            0.005708     0.000450     NO 
 RMS     Force            0.003506     0.000300     NO 
 Maximum Displacement     0.040455     0.001800     NO 
 RMS     Displacement     0.035100     0.001200     NO 
 Predicted change in Energy=-7.599943D-05
 GradGradGradGradGradGradGradGradGradGradGradGradGradGradGradGradGradGrad

                          Input orientation:                          
 ---------------------------------------------------------------------
 Center     Atomic      Atomic             Coordinates (Angstroms)
 Number     Number       Type             X           Y           Z
 ---------------------------------------------------------------------
      1         14           0        0.000000    1.416698   -0.552928
      2         14           0        0.000000   -1.416698   -0.552928
      3         14           0        0.000000    0.000000    1.105857
 ---------------------------------------------------------------------
                    Distance matrix (angstroms):
                    1          2          3
     1  Si   0.000000
     2  Si   2.833396   0.000000
     3  Si   2.181422   2.181422   0.000000
 Stoichiometry    Si3
 Framework group  C2V[C2(Si),SGV(Si2)]
 Deg. of freedom     2
 Full point group                 C2V     NOp   4
 Largest Abelian subgroup         C2V     NOp   4
 Largest concise Abelian subgroup C2      NOp   2
                         Standard orientation:                         
 ---------------------------------------------------------------------
 Center     Atomic      Atomic             Coordinates (Angstroms)
 Number     Number       Type             X           Y           Z
 ---------------------------------------------------------------------
      1         14           0        0.000000    1.416698   -0.552928
      2         14           0        0.000000   -1.416698   -0.552928
      3         14           0        0.000000    0.000000    1.105856
 ---------------------------------------------------------------------
 Rotational constants (GHZ):      9.8475558      4.5002072      3.0887074
 Standard basis: GTBas3 (6D, 7F)
 There are    37 symmetry adapted basis functions of A1  symmetry.
 There are    13 symmetry adapted basis functions of A2  symmetry.
 There are    17 symmetry adapted basis functions of B1  symmetry.
 There are    29 symmetry adapted basis functions of B2  symmetry.
 Integral buffers will be    131072 words long.
 Raffenetti 2 integral format.
 Two-electron integral symmetry is turned on.
    96 basis functions,   204 primitive gaussians,   105 cartesian basis functions
    21 alpha electrons       21 beta electrons
       nuclear repulsion energy       131.6985900714 Hartrees.
 NAtoms=    3 NActive=    3 NUniq=    2 SFac= 1.69D+00 NAtFMM=   80 NAOKFM=F Big=F
 One-electron integrals computed using PRISM.
 NBasis=    96 RedAO= T  NBF=    37    13    17    29
 NBsUse=    96 1.00D-06 NBFU=    37    13    17    29
 Initial guess read from the read-write file.
 B after Tr=     0.000000    0.000000    0.000000
         Rot=    1.000000    0.000000    0.000000    0.000000 Ang=   0.00 deg.
 Initial guess orbital symmetries:
       Occupied  (B2) (A1) (A1) (A1) (B2) (A1) (B2) (A1) (A2) (B1)
                 (A1) (B2) (B1) (A1) (B2) (A1) (B2) (A1) (A1) (B1)
                 (B2)
       Virtual   (A1) (A2) (B1) (B2) (B2) (A1) (A1) (A1) (B1) (B2)
                 (A1) (B2) (A1) (A2) (B1) (A2) (A1) (B2) (B1) (B1)
                 (B2) (A1) (A1) (B2) (A2) (B2) (A1) (A2) (B1) (A1)
                 (B2) (A1) (A1) (B2) (B1) (B2) (B1) (A1) (A1) (B2)
                 (A1) (A2) (B1) (A2) (B2) (A1) (B2) (A1) (A2) (B2)
                 (B1) (B2) (A1) (B1) (A2) (A1) (B2) (B1) (A1) (A2)
                 (B1) (B2) (A1) (B2) (A1) (A2) (B1) (A2) (B2) (A1)
                 (A1) (B2) (A1) (B2) (A1)
 Harris functional with IExCor=  402 diagonalized for initial guess.
 ExpMin= 7.78D-02 ExpMax= 1.61D+04 ExpMxC= 2.43D+03 IAcc=2 IRadAn=         0 AccDes= 0.00D+00
 HarFok:  IExCor=  402 AccDes= 0.00D+00 IRadAn=         0 IDoV= 1
 ScaDFX=  1.000000  1.000000  1.000000  1.000000
 FoFCou: FMM=F IPFlag=           0 FMFlag=      100000 FMFlg1=           0
         NFxFlg=           0 DoJE=T BraDBF=F KetDBF=T FulRan=T
         Omega=  0.000000  0.000000  1.000000  0.000000  0.000000 ICntrl=     500 IOpCl=  0
         NMat0=    1 NMatS0=    1 NMatT0=    0 NMatD0=    1 NMtDS0=    0 NMtDT0=    0
         I1Cent=           4 NGrid=           0.
 Petite list used in FoFCou.
 Requested convergence on RMS density matrix=1.00D-08 within 128 cycles.
 Requested convergence on MAX density matrix=1.00D-06.
 Requested convergence on             energy=1.00D-06.
 No special actions if energy rises.
 Keep R1 ints in memory in canonical form, NReq=17503515.
 Integral accuracy reduced to 1.0D-05 until final iterations.
 Initial convergence to 1.0D-05 achieved.  Increase integral accuracy.
 SCF Done:  E(RB3LYP) =  -868.373423434     A.U. after   11 cycles
             Convg  =    0.4964D-08             -V/T =  2.0033
 QCSCF skips out because SCF is already converged.
 Calling FoFJK, ICntrl=      2127 FMM=F ISym2X=1 I1Cent= 0 IOpClX= 0 NMat=1 NMatS=1 NMatT=0.
 ***** Axes restored to original set *****
 -------------------------------------------------------------------
 Center     Atomic                   Forces (Hartrees/Bohr)
 Number     Number              X              Y              Z
 -------------------------------------------------------------------
      1       14           0.000000000    0.000071119   -0.000434832
      2       14           0.000000000   -0.000071119   -0.000434832
      3       14           0.000000000    0.000000000    0.000869665
 -------------------------------------------------------------------
 Cartesian Forces:  Max     0.000869665 RMS     0.000356619

 GradGradGradGradGradGradGradGradGradGradGradGradGradGradGradGradGradGrad
 Berny optimization.
 Using GEDIIS/GDIIS optimizer.
 Internal  Forces:  Max     0.000941187 RMS     0.000624460
 Search for a local minimum.
 Step number   2 out of a maximum of   20
 All quantities printed in internal units (Hartrees-Bohrs-Radians)
 Mixed Optimization -- En-DIIS/RFO-DIIS
 Update second derivatives using D2CorX and points    1    2
 DE= -8.52D-05 DEPred=-7.60D-05 R= 1.12D+00
 SS=  1.41D+00  RLast= 2.51D-02 DXNew= 5.0454D-01 7.5301D-02
 Trust test= 1.12D+00 RLast= 2.51D-02 DXMaxT set to 3.00D-01
 The second derivative matrix:
                          R1        R2        A1
           R1           0.20869
           R2           0.01082   0.20869
           A1           0.00955   0.00955   0.20272
 Use linear search instead of GDIIS.
     Eigenvalues ---    0.19521   0.19787   0.22702
 RFO step:  Lambda=-4.10823312D-06 EMin= 1.95208445D-01
 Quartic linear search produced a step of  0.10977.
 Iteration  1 RMS(Cart)=  0.00610768 RMS(Int)=  0.00000846
 Iteration  2 RMS(Cart)=  0.00001448 RMS(Int)=  0.00000000
 Iteration  3 RMS(Cart)=  0.00000000 RMS(Int)=  0.00000000
 ClnCor:  largest displacement from symmetrization is 9.50D-15 for atom     2.
 Variable       Old X    -DE/DX   Delta X   Delta X   Delta X     New X
                                 (Linear)    (Quad)   (Total)
    R1        4.12229   0.00038  -0.00081   0.00278   0.00197   4.12426
    R2        4.12229   0.00038  -0.00081   0.00278   0.00197   4.12426
    A1        1.41369  -0.00094  -0.00250  -0.00215  -0.00465   1.40904
         Item               Value     Threshold  Converged?
 Maximum Force            0.000941     0.000450     NO 
 RMS     Force            0.000624     0.000300     NO 
 Maximum Displacement     0.006025     0.001800     NO 
 RMS     Displacement     0.006120     0.001200     NO 
 Predicted change in Energy=-2.992864D-06
 GradGradGradGradGradGradGradGradGradGradGradGradGradGradGradGradGradGrad

                          Input orientation:                          
 ---------------------------------------------------------------------
 Center     Atomic      Atomic             Coordinates (Angstroms)
 Number     Number       Type             X           Y           Z
 ---------------------------------------------------------------------
      1         14           0        0.000000    1.413510   -0.554290
      2         14           0        0.000000   -1.413510   -0.554290
      3         14           0        0.000000    0.000000    1.108581
 ---------------------------------------------------------------------
                    Distance matrix (angstroms):
                    1          2          3
     1  Si   0.000000
     2  Si   2.827020   0.000000
     3  Si   2.182465   2.182465   0.000000
 Stoichiometry    Si3
 Framework group  C2V[C2(Si),SGV(Si2)]
 Deg. of freedom     2
 Full point group                 C2V     NOp   4
 Largest Abelian subgroup         C2V     NOp   4
 Largest concise Abelian subgroup C2      NOp   2
                         Standard orientation:                         
 ---------------------------------------------------------------------
 Center     Atomic      Atomic             Coordinates (Angstroms)
 Number     Number       Type             X           Y           Z
 ---------------------------------------------------------------------
      1         14           0        0.000000    1.413510   -0.554291
      2         14           0        0.000000   -1.413510   -0.554291
      3         14           0        0.000000    0.000000    1.108581
 ---------------------------------------------------------------------
 Rotational constants (GHZ):      9.7992073      4.5205313      3.0934659
 Standard basis: GTBas3 (6D, 7F)
 There are    37 symmetry adapted basis functions of A1  symmetry.
 There are    13 symmetry adapted basis functions of A2  symmetry.
 There are    17 symmetry adapted basis functions of B1  symmetry.
 There are    29 symmetry adapted basis functions of B2  symmetry.
 Integral buffers will be    131072 words long.
 Raffenetti 2 integral format.
 Two-electron integral symmetry is turned on.
    96 basis functions,   204 primitive gaussians,   105 cartesian basis functions
    21 alpha electrons       21 beta electrons
       nuclear repulsion energy       131.7357037283 Hartrees.
 NAtoms=    3 NActive=    3 NUniq=    2 SFac= 1.69D+00 NAtFMM=   80 NAOKFM=F Big=F
 One-electron integrals computed using PRISM.
 NBasis=    96 RedAO= T  NBF=    37    13    17    29
 NBsUse=    96 1.00D-06 NBFU=    37    13    17    29
 Initial guess read from the read-write file.
 B after Tr=     0.000000    0.000000    0.000000
         Rot=    1.000000    0.000000    0.000000    0.000000 Ang=   0.00 deg.
 Initial guess orbital symmetries:
       Occupied  (B2) (A1) (A1) (A1) (B2) (A1) (B2) (A1) (A2) (B1)
                 (A1) (B2) (B1) (A1) (B2) (A1) (B2) (A1) (A1) (B1)
                 (B2)
       Virtual   (A1) (A2) (B1) (B2) (B2) (A1) (A1) (A1) (B1) (B2)
                 (A1) (B2) (A1) (A2) (B1) (A2) (A1) (B2) (B1) (B1)
                 (B2) (A1) (A1) (B2) (A2) (B2) (A1) (A2) (B1) (A1)
                 (B2) (A1) (A1) (B2) (B1) (B1) (B2) (A1) (A1) (B2)
                 (A1) (A2) (B1) (A2) (B2) (A1) (B2) (A1) (A2) (B2)
                 (B1) (B2) (A1) (B1) (A2) (A1) (B2) (B1) (A1) (A2)
                 (B1) (B2) (A1) (B2) (A1) (A2) (B1) (A2) (B2) (A1)
                 (A1) (B2) (A1) (B2) (A1)
 Requested convergence on RMS density matrix=1.00D-08 within 128 cycles.
 Requested convergence on MAX density matrix=1.00D-06.
 Requested convergence on             energy=1.00D-06.
 No special actions if energy rises.
 Keep R1 ints in memory in canonical form, NReq=17503515.
 SCF Done:  E(RB3LYP) =  -868.373427094     A.U. after    9 cycles
             Convg  =    0.1150D-08             -V/T =  2.0033
 QCSCF skips out because SCF is already converged.
 Calling FoFJK, ICntrl=      2127 FMM=F ISym2X=1 I1Cent= 0 IOpClX= 0 NMat=1 NMatS=1 NMatT=0.
 ***** Axes restored to original set *****
 -------------------------------------------------------------------
 Center     Atomic                   Forces (Hartrees/Bohr)
 Number     Number              X              Y              Z
 -------------------------------------------------------------------
      1       14           0.000000000    0.000121430   -0.000188527
      2       14           0.000000000   -0.000121430   -0.000188527
      3       14           0.000000000    0.000000000    0.000377054
 -------------------------------------------------------------------
 Cartesian Forces:  Max     0.000377054 RMS     0.000164231

 GradGradGradGradGradGradGradGradGradGradGradGradGradGradGradGradGradGrad
 Berny optimization.
 Using GEDIIS/GDIIS optimizer.
 Internal  Forces:  Max     0.000222289 RMS     0.000194688
 Search for a local minimum.
 Step number   3 out of a maximum of   20
 All quantities printed in internal units (Hartrees-Bohrs-Radians)
 Mixed Optimization -- En-DIIS/RFO-DIIS
 Swaping is turned off.
 Update second derivatives using D2CorX and points    1    2    3
 DE= -3.66D-06 DEPred=-2.99D-06 R= 1.22D+00
 SS=  1.41D+00  RLast= 5.43D-03 DXNew= 5.0454D-01 1.6276D-02
 Trust test= 1.22D+00 RLast= 5.43D-03 DXMaxT set to 3.00D-01
 The second derivative matrix:
                          R1        R2        A1
           R1           0.19272
           R2          -0.00516   0.19272
           A1           0.04624   0.04624   0.21518
     Eigenvalues ---    0.13454   0.19787   0.26821
 En-DIIS/RFO-DIIS IScMMF=        0 using points:     3    2
 RFO step:  Lambda=-3.01536583D-07.
 DIIS coeffs:      1.32661     -0.32661
 Iteration  1 RMS(Cart)=  0.00149737 RMS(Int)=  0.00000052
 Iteration  2 RMS(Cart)=  0.00000123 RMS(Int)=  0.00000000
 Iteration  3 RMS(Cart)=  0.00000000 RMS(Int)=  0.00000000
 ClnCor:  largest displacement from symmetrization is 3.17D-14 for atom     2.
 Variable       Old X    -DE/DX   Delta X   Delta X   Delta X     New X
                                  (DIIS)     (GDIIS)  (Total)
    R1        4.12426   0.00022   0.00064   0.00084   0.00148   4.12574
    R2        4.12426   0.00022   0.00064   0.00084   0.00148   4.12574
    A1        1.40904  -0.00012  -0.00152   0.00032  -0.00120   1.40783
         Item               Value     Threshold  Converged?
 Maximum Force            0.000222     0.000450     YES
 RMS     Force            0.000195     0.000300     YES
 Maximum Displacement     0.001825     0.001800     NO 
 RMS     Displacement     0.001498     0.001200     NO 
 Predicted change in Energy=-4.028613D-07
 GradGradGradGradGradGradGradGradGradGradGradGradGradGradGradGradGradGrad

                          Input orientation:                          
 ---------------------------------------------------------------------
 Center     Atomic      Atomic             Coordinates (Angstroms)
 Number     Number       Type             X           Y           Z
 ---------------------------------------------------------------------
      1         14           0        0.000000    1.413016   -0.554773
      2         14           0        0.000000   -1.413016   -0.554773
      3         14           0        0.000000    0.000000    1.109547
 ---------------------------------------------------------------------
                    Distance matrix (angstroms):
                    1          2          3
     1  Si   0.000000
     2  Si   2.826032   0.000000
     3  Si   2.183249   2.183249   0.000000
 Stoichiometry    Si3
 Framework group  C2V[C2(Si),SGV(Si2)]
 Deg. of freedom     2
 Full point group                 C2V     NOp   4
 Largest Abelian subgroup         C2V     NOp   4
 Largest concise Abelian subgroup C2      NOp   2
                         Standard orientation:                         
 ---------------------------------------------------------------------
 Center     Atomic      Atomic             Coordinates (Angstroms)
 Number     Number       Type             X           Y           Z
 ---------------------------------------------------------------------
      1         14           0        0.000000    1.413016   -0.554773
      2         14           0        0.000000   -1.413016   -0.554773
      3         14           0        0.000000    0.000000    1.109547
 ---------------------------------------------------------------------
 Rotational constants (GHZ):      9.7821594      4.5236905      3.0932424
 Standard basis: GTBas3 (6D, 7F)
 There are    37 symmetry adapted basis functions of A1  symmetry.
 There are    13 symmetry adapted basis functions of A2  symmetry.
 There are    17 symmetry adapted basis functions of B1  symmetry.
 There are    29 symmetry adapted basis functions of B2  symmetry.
 Integral buffers will be    131072 words long.
 Raffenetti 2 integral format.
 Two-electron integral symmetry is turned on.
    96 basis functions,   204 primitive gaussians,   105 cartesian basis functions
    21 alpha electrons       21 beta electrons
       nuclear repulsion energy       131.7143806786 Hartrees.
 NAtoms=    3 NActive=    3 NUniq=    2 SFac= 1.69D+00 NAtFMM=   80 NAOKFM=F Big=F
 One-electron integrals computed using PRISM.
 NBasis=    96 RedAO= T  NBF=    37    13    17    29
 NBsUse=    96 1.00D-06 NBFU=    37    13    17    29
 Initial guess read from the read-write file.
 B after Tr=     0.000000    0.000000    0.000000
         Rot=    1.000000    0.000000    0.000000    0.000000 Ang=   0.00 deg.
 Initial guess orbital symmetries:
       Occupied  (B2) (A1) (A1) (A1) (B2) (A1) (B2) (A1) (A2) (B1)
                 (A1) (B2) (B1) (A1) (B2) (A1) (B2) (A1) (A1) (B1)
                 (B2)
       Virtual   (A1) (A2) (B1) (B2) (B2) (A1) (A1) (A1) (B1) (B2)
                 (A1) (B2) (A1) (A2) (B1) (A2) (A1) (B2) (B1) (B1)
                 (B2) (A1) (A1) (B2) (A2) (B2) (A1) (A2) (B1) (A1)
                 (B2) (A1) (A1) (B2) (B1) (B1) (A1) (B2) (A1) (B2)
                 (A1) (A2) (B1) (A2) (A1) (B2) (B2) (A1) (A2) (B2)
                 (B1) (B2) (A1) (B1) (A2) (A1) (B2) (B1) (A1) (A2)
                 (B1) (B2) (A1) (B2) (A1) (A2) (B1) (A2) (B2) (A1)
                 (A1) (B2) (A1) (B2) (A1)
 Requested convergence on RMS density matrix=1.00D-08 within 128 cycles.
 Requested convergence on MAX density matrix=1.00D-06.
 Requested convergence on             energy=1.00D-06.
 No special actions if energy rises.
 Keep R1 ints in memory in canonical form, NReq=17503515.
 SCF Done:  E(RB3LYP) =  -868.373427528     A.U. after    8 cycles
             Convg  =    0.2295D-08             -V/T =  2.0033
 QCSCF skips out because SCF is already converged.
 Calling FoFJK, ICntrl=      2127 FMM=F ISym2X=1 I1Cent= 0 IOpClX= 0 NMat=1 NMatS=1 NMatT=0.
 ***** Axes restored to original set *****
 -------------------------------------------------------------------
 Center     Atomic                   Forces (Hartrees/Bohr)
 Number     Number              X              Y              Z
 -------------------------------------------------------------------
      1       14           0.000000000    0.000025820   -0.000019956
      2       14           0.000000000   -0.000025820   -0.000019956
      3       14           0.000000000    0.000000000    0.000039911
 -------------------------------------------------------------------
 Cartesian Forces:  Max     0.000039911 RMS     0.000020338

 GradGradGradGradGradGradGradGradGradGradGradGradGradGradGradGradGradGrad
 Berny optimization.
 Using GEDIIS/GDIIS optimizer.
 Internal  Forces:  Max     0.000031923 RMS     0.000030648
 Search for a local minimum.
 Step number   4 out of a maximum of   20
 All quantities printed in internal units (Hartrees-Bohrs-Radians)
 Mixed Optimization -- En-DIIS/RFO-DIIS
 Swaping is turned off.
 Update second derivatives using D2CorX and points    1    2    3    4
 DE= -4.33D-07 DEPred=-4.03D-07 R= 1.08D+00
 Trust test= 1.08D+00 RLast= 2.42D-03 DXMaxT set to 3.00D-01
 The second derivative matrix:
                          R1        R2        A1
           R1           0.17680
           R2          -0.02107   0.17680
           A1           0.03357   0.03357   0.20718
     Eigenvalues ---    0.12746   0.19787   0.23545
 En-DIIS/RFO-DIIS IScMMF=        0 using points:     4    3    2
 RFO step:  Lambda= 0.00000000D+00.
 DIIS coeffs:      1.22946     -0.30555      0.07608
 Iteration  1 RMS(Cart)=  0.00020133 RMS(Int)=  0.00000000
 Iteration  2 RMS(Cart)=  0.00000001 RMS(Int)=  0.00000000
 ClnCor:  largest displacement from symmetrization is 6.77D-15 for atom     2.
 Variable       Old X    -DE/DX   Delta X   Delta X   Delta X     New X
                                  (DIIS)     (GDIIS)  (Total)
    R1        4.12574   0.00003   0.00019   0.00000   0.00019   4.12593
    R2        4.12574   0.00003   0.00019   0.00000   0.00019   4.12593
    A1        1.40783   0.00003   0.00008   0.00000   0.00008   1.40791
         Item               Value     Threshold  Converged?
 Maximum Force            0.000032     0.000450     YES
 RMS     Force            0.000031     0.000300     YES
 Maximum Displacement     0.000245     0.001800     YES
 RMS     Displacement     0.000201     0.001200     YES
 Predicted change in Energy=-7.061958D-09
 Optimization completed.
    -- Stationary point found.
                           ----------------------------
                           !   Optimized Parameters   !
                           ! (Angstroms and Degrees)  !
 --------------------------                            --------------------------
 ! Name  Definition              Value          Derivative Info.                !
 --------------------------------------------------------------------------------
 ! R1    R(1,3)                  2.1832         -DE/DX =    0.0                 !
 ! R2    R(2,3)                  2.1832         -DE/DX =    0.0                 !
 ! A1    A(1,3,2)               80.6629         -DE/DX =    0.0                 !
 --------------------------------------------------------------------------------
 GradGradGradGradGradGradGradGradGradGradGradGradGradGradGradGradGradGrad

                          Input orientation:                          
 ---------------------------------------------------------------------
 Center     Atomic      Atomic             Coordinates (Angstroms)
 Number     Number       Type             X           Y           Z
 ---------------------------------------------------------------------
      1         14           0        0.000000    1.413016   -0.554773
      2         14           0        0.000000   -1.413016   -0.554773
      3         14           0        0.000000    0.000000    1.109547
 ---------------------------------------------------------------------
                    Distance matrix (angstroms):
                    1          2          3
     1  Si   0.000000
     2  Si   2.826032   0.000000
     3  Si   2.183249   2.183249   0.000000
 Stoichiometry    Si3
 Framework group  C2V[C2(Si),SGV(Si2)]
 Deg. of freedom     2
 Full point group                 C2V     NOp   4
 Largest Abelian subgroup         C2V     NOp   4
 Largest concise Abelian subgroup C2      NOp   2
                         Standard orientation:                         
 ---------------------------------------------------------------------
 Center     Atomic      Atomic             Coordinates (Angstroms)
 Number     Number       Type             X           Y           Z
 ---------------------------------------------------------------------
      1         14           0        0.000000    1.413016   -0.554773
      2         14           0        0.000000   -1.413016   -0.554773
      3         14           0        0.000000    0.000000    1.109547
 ---------------------------------------------------------------------
 Rotational constants (GHZ):      9.7821594      4.5236905      3.0932424

 **********************************************************************

            Population analysis using the SCF density.

 **********************************************************************

 Orbital symmetries:
       Occupied  (B2) (A1) (A1) (A1) (B2) (A1) (B2) (A1) (A2) (B1)
                 (A1) (B2) (B1) (A1) (B2) (A1) (B2) (A1) (A1) (B1)
                 (B2)
       Virtual   (A1) (A2) (B1) (B2) (B2) (A1) (A1) (A1) (B1) (B2)
                 (A1) (B2) (A1) (A2) (B1) (A2) (A1) (B2) (B1) (B1)
                 (B2) (A1) (A1) (B2) (A2) (B2) (A1) (A2) (B1) (A1)
                 (B2) (A1) (A1) (B2) (B1) (B1) (A1) (B2) (A1) (B2)
                 (A1) (A2) (B1) (A2) (A1) (B2) (B2) (A1) (A2) (B2)
                 (B1) (B2) (A1) (B1) (A2) (A1) (B2) (B1) (A1) (A2)
                 (B1) (B2) (A1) (B2) (A1) (A2) (B1) (A2) (B2) (A1)
                 (A1) (B2) (A1) (B2) (A1)
 The electronic state is 1-A1.
 Alpha  occ. eigenvalues --  -66.15849 -66.15849 -66.12316  -5.30516  -5.30515
 Alpha  occ. eigenvalues --   -5.27540  -3.66488  -3.66486  -3.66441  -3.66439
 Alpha  occ. eigenvalues --   -3.65920  -3.65919  -3.63439  -3.63421  -3.63078
 Alpha  occ. eigenvalues --   -0.56773  -0.42520  -0.35433  -0.23880  -0.23637
 Alpha  occ. eigenvalues --   -0.22094
 Alpha virt. eigenvalues --   -0.13648  -0.10187  -0.05295  -0.04224   0.03680
 Alpha virt. eigenvalues --    0.04519   0.10882   0.15260   0.16845   0.17689
 Alpha virt. eigenvalues --    0.17747   0.20341   0.21357   0.21676   0.23463
 Alpha virt. eigenvalues --    0.26085   0.26691   0.27328   0.28887   0.29612
 Alpha virt. eigenvalues --    0.31824   0.33002   0.35332   0.35378   0.39117
 Alpha virt. eigenvalues --    0.46172   0.50348   0.50460   0.53453   0.54812
 Alpha virt. eigenvalues --    0.58981   0.75587   0.75857   0.79453   0.81312
 Alpha virt. eigenvalues --    0.89000   0.89068   0.89104   0.90224   0.90738
 Alpha virt. eigenvalues --    0.95419   0.98766   0.98953   1.00566   1.02072
 Alpha virt. eigenvalues --    1.02134   1.08846   1.09926   1.16262   1.21160
 Alpha virt. eigenvalues --    1.22487   1.25182   1.28851   1.32043   1.40220
 Alpha virt. eigenvalues --    1.43087   1.45384   1.59545   1.63124   1.65790
 Alpha virt. eigenvalues --    1.71314   1.71807   1.73115   1.74820   1.76213
 Alpha virt. eigenvalues --    1.79359   1.82749   1.87790   1.94702   1.96202
 Alpha virt. eigenvalues --    2.00617   2.17819   2.46722   2.60763   2.70414
          Condensed to atoms (all electrons):
              1          2          3
     1  Si  13.498057   0.078962   0.378235
     2  Si   0.078962  13.498057   0.378235
     3  Si   0.378235   0.378235  13.333024
 Mulliken atomic charges:
              1
     1  Si   0.044747
     2  Si   0.044747
     3  Si  -0.089493
 Sum of Mulliken atomic charges =   0.00000
 Mulliken charges with hydrogens summed into heavy atoms:
              1
     1  Si   0.044747
     2  Si   0.044747
     3  Si  -0.089493
 Sum of Mulliken charges with hydrogens summed into heavy atoms =   0.00000
 Electronic spatial extent (au):  <R**2>=            381.1061
 Charge=              0.0000 electrons
 Dipole moment (field-independent basis, Debye):
    X=              0.0000    Y=              0.0000    Z=              0.2300  Tot=              0.2300
 Quadrupole moment (field-independent basis, Debye-Ang):
   XX=            -39.6249   YY=            -41.5321   ZZ=            -38.7425
   XY=              0.0000   XZ=              0.0000   YZ=              0.0000
 Traceless Quadrupole moment (field-independent basis, Debye-Ang):
   XX=              0.3416   YY=             -1.5656   ZZ=              1.2240
   XY=              0.0000   XZ=              0.0000   YZ=              0.0000
 Octapole moment (field-independent basis, Debye-Ang**2):
  XXX=              0.0000  YYY=              0.0000  ZZZ=              3.7145  XYY=              0.0000
  XXY=              0.0000  XXZ=             -0.2056  XZZ=              0.0000  YZZ=              0.0000
  YYZ=              6.4648  XYZ=              0.0000
 Hexadecapole moment (field-independent basis, Debye-Ang**3):
 XXXX=            -75.5767 YYYY=           -413.4313 ZZZZ=           -213.3986 XXXY=              0.0000
 XXXZ=              0.0000 YYYX=              0.0000 YYYZ=              0.0000 ZZZX=              0.0000
 ZZZY=              0.0000 XXYY=            -77.2075 XXZZ=            -48.4480 YYZZ=           -115.8841
 XXYZ=              0.0000 YYXZ=              0.0000 ZZXY=              0.0000
 N-N= 1.317143806786D+02 E-N=-2.331248927494D+03  KE= 8.655040827792D+02
 Symmetry A1   KE= 5.019122111923D+02
 Symmetry A2   KE= 2.429656244623D+01
 Symmetry B1   KE= 5.031462757161D+01
 Symmetry B2   KE= 2.889806815690D+02
 1\1\GINC-NODE41\FOpt\RB3LYP\GTBas3\Si3\TAM\04-Jan-2012\0\\# G4 scfcyc=
 500 scf=xqc\\si3-n\\0,1\Si,0.,1.4130162126,-0.5547730165\Si,0.,-1.4130
 162126,-0.5547730165\Si,0.,0.,1.1095470331\\Version=AM64L-G09RevA.02\S
 tate=1-A1\HF=-868.3734275\RMSD=2.295e-09\RMSF=2.034e-05\Dipole=0.,0.,0
 .0904842\Quadrupole=0.2539546,-1.163986,0.9100314,0.,0.,0.\PG=C02V [C2
 (Si1),SGV(Si2)]\\@


 A successful marriage requires falling in love
 many times, always with the same person.
                           -- Mignon McLaughlin
 Job cpu time:  0 days  0 hours  1 minutes 19.3 seconds.
 File lengths (MBytes):  RWF=      9 Int=      0 D2E=      0 Chk=     13 Scr=      1
 Normal termination of Gaussian 09 at Wed Jan  4 10:32:14 2012.
 Link1:  Proceeding to internal job step number  2.
 ----------------------------------------------------------
 #N Geom=AllCheck Guess=TCheck SCRF=Check B3LYP/GTBas3 Freq
 ----------------------------------------------------------
 1/10=4,29=7,30=1,38=1,40=1/1,3;
 2/12=2,40=1/2;
 3/5=35,11=2,14=-4,16=1,25=1,30=1,70=2,71=2,74=-5,116=-2/1,2,3;
 4/5=101/1;
 5/5=2,7=500,8=3,13=1,98=1/2,8;
 8/6=4,10=90,11=11/1;
 11/6=1,8=1,9=11,15=111,16=1/1,2,10;
 10/6=1/2;
 6/7=2,8=2,9=2,10=2,18=1,28=1/1;
 7/8=1,10=1,25=1/1,2,3,16;
 1/10=4,30=1/3;
 99//99;
 -----
 si3-n
 -----
 Redundant internal coordinates taken from checkpoint file:
 S9L-ne-d-01.chk
 Charge =  0 Multiplicity = 1
 Si,0,0.,1.4130162126,-0.5547730165
 Si,0,0.,-1.4130162126,-0.5547730165
 Si,0,0.,0.,1.1095470331
 Recover connectivity data from disk.

 GradGradGradGradGradGradGradGradGradGradGradGradGradGradGradGradGradGrad
 Berny optimization.
 Initialization pass.
                           ----------------------------
                           !    Initial Parameters    !
                           ! (Angstroms and Degrees)  !
 --------------------------                            --------------------------
 ! Name  Definition              Value          Derivative Info.                !
 --------------------------------------------------------------------------------
 ! R1    R(1,3)                  2.1832         calculate D2E/DX2 analytically  !
 ! R2    R(2,3)                  2.1832         calculate D2E/DX2 analytically  !
 ! A1    A(1,3,2)               80.6629         calculate D2E/DX2 analytically  !
 --------------------------------------------------------------------------------
 Trust Radius=3.00D-01 FncErr=1.00D-07 GrdErr=1.00D-07
 Number of steps in this run=   2 maximum allowed number of steps=   2.
 GradGradGradGradGradGradGradGradGradGradGradGradGradGradGradGradGradGrad

                          Input orientation:                          
 ---------------------------------------------------------------------
 Center     Atomic      Atomic             Coordinates (Angstroms)
 Number     Number       Type             X           Y           Z
 ---------------------------------------------------------------------
      1         14           0        0.000000    1.413016   -0.554773
      2         14           0        0.000000   -1.413016   -0.554773
      3         14           0        0.000000    0.000000    1.109547
 ---------------------------------------------------------------------
                    Distance matrix (angstroms):
                    1          2          3
     1  Si   0.000000
     2  Si   2.826032   0.000000
     3  Si   2.183249   2.183249   0.000000
 Stoichiometry    Si3
 Framework group  C2V[C2(Si),SGV(Si2)]
 Deg. of freedom     2
 Full point group                 C2V     NOp   4
 Largest Abelian subgroup         C2V     NOp   4
 Largest concise Abelian subgroup C2      NOp   2
                         Standard orientation:                         
 ---------------------------------------------------------------------
 Center     Atomic      Atomic             Coordinates (Angstroms)
 Number     Number       Type             X           Y           Z
 ---------------------------------------------------------------------
      1         14           0        0.000000    1.413016   -0.554773
      2         14           0        0.000000   -1.413016   -0.554773
      3         14           0        0.000000    0.000000    1.109547
 ---------------------------------------------------------------------
 Rotational constants (GHZ):      9.7821594      4.5236905      3.0932424
 Standard basis: GTBas3 (6D, 7F)
 There are    37 symmetry adapted basis functions of A1  symmetry.
 There are    13 symmetry adapted basis functions of A2  symmetry.
 There are    17 symmetry adapted basis functions of B1  symmetry.
 There are    29 symmetry adapted basis functions of B2  symmetry.
 Integral buffers will be    131072 words long.
 Raffenetti 2 integral format.
 Two-electron integral symmetry is turned on.
    96 basis functions,   204 primitive gaussians,   105 cartesian basis functions
    21 alpha electrons       21 beta electrons
       nuclear repulsion energy       131.7143806786 Hartrees.
 NAtoms=    3 NActive=    3 NUniq=    2 SFac= 1.69D+00 NAtFMM=   80 NAOKFM=F Big=F
 One-electron integrals computed using PRISM.
 NBasis=    96 RedAO= T  NBF=    37    13    17    29
 NBsUse=    96 1.00D-06 NBFU=    37    13    17    29
 Initial guess read from the checkpoint file:  S9L-ne-d-01.chk
 B after Tr=     0.000000    0.000000    0.000000
         Rot=    1.000000    0.000000    0.000000    0.000000 Ang=   0.00 deg.
 Initial guess orbital symmetries:
       Occupied  (B2) (A1) (A1) (A1) (B2) (A1) (B2) (A1) (A2) (B1)
                 (A1) (B2) (B1) (A1) (B2) (A1) (B2) (A1) (A1) (B1)
                 (B2)
       Virtual   (A1) (A2) (B1) (B2) (B2) (A1) (A1) (A1) (B1) (B2)
                 (A1) (B2) (A1) (A2) (B1) (A2) (A1) (B2) (B1) (B1)
                 (B2) (A1) (A1) (B2) (A2) (B2) (A1) (A2) (B1) (A1)
                 (B2) (A1) (A1) (B2) (B1) (B1) (A1) (B2) (A1) (B2)
                 (A1) (A2) (B1) (A2) (A1) (B2) (B2) (A1) (A2) (B2)
                 (B1) (B2) (A1) (B1) (A2) (A1) (B2) (B1) (A1) (A2)
                 (B1) (B2) (A1) (B2) (A1) (A2) (B1) (A2) (B2) (A1)
                 (A1) (B2) (A1) (B2) (A1)
 Requested convergence on RMS density matrix=1.00D-08 within 128 cycles.
 Requested convergence on MAX density matrix=1.00D-06.
 Requested convergence on             energy=1.00D-06.
 No special actions if energy rises.
 Keep R1 ints in memory in canonical form, NReq=17503515.
 SCF Done:  E(RB3LYP) =  -868.373427528     A.U. after    1 cycles
             Convg  =    0.1284D-08             -V/T =  2.0033
 QCSCF skips out because SCF is already converged.
 Range of M.O.s used for correlation:     1    96
 NBasis=    96 NAE=    21 NBE=    21 NFC=     0 NFV=     0
 NROrb=     96 NOA=    21 NOB=    21 NVA=    75 NVB=    75

 **** Warning!!: The smallest alpha delta epsilon is  0.84459226D-01

 Symmetrizing basis deriv contribution to polar:
 IMax=3 JMax=2 DiffMx= 0.00D+00
 G2DrvN: will do     4 centers at a time, making    1 passes doing MaxLOS=3.
 Calling FoFCou, ICntrl=  3107 FMM=F I1Cent=   0 AccDes= 0.00D+00.
 FoFDir/FoFCou used for L=0 through L=3.
 End of G2Drv Frequency-dependent properties file   721 does not exist.
 End of G2Drv Frequency-dependent properties file   722 does not exist.
          IDoAtm=111
          Differentiating once with respect to electric field.
                with respect to dipole field.
          Differentiating once with respect to nuclear coordinates.
          Keep R1 ints in memory in canonical form, NReq=17429102.
          There are     9 degrees of freedom in the 1st order CPHF.  IDoFFX=4.
      9 vectors produced by pass  0 Test12= 1.75D-14 1.11D-08 XBig12= 5.16D+02 1.53D+01.
 AX will form     9 AO Fock derivatives at one time.
      9 vectors produced by pass  1 Test12= 1.75D-14 1.11D-08 XBig12= 2.45D+02 6.60D+00.
      9 vectors produced by pass  2 Test12= 1.75D-14 1.11D-08 XBig12= 5.36D+00 7.92D-01.
      9 vectors produced by pass  3 Test12= 1.75D-14 1.11D-08 XBig12= 4.89D-02 8.28D-02.
      9 vectors produced by pass  4 Test12= 1.75D-14 1.11D-08 XBig12= 3.82D-04 5.73D-03.
      9 vectors produced by pass  5 Test12= 1.75D-14 1.11D-08 XBig12= 1.93D-06 3.65D-04.
      9 vectors produced by pass  6 Test12= 1.75D-14 1.11D-08 XBig12= 4.79D-09 2.20D-05.
      6 vectors produced by pass  7 Test12= 1.75D-14 1.11D-08 XBig12= 8.41D-12 9.11D-07.
      2 vectors produced by pass  8 Test12= 1.75D-14 1.11D-08 XBig12= 2.64D-14 7.49D-08.
 Inverted reduced A of dimension    71 with in-core refinement.
 Isotropic polarizability for W=    0.000000       95.74 Bohr**3.
 End of Minotr Frequency-dependent properties file   721 does not exist.
 End of Minotr Frequency-dependent properties file   722 does not exist.

 **********************************************************************

            Population analysis using the SCF density.

 **********************************************************************

 Orbital symmetries:
       Occupied  (B2) (A1) (A1) (A1) (B2) (A1) (B2) (A1) (A2) (B1)
                 (A1) (B2) (B1) (A1) (B2) (A1) (B2) (A1) (A1) (B1)
                 (B2)
       Virtual   (A1) (A2) (B1) (B2) (B2) (A1) (A1) (A1) (B1) (B2)
                 (A1) (B2) (A1) (A2) (B1) (A2) (A1) (B2) (B1) (B1)
                 (B2) (A1) (A1) (B2) (A2) (B2) (A1) (A2) (B1) (A1)
                 (B2) (A1) (A1) (B2) (B1) (B1) (A1) (B2) (A1) (B2)
                 (A1) (A2) (B1) (A2) (A1) (B2) (B2) (A1) (A2) (B2)
                 (B1) (B2) (A1) (B1) (A2) (A1) (B2) (B1) (A1) (A2)
                 (B1) (B2) (A1) (B2) (A1) (A2) (B1) (A2) (B2) (A1)
                 (A1) (B2) (A1) (B2) (A1)
 The electronic state is 1-A1.
 Alpha  occ. eigenvalues --  -66.15849 -66.15849 -66.12316  -5.30516  -5.30515
 Alpha  occ. eigenvalues --   -5.27540  -3.66488  -3.66486  -3.66441  -3.66439
 Alpha  occ. eigenvalues --   -3.65920  -3.65919  -3.63439  -3.63421  -3.63078
 Alpha  occ. eigenvalues --   -0.56773  -0.42520  -0.35433  -0.23880  -0.23637
 Alpha  occ. eigenvalues --   -0.22094
 Alpha virt. eigenvalues --   -0.13648  -0.10187  -0.05295  -0.04224   0.03680
 Alpha virt. eigenvalues --    0.04519   0.10882   0.15260   0.16845   0.17689
 Alpha virt. eigenvalues --    0.17747   0.20341   0.21357   0.21676   0.23463
 Alpha virt. eigenvalues --    0.26085   0.26691   0.27328   0.28887   0.29612
 Alpha virt. eigenvalues --    0.31824   0.33002   0.35332   0.35378   0.39117
 Alpha virt. eigenvalues --    0.46172   0.50348   0.50460   0.53453   0.54812
 Alpha virt. eigenvalues --    0.58981   0.75587   0.75857   0.79453   0.81312
 Alpha virt. eigenvalues --    0.89000   0.89068   0.89104   0.90224   0.90738
 Alpha virt. eigenvalues --    0.95419   0.98766   0.98953   1.00566   1.02072
 Alpha virt. eigenvalues --    1.02134   1.08846   1.09926   1.16262   1.21160
 Alpha virt. eigenvalues --    1.22487   1.25182   1.28851   1.32043   1.40220
 Alpha virt. eigenvalues --    1.43087   1.45384   1.59545   1.63124   1.65790
 Alpha virt. eigenvalues --    1.71314   1.71807   1.73115   1.74820   1.76213
 Alpha virt. eigenvalues --    1.79359   1.82749   1.87790   1.94702   1.96202
 Alpha virt. eigenvalues --    2.00617   2.17819   2.46722   2.60763   2.70414
          Condensed to atoms (all electrons):
              1          2          3
     1  Si  13.498057   0.078962   0.378235
     2  Si   0.078962  13.498057   0.378235
     3  Si   0.378235   0.378235  13.333023
 Mulliken atomic charges:
              1
     1  Si   0.044747
     2  Si   0.044747
     3  Si  -0.089493
 Sum of Mulliken atomic charges =   0.00000
 Mulliken charges with hydrogens summed into heavy atoms:
              1
     1  Si   0.044747
     2  Si   0.044747
     3  Si  -0.089493
 Sum of Mulliken charges with hydrogens summed into heavy atoms =   0.00000
 APT atomic charges:
              1
     1  Si   0.155834
     2  Si   0.155834
     3  Si  -0.311668
 Sum of APT charges=   0.00000
 APT Atomic charges with hydrogens summed into heavy atoms:
              1
     1  Si   0.155834
     2  Si   0.155834
     3  Si  -0.311668
 Sum of APT charges=   0.00000
 Electronic spatial extent (au):  <R**2>=            381.1061
 Charge=              0.0000 electrons
 Dipole moment (field-independent basis, Debye):
    X=              0.0000    Y=              0.0000    Z=              0.2300  Tot=              0.2300
 Quadrupole moment (field-independent basis, Debye-Ang):
   XX=            -39.6249   YY=            -41.5321   ZZ=            -38.7425
   XY=              0.0000   XZ=              0.0000   YZ=              0.0000
 Traceless Quadrupole moment (field-independent basis, Debye-Ang):
   XX=              0.3416   YY=             -1.5656   ZZ=              1.2240
   XY=              0.0000   XZ=              0.0000   YZ=              0.0000
 Octapole moment (field-independent basis, Debye-Ang**2):
  XXX=              0.0000  YYY=              0.0000  ZZZ=              3.7145  XYY=              0.0000
  XXY=              0.0000  XXZ=             -0.2056  XZZ=              0.0000  YZZ=              0.0000
  YYZ=              6.4648  XYZ=              0.0000
 Hexadecapole moment (field-independent basis, Debye-Ang**3):
 XXXX=            -75.5767 YYYY=           -413.4314 ZZZZ=           -213.3986 XXXY=              0.0000
 XXXZ=              0.0000 YYYX=              0.0000 YYYZ=              0.0000 ZZZX=              0.0000
 ZZZY=              0.0000 XXYY=            -77.2075 XXZZ=            -48.4480 YYZZ=           -115.8841
 XXYZ=              0.0000 YYXZ=              0.0000 ZZXY=              0.0000
 N-N= 1.317143806786D+02 E-N=-2.331248926930D+03  KE= 8.655040826115D+02
 Symmetry A1   KE= 5.019122110798D+02
 Symmetry A2   KE= 2.429656244393D+01
 Symmetry B1   KE= 5.031462754007D+01
 Symmetry B2   KE= 2.889806815478D+02
  Exact polarizability:  59.646   0.000 129.255   0.000   0.000  98.325
 Approx polarizability: 108.910   0.000 334.066   0.000   0.000 244.683
 Calling FoFJK, ICntrl=    100127 FMM=F ISym2X=1 I1Cent= 0 IOpClX= 0 NMat=1 NMatS=1 NMatT=0.
 Full mass-weighted force constant matrix:
 Low frequencies ---  -11.4314   -6.0713   -4.3661   -0.0035   -0.0030    0.0029
 Low frequencies ---  177.6740  538.0298  545.4502
 Diagonal vibrational polarizability:
        0.0000000       3.8080511       4.5318842
 Harmonic frequencies (cm**-1), IR intensities (KM/Mole), Raman scattering
 activities (A**4/AMU), depolarization ratios for plane and unpolarized
 incident light, reduced masses (AMU), force constants (mDyne/A),
 and normal coordinates:
                     1                      2                      3
                    A1                     B2                     A1
 Frequencies --   177.6740               538.0298               545.4502
 Red. masses --    27.9769                27.9769                27.9769
 Frc consts  --     0.5204                 4.7716                 4.9041
 IR Inten    --     4.3167                40.9621                 9.4190
  Atom  AN      X      Y      Z        X      Y      Z        X      Y      Z
     1  14     0.00   0.62   0.19     0.00   0.34  -0.40     0.00  -0.33   0.36
     2  14     0.00  -0.62   0.19     0.00   0.34   0.40     0.00   0.33   0.36
     3  14     0.00   0.00  -0.38     0.00  -0.68   0.00     0.00   0.00  -0.72

 -------------------
 - Thermochemistry -
 -------------------
 Temperature   298.150 Kelvin.  Pressure   1.00000 Atm.
 Atom     1 has atomic number 14 and mass  27.97693
 Atom     2 has atomic number 14 and mass  27.97693
 Atom     3 has atomic number 14 and mass  27.97693
 Molecular mass:    83.93079 amu.
 Principal axes and moments of inertia in atomic units:
                           1         2         3
     Eigenvalues --   184.49313 398.95329 583.44642
           X            0.00000   0.00000   1.00000
           Y            1.00000   0.00000   0.00000
           Z            0.00000   1.00000   0.00000
 This molecule is an asymmetric top.
 Rotational symmetry number  2.
 Rotational temperatures (Kelvin)      0.46947     0.21710     0.14845
 Rotational constants (GHZ):           9.78216     4.52369     3.09324
 Zero-point vibrational energy       7543.4 (Joules/Mol)
                                    1.80291 (Kcal/Mol)
 Warning -- explicit consideration of   3 degrees of freedom as
           vibrations may cause significant error
 Vibrational temperatures:    255.63   774.10   784.78
          (Kelvin)
 
 Zero-point correction=                           0.002873 (Hartree/Particle)
 Thermal correction to Energy=                    0.006692
 Thermal correction to Enthalpy=                  0.007636
 Thermal correction to Gibbs Free Energy=        -0.023988
 Sum of electronic and zero-point Energies=           -868.370554
 Sum of electronic and thermal Energies=              -868.366735
 Sum of electronic and thermal Enthalpies=            -868.365791
 Sum of electronic and thermal Free Energies=         -868.397416
 
                     E (Thermal)             CV                S
                      KCal/Mol        Cal/Mol-Kelvin    Cal/Mol-Kelvin
 Total                    4.199             10.147             66.560
 Electronic               0.000              0.000              0.000
 Translational            0.889              2.981             39.196
 Rotational               0.889              2.981             23.888
 Vibrational              2.422              4.185              3.476
 Vibration     1          0.628              1.870              2.353
 Vibration     2          0.893              1.166              0.570
 Vibration     3          0.901              1.150              0.554
                       Q            Log10(Q)             Ln(Q)
 Total Bot       0.108119D+12         11.033902         25.406499
 Total V=0       0.226695D+13         12.355443         28.449459
 Vib (Bot)       0.964488D-01         -1.015703         -2.338742
 Vib (Bot)    1  0.113135D+01          0.053596          0.123409
 Vib (Bot)    2  0.295021D+00         -0.530147         -1.220709
 Vib (Bot)    3  0.288967D+00         -0.539152         -1.241443
 Vib (V=0)       0.202226D+01          0.305838          0.704217
 Vib (V=0)    1  0.173691D+01          0.239777          0.552108
 Vib (V=0)    2  0.108055D+01          0.033645          0.077469
 Vib (V=0)    3  0.107750D+01          0.032416          0.074640
 Electronic      0.100000D+01          0.000000          0.000000
 Translational   0.302230D+08          7.480337         17.224113
 Rotational      0.370910D+05          4.569268         10.521128
 ***** Axes restored to original set *****
 -------------------------------------------------------------------
 Center     Atomic                   Forces (Hartrees/Bohr)
 Number     Number              X              Y              Z
 -------------------------------------------------------------------
      1       14           0.000000000    0.000025812   -0.000019949
      2       14           0.000000000   -0.000025812   -0.000019949
      3       14           0.000000000    0.000000000    0.000039899
 -------------------------------------------------------------------
 Cartesian Forces:  Max     0.000039899 RMS     0.000020332

 GradGradGradGradGradGradGradGradGradGradGradGradGradGradGradGradGradGrad
 Berny optimization.
 Internal  Forces:  Max     0.000031913 RMS     0.000030637
 Search for a local minimum.
 Step number   1 out of a maximum of    2
 All quantities printed in internal units (Hartrees-Bohrs-Radians)
 Second derivative matrix not updated -- analytic derivatives used.
 The second derivative matrix:
                          R1        R2        A1
           R1           0.16100
           R2          -0.00577   0.16100
           A1           0.03331   0.03331   0.20676
     Eigenvalues ---    0.12731   0.16677   0.23469
 Angle between quadratic step and forces=  16.34 degrees.
 Linear search not attempted -- first point.
 Iteration  1 RMS(Cart)=  0.00019631 RMS(Int)=  0.00000000
 Iteration  2 RMS(Cart)=  0.00000001 RMS(Int)=  0.00000000
 ClnCor:  largest displacement from symmetrization is 7.36D-14 for atom     2.
 Variable       Old X    -DE/DX   Delta X   Delta X   Delta X     New X
                                 (Linear)    (Quad)   (Total)
    R1        4.12574   0.00003   0.00000   0.00019   0.00019   4.12593
    R2        4.12574   0.00003   0.00000   0.00019   0.00019   4.12593
    A1        1.40783   0.00003   0.00000   0.00007   0.00007   1.40791
         Item               Value     Threshold  Converged?
 Maximum Force            0.000032     0.000450     YES
 RMS     Force            0.000031     0.000300     YES
 Maximum Displacement     0.000239     0.001800     YES
 RMS     Displacement     0.000196     0.001200     YES
 Predicted change in Energy=-7.085948D-09
 Optimization completed.
    -- Stationary point found.
                           ----------------------------
                           !   Optimized Parameters   !
                           ! (Angstroms and Degrees)  !
 --------------------------                            --------------------------
 ! Name  Definition              Value          Derivative Info.                !
 --------------------------------------------------------------------------------
 ! R1    R(1,3)                  2.1832         -DE/DX =    0.0                 !
 ! R2    R(2,3)                  2.1832         -DE/DX =    0.0                 !
 ! A1    A(1,3,2)               80.6629         -DE/DX =    0.0                 !
 --------------------------------------------------------------------------------
 GradGradGradGradGradGradGradGradGradGradGradGradGradGradGradGradGradGrad

 1\1\GINC-NODE41\Freq\RB3LYP\GTBas3\Si3\TAM\04-Jan-2012\0\\#N Geom=AllC
 heck Guess=TCheck SCRF=Check B3LYP/GTBas3 Freq\\si3-n\\0,1\Si,0.,1.413
 0162126,-0.5547730165\Si,0.,-1.4130162126,-0.5547730165\Si,0.,0.,1.109
 5470331\\Version=AM64L-G09RevA.02\State=1-A1\HF=-868.3734275\RMSD=1.28
 4e-09\RMSF=2.033e-05\ZeroPoint=0.0028731\Thermal=0.0066923\Dipole=0.,0
 .,0.0904854\DipoleDeriv=-0.0143794,0.,0.,0.,0.3615313,-0.39197,0.,-0.4
 425354,0.1203499,-0.0143794,0.,0.,0.,0.3615313,0.39197,0.,0.4425354,0.
 1203499,0.0287587,0.,0.,0.,-0.7230626,0.,0.,0.,-0.2406998\Polar=59.646
 4316,0.,129.2546506,0.,0.,98.3251729\PG=C02V [C2(Si1),SGV(Si2)]\NImag=
 0\\-0.00001660,0.,0.08244551,0.,-0.07477789,0.09066364,0.00000359,0.,0
 .,-0.00001660,0.,-0.01262397,-0.00755276,0.,0.08244551,0.,0.00755276,-
 0.00621477,0.,0.07477789,0.09066364,0.00001301,0.,0.,0.00001301,0.,0.,
 -0.00002602,0.,-0.06982155,0.08233064,0.,-0.06982155,-0.08233064,0.,0.
 13964309,0.,0.06722513,-0.08444886,0.,-0.06722513,-0.08444886,0.,0.,0.
 16889773\\0.,-0.00002581,0.00001995,0.,0.00002581,0.00001995,0.,0.,-0.
 00003990\\\@


 ALMOST ALL THE CHEMICAL PROCESSES WHICH OCCUR IN NATURE,
 WHETHER IN ANIMAL OR VEGETABLE ORGANISMS,
 OR IN THE NON-LIVING SURFACE OF THE EARTH ... 
 TAKE PLACE BETWEEN SUBSTANCES IN SOLUTION

                                    -- W. OSTWALD, 1890
 Job cpu time:  0 days  0 hours  1 minutes  7.2 seconds.
 File lengths (MBytes):  RWF=      9 Int=      0 D2E=      0 Chk=     13 Scr=      1
 Normal termination of Gaussian 09 at Wed Jan  4 10:32:27 2012.
 Link1:  Proceeding to internal job step number  3.
 -----------------------------------------------------------------
 #N Geom=AllCheck Guess=TCheck SCRF=Check CCSD(T,E4T,FrzG4)/GTBas1
 -----------------------------------------------------------------
 1/29=7,38=1,40=1/1;
 2/12=2,40=1/2;
 3/5=33,11=9,14=-4,16=1,25=1,30=1,70=2,116=-2/1,2,3;
 4/5=101/1;
 5/5=2,7=500,8=3,13=1/2,8;
 8/6=4,9=120000,10=6/1,4;
 9/5=7,14=4/13;
 6/7=2,8=2,9=2,10=2/1;
 99/5=1,9=1/99;
 -----
 si3-n
 -----
 Redundant internal coordinates taken from checkpoint file:
 S9L-ne-d-01.chk
 Charge =  0 Multiplicity = 1
 Si,0,0.,1.4130162126,-0.5547730165
 Si,0,0.,-1.4130162126,-0.5547730165
 Si,0,0.,0.,1.1095470331
 Recover connectivity data from disk.
                          Input orientation:                          
 ---------------------------------------------------------------------
 Center     Atomic      Atomic             Coordinates (Angstroms)
 Number     Number       Type             X           Y           Z
 ---------------------------------------------------------------------
      1         14           0        0.000000    1.413016   -0.554773
      2         14           0        0.000000   -1.413016   -0.554773
      3         14           0        0.000000    0.000000    1.109547
 ---------------------------------------------------------------------
                    Distance matrix (angstroms):
                    1          2          3
     1  Si   0.000000
     2  Si   2.826032   0.000000
     3  Si   2.183249   2.183249   0.000000
 Stoichiometry    Si3
 Framework group  C2V[C2(Si),SGV(Si2)]
 Deg. of freedom     2
 Full point group                 C2V     NOp   4
 Largest Abelian subgroup         C2V     NOp   4
 Largest concise Abelian subgroup C2      NOp   2
                         Standard orientation:                         
 ---------------------------------------------------------------------
 Center     Atomic      Atomic             Coordinates (Angstroms)
 Number     Number       Type             X           Y           Z
 ---------------------------------------------------------------------
      1         14           0        0.000000    1.413016   -0.554773
      2         14           0        0.000000   -1.413016   -0.554773
      3         14           0        0.000000    0.000000    1.109547
 ---------------------------------------------------------------------
 Rotational constants (GHZ):      9.7821594      4.5236905      3.0932424
 Standard basis: GTBas1 (6D, 7F)
 There are    24 symmetry adapted basis functions of A1  symmetry.
 There are     6 symmetry adapted basis functions of A2  symmetry.
 There are     9 symmetry adapted basis functions of B1  symmetry.
 There are    18 symmetry adapted basis functions of B2  symmetry.
 Integral buffers will be    131072 words long.
 Raffenetti 1 integral format.
 Two-electron integral symmetry is turned on.
    57 basis functions,   156 primitive gaussians,    57 cartesian basis functions
    21 alpha electrons       21 beta electrons
       nuclear repulsion energy       131.7143806786 Hartrees.
 NAtoms=    3 NActive=    3 NUniq=    2 SFac= 1.69D+00 NAtFMM=   80 NAOKFM=F Big=F
 One-electron integrals computed using PRISM.
 NBasis=    57 RedAO= T  NBF=    24     6     9    18
 NBsUse=    57 1.00D-06 NBFU=    24     6     9    18
 Initial guess read from the checkpoint file:  S9L-ne-d-01.chk
 B after Tr=     0.000000    0.000000    0.000000
         Rot=    1.000000    0.000000    0.000000    0.000000 Ang=   0.00 deg.
 Initial guess orbital symmetries:
       Occupied  (B2) (A1) (A1) (A1) (B2) (A1) (B2) (A1) (A2) (B1)
                 (A1) (B2) (B1) (A1) (B2) (A1) (B2) (A1) (A1) (B1)
                 (B2)
       Virtual   (A1) (A2) (B1) (B2) (B2) (A1) (A1) (A1) (B1) (B2)
                 (A1) (B2) (A1) (A2) (B1) (A2) (A1) (B2) (B1) (B1)
                 (B2) (A1) (A1) (B2) (A2) (B2) (A1) (A2) (B1) (A1)
                 (B2) (A1) (A1) (B2) (A1) (B2)
 Requested convergence on RMS density matrix=1.00D-08 within 128 cycles.
 Requested convergence on MAX density matrix=1.00D-06.
 Requested convergence on             energy=1.00D-06.
 No special actions if energy rises.
 Keep R1 ints in memory in canonical form, NReq=2215802.
 SCF Done:  E(RHF) =  -866.606409908     A.U. after   13 cycles
             Convg  =    0.5801D-08             -V/T =  2.0002
 QCSCF skips out because SCF is already converged.
 ExpMin= 7.78D-02 ExpMax= 1.61D+04 ExpMxC= 2.43D+03 IAcc=3 IRadAn=         5 AccDes= 0.00D+00
 HarFok:  IExCor=  205 AccDes= 0.00D+00 IRadAn=         5 IDoV=-2
 ScaDFX=  1.000000  1.000000  1.000000  1.000000
 Range of M.O.s used for correlation:    16    57
 NBasis=    57 NAE=    21 NBE=    21 NFC=    15 NFV=     0
 NROrb=     42 NOA=     6 NOB=     6 NVA=    36 NVB=    36
 Semi-Direct transformation.
 ModeAB=           4 MOrb=             6 LenV=    2365650782
 LASXX=        50979 LTotXX=       50979 LenRXX=      106393
 LTotAB=       55414 MaxLAS=      258048 LenRXY=           0
 NonZer=      157372 LenScr=      785920 LnRSAI=      258048
 LnScr1=      785920 LExtra=           0 Total=      1936281
 MaxDsk=          -1 SrtSym=           T ITran=            4
 JobTyp=0 Pass  1:  I=   1 to   6.
 (rs|ai) integrals will be sorted in core.
 Spin components of T(2) and E(2):
     alpha-alpha T2 =       0.2468903972D-01 E2=     -0.2992558009D-01
     alpha-beta  T2 =       0.1459442432D+00 E2=     -0.1869452254D+00
     beta-beta   T2 =       0.2468903972D-01 E2=     -0.2992558009D-01
 ANorm=    0.1093307972D+01
 E2 =    -0.2467963856D+00 EUMP2 =    -0.86685320629395D+03
 R2 and R3 integrals will be kept in memory, NReq=     3554062.
 Iterations=  50 Convergence= 0.100D-06
 Iteration Nr.   1
 **********************
 DD1Dir will call FoFMem   1 times, MxPair=        42
 NAB=    21 NAA=     0 NBB=     0.
 MP4(R+Q)=  0.11930333D-01
 Time for triples=        0.91 seconds.
 MP4(T)=   -0.21929188D-01
 E3=       -0.19982528D-01        EUMP3=      -0.86687318882D+03
 E4(DQ)=    0.54806561D-03        UMP4(DQ)=   -0.86687264076D+03
 E4(SDQ)=  -0.42484110D-02        UMP4(SDQ)=  -0.86687743723D+03
 E4(SDTQ)= -0.26177599D-01        UMP4(SDTQ)= -0.86689936642D+03
 DE(Corr)= -0.25467415     E(Corr)=     -866.86108405    
 NORM(A)=   0.11026930D+01
 Iteration Nr.   2
 **********************
 DD1Dir will call FoFMem   1 times, MxPair=        42
 NAB=    21 NAA=     0 NBB=     0.
 DE(Corr)= -0.26823354     E(CORR)=     -866.87464345     Delta=-1.36D-02
 NORM(A)=   0.11199522D+01
 Iteration Nr.   3
 **********************
 DD1Dir will call FoFMem   1 times, MxPair=        42
 NAB=    21 NAA=     0 NBB=     0.
 DE(Corr)= -0.26987745     E(CORR)=     -866.87628736     Delta=-1.64D-03
 NORM(A)=   0.11249515D+01
 Iteration Nr.   4
 **********************
 DD1Dir will call FoFMem   1 times, MxPair=        42
 NAB=    21 NAA=     0 NBB=     0.
 DE(Corr)= -0.27146985     E(CORR)=     -866.87787975     Delta=-1.59D-03
 NORM(A)=   0.11280972D+01
 Iteration Nr.   5
 **********************
 DD1Dir will call FoFMem   1 times, MxPair=        42
 NAB=    21 NAA=     0 NBB=     0.
 DE(Corr)= -0.27177523     E(CORR)=     -866.87818514     Delta=-3.05D-04
 NORM(A)=   0.11303644D+01
 Iteration Nr.   6
 **********************
 DD1Dir will call FoFMem   1 times, MxPair=        42
 NAB=    21 NAA=     0 NBB=     0.
 DE(Corr)= -0.27188192     E(CORR)=     -866.87829183     Delta=-1.07D-04
 NORM(A)=   0.11306748D+01
 Iteration Nr.   7
 **********************
 DD1Dir will call FoFMem   1 times, MxPair=        42
 NAB=    21 NAA=     0 NBB=     0.
 DE(Corr)= -0.27188987     E(CORR)=     -866.87829977     Delta=-7.95D-06
 NORM(A)=   0.11309820D+01
 Iteration Nr.   8
 **********************
 DD1Dir will call FoFMem   1 times, MxPair=        42
 NAB=    21 NAA=     0 NBB=     0.
 DE(Corr)= -0.27187967     E(CORR)=     -866.87828958     Delta= 1.02D-05
 NORM(A)=   0.11309792D+01
 Iteration Nr.   9
 **********************
 DD1Dir will call FoFMem   1 times, MxPair=        42
 NAB=    21 NAA=     0 NBB=     0.
 DE(Corr)= -0.27189221     E(CORR)=     -866.87830212     Delta=-1.25D-05
 NORM(A)=   0.11310131D+01
 Iteration Nr.  10
 **********************
 DD1Dir will call FoFMem   1 times, MxPair=        42
 NAB=    21 NAA=     0 NBB=     0.
 DE(Corr)= -0.27188819     E(CORR)=     -866.87829810     Delta= 4.02D-06
 NORM(A)=   0.11310208D+01
 Iteration Nr.  11
 **********************
 DD1Dir will call FoFMem   1 times, MxPair=        42
 NAB=    21 NAA=     0 NBB=     0.
 DE(Corr)= -0.27189184     E(CORR)=     -866.87830175     Delta=-3.65D-06
 NORM(A)=   0.11310260D+01
 Iteration Nr.  12
 **********************
 DD1Dir will call FoFMem   1 times, MxPair=        42
 NAB=    21 NAA=     0 NBB=     0.
 DE(Corr)= -0.27189168     E(CORR)=     -866.87830159     Delta= 1.65D-07
 NORM(A)=   0.11310317D+01
 Iteration Nr.  13
 **********************
 DD1Dir will call FoFMem   1 times, MxPair=        42
 NAB=    21 NAA=     0 NBB=     0.
 DE(Corr)= -0.27189209     E(CORR)=     -866.87830200     Delta=-4.12D-07
 NORM(A)=   0.11310346D+01
 Iteration Nr.  14
 **********************
 DD1Dir will call FoFMem   1 times, MxPair=        42
 NAB=    21 NAA=     0 NBB=     0.
 DE(Corr)= -0.27189222     E(CORR)=     -866.87830213     Delta=-1.31D-07
 NORM(A)=   0.11310375D+01
 Iteration Nr.  15
 **********************
 DD1Dir will call FoFMem   1 times, MxPair=        42
 NAB=    21 NAA=     0 NBB=     0.
 DE(Corr)= -0.27189229     E(CORR)=     -866.87830220     Delta=-6.72D-08
 NORM(A)=   0.11310393D+01
 Iteration Nr.  16
 **********************
 DD1Dir will call FoFMem   1 times, MxPair=        42
 NAB=    21 NAA=     0 NBB=     0.
 DE(Corr)= -0.27189243     E(CORR)=     -866.87830234     Delta=-1.44D-07
 NORM(A)=   0.11310403D+01
 Iteration Nr.  17
 **********************
 DD1Dir will call FoFMem   1 times, MxPair=        42
 NAB=    21 NAA=     0 NBB=     0.
 DE(Corr)= -0.27189242     E(CORR)=     -866.87830233     Delta= 8.34D-09
 NORM(A)=   0.11310408D+01
 Iteration Nr.  18
 **********************
 DD1Dir will call FoFMem   1 times, MxPair=        42
 NAB=    21 NAA=     0 NBB=     0.
 DE(Corr)= -0.27189249     E(CORR)=     -866.87830240     Delta=-6.95D-08
 NORM(A)=   0.11310409D+01
 Largest amplitude= 9.90D-02
 Time for triples=        1.07 seconds.
 T4(CCSD)= -0.22691135D-01
 T5(CCSD)=  0.12246806D-02
 CCSD(T)= -0.86689976886D+03

 **********************************************************************

            Population analysis using the SCF density.

 **********************************************************************

 Orbital symmetries:
       Occupied  (B2) (A1) (A1) (A1) (B2) (A1) (A1) (B2) (B1) (A2)
                 (A1) (B2) (A1) (B1) (B2) (A1) (B2) (A1) (A1) (B2)
                 (B1)
       Virtual   (A1) (A2) (B1) (B2) (A1) (B2) (A1) (B2) (A1) (B1)
                 (A1) (B2) (A2) (A1) (B2) (B1) (B2) (A1) (A1) (B1)
                 (A2) (A1) (B1) (B2) (B2) (A2) (A1) (A2) (B2) (B1)
                 (A1) (A1) (B2) (A1) (B2) (A1)
 The electronic state is 1-A1.
 Alpha  occ. eigenvalues --  -68.81185 -68.81183 -68.75302  -6.16676  -6.16673
 Alpha  occ. eigenvalues --   -6.11664  -4.26799  -4.26796  -4.26756  -4.26755
[...]
 Quadrupole moment (field-independent basis, Debye-Ang):
   XX=            -41.3994   YY=            -42.4648   ZZ=            -40.6204
   XY=              0.0000   XZ=              0.0000   YZ=              0.0000
 Traceless Quadrupole moment (field-independent basis, Debye-Ang):
   XX=              0.0954   YY=             -0.9699   ZZ=              0.8745
   XY=              0.0000   XZ=              0.0000   YZ=              0.0000
 Octapole moment (field-independent basis, Debye-Ang**2):
  XXX=              0.0000  YYY=              0.0000  ZZZ=              2.8436  XYY=              0.0000
  XXY=              0.0000  XXZ=             -0.6571  XZZ=              0.0000  YZZ=              0.0000
  YYZ=              9.0870  XYZ=              0.0000
 Hexadecapole moment (field-independent basis, Debye-Ang**3):
 XXXX=            -87.8719 YYYY=           -432.2394 ZZZZ=           -228.7844 XXXY=              0.0000
 XXXZ=              0.0000 YYYX=              0.0000 YYYZ=              0.0000 ZZZX=              0.0000
 ZZZY=              0.0000 XXYY=            -80.5518 XXZZ=            -52.5538 YYZZ=           -125.9393
 XXYZ=              0.0000 YYXZ=              0.0000 ZZXY=              0.0000
 N-N= 1.317143806786D+02 E-N=-2.331942299231D+03  KE= 8.666704860707D+02
 Symmetry A1   KE= 5.025175265411D+02
 Symmetry A2   KE= 2.438780126697D+01
 Symmetry B1   KE= 5.028431389624D+01
 Symmetry B2   KE= 2.894808443663D+02
 1\1\GINC-NODE41\SP\RHF\GFHFB1\Si3\TAM\04-Jan-2012\0\\#N Geom=AllCheck 
 Guess=TCheck SCRF=Check HF/GFHFB1 SCF=Tight\\si3-n\\0,1\Si,0,0.,1.4130
 162126,-0.5547730165\Si,0,0.,-1.4130162126,-0.5547730165\Si,0,0.,0.,1.
 1095470331\\Version=AM64L-G09RevA.02\State=1-A1\HF=-866.7012137\RMSD=9
 .601e-09\Dipole=0.,0.,0.0321137\Quadrupole=0.0709579,-0.7211256,0.6501
 676,0.,0.,0.\PG=C02V [C2(Si1),SGV(Si2)]\\@


 THE RARE EARTHS PERPLEX US IN OUR RESEARCHES,
 BAFFLE US IN OUR SPECULATIONS, AND HAUNT US IN OUR
 VERY DREAMS.  THEY STRETCH LIKE AN UNKNOWN BEFORE US,
 MOCKING, MYSTIFYING, AND MURMURING STRANGE REVELATIONS
 AND POSSIBILITIES.  -- SIR WILLIAM CROOKE, 1832-1919
 Job cpu time:  0 days  0 hours  2 minutes  5.7 seconds.
 File lengths (MBytes):  RWF=     70 Int=      0 D2E=      0 Chk=     13 Scr=      1
 Normal termination of Gaussian 09 at Wed Jan  4 10:34:50 2012.
 Link1:  Proceeding to internal job step number  8.
 ------------------------------------------------------------
 #N Geom=AllCheck Guess=TCheck SCRF=Check HF/GFHFB2 SCF=Tight
 ------------------------------------------------------------
 1/29=7,38=1,40=1/1;
 2/12=2,40=1/2;
 3/5=37,11=9,14=-4,16=1,25=1,30=1,70=2,116=-2/1,2,3;
 4/5=101/1;
 5/5=2,7=500,8=3,13=1,32=2/2,8;
 6/7=2,8=2,9=2,10=2,28=1/1;
 99/5=1,9=1/99;
 -----
 si3-n
 -----
 Redundant internal coordinates taken from checkpoint file:
 S9L-ne-d-01.chk
 Charge =  0 Multiplicity = 1
 Si,0,0.,1.4130162126,-0.5547730165
 Si,0,0.,-1.4130162126,-0.5547730165
 Si,0,0.,0.,1.1095470331
 Recover connectivity data from disk.
                          Input orientation:                          
 ---------------------------------------------------------------------
 Center     Atomic      Atomic             Coordinates (Angstroms)
 Number     Number       Type             X           Y           Z
 ---------------------------------------------------------------------
      1         14           0        0.000000    1.413016   -0.554773
      2         14           0        0.000000   -1.413016   -0.554773
      3         14           0        0.000000    0.000000    1.109547
 ---------------------------------------------------------------------
                    Distance matrix (angstroms):
                    1          2          3
     1  Si   0.000000
     2  Si   2.826032   0.000000
     3  Si   2.183249   2.183249   0.000000
 Stoichiometry    Si3
 Framework group  C2V[C2(Si),SGV(Si2)]
 Deg. of freedom     2
 Full point group                 C2V     NOp   4
 Largest Abelian subgroup         C2V     NOp   4
 Largest concise Abelian subgroup C2      NOp   2
                         Standard orientation:                         
 ---------------------------------------------------------------------
 Center     Atomic      Atomic             Coordinates (Angstroms)
 Number     Number       Type             X           Y           Z
 ---------------------------------------------------------------------
      1         14           0        0.000000    1.413016   -0.554773
      2         14           0        0.000000   -1.413016   -0.554773
      3         14           0        0.000000    0.000000    1.109547
 ---------------------------------------------------------------------
 Rotational constants (GHZ):      9.7821594      4.5236905      3.0932424
 Standard basis: GFHFB2 (5D, 7F)
 There are   100 symmetry adapted basis functions of A1  symmetry.
 There are    50 symmetry adapted basis functions of A2  symmetry.
 There are    61 symmetry adapted basis functions of B1  symmetry.
 There are    86 symmetry adapted basis functions of B2  symmetry.
 Integral buffers will be    131072 words long.
 Raffenetti 1 integral format.
 Two-electron integral symmetry is turned on.
   297 basis functions,   588 primitive gaussians,   402 cartesian basis functions
    21 alpha electrons       21 beta electrons
       nuclear repulsion energy       131.7143806786 Hartrees.
 NAtoms=    3 NActive=    3 NUniq=    2 SFac= 1.69D+00 NAtFMM=   80 NAOKFM=F Big=F
 One-electron integrals computed using PRISM.
 NBasis=   297 RedAO= T  NBF=   100    50    61    86
 NBsUse=   297 1.00D-06 NBFU=   100    50    61    86
 Initial guess read from the checkpoint file:  S9L-ne-d-01.chk
 B after Tr=     0.000000    0.000000    0.000000
         Rot=    1.000000    0.000000    0.000000    0.000000 Ang=   0.00 deg.
 Initial guess orbital symmetries:
       Occupied  (A1) (B2) (A1) (A1) (B2) (A1) (A1) (B2) (B1) (A2)
                 (A1) (B2) (A1) (B1) (B2) (A1) (B2) (A1) (A1) (B2)
                 (B1)
       Virtual   (A1) (A2) (B2) (A1) (B1) (A1) (B1) (B2) (A1) (A2)
                 (B2) (A1) (B1) (B2) (A1) (B2) (B2) (A1) (A1) (B1)
                 (B2) (A1) (A2) (A1) (B1) (B2) (A2) (A1) (B1) (B2)
                 (A1) (B1) (B2) (A1) (B2) (A1) (A2) (B2) (A2) (A1)
                 (B1) (A1) (B2) (B2) (A1) (B1) (A1) (B1) (A1) (A2)
                 (B2) (A1) (B1) (A1) (B2) (B2) (A2) (A2) (B1) (A1)
                 (B2) (A2) (B2) (B1) (A1) (B2) (A1) (B2) (B1) (A1)
                 (A2) (A2) (B1) (A1) (B2) (B1) (B1) (A1) (B2) (A2)
                 (A1) (A1) (B2) (A1) (B2) (A2) (B1) (A1) (B2) (A1)
                 (B2) (B2) (A1) (B1) (A1) (A2) (B2) (B1) (A1) (A2)
                 (B1) (A1) (B2) (A1) (A1) (B1) (B1) (A1) (A2) (B2)
                 (A2) (B2) (A2) (A1) (B1) (B2) (A1) (B1) (B2) (A2)
                 (A2) (B1) (A2) (B2) (A1) (B1) (B2) (A1) (B2) (B1)
                 (A1) (B1) (B2) (A2) (A1) (A1) (B2) (A2) (A1) (B1)
                 (A1) (A2) (B2) (B2) (A2) (A1) (B1) (A1) (A1) (B2)
                 (B2) (B2) (B1) (A2) (A1) (B2) (B1) (A2) (B1) (A1)
                 (B2) (A1) (B2) (B2) (A1) (A1) (B2) (A1) (A1) (A1)
                 (A1) (A1) (A1) (A1) (A1) (A1) (A1) (A1) (A1) (A1)
                 (A1) (A1) (A1) (A1) (A1) (A1) (A1) (A1) (A1) (A1)
                 (A1) (A1) (A1) (A1) (A1) (A1) (A1) (A1) (A1) (A1)
                 (A1) (A2) (A2) (A2) (A2) (A2) (A2) (A2) (A2) (A2)
                 (A2) (A2) (A2) (A2) (A2) (A2) (A2) (A2) (A2) (A2)
                 (A2) (A2) (B1) (B1) (B1) (B1) (B1) (B1) (B1) (B1)
                 (B1) (B1) (B1) (B1) (B1) (B1) (B1) (B1) (B1) (B1)
                 (B1) (B1) (B1) (B1) (B1) (B1) (B2) (B2) (B2) (B2)
                 (B2) (B2) (B2) (B2) (B2) (B2) (B2) (B2) (B2) (B2)
                 (B2) (B2) (B2) (B2) (B2) (B2) (B2) (B2) (B2) (B2)
                 (B2) (B2) (B2) (B2) (B2) (B2)
 Requested convergence on RMS density matrix=1.00D-08 within 128 cycles.
 Requested convergence on MAX density matrix=1.00D-06.
 Requested convergence on             energy=1.00D-06.
 No special actions if energy rises.
 SCF Done:  E(RHF) =  -866.703597259     A.U. after   10 cycles
             Convg  =    0.8797D-08             -V/T =  2.0001
 QCSCF skips out because SCF is already converged.

 **********************************************************************

            Population analysis using the SCF density.

 **********************************************************************

 Orbital symmetries:
       Occupied  (A1) (B2) (A1) (A1) (B2) (A1) (A1) (B2) (B1) (A2)
                 (A1) (B2) (A1) (B1) (B2) (A1) (B2) (A1) (A1) (B2)
                 (B1)
       Virtual   (A1) (A2) (B2) (A1) (B1) (A1) (B1) (B2) (A1) (A2)
                 (B2) (A1) (B2) (B1) (A1) (B2) (A1) (B2) (A1) (B2)
                 (B1) (A1) (B2) (A2) (A1) (B1) (A1) (A2) (B1) (B2)
                 (A1) (B1) (B2) (A1) (A1) (B2) (A2) (A1) (B2) (A2)
                 (B1) (A1) (B2) (B1) (A1) (B2) (A1) (B1) (B2) (A1)
                 (A1) (B1) (A2) (A2) (B2) (B2) (A1) (B1) (A2) (A1)
                 (B2) (B2) (A1) (B1) (A2) (B2) (B1) (B1) (B2) (A1)
                 (A2) (A1) (A1) (A2) (B2) (B1) (B1) (A1) (B2) (A1)
                 (A2) (B2) (A1) (A1) (B2) (A2) (A1) (B1) (A1) (B2)
                 (B1) (B1) (A1) (A1) (B2) (B1) (A2) (A1) (B2) (A2)
                 (B1) (A1) (A2) (B2) (B2) (A1) (B2) (A1) (B1) (A2)
                 (B2) (A1) (B2) (A2) (B1) (B2) (B1) (A1) (B2) (B1)
                 (A1) (A2) (B2) (B1) (A1) (A2) (B2) (A1) (B2) (A1)
                 (A2) (B1) (A1) (B2) (A2) (A1) (A2) (B1) (B2) (A1)
                 (B2) (A2) (B1) (A1) (B1) (A1) (A2) (A1) (B2) (B2)
                 (A1) (B2) (B1) (B2) (A2) (A1) (B1) (B1) (A1) (A1)
                 (A2) (B1) (A2) (B2) (B1) (B1) (A1) (B2) (A1) (B1)
                 (A1) (B2) (A1) (A2) (B1) (B2) (A1) (B1) (A2) (B2)
                 (A2) (A1) (B2) (A2) (A1) (B1) (B2) (A1) (B2) (A1)
                 (B1) (A2) (B2) (B1) (A2) (B2) (B2) (A1) (B1) (B2)
                 (A2) (A1) (B1) (A1) (B1) (B2) (A2) (A2) (B2) (A1)
                 (B2) (A1) (A1) (B2) (A2) (B1) (A1) (B1) (A1) (B2)
                 (A2) (A1) (B2) (A2) (B2) (A1) (B1) (B2) (B1) (B2)
                 (A1) (A2) (A1) (B1) (A2) (B2) (A1) (B2) (B1) (A2)
                 (A1) (A1) (B2) (A1) (B1) (A2) (B2) (B2) (A1) (B1)
                 (A1) (A2) (B1) (A1) (A2) (B2) (A1) (B2) (B1) (A2)
                 (B2) (A1) (A1) (B2) (B1) (A2) (A1) (B2) (B1) (A1)
                 (B2) (A1) (B2) (A1) (B2) (A1)
 The electronic state is 1-A1.
 Alpha  occ. eigenvalues --  -68.82111 -68.82111 -68.76410  -6.16462  -6.16459
 Alpha  occ. eigenvalues --   -6.11473  -4.26564  -4.26561  -4.26546  -4.26546
 Alpha  occ. eigenvalues --   -4.26505  -4.26496  -4.21809  -4.21749  -4.21709
 Alpha  occ. eigenvalues --   -0.75252  -0.55385  -0.45587  -0.31364  -0.30460
 Alpha  occ. eigenvalues --   -0.29832
 Alpha virt. eigenvalues --   -0.03183  -0.00024   0.02696   0.03259   0.03740
 Alpha virt. eigenvalues --    0.04203   0.04840   0.05531   0.06180   0.06862
 Alpha virt. eigenvalues --    0.07146   0.07161   0.08400   0.08424   0.11482
 Alpha virt. eigenvalues --    0.13000   0.15283   0.15393   0.18998   0.21264
 Alpha virt. eigenvalues --    0.21665   0.22714   0.25734   0.25889   0.26225
 Alpha virt. eigenvalues --    0.26970   0.27726   0.28253   0.28432   0.29731
 Alpha virt. eigenvalues --    0.30378   0.33163   0.35811   0.37349   0.37873
 Alpha virt. eigenvalues --    0.38831   0.42293   0.44997   0.45704   0.48291
 Alpha virt. eigenvalues --    0.49705   0.49923   0.53575   0.58273   0.58349
 Alpha virt. eigenvalues --    0.61609   0.61702   0.62309   0.62587   0.63570
 Alpha virt. eigenvalues --    0.64648   0.68588   0.68831   0.70374   0.70719
 Alpha virt. eigenvalues --    0.73526   0.75500   0.78173   0.78297   0.79781
 Alpha virt. eigenvalues --    0.80303   0.83217   0.83580   0.84127   0.86797
 Alpha virt. eigenvalues --    0.86991   0.89346   0.91511   0.92202   0.92583
 Alpha virt. eigenvalues --    0.92983   0.93774   0.94222   0.95114   0.95147
 Alpha virt. eigenvalues --    0.95849   1.00104   1.01407   1.02943   1.03465
 Alpha virt. eigenvalues --    1.03876   1.07019   1.10984   1.14772   1.15762
 Alpha virt. eigenvalues --    1.20195   1.23515   1.24722   1.33600   1.36120
 Alpha virt. eigenvalues --    1.36824   1.42983   1.43370   1.44847   1.45738
 Alpha virt. eigenvalues --    1.49714   1.50289   1.51526   1.52091   1.53645
 Alpha virt. eigenvalues --    1.55978   1.58464   1.58737   1.58826   1.59845
 Alpha virt. eigenvalues --    1.62459   1.63542   1.68445   1.69452   1.69652
 Alpha virt. eigenvalues --    1.70541   1.70723   1.75391   1.76030   1.77326
 Alpha virt. eigenvalues --    1.82045   1.82450   1.82711   1.84735   1.84836
 Alpha virt. eigenvalues --    1.85384   1.86281   1.87707   1.88259   1.89956
 Alpha virt. eigenvalues --    1.94302   1.94413   1.96689   2.00990   2.02452
 Alpha virt. eigenvalues --    2.02807   2.04032   2.07261   2.08510   2.10133
 Alpha virt. eigenvalues --    2.11288   2.13106   2.15375   2.19501   2.21695
 Alpha virt. eigenvalues --    2.24850   2.36939   2.39288   2.40465   2.44384
 Alpha virt. eigenvalues --    2.45206   2.51538   2.73115   2.73407   2.83307
 Alpha virt. eigenvalues --    2.84384   2.94491   3.05570   3.06358   3.08663
 Alpha virt. eigenvalues --    3.12508   3.14919   3.18127   3.18402   3.19683
 Alpha virt. eigenvalues --    3.20963   3.21952   3.27511   3.28827   3.31157
 Alpha virt. eigenvalues --    3.32444   3.33300   3.34002   3.35410   3.36832
 Alpha virt. eigenvalues --    3.36858   3.39923   3.40202   3.40555   3.42317
 Alpha virt. eigenvalues --    3.42467   3.44910   3.45554   3.46864   3.47943
 Alpha virt. eigenvalues --    3.48856   3.50459   3.50859   3.52012   3.55652
 Alpha virt. eigenvalues --    3.56175   3.56321   3.57166   3.58122   3.59345
 Alpha virt. eigenvalues --    3.61447   3.64990   3.65068   3.67552   3.71276
 Alpha virt. eigenvalues --    3.71659   3.77336   3.83755   3.85664   3.87626
 Alpha virt. eigenvalues --    3.89088   3.94938   3.95272   3.96067   3.96778
 Alpha virt. eigenvalues --    3.97687   3.99477   4.01220   4.01591   4.04740
 Alpha virt. eigenvalues --    4.06020   4.06281   4.07927   4.09640   4.11552
 Alpha virt. eigenvalues --    4.11959   4.15469   4.16884   4.17237   4.19114
 Alpha virt. eigenvalues --    4.21104   4.23021   4.23351   4.26004   4.26083
 Alpha virt. eigenvalues --    4.27434   4.30550   4.32644   4.35104   4.46584
 Alpha virt. eigenvalues --    4.48808   4.55224   4.56728   4.56974   4.60258
 Alpha virt. eigenvalues --    4.62961   4.68139   4.70759   4.72432   4.73409
 Alpha virt. eigenvalues --    4.79695   4.96457   4.97261   4.99086   5.07669
 Alpha virt. eigenvalues --    5.12316   5.39506   5.72746   5.86253   6.19434
 Alpha virt. eigenvalues --    6.21011   6.25161   6.36287   6.39238   6.41936
 Alpha virt. eigenvalues --    6.53240   6.66959   6.79587   6.94366   7.01176
 Alpha virt. eigenvalues --    7.14312   7.16072   7.37652   7.56858  12.99101
 Alpha virt. eigenvalues --   13.31187  13.51227  13.53281  13.61703  13.68951
 Alpha virt. eigenvalues --   13.76012  15.09591  15.28905  37.79332  39.54123
 Alpha virt. eigenvalues --   40.94210
          Condensed to atoms (all electrons):
              1          2          3
     1  Si  13.193972   0.156594   0.565125
     2  Si   0.156594  13.193972   0.565125
     3  Si   0.565125   0.565125  13.038368
 Mulliken atomic charges:
              1
     1  Si   0.084309
     2  Si   0.084309
     3  Si  -0.168618
 Sum of Mulliken atomic charges =   0.00000
 Mulliken charges with hydrogens summed into heavy atoms:
              1
     1  Si   0.084309
     2  Si   0.084309
     3  Si  -0.168618
 Sum of Mulliken charges with hydrogens summed into heavy atoms =   0.00000
 Electronic spatial extent (au):  <R**2>=            384.4650
 Charge=              0.0000 electrons
 Dipole moment (field-independent basis, Debye):
    X=              0.0000    Y=              0.0000    Z=              0.0783  Tot=              0.0783
 Quadrupole moment (field-independent basis, Debye-Ang):
   XX=            -41.3672   YY=            -42.4510   ZZ=            -40.5991
   XY=              0.0000   XZ=              0.0000   YZ=              0.0000
 Traceless Quadrupole moment (field-independent basis, Debye-Ang):
   XX=              0.1053   YY=             -0.9785   ZZ=              0.8733
   XY=              0.0000   XZ=              0.0000   YZ=              0.0000
 Octapole moment (field-independent basis, Debye-Ang**2):
  XXX=              0.0000  YYY=              0.0000  ZZZ=              2.8084  XYY=              0.0000
  XXY=              0.0000  XXZ=             -0.6790  XZZ=              0.0000  YZZ=              0.0000
  YYZ=              9.0876  XYZ=              0.0000
 Hexadecapole moment (field-independent basis, Debye-Ang**3):
 XXXX=            -87.6159 YYYY=           -432.2892 ZZZZ=           -228.8950 XXXY=              0.0000
 XXXZ=              0.0000 YYYX=              0.0000 YYYZ=              0.0000 ZZZX=              0.0000
 ZZZY=              0.0000 XXYY=            -80.5999 XXZZ=            -52.5892 YYZZ=           -125.8720
 XXYZ=              0.0000 YYXZ=              0.0000 ZZXY=              0.0000
 N-N= 1.317143806786D+02 E-N=-2.331937294816D+03  KE= 8.666491726164D+02
 Symmetry A1   KE= 5.025173082709D+02
 Symmetry A2   KE= 2.437498939132D+01
 Symmetry B1   KE= 5.025142973995D+01
 Symmetry B2   KE= 2.895054452142D+02
 1\1\GINC-NODE41\SP\RHF\GFHFB2\Si3\TAM\04-Jan-2012\0\\#N Geom=AllCheck 
 Guess=TCheck SCRF=Check HF/GFHFB2 SCF=Tight\\si3-n\\0,1\Si,0,0.,1.4130
 162126,-0.5547730165\Si,0,0.,-1.4130162126,-0.5547730165\Si,0,0.,0.,1.
 1095470331\\Version=AM64L-G09RevA.02\State=1-A1\HF=-866.7035973\RMSD=8
 .797e-09\Dipole=0.,0.,0.0308118\Quadrupole=0.0782531,-0.7275276,0.6492
 745,0.,0.,0.\PG=C02V [C2(Si1),SGV(Si2)]\\@


 WHEN ALL ELSE FAILS, LOOK AT THE SCHRODINGER EQUATION.
     -- RUSSELL T. PACK, APRIL 1978
 Diagonal vibrational polarizability:
        0.0000000       0.0000000       0.0000000

 Temperature=              298.150000 Pressure=                      1.000000
 E(ZPE)=                     0.002831 E(Thermal)=                    0.006665
 E(CCSD(T))=              -866.899769 E(Empiric)=                   -0.041682
 DE(Plus)=                  -0.004553 DE(2DF)=                      -0.082013
 E(Delta-G3XP)=             -0.941306 DE(HF)=                       -0.020357
 G4(0 K)=                 -867.986848 G4 Energy=                  -867.983014
 G4 Enthalpy=             -867.982070 G4 Free Energy=             -868.013725
 1\1\GINC-NODE41\Mixed\G4\G4\Si3\TAM\04-Jan-2012\0\\# G4 scfcyc=500 scf
 =xqc\\si3-n\\0,1\Si,0,0.,1.4130162126,-0.5547730165\Si,0,0.,-1.4130162
 126,-0.5547730165\Si,0,0.,0.,1.1095470331\\Version=AM64L-G09RevA.02\St
 ate=1-A1\MP2/GTBas1=-866.8532063\MP4/GTBas1=-866.8993664\CCSD(T)/G3Bas
 1=-866.8997689\MP2/GTBas2=-866.8574447\MP4/GTBas2=-866.9039198\MP2/GTB
 as3=-866.9282632\MP4/GTBas3=-866.9813793\HF/GTLargeXP=-866.6838214\MP2
 /GTLargeXP=-867.8738074\HF/GFHFB1=-866.7012137\HF/GFHFB2=-866.7035973\
 G4=-867.9868484\FreqCoord=0.,2.6702136631,-1.0483690672,0.,-2.67021366
 31,-1.0483690672,0.,0.,2.0967400241\PG=C02V [C2(Si1),SGV(Si2)]\NImag=0
 \\-0.00001660,0.,0.08244551,0.,-0.07477789,0.09066364,0.00000359,0.,0.
 ,-0.00001660,0.,-0.01262397,-0.00755276,0.,0.08244551,0.,0.00755276,-0
 .00621477,0.,0.07477789,0.09066364,0.00001301,0.,0.,0.00001301,0.,0.,-
 0.00002602,0.,-0.06982155,0.08233064,0.,-0.06982155,-0.08233064,0.,0.1
 3964309,0.,0.06722513,-0.08444886,0.,-0.06722513,-0.08444886,0.,0.,0.1
 6889773\\0.,-0.00002581,0.00001995,0.,0.00002581,0.00001995,0.,0.,-0.0
 0003990\\\@
 Job cpu time:  0 days  0 hours 24 minutes  7.4 seconds.
 File lengths (MBytes):  RWF=     70 Int=      0 D2E=      0 Chk=     13 Scr=      1
 Normal termination of Gaussian 09 at Wed Jan  4 10:38:52 2012.
