 Entering Gaussian System, Link 0=g09
 Initial command:
 /usr/local/chem/g09A2/l1.exe /temp0/tam/Gau-19687.inp -scrdir=/temp0/tam/
 Entering Link 1 = /usr/local/chem/g09A2/l1.exe PID=     19688.
  
 Copyright (c) 1988,1990,1992,1993,1995,1998,2003,2009, Gaussian, Inc.
                  All Rights Reserved.
  
 This is part of the Gaussian(R) 09 program.  It is based on
 the Gaussian(R) 03 system (copyright 2003, Gaussian, Inc.),
 the Gaussian(R) 98 system (copyright 1998, Gaussian, Inc.),
 the Gaussian(R) 94 system (copyright 1995, Gaussian, Inc.),
 the Gaussian 92(TM) system (copyright 1992, Gaussian, Inc.),
 the Gaussian 90(TM) system (copyright 1990, Gaussian, Inc.),
 the Gaussian 88(TM) system (copyright 1988, Gaussian, Inc.),
 the Gaussian 86(TM) system (copyright 1986, Carnegie Mellon
 University), and the Gaussian 82(TM) system (copyright 1983,
 Carnegie Mellon University). Gaussian is a federally registered
 trademark of Gaussian, Inc.
  
 This software contains proprietary and confidential information,
 including trade secrets, belonging to Gaussian, Inc.
  
 This software is provided under written license and may be
 used, copied, transmitted, or stored only in accord with that
 written license.
  
 The following legend is applicable only to US Government
 contracts under FAR:
  
                    RESTRICTED RIGHTS LEGEND
  
 Use, reproduction and disclosure by the US Government is
 subject to restrictions as set forth in subparagraphs (a)
 and (c) of the Commercial Computer Software - Restricted
 Rights clause in FAR 52.227-19.
  
 Gaussian, Inc.
 340 Quinnipiac St., Bldg. 40, Wallingford CT 06492
  
  
 ---------------------------------------------------------------
 Warning -- This program may not be used in any manner that
 competes with the business of Gaussian, Inc. or will provide
 assistance to any competitor of Gaussian, Inc.  The licensee
 of this program is prohibited from giving any competitor of
 Gaussian, Inc. access to this program.  By using this program,
 the user acknowledges that Gaussian, Inc. is engaged in the
 business of creating and licensing software in the field of
 computational chemistry and represents and warrants to the
 licensee that it is not a competitor of Gaussian, Inc. and that
 it will not use this program in any manner prohibited above.
 ---------------------------------------------------------------
  

 Cite this work as:
 Gaussian 09, Revision A.02,
 M. J. Frisch, G. W. Trucks, H. B. Schlegel, G. E. Scuseria, 
 M. A. Robb, J. R. Cheeseman, G. Scalmani, V. Barone, B. Mennucci, 
 G. A. Petersson, H. Nakatsuji, M. Caricato, X. Li, H. P. Hratchian, 
 A. F. Izmaylov, J. Bloino, G. Zheng, J. L. Sonnenberg, M. Hada, 
 M. Ehara, K. Toyota, R. Fukuda, J. Hasegawa, M. Ishida, T. Nakajima, 
 Y. Honda, O. Kitao, H. Nakai, T. Vreven, J. A. Montgomery, Jr., 
 J. E. Peralta, F. Ogliaro, M. Bearpark, J. J. Heyd, E. Brothers, 
 K. N. Kudin, V. N. Staroverov, R. Kobayashi, J. Normand, 
 K. Raghavachari, A. Rendell, J. C. Burant, S. S. Iyengar, J. Tomasi, 
 M. Cossi, N. Rega, J. M. Millam, M. Klene, J. E. Knox, J. B. Cross, 
 V. Bakken, C. Adamo, J. Jaramillo, R. Gomperts, R. E. Stratmann, 
 O. Yazyev, A. J. Austin, R. Cammi, C. Pomelli, J. W. Ochterski, 
 R. L. Martin, K. Morokuma, V. G. Zakrzewski, G. A. Voth, 
 P. Salvador, J. J. Dannenberg, S. Dapprich, A. D. Daniels, 
 O. Farkas, J. B. Foresman, J. V. Ortiz, J. Cioslowski, 
 and D. J. Fox, Gaussian, Inc., Wallingford CT, 2009.
 
 ******************************************
 Gaussian 09:  AM64L-G09RevA.02 11-Jun-2009
                22-Dec-2011 
 ******************************************
 %NprocShared=8
 Will use up to    8 processors via shared memory.
 %mem=40000MB
 %chk=S9L-ne-d-01
 -----------------------
 # G4 scfcyc=500 scf=xqc
 -----------------------
 1/14=-1,18=20,19=15,26=3,38=1/1,3;
 2/9=110,12=2,17=6,18=5,40=1/2;
 3/5=35,7=104,11=2,16=1,25=1,30=1,71=1,74=-5/1,2,3;
 4//1;
 5/5=2,7=500,8=3,13=1,38=5/2,8;
 6/7=2,8=2,9=2,10=2,28=1/1;
 7//1,2,3,16;
 1/14=-1,18=20,19=15/3(2);
 2/9=110/2;
 99//99;
 2/9=110/2;
 3/5=35,7=104,11=2,16=1,25=1,30=1,71=1,74=-5/1,2,3;
 4/5=5,16=3/1;
 5/5=2,7=500,8=3,13=1,38=5/2,8;
 7//1,2,3,16;
 1/14=-1,18=20,19=15/3(-5);
 2/9=110/2;
 6/7=2,8=2,9=2,10=2,19=2,28=1/1;
 99/9=1/99;
 ------
 si10-c
 ------
 Symbolic Z-matrix:
 Charge =  1 Multiplicity = 2
 Si                    1.27331  -2.15705  -0.31831 
 Si                    1.1144    0.01278  -1.58831 
 Si                   -1.01811  -1.41983  -0.56296 
 Si                   -0.05976  -1.43554   1.81925 
 Si                   -2.02971  -0.02211   1.25473 
 Si                   -1.11883   0.00229  -2.44907 
 Si                    1.70919   0.01149   0.86883 
 Si                    1.24874   2.1758   -0.30287 
 Si                   -1.03279   1.4087   -0.55085 
 Si                   -0.08645   1.42347   1.82956 
 

 GradGradGradGradGradGradGradGradGradGradGradGradGradGradGradGradGradGrad
 Berny optimization.
 Initialization pass.
                           ----------------------------
                           !    Initial Parameters    !
                           ! (Angstroms and Degrees)  !
 --------------------------                            --------------------------
 ! Name  Definition              Value          Derivative Info.                !
 --------------------------------------------------------------------------------
 ! R1    R(1,2)                  2.5192         estimate D2E/DX2                !
 ! R2    R(1,3)                  2.4195         estimate D2E/DX2                !
 ! R3    R(1,4)                  2.6205         estimate D2E/DX2                !
 ! R4    R(1,7)                  2.5104         estimate D2E/DX2                !
 ! R5    R(2,3)                  2.7661         estimate D2E/DX2                !
 ! R6    R(2,6)                  2.3934         estimate D2E/DX2                !
 ! R7    R(2,7)                  2.5281         estimate D2E/DX2                !
 ! R8    R(2,8)                  2.5197         estimate D2E/DX2                !
 ! R9    R(2,9)                  2.7632         estimate D2E/DX2                !
 ! R10   R(3,4)                  2.5678         estimate D2E/DX2                !
 ! R11   R(3,5)                  2.5062         estimate D2E/DX2                !
 ! R12   R(3,6)                  2.3643         estimate D2E/DX2                !
 ! R13   R(3,9)                  2.8286         estimate D2E/DX2                !
 ! R14   R(4,5)                  2.4894         estimate D2E/DX2                !
 ! R15   R(4,7)                  2.4752         estimate D2E/DX2                !
 ! R16   R(4,10)                 2.8592         estimate D2E/DX2                !
 ! R17   R(5,9)                  2.5102         estimate D2E/DX2                !
 ! R18   R(5,10)                 2.4893         estimate D2E/DX2                !
 ! R19   R(6,9)                  2.364          estimate D2E/DX2                !
 ! R20   R(7,8)                  2.5038         estimate D2E/DX2                !
 ! R21   R(7,10)                 2.4781         estimate D2E/DX2                !
 ! R22   R(8,9)                  2.4198         estimate D2E/DX2                !
 ! R23   R(8,10)                 2.626          estimate D2E/DX2                !
 ! R24   R(9,10)                 2.5617         estimate D2E/DX2                !
 ! A1    A(2,1,4)               98.1626         estimate D2E/DX2                !
 ! A2    A(3,1,7)               87.0791         estimate D2E/DX2                !
 ! A3    A(1,2,6)              103.6733         estimate D2E/DX2                !
 ! A4    A(1,2,8)              118.61           estimate D2E/DX2                !
 ! A5    A(1,2,9)              107.1493         estimate D2E/DX2                !
 ! A6    A(3,2,7)               79.6789         estimate D2E/DX2                !
 ! A7    A(3,2,8)              107.2534         estimate D2E/DX2                !
 ! A8    A(6,2,7)              124.6852         estimate D2E/DX2                !
 ! A9    A(6,2,8)              103.7085         estimate D2E/DX2                !
 ! A10   A(7,2,9)               79.5231         estimate D2E/DX2                !
 ! A11   A(1,3,5)              118.6118         estimate D2E/DX2                !
 ! A12   A(1,3,6)              107.7148         estimate D2E/DX2                !
 ! A13   A(1,3,9)              108.0095         estimate D2E/DX2                !
 ! A14   A(2,3,4)               93.4012         estimate D2E/DX2                !
 ! A15   A(2,3,5)              106.9289         estimate D2E/DX2                !
 ! A16   A(4,3,6)              139.4343         estimate D2E/DX2                !
 ! A17   A(4,3,9)               90.2339         estimate D2E/DX2                !
 ! A18   A(5,3,6)              103.0577         estimate D2E/DX2                !
 ! A19   A(1,4,5)              111.957          estimate D2E/DX2                !
 ! A20   A(1,4,10)             106.44           estimate D2E/DX2                !
 ! A21   A(3,4,7)               84.6595         estimate D2E/DX2                !
 ! A22   A(3,4,10)              89.6414         estimate D2E/DX2                !
 ! A23   A(5,4,7)               98.4261         estimate D2E/DX2                !
 ! A24   A(3,5,10)             100.1519         estimate D2E/DX2                !
 ! A25   A(4,5,9)               99.9317         estimate D2E/DX2                !
 ! A26   A(1,7,8)              119.5692         estimate D2E/DX2                !
 ! A27   A(1,7,10)             123.3482         estimate D2E/DX2                !
 ! A28   A(2,7,4)              101.8508         estimate D2E/DX2                !
 ! A29   A(2,7,10)             101.8902         estimate D2E/DX2                !
 ! A30   A(4,7,8)              123.6155         estimate D2E/DX2                !
 ! A31   A(2,8,10)              98.1183         estimate D2E/DX2                !
 ! A32   A(7,8,9)               86.9802         estimate D2E/DX2                !
 ! A33   A(2,9,5)              106.9009         estimate D2E/DX2                !
 ! A34   A(2,9,10)              93.7115         estimate D2E/DX2                !
 ! A35   A(3,9,8)              108.2131         estimate D2E/DX2                !
 ! A36   A(3,9,10)              90.4484         estimate D2E/DX2                !
 ! A37   A(5,9,6)              102.9444         estimate D2E/DX2                !
 ! A38   A(5,9,8)              118.7795         estimate D2E/DX2                !
 ! A39   A(6,9,8)              107.77           estimate D2E/DX2                !
 ! A40   A(6,9,10)             139.7309         estimate D2E/DX2                !
 ! A41   A(4,10,8)             106.1889         estimate D2E/DX2                !
 ! A42   A(4,10,9)              89.6754         estimate D2E/DX2                !
 ! A43   A(5,10,7)              98.3519         estimate D2E/DX2                !
 ! A44   A(5,10,8)             112.0724         estimate D2E/DX2                !
 ! A45   A(7,10,9)              84.4996         estimate D2E/DX2                !
 ! D1    D(4,1,2,6)            -77.165          estimate D2E/DX2                !
 ! D2    D(4,1,2,8)             37.072          estimate D2E/DX2                !
 ! D3    D(4,1,2,9)            -21.0854         estimate D2E/DX2                !
 ! D4    D(7,1,3,5)            -33.5983         estimate D2E/DX2                !
 ! D5    D(7,1,3,6)             82.7874         estimate D2E/DX2                !
 ! D6    D(7,1,3,9)             26.6069         estimate D2E/DX2                !
 ! D7    D(2,1,4,5)             39.6994         estimate D2E/DX2                !
 ! D8    D(2,1,4,10)           -18.5198         estimate D2E/DX2                !
 ! D9    D(3,1,7,8)            -58.0457         estimate D2E/DX2                !
 ! D10   D(3,1,7,10)            18.1733         estimate D2E/DX2                !
 ! D11   D(7,2,3,4)             -4.6438         estimate D2E/DX2                !
 ! D12   D(7,2,3,5)             53.6767         estimate D2E/DX2                !
 ! D13   D(8,2,3,4)            -57.9762         estimate D2E/DX2                !
 ! D14   D(8,2,3,5)              0.3443         estimate D2E/DX2                !
 ! D15   D(3,2,7,4)              4.9145         estimate D2E/DX2                !
 ! D16   D(3,2,7,10)           -67.3771         estimate D2E/DX2                !
 ! D17   D(6,2,7,4)             36.3474         estimate D2E/DX2                !
 ! D18   D(6,2,7,10)           -35.9442         estimate D2E/DX2                !
 ! D19   D(9,2,7,4)             67.5931         estimate D2E/DX2                !
 ! D20   D(9,2,7,10)            -4.6985         estimate D2E/DX2                !
 ! D21   D(1,2,8,10)           -37.2637         estimate D2E/DX2                !
 ! D22   D(3,2,8,10)            20.895          estimate D2E/DX2                !
 ! D23   D(6,2,8,10)            76.9542         estimate D2E/DX2                !
 ! D24   D(1,2,9,5)             -0.4927         estimate D2E/DX2                !
 ! D25   D(1,2,9,10)            57.9586         estimate D2E/DX2                !
 ! D26   D(7,2,9,5)            -53.9946         estimate D2E/DX2                !
 ! D27   D(7,2,9,10)             4.4566         estimate D2E/DX2                !
 ! D28   D(2,3,4,7)              4.6868         estimate D2E/DX2                !
 ! D29   D(2,3,4,10)            59.3431         estimate D2E/DX2                !
 ! D30   D(6,3,4,7)            -30.688          estimate D2E/DX2                !
 ! D31   D(6,3,4,10)            23.9682         estimate D2E/DX2                !
 ! D32   D(9,3,4,7)            -54.4504         estimate D2E/DX2                !
 ! D33   D(9,3,4,10)             0.2059         estimate D2E/DX2                !
 ! D34   D(1,3,5,10)            39.1492         estimate D2E/DX2                !
 ! D35   D(2,3,5,10)           -22.764          estimate D2E/DX2                !
 ! D36   D(6,3,5,10)           -79.6877         estimate D2E/DX2                !
 ! D37   D(1,3,9,8)              0.0715         estimate D2E/DX2                !
 ! D38   D(1,3,9,10)           -62.1339         estimate D2E/DX2                !
 ! D39   D(4,3,9,8)             61.9756         estimate D2E/DX2                !
 ! D40   D(4,3,9,10)            -0.2298         estimate D2E/DX2                !
 ! D41   D(1,4,5,9)            -40.3412         estimate D2E/DX2                !
 ! D42   D(7,4,5,9)             19.4923         estimate D2E/DX2                !
 ! D43   D(3,4,7,2)             -5.232          estimate D2E/DX2                !
 ! D44   D(3,4,7,8)             56.5916         estimate D2E/DX2                !
 ! D45   D(5,4,7,2)            -63.1696         estimate D2E/DX2                !
 ! D46   D(5,4,7,8)             -1.346          estimate D2E/DX2                !
 ! D47   D(1,4,10,8)            -0.3043         estimate D2E/DX2                !
 ! D48   D(1,4,10,9)            53.5329         estimate D2E/DX2                !
 ! D49   D(3,4,10,8)           -54.0646         estimate D2E/DX2                !
 ! D50   D(3,4,10,9)            -0.2273         estimate D2E/DX2                !
 ! D51   D(4,5,9,2)             23.1251         estimate D2E/DX2                !
 ! D52   D(4,5,9,6)             80.0707         estimate D2E/DX2                !
 ! D53   D(4,5,9,8)            -38.8461         estimate D2E/DX2                !
 ! D54   D(3,5,10,7)           -19.6767         estimate D2E/DX2                !
 ! D55   D(3,5,10,8)            39.8187         estimate D2E/DX2                !
 ! D56   D(1,7,8,9)             58.0186         estimate D2E/DX2                !
 ! D57   D(4,7,8,9)            -18.0544         estimate D2E/DX2                !
 ! D58   D(1,7,10,5)             1.3589         estimate D2E/DX2                !
 ! D59   D(1,7,10,9)           -56.7531         estimate D2E/DX2                !
 ! D60   D(2,7,10,5)            63.1195         estimate D2E/DX2                !
 ! D61   D(2,7,10,9)             5.0075         estimate D2E/DX2                !
 ! D62   D(7,8,9,3)            -26.7763         estimate D2E/DX2                !
 ! D63   D(7,8,9,5)             33.3758         estimate D2E/DX2                !
 ! D64   D(7,8,9,6)            -83.0103         estimate D2E/DX2                !
 ! D65   D(2,8,10,4)            18.9675         estimate D2E/DX2                !
 ! D66   D(2,8,10,5)           -39.1944         estimate D2E/DX2                !
 ! D67   D(2,9,10,4)           -59.0372         estimate D2E/DX2                !
 ! D68   D(2,9,10,7)            -4.4915         estimate D2E/DX2                !
 ! D69   D(3,9,10,4)             0.2064         estimate D2E/DX2                !
 ! D70   D(3,9,10,7)            54.7521         estimate D2E/DX2                !
 ! D71   D(6,9,10,4)           -23.4185         estimate D2E/DX2                !
 ! D72   D(6,9,10,7)            31.1273         estimate D2E/DX2                !
 --------------------------------------------------------------------------------
 Trust Radius=3.00D-01 FncErr=1.00D-07 GrdErr=1.00D-06
 Number of steps in this run= 100 maximum allowed number of steps= 100.
 GradGradGradGradGradGradGradGradGradGradGradGradGradGradGradGradGradGrad

                          Input orientation:                          
 ---------------------------------------------------------------------
 Center     Atomic      Atomic             Coordinates (Angstroms)
 Number     Number       Type             X           Y           Z
 ---------------------------------------------------------------------
      1         14           0        1.273314   -2.157053   -0.318313
      2         14           0        1.114402    0.012784   -1.588308
      3         14           0       -1.018113   -1.419834   -0.562956
      4         14           0       -0.059756   -1.435543    1.819252
      5         14           0       -2.029706   -0.022108    1.254726
      6         14           0       -1.118826    0.002286   -2.449067
      7         14           0        1.709185    0.011493    0.868830
      8         14           0        1.248742    2.175804   -0.302873
      9         14           0       -1.032793    1.408701   -0.550846
     10         14           0       -0.086448    1.423470    1.829555
 ---------------------------------------------------------------------
                    Distance matrix (angstroms):
                    1          2          3          4          5
     1  Si   0.000000
     2  Si   2.519193   0.000000
     3  Si   2.419500   2.766109   0.000000
     4  Si   2.620465   3.884297   2.567803   0.000000
     5  Si   4.235845   4.239041   2.506178   2.489416   0.000000
     6  Si   3.863312   2.393391   2.364314   4.626826   3.814233
     7  Si   2.510356   2.528102   3.396596   2.475150   3.758903
     8  Si   4.332953   2.519731   4.258507   4.388326   4.243247
     9  Si   4.252858   2.763215   2.828599   3.828040   2.510207
    10  Si   4.391177   3.887655   3.830991   2.859156   2.489252
                    6          7          8          9         10
     6  Si   0.000000
     7  Si   4.359607   0.000000
     8  Si   3.864674   2.503824   0.000000
     9  Si   2.364033   3.389117   2.419780   0.000000
    10  Si   4.625168   2.478097   2.626021   2.561659   0.000000
 Stoichiometry    Si10(1+,2)
 Framework group  C1[X(Si10)]
 Deg. of freedom    24
 Full point group                 C1      NOp   1
 Largest Abelian subgroup         C1      NOp   1
 Largest concise Abelian subgroup C1      NOp   1
                         Standard orientation:                         
 ---------------------------------------------------------------------
 Center     Atomic      Atomic             Coordinates (Angstroms)
 Number     Number       Type             X           Y           Z
 ---------------------------------------------------------------------
      1         14           0       -0.318313   -2.157053   -1.273314
      2         14           0       -1.588308    0.012784   -1.114402
      3         14           0       -0.562956   -1.419834    1.018113
      4         14           0        1.819252   -1.435543    0.059756
      5         14           0        1.254726   -0.022108    2.029706
      6         14           0       -2.449067    0.002286    1.118826
      7         14           0        0.868830    0.011493   -1.709185
      8         14           0       -0.302873    2.175804   -1.248742
      9         14           0       -0.550846    1.408701    1.032793
     10         14           0        1.829555    1.423470    0.086448
 ---------------------------------------------------------------------
 Rotational constants (GHZ):      0.5591775      0.5449238      0.5046494
 Standard basis: GTBas3 (6D, 7F)
 There are   320 symmetry adapted basis functions of A   symmetry.
 Integral buffers will be    131072 words long.
 Raffenetti 2 integral format.
 Two-electron integral symmetry is turned on.
   320 basis functions,   680 primitive gaussians,   350 cartesian basis functions
    70 alpha electrons       69 beta electrons
       nuclear repulsion energy      1519.7590598688 Hartrees.
 NAtoms=   10 NActive=   10 NUniq=   10 SFac= 7.50D-01 NAtFMM=   80 NAOKFM=F Big=F
 One-electron integrals computed using PRISM.
 NBasis=   320 RedAO= T  NBF=   320
 NBsUse=   320 1.00D-06 NBFU=   320
 Harris functional with IExCor=  402 diagonalized for initial guess.
 ExpMin= 7.78D-02 ExpMax= 1.61D+04 ExpMxC= 2.43D+03 IAcc=2 IRadAn=         0 AccDes= 0.00D+00
 HarFok:  IExCor=  402 AccDes= 0.00D+00 IRadAn=         0 IDoV= 1
 ScaDFX=  1.000000  1.000000  1.000000  1.000000
 FoFCou: FMM=F IPFlag=           0 FMFlag=      100000 FMFlg1=           0
         NFxFlg=           0 DoJE=T BraDBF=F KetDBF=T FulRan=T
         Omega=  0.000000  0.000000  1.000000  0.000000  0.000000 ICntrl=     500 IOpCl=  0
         NMat0=    1 NMatS0=    1 NMatT0=    0 NMatD0=    1 NMtDS0=    0 NMtDT0=    0
         I1Cent=           4 NGrid=           0.
 Petite list used in FoFCou.
 Initial guess orbital symmetries:
 Alpha Orbitals:
       Occupied  (A) (A) (A) (A) (A) (A) (A) (A) (A) (A) (A) (A)
                 (A) (A) (A) (A) (A) (A) (A) (A) (A) (A) (A) (A)
                 (A) (A) (A) (A) (A) (A) (A) (A) (A) (A) (A) (A)
                 (A) (A) (A) (A) (A) (A) (A) (A) (A) (A) (A) (A)
                 (A) (A) (A) (A) (A) (A) (A) (A) (A) (A) (A) (A)
                 (A) (A) (A) (A) (A) (A) (A) (A) (A) (A)
       Virtual   (A) (A) (A) (A) (A) (A) (A) (A) (A) (A) (A) (A)
                 (A) (A) (A) (A) (A) (A) (A) (A) (A) (A) (A) (A)
                 (A) (A) (A) (A) (A) (A) (A) (A) (A) (A) (A) (A)
                 (A) (A) (A) (A) (A) (A) (A) (A) (A) (A) (A) (A)
                 (A) (A) (A) (A) (A) (A) (A) (A) (A) (A) (A) (A)
                 (A) (A) (A) (A) (A) (A) (A) (A) (A) (A) (A) (A)
                 (A) (A) (A) (A) (A) (A) (A) (A) (A) (A) (A) (A)
                 (A) (A) (A) (A) (A) (A) (A) (A) (A) (A) (A) (A)
                 (A) (A) (A) (A) (A) (A) (A) (A) (A) (A) (A) (A)
                 (A) (A) (A) (A) (A) (A) (A) (A) (A) (A) (A) (A)
                 (A) (A) (A) (A) (A) (A) (A) (A) (A) (A) (A) (A)
                 (A) (A) (A) (A) (A) (A) (A) (A) (A) (A) (A) (A)
                 (A) (A) (A) (A) (A) (A) (A) (A) (A) (A) (A) (A)
                 (A) (A) (A) (A) (A) (A) (A) (A) (A) (A) (A) (A)
                 (A) (A) (A) (A) (A) (A) (A) (A) (A) (A) (A) (A)
                 (A) (A) (A) (A) (A) (A) (A) (A) (A) (A) (A) (A)
                 (A) (A) (A) (A) (A) (A) (A) (A) (A) (A) (A) (A)
                 (A) (A) (A) (A) (A) (A) (A) (A) (A) (A) (A) (A)
                 (A) (A) (A) (A) (A) (A) (A) (A) (A) (A) (A) (A)
                 (A) (A) (A) (A) (A) (A) (A) (A) (A) (A) (A) (A)
                 (A) (A) (A) (A) (A) (A) (A) (A) (A) (A)
 Beta  Orbitals:
       Occupied  (A) (A) (A) (A) (A) (A) (A) (A) (A) (A) (A) (A)
                 (A) (A) (A) (A) (A) (A) (A) (A) (A) (A) (A) (A)
                 (A) (A) (A) (A) (A) (A) (A) (A) (A) (A) (A) (A)
                 (A) (A) (A) (A) (A) (A) (A) (A) (A) (A) (A) (A)
                 (A) (A) (A) (A) (A) (A) (A) (A) (A) (A) (A) (A)
                 (A) (A) (A) (A) (A) (A) (A) (A) (A)
       Virtual   (A) (A) (A) (A) (A) (A) (A) (A) (A) (A) (A) (A)
                 (A) (A) (A) (A) (A) (A) (A) (A) (A) (A) (A) (A)
                 (A) (A) (A) (A) (A) (A) (A) (A) (A) (A) (A) (A)
                 (A) (A) (A) (A) (A) (A) (A) (A) (A) (A) (A) (A)
                 (A) (A) (A) (A) (A) (A) (A) (A) (A) (A) (A) (A)
                 (A) (A) (A) (A) (A) (A) (A) (A) (A) (A) (A) (A)
                 (A) (A) (A) (A) (A) (A) (A) (A) (A) (A) (A) (A)
                 (A) (A) (A) (A) (A) (A) (A) (A) (A) (A) (A) (A)
                 (A) (A) (A) (A) (A) (A) (A) (A) (A) (A) (A) (A)
                 (A) (A) (A) (A) (A) (A) (A) (A) (A) (A) (A) (A)
                 (A) (A) (A) (A) (A) (A) (A) (A) (A) (A) (A) (A)
                 (A) (A) (A) (A) (A) (A) (A) (A) (A) (A) (A) (A)
                 (A) (A) (A) (A) (A) (A) (A) (A) (A) (A) (A) (A)
                 (A) (A) (A) (A) (A) (A) (A) (A) (A) (A) (A) (A)
                 (A) (A) (A) (A) (A) (A) (A) (A) (A) (A) (A) (A)
                 (A) (A) (A) (A) (A) (A) (A) (A) (A) (A) (A) (A)
                 (A) (A) (A) (A) (A) (A) (A) (A) (A) (A) (A) (A)
                 (A) (A) (A) (A) (A) (A) (A) (A) (A) (A) (A) (A)
                 (A) (A) (A) (A) (A) (A) (A) (A) (A) (A) (A) (A)
                 (A) (A) (A) (A) (A) (A) (A) (A) (A) (A) (A) (A)
                 (A) (A) (A) (A) (A) (A) (A) (A) (A) (A) (A)
 The electronic state of the initial guess is 2-A.
 Initial guess <Sx>= 0.0000 <Sy>= 0.0000 <Sz>= 0.5000 <S**2>= 0.7500 S= 0.5000
 Requested convergence on RMS density matrix=1.00D-08 within 128 cycles.
 Requested convergence on MAX density matrix=1.00D-06.
 Requested convergence on             energy=1.00D-06.
 No special actions if energy rises.
 Keep R1 and R2 ints in memory in canonical form, NReq=3795183918.
 Integral accuracy reduced to 1.0D-05 until final iterations.
 EnCoef did     3 forward-backward iterations
 Initial convergence to 1.0D-05 achieved.  Increase integral accuracy.
 SCF Done:  E(UB3LYP) =  -2894.66620356     A.U. after   24 cycles
             Convg  =    0.2489D-08             -V/T =  2.0036
 <Sx>= 0.0000 <Sy>= 0.0000 <Sz>= 0.5000 <S**2>= 0.7634 S= 0.5067
 <L.S>= 0.000000000000E+00
 Annihilation of the first spin contaminant:
 S**2 before annihilation     0.7634,   after     0.7501
 QCSCF skips out because SCF is already converged.

 **********************************************************************

            Population analysis using the SCF density.

 **********************************************************************

 Orbital symmetries:
 Alpha Orbitals:
       Occupied  (A) (A) (A) (A) (A) (A) (A) (A) (A) (A) (A) (A)
                 (A) (A) (A) (A) (A) (A) (A) (A) (A) (A) (A) (A)
                 (A) (A) (A) (A) (A) (A) (A) (A) (A) (A) (A) (A)
                 (A) (A) (A) (A) (A) (A) (A) (A) (A) (A) (A) (A)
                 (A) (A) (A) (A) (A) (A) (A) (A) (A) (A) (A) (A)
                 (A) (A) (A) (A) (A) (A) (A) (A) (A) (A)
       Virtual   (A) (A) (A) (A) (A) (A) (A) (A) (A) (A) (A) (A)
                 (A) (A) (A) (A) (A) (A) (A) (A) (A) (A) (A) (A)
                 (A) (A) (A) (A) (A) (A) (A) (A) (A) (A) (A) (A)
                 (A) (A) (A) (A) (A) (A) (A) (A) (A) (A) (A) (A)
                 (A) (A) (A) (A) (A) (A) (A) (A) (A) (A) (A) (A)
                 (A) (A) (A) (A) (A) (A) (A) (A) (A) (A) (A) (A)
                 (A) (A) (A) (A) (A) (A) (A) (A) (A) (A) (A) (A)
                 (A) (A) (A) (A) (A) (A) (A) (A) (A) (A) (A) (A)
                 (A) (A) (A) (A) (A) (A) (A) (A) (A) (A) (A) (A)
                 (A) (A) (A) (A) (A) (A) (A) (A) (A) (A) (A) (A)
                 (A) (A) (A) (A) (A) (A) (A) (A) (A) (A) (A) (A)
                 (A) (A) (A) (A) (A) (A) (A) (A) (A) (A) (A) (A)
                 (A) (A) (A) (A) (A) (A) (A) (A) (A) (A) (A) (A)
                 (A) (A) (A) (A) (A) (A) (A) (A) (A) (A) (A) (A)
                 (A) (A) (A) (A) (A) (A) (A) (A) (A) (A) (A) (A)
                 (A) (A) (A) (A) (A) (A) (A) (A) (A) (A) (A) (A)
                 (A) (A) (A) (A) (A) (A) (A) (A) (A) (A) (A) (A)
                 (A) (A) (A) (A) (A) (A) (A) (A) (A) (A) (A) (A)
                 (A) (A) (A) (A) (A) (A) (A) (A) (A) (A) (A) (A)
                 (A) (A) (A) (A) (A) (A) (A) (A) (A) (A) (A) (A)
                 (A) (A) (A) (A) (A) (A) (A) (A) (A) (A)
 Beta  Orbitals:
       Occupied  (A) (A) (A) (A) (A) (A) (A) (A) (A) (A) (A) (A)
                 (A) (A) (A) (A) (A) (A) (A) (A) (A) (A) (A) (A)
                 (A) (A) (A) (A) (A) (A) (A) (A) (A) (A) (A) (A)
                 (A) (A) (A) (A) (A) (A) (A) (A) (A) (A) (A) (A)
                 (A) (A) (A) (A) (A) (A) (A) (A) (A) (A) (A) (A)
                 (A) (A) (A) (A) (A) (A) (A) (A) (A)
       Virtual   (A) (A) (A) (A) (A) (A) (A) (A) (A) (A) (A) (A)
                 (A) (A) (A) (A) (A) (A) (A) (A) (A) (A) (A) (A)
                 (A) (A) (A) (A) (A) (A) (A) (A) (A) (A) (A) (A)
                 (A) (A) (A) (A) (A) (A) (A) (A) (A) (A) (A) (A)
                 (A) (A) (A) (A) (A) (A) (A) (A) (A) (A) (A) (A)
                 (A) (A) (A) (A) (A) (A) (A) (A) (A) (A) (A) (A)
                 (A) (A) (A) (A) (A) (A) (A) (A) (A) (A) (A) (A)
                 (A) (A) (A) (A) (A) (A) (A) (A) (A) (A) (A) (A)
                 (A) (A) (A) (A) (A) (A) (A) (A) (A) (A) (A) (A)
                 (A) (A) (A) (A) (A) (A) (A) (A) (A) (A) (A) (A)
                 (A) (A) (A) (A) (A) (A) (A) (A) (A) (A) (A) (A)
                 (A) (A) (A) (A) (A) (A) (A) (A) (A) (A) (A) (A)
                 (A) (A) (A) (A) (A) (A) (A) (A) (A) (A) (A) (A)
                 (A) (A) (A) (A) (A) (A) (A) (A) (A) (A) (A) (A)
                 (A) (A) (A) (A) (A) (A) (A) (A) (A) (A) (A) (A)
                 (A) (A) (A) (A) (A) (A) (A) (A) (A) (A) (A) (A)
                 (A) (A) (A) (A) (A) (A) (A) (A) (A) (A) (A) (A)
                 (A) (A) (A) (A) (A) (A) (A) (A) (A) (A) (A) (A)
                 (A) (A) (A) (A) (A) (A) (A) (A) (A) (A) (A) (A)
                 (A) (A) (A) (A) (A) (A) (A) (A) (A) (A) (A) (A)
                 (A) (A) (A) (A) (A) (A) (A) (A) (A) (A) (A)
 The electronic state is 2-A.
 Alpha  occ. eigenvalues --  -66.31831 -66.31603 -66.31596 -66.31557 -66.31149
 Alpha  occ. eigenvalues --  -66.30996 -66.30888 -66.30887 -66.30513 -66.30505
 Alpha  occ. eigenvalues --   -5.46244  -5.45885  -5.45873  -5.45868  -5.45540
 Alpha  occ. eigenvalues --   -5.45388  -5.45388  -5.45328  -5.44826  -5.44818
 Alpha  occ. eigenvalues --   -3.82336  -3.82013  -3.81926  -3.81783  -3.81779
 Alpha  occ. eigenvalues --   -3.81735  -3.81701  -3.81650  -3.81642  -3.81636
 Alpha  occ. eigenvalues --   -3.81610  -3.81606  -3.81491  -3.81391  -3.81389
 Alpha  occ. eigenvalues --   -3.81311  -3.81290  -3.81262  -3.81145  -3.81144
 Alpha  occ. eigenvalues --   -3.81099  -3.81097  -3.81090  -3.81089  -3.80663
 Alpha  occ. eigenvalues --   -3.80655  -3.80636  -3.80628  -3.80567  -3.80560
 Alpha  occ. eigenvalues --   -0.82623  -0.72665  -0.72204  -0.71475  -0.59781
 Alpha  occ. eigenvalues --   -0.57874  -0.57767  -0.56744  -0.55286  -0.50170
 Alpha  occ. eigenvalues --   -0.42579  -0.41753  -0.41458  -0.41347  -0.40905
 Alpha  occ. eigenvalues --   -0.39801  -0.39700  -0.38835  -0.38831  -0.37558
 Alpha virt. eigenvalues --   -0.26686  -0.25283  -0.24808  -0.21744  -0.20189
 Alpha virt. eigenvalues --   -0.19895  -0.18460  -0.17963  -0.17578  -0.17410
 Alpha virt. eigenvalues --   -0.17269  -0.15398  -0.15227  -0.13435  -0.12096
 Alpha virt. eigenvalues --   -0.08638  -0.07685  -0.07212  -0.06732  -0.05674
 Alpha virt. eigenvalues --   -0.03339  -0.01972  -0.00852   0.00083   0.00457
 Alpha virt. eigenvalues --    0.00805   0.01133   0.02130   0.02831   0.03463
 Alpha virt. eigenvalues --    0.03493   0.04119   0.04250   0.04963   0.05508
 Alpha virt. eigenvalues --    0.05585   0.06030   0.07029   0.07048   0.10162
 Alpha virt. eigenvalues --    0.10287   0.10886   0.10910   0.11416   0.12284
 Alpha virt. eigenvalues --    0.13072   0.13333   0.14289   0.15202   0.15308
 Alpha virt. eigenvalues --    0.16282   0.17752   0.18078   0.18710   0.20281
 Alpha virt. eigenvalues --    0.20326   0.20796   0.21183   0.22113   0.22586
 Alpha virt. eigenvalues --    0.22678   0.23100   0.23168   0.24352   0.24443
 Alpha virt. eigenvalues --    0.24713   0.25348   0.25380   0.25880   0.29627
 Alpha virt. eigenvalues --    0.32083   0.32364   0.33455   0.33805   0.34316
 Alpha virt. eigenvalues --    0.35114   0.36375   0.36863   0.37826   0.38688
 Alpha virt. eigenvalues --    0.38931   0.40087   0.41139   0.42633   0.43420
 Alpha virt. eigenvalues --    0.45032   0.45727   0.46068   0.46688   0.47250
 Alpha virt. eigenvalues --    0.48427   0.50085   0.50380   0.51042   0.52760
 Alpha virt. eigenvalues --    0.52926   0.53352   0.54752   0.54884   0.55210
 Alpha virt. eigenvalues --    0.56201   0.56471   0.56770   0.57051   0.57669
 Alpha virt. eigenvalues --    0.57809   0.59678   0.59766   0.61155   0.62726
 Alpha virt. eigenvalues --    0.65135   0.69513   0.71671   0.72028   0.73617
 Alpha virt. eigenvalues --    0.74477   0.75836   0.77528   0.78581   0.79611
 Alpha virt. eigenvalues --    0.80446   0.81818   0.82352   0.83202   0.83528
 Alpha virt. eigenvalues --    0.84280   0.84732   0.88445   0.89131   0.89278
 Alpha virt. eigenvalues --    0.90706   0.91809   0.92414   0.92850   0.93502
 Alpha virt. eigenvalues --    0.95887   0.96642   0.96981   0.97488   0.98975
 Alpha virt. eigenvalues --    1.00656   1.01037   1.01095   1.01858   1.01938
 Alpha virt. eigenvalues --    1.05097   1.05149   1.06431   1.07498   1.07900
 Alpha virt. eigenvalues --    1.08342   1.09916   1.12536   1.13073   1.15004
 Alpha virt. eigenvalues --    1.15826   1.16466   1.17261   1.18015   1.18467
 Alpha virt. eigenvalues --    1.19535   1.21453   1.23192   1.24734   1.24799
 Alpha virt. eigenvalues --    1.26692   1.26889   1.27502   1.28018   1.28478
 Alpha virt. eigenvalues --    1.29103   1.30979   1.32425   1.32662   1.32723
 Alpha virt. eigenvalues --    1.33417   1.34063   1.35502   1.35813   1.35929
 Alpha virt. eigenvalues --    1.37588   1.38666   1.39222   1.39564   1.40146
 Alpha virt. eigenvalues --    1.42735   1.49614   1.52811   1.54184   1.55399
 Alpha virt. eigenvalues --    1.59737   1.60890   1.61897   1.62490   1.63347
 Alpha virt. eigenvalues --    1.64463   1.65638   1.66794   1.68003   1.70336
 Alpha virt. eigenvalues --    1.71413   1.71872   1.72883   1.73135   1.73698
 Alpha virt. eigenvalues --    1.73862   1.75150   1.76096   1.76265   1.78029
 Alpha virt. eigenvalues --    1.78301   1.78761   1.79793   1.81535   1.82524
 Alpha virt. eigenvalues --    1.83063   1.84461   1.85744   1.86111   1.87894
 Alpha virt. eigenvalues --    1.88821   1.90084   1.90501   1.90775   1.93177
 Alpha virt. eigenvalues --    1.95269   1.95347   1.96945   1.98367   1.99337
 Alpha virt. eigenvalues --    2.01153   2.01916   2.04138   2.04678   2.06753
 Alpha virt. eigenvalues --    2.14120   2.16334   2.22386   2.26504   2.29489
 Alpha virt. eigenvalues --    2.34618   2.71010   2.74438   2.79988   2.82556
 Alpha virt. eigenvalues --    2.82874   2.91450   2.98296   2.99975   3.11266
  Beta  occ. eigenvalues --  -66.31644 -66.31572 -66.31565 -66.31533 -66.31130
  Beta  occ. eigenvalues --  -66.30893 -66.30892 -66.30886 -66.30510 -66.30501
  Beta  occ. eigenvalues --   -5.46015  -5.45859  -5.45840  -5.45834  -5.45514
  Beta  occ. eigenvalues --   -5.45392  -5.45391  -5.45200  -5.44823  -5.44814
  Beta  occ. eigenvalues --   -3.81924  -3.81786  -3.81741  -3.81727  -3.81723
  Beta  occ. eigenvalues --   -3.81689  -3.81684  -3.81610  -3.81605  -3.81596
  Beta  occ. eigenvalues --   -3.81548  -3.81542  -3.81475  -3.81408  -3.81407
  Beta  occ. eigenvalues --   -3.81291  -3.81241  -3.81152  -3.81150  -3.81090
  Beta  occ. eigenvalues --   -3.81089  -3.81058  -3.81028  -3.80872  -3.80670
  Beta  occ. eigenvalues --   -3.80661  -3.80640  -3.80631  -3.80541  -3.80530
  Beta  occ. eigenvalues --   -0.82254  -0.72235  -0.72046  -0.70796  -0.59282
  Beta  occ. eigenvalues --   -0.57615  -0.57413  -0.56610  -0.54257  -0.49401
  Beta  occ. eigenvalues --   -0.42329  -0.41359  -0.41125  -0.40727  -0.40671
  Beta  occ. eigenvalues --   -0.39644  -0.39293  -0.38697  -0.38375
  Beta virt. eigenvalues --   -0.31435  -0.26376  -0.25221  -0.24099  -0.21587
  Beta virt. eigenvalues --   -0.19896  -0.19683  -0.18342  -0.17890  -0.17236
  Beta virt. eigenvalues --   -0.17001  -0.16672  -0.15120  -0.14724  -0.12931
  Beta virt. eigenvalues --   -0.11166  -0.08508  -0.07581  -0.06792  -0.06238
  Beta virt. eigenvalues --   -0.05334  -0.02933  -0.01719  -0.00691   0.00404
  Beta virt. eigenvalues --    0.00565   0.01148   0.01311   0.02238   0.02993
  Beta virt. eigenvalues --    0.03672   0.03818   0.04344   0.04439   0.05307
  Beta virt. eigenvalues --    0.05585   0.06139   0.06535   0.07140   0.07381
  Beta virt. eigenvalues --    0.10295   0.10564   0.11030   0.11090   0.11732
  Beta virt. eigenvalues --    0.12614   0.13320   0.13455   0.14461   0.15356
  Beta virt. eigenvalues --    0.15414   0.16653   0.17930   0.18199   0.18896
  Beta virt. eigenvalues --    0.20423   0.20495   0.21011   0.21245   0.22530
  Beta virt. eigenvalues --    0.22754   0.23123   0.23328   0.23357   0.24494
  Beta virt. eigenvalues --    0.24916   0.25174   0.25594   0.25686   0.26126
  Beta virt. eigenvalues --    0.30118   0.32213   0.32862   0.33627   0.34119
  Beta virt. eigenvalues --    0.34751   0.35449   0.36485   0.37122   0.38304
  Beta virt. eigenvalues --    0.38815   0.39139   0.40298   0.41177   0.43088
  Beta virt. eigenvalues --    0.43510   0.45570   0.45883   0.46391   0.47031
  Beta virt. eigenvalues --    0.47740   0.48574   0.50281   0.50550   0.51358
  Beta virt. eigenvalues --    0.53174   0.53509   0.53560   0.54903   0.55217
  Beta virt. eigenvalues --    0.55267   0.56483   0.56735   0.56918   0.57603
  Beta virt. eigenvalues --    0.57740   0.58096   0.59895   0.60043   0.61447
  Beta virt. eigenvalues --    0.62900   0.65496   0.69766   0.71773   0.72368
  Beta virt. eigenvalues --    0.73950   0.74818   0.76095   0.77827   0.78722
  Beta virt. eigenvalues --    0.79904   0.80839   0.82271   0.82525   0.83589
  Beta virt. eigenvalues --    0.83783   0.84684   0.85035   0.88642   0.89398
  Beta virt. eigenvalues --    0.89487   0.91129   0.92078   0.92649   0.93108
  Beta virt. eigenvalues --    0.93709   0.96144   0.96804   0.97117   0.97743
  Beta virt. eigenvalues --    0.99226   1.00945   1.01216   1.01420   1.02095
  Beta virt. eigenvalues --    1.02237   1.05300   1.05699   1.06664   1.07911
  Beta virt. eigenvalues --    1.08149   1.08595   1.10335   1.12744   1.13393
  Beta virt. eigenvalues --    1.15073   1.16189   1.16613   1.17455   1.18284
  Beta virt. eigenvalues --    1.18752   1.19932   1.21706   1.23617   1.24846
  Beta virt. eigenvalues --    1.25137   1.26941   1.27223   1.27787   1.28233
  Beta virt. eigenvalues --    1.28702   1.29678   1.31084   1.32501   1.32875
  Beta virt. eigenvalues --    1.33083   1.33724   1.34170   1.35813   1.36035
  Beta virt. eigenvalues --    1.36068   1.37870   1.38783   1.39495   1.39948
  Beta virt. eigenvalues --    1.40580   1.43058   1.49778   1.52918   1.54208
  Beta virt. eigenvalues --    1.56012   1.59963   1.61046   1.62048   1.62723
  Beta virt. eigenvalues --    1.63531   1.64540   1.65720   1.66927   1.68172
  Beta virt. eigenvalues --    1.70451   1.71610   1.72079   1.72930   1.73423
  Beta virt. eigenvalues --    1.73909   1.73986   1.75283   1.76393   1.76476
  Beta virt. eigenvalues --    1.78102   1.78408   1.78906   1.79866   1.81649
  Beta virt. eigenvalues --    1.82576   1.83241   1.84757   1.85914   1.86221
  Beta virt. eigenvalues --    1.88077   1.89082   1.90224   1.90668   1.90991
  Beta virt. eigenvalues --    1.93342   1.95391   1.95472   1.97173   1.98595
  Beta virt. eigenvalues --    1.99436   2.01255   2.02102   2.04298   2.04887
  Beta virt. eigenvalues --    2.06947   2.14175   2.16604   2.22535   2.26704
  Beta virt. eigenvalues --    2.29602   2.34864   2.71171   2.74491   2.80145
  Beta virt. eigenvalues --    2.82952   2.82993   2.91891   2.98303   3.00099
  Beta virt. eigenvalues --    3.11520
          Condensed to atoms (all electrons):
              1          2          3          4          5          6
     1  Si  13.591531   0.089190   0.113781   0.048768   0.000086  -0.013093
     2  Si   0.089190  13.557319  -0.001468   0.017019  -0.001091   0.139037
     3  Si   0.113781  -0.001468  13.515053   0.023349   0.083849   0.160435
     4  Si   0.048768   0.017019   0.023349  13.678763   0.048469  -0.004399
     5  Si   0.000086  -0.001091   0.083849   0.048469  13.637342  -0.009002
     6  Si  -0.013093   0.139037   0.160435  -0.004399  -0.009002  13.449376
     7  Si   0.079372   0.013438   0.005311   0.027145   0.024806   0.006665
     8  Si  -0.002596   0.089337   0.008640   0.001273   0.000034  -0.013190
     9  Si   0.008775  -0.002069  -0.023452   0.021105   0.082619   0.161119
    10  Si   0.001323   0.017140   0.021107   0.017058   0.048653  -0.004544
              7          8          9         10
     1  Si   0.079372  -0.002596   0.008775   0.001323
     2  Si   0.013438   0.089337  -0.002069   0.017140
     3  Si   0.005311   0.008640  -0.023452   0.021107
     4  Si   0.027145   0.001273   0.021105   0.017058
     5  Si   0.024806   0.000034   0.082619   0.048653
     6  Si   0.006665  -0.013190   0.161119  -0.004544
     7  Si  13.620453   0.081542   0.005139   0.025899
     8  Si   0.081542  13.589853   0.114335   0.047825
     9  Si   0.005139   0.114335  13.514832   0.024039
    10  Si   0.025899   0.047825   0.024039  13.679926
 Mulliken atomic charges:
              1
     1  Si   0.082864
     2  Si   0.082148
     3  Si   0.093395
     4  Si   0.121451
     5  Si   0.084236
     6  Si   0.127596
     7  Si   0.110231
     8  Si   0.082947
     9  Si   0.093558
    10  Si   0.121574
 Sum of Mulliken atomic charges =   1.00000
 Mulliken charges with hydrogens summed into heavy atoms:
              1
     1  Si   0.082864
     2  Si   0.082148
     3  Si   0.093395
     4  Si   0.121451
     5  Si   0.084236
     6  Si   0.127596
     7  Si   0.110231
     8  Si   0.082947
     9  Si   0.093558
    10  Si   0.121574
 Sum of Mulliken charges with hydrogens summed into heavy atoms =   1.00000
          Atomic-Atomic Spin Densities.
              1          2          3          4          5          6
     1  Si   0.009645   0.008952  -0.005438   0.003649  -0.001343  -0.002235
     2  Si   0.008952   0.057583  -0.011025   0.005157  -0.001983   0.001207
     3  Si  -0.005438  -0.011025  -0.002008  -0.000227   0.004026   0.008150
     4  Si   0.003649   0.005157  -0.000227   0.052616   0.014894   0.000215
     5  Si  -0.001343  -0.001983   0.004026   0.014894   0.251118   0.003988
     6  Si  -0.002235   0.001207   0.008150   0.000215   0.003988   0.052743
     7  Si   0.005325  -0.032943  -0.000638   0.000394  -0.007706   0.000015
     8  Si   0.001385   0.009119  -0.002140   0.001893  -0.001277  -0.002161
     9  Si  -0.002158  -0.011031   0.006121  -0.002924   0.004575   0.008386
    10  Si   0.001794   0.004925  -0.002730  -0.005165   0.014251   0.000240
              7          8          9         10
     1  Si   0.005325   0.001385  -0.002158   0.001794
     2  Si  -0.032943   0.009119  -0.011031   0.004925
     3  Si  -0.000638  -0.002140   0.006121  -0.002730
     4  Si   0.000394   0.001893  -0.002924  -0.005165
     5  Si  -0.007706  -0.001277   0.004575   0.014251
     6  Si   0.000015  -0.002161   0.008386   0.000240
     7  Si   0.483737   0.004152  -0.000656   0.001266
     8  Si   0.004152   0.007548  -0.005777   0.003812
     9  Si  -0.000656  -0.005777  -0.001841   0.000040
    10  Si   0.001266   0.003812   0.000040   0.052112
 Mulliken atomic spin densities:
              1
     1  Si   0.019575
     2  Si   0.029962
     3  Si  -0.005909
     4  Si   0.070502
     5  Si   0.280543
     6  Si   0.070548
     7  Si   0.452946
     8  Si   0.016553
     9  Si  -0.005264
    10  Si   0.070544
 Sum of Mulliken atomic spin densities =   1.00000
 Electronic spatial extent (au):  <R**2>=           2776.2556
 Charge=              1.0000 electrons
 Dipole moment (field-independent basis, Debye):
    X=             -0.1948    Y=              0.0013    Z=              0.1292  Tot=              0.2338
 Quadrupole moment (field-independent basis, Debye-Ang):
   XX=           -107.3876   YY=           -111.4520   ZZ=           -111.0454
   XY=             -0.0006   XZ=             -1.8294   YZ=             -0.0211
 Traceless Quadrupole moment (field-independent basis, Debye-Ang):
   XX=              2.5740   YY=             -1.4903   ZZ=             -1.0837
   XY=             -0.0006   XZ=             -1.8294   YZ=             -0.0211
 Octapole moment (field-independent basis, Debye-Ang**2):
  XXX=             -7.9095  YYY=              0.0271  ZZZ=             -0.5450  XYY=             -0.1625
  XXY=             -0.0153  XXZ=              4.1425  XZZ=             -1.2429  YZZ=              0.0183
  YYZ=              0.1876  XYZ=              0.0197
 Hexadecapole moment (field-independent basis, Debye-Ang**3):
 XXXX=          -1457.1081 YYYY=          -1447.7970 ZZZZ=          -1255.9703 XXXY=             -0.0756
 XXXZ=            -26.3129 YYYX=              0.0670 YYYZ=             -0.1993 ZZZX=             -5.6063
 ZZZY=             -0.1850 XXYY=           -496.6538 XXZZ=           -451.5045 YYZZ=           -452.5681
 XXYZ=              0.0479 YYXZ=              1.5331 ZZXY=             -0.0245
 N-N= 1.519759059869D+03 E-N=-1.484949225886D+04  KE= 4.325975117483D+03
                          Isotropic Fermi Contact Couplings
        Atom                 a.u.       MegaHertz       Gauss      10(-4) cm-1
     1  Si(29)            -0.00207       1.83671       0.65538       0.61266
     2  Si(29)             0.05234     -46.52037     -16.59962     -15.51752
     3  Si(29)             0.01007      -8.95345      -3.19481      -2.98655
     4  Si(29)            -0.00542       4.81724       1.71891       1.60686
     5  Si(29)             0.11660    -103.62327     -36.97536     -34.56500
     6  Si(29)            -0.00617       5.47907       1.95507       1.82762
     7  Si(29)             0.31235    -277.59087     -99.05132     -92.59435
     8  Si(29)            -0.00171       1.52144       0.54289       0.50750
     9  Si(29)             0.00874      -7.76578      -2.77102      -2.59039
    10  Si(29)            -0.00662       5.88487       2.09987       1.96298
 --------------------------------------------------------
       Center         ----  Spin Dipole Couplings  ----
                      3XX-RR        3YY-RR        3ZZ-RR
 --------------------------------------------------------
     1   Atom       -0.034833      0.008506      0.026327
     2   Atom        0.017606     -0.029368      0.011762
     3   Atom        0.019019     -0.012132     -0.006888
     4   Atom       -0.094950     -0.107775      0.202725
     5   Atom       -0.248570     -0.272639      0.521209
     6   Atom       -0.068209     -0.079662      0.147871
     7   Atom       -0.409460     -0.381666      0.791126
     8   Atom       -0.032118      0.011729      0.020389
     9   Atom        0.018392     -0.013061     -0.005331
    10   Atom       -0.095280     -0.108353      0.203633
 --------------------------------------------------------
                        XY            XZ            YZ
 --------------------------------------------------------
     1   Atom       -0.009529     -0.011388      0.042289
     2   Atom       -0.000511     -0.050385      0.000603
     3   Atom       -0.007894     -0.010487      0.018762
     4   Atom       -0.000862     -0.017956     -0.013092
     5   Atom       -0.000487     -0.155443      0.000884
     6   Atom       -0.000058     -0.059410      0.000375
     7   Atom        0.000489     -0.040284     -0.001326
     8   Atom        0.009085     -0.009476     -0.039124
     9   Atom        0.008421     -0.011780     -0.020243
    10   Atom        0.000686     -0.018405      0.009470
 --------------------------------------------------------


 ---------------------------------------------------------------------------------
              Anisotropic Spin Dipole Couplings in Principal Axis System
 ---------------------------------------------------------------------------------

       Atom             a.u.   MegaHertz   Gauss  10(-4) cm-1        Axes

              Baa    -0.0371     3.935     1.404     1.313  0.9885  0.1100  0.1042
     1 Si(29) Bbb    -0.0258     2.737     0.976     0.913 -0.0195  0.7743 -0.6325
              Bcc     0.0629    -6.672    -2.381    -2.225 -0.1502  0.6232  0.7675
 
              Baa    -0.0358     3.796     1.355     1.266  0.6862 -0.0137  0.7273
     2 Si(29) Bbb    -0.0294     3.116     1.112     1.039  0.0154  0.9999  0.0043
              Bcc     0.0652    -6.912    -2.467    -2.306  0.7273 -0.0083 -0.6863
 
              Baa    -0.0285     3.021     1.078     1.008 -0.0216  0.7494 -0.6618
     3 Si(29) Bbb     0.0003    -0.031    -0.011    -0.010  0.5723  0.5520  0.6064
              Bcc     0.0282    -2.989    -1.067    -0.997  0.8197 -0.3657 -0.4408
 
              Baa    -0.1085    11.514     4.108     3.841  0.1276  0.9906  0.0490
     4 Si(29) Bbb    -0.0958    10.164     3.627     3.390  0.9900 -0.1302  0.0538
              Bcc     0.2043   -21.678    -7.735    -7.231 -0.0597 -0.0417  0.9973
 
              Baa    -0.2788    29.575    10.553     9.865  0.9804  0.0503  0.1904
     5 Si(29) Bbb    -0.2726    28.921    10.320     9.647 -0.0492  0.9987 -0.0107
              Bcc     0.5514   -58.496   -20.873   -19.512 -0.1907  0.0012  0.9816
 
              Baa    -0.0835     8.854     3.159     2.954  0.9685 -0.0098  0.2487
     6 Si(29) Bbb    -0.0797     8.451     3.015     2.819  0.0099  1.0000  0.0009
              Bcc     0.1631   -17.305    -6.175    -5.772 -0.2487  0.0016  0.9686
 
              Baa    -0.4108    43.581    15.551    14.537  0.9993 -0.0152  0.0335
     7 Si(29) Bbb    -0.3817    40.488    14.447    13.505  0.0152  0.9999  0.0017
              Bcc     0.7925   -84.069   -29.998   -28.042 -0.0335 -0.0011  0.9994
 
              Baa    -0.0341     3.613     1.289     1.205  0.9886 -0.1273  0.0806
     8 Si(29) Bbb    -0.0233     2.470     0.881     0.824  0.0405  0.7398  0.6716
              Bcc     0.0573    -6.084    -2.171    -2.029 -0.1451 -0.6606  0.7366
 
              Baa    -0.0298     3.164     1.129     1.056  0.0236  0.7651  0.6435
     9 Si(29) Bbb     0.0001    -0.006    -0.002    -0.002  0.6180 -0.5172  0.5922
              Bcc     0.0298    -3.158    -1.127    -1.054  0.7859  0.3837 -0.4850
 
              Baa    -0.1088    11.538     4.117     3.849 -0.0997  0.9944 -0.0360
    10 Si(29) Bbb    -0.0963    10.214     3.645     3.407  0.9931  0.1017  0.0577
              Bcc     0.2050   -21.752    -7.762    -7.256 -0.0611  0.0300  0.9977
 

 ---------------------------------------------------------------------------------

 Calling FoFJK, ICntrl=      2127 FMM=F ISym2X=0 I1Cent= 0 IOpClX= 1 NMat=1 NMatS=1 NMatT=0.
 ***** Axes restored to original set *****
 -------------------------------------------------------------------
 Center     Atomic                   Forces (Hartrees/Bohr)
 Number     Number              X              Y              Z
 -------------------------------------------------------------------
      1       14          -0.000373912    0.001336704    0.001165880
      2       14          -0.001527092   -0.000058004    0.001871788
      3       14           0.001380959    0.000930154    0.000833155
      4       14          -0.000098345    0.001551134   -0.002487144
      5       14           0.001595125    0.000059019    0.000352685
      6       14           0.000474192    0.000017746    0.000544559
      7       14          -0.002276180   -0.000047875   -0.001734503
      8       14          -0.000425332   -0.001344831    0.001128606
      9       14           0.001227739   -0.000872393    0.000748631
     10       14           0.000022845   -0.001571654   -0.002423658
 -------------------------------------------------------------------
 Cartesian Forces:  Max     0.002487144 RMS     0.001251871

 GradGradGradGradGradGradGradGradGradGradGradGradGradGradGradGradGradGrad
 Berny optimization.
 Internal  Forces:  Max     0.001182783 RMS     0.000315456
 Search for a local minimum.
 Step number   1 out of a maximum of  100
 All quantities printed in internal units (Hartrees-Bohrs-Radians)
 Mixed Optimization -- En-DIIS/RFO-DIIS
 Second derivative matrix not updated -- first step.
     Eigenvalues ---    0.03417   0.03847   0.04164   0.04319   0.04745
     Eigenvalues ---    0.06747   0.07256   0.07304   0.07349   0.08180
     Eigenvalues ---    0.08496   0.08821   0.08960   0.09541   0.09881
     Eigenvalues ---    0.09933   0.10418   0.11538   0.12335   0.12718
     Eigenvalues ---    0.12991   0.13144   0.14836   0.154821000.00000
     Eigenvalues --- 1000.000001000.000001000.000001000.000001000.00000
     Eigenvalues --- 1000.000001000.000001000.000001000.000001000.00000
     Eigenvalues --- 1000.000001000.000001000.000001000.000001000.00000
     Eigenvalues --- 1000.000001000.000001000.000001000.000001000.00000
     Eigenvalues --- 1000.000001000.000001000.000001000.000001000.00000
     Eigenvalues --- 1000.000001000.000001000.000001000.000001000.00000
     Eigenvalues --- 1000.000001000.000001000.000001000.000001000.00000
     Eigenvalues --- 1000.000001000.000001000.000001000.000001000.00000
     Eigenvalues --- 1000.000001000.000001000.000001000.000001000.00000
     Eigenvalues --- 1000.000001000.000001000.000001000.000001000.00000
     Eigenvalues --- 1000.000001000.000001000.000001000.000001000.00000
     Eigenvalues --- 1000.000001000.000001000.000001000.000001000.00000
     Eigenvalues --- 1000.000001000.000001000.000001000.000001000.00000
     Eigenvalues --- 1000.000001000.000001000.000001000.000001000.00000
     Eigenvalues --- 1000.000001000.000001000.000001000.000001000.00000
     Eigenvalues --- 1000.000001000.000001000.000001000.000001000.00000
     Eigenvalues --- 1000.000001000.000001000.000001000.000001000.00000
     Eigenvalues --- 1000.000001000.000001000.000001000.000001000.00000
     Eigenvalues --- 1000.000001000.000001000.000001000.000001000.00000
     Eigenvalues --- 1000.000001000.000001000.000001000.000001000.00000
     Eigenvalues --- 1000.000001000.000001000.000001000.000001000.00000
     Eigenvalues --- 1000.000001000.000001000.000001000.000001000.00000
     Eigenvalues --- 1000.000001000.000001000.000001000.000001000.00000
     Eigenvalues --- 1000.00000
 RFO step:  Lambda=-1.66813735D-04 EMin= 3.41736855D-02
 Linear search not attempted -- first point.
 Iteration  1 RMS(Cart)=  0.00206335 RMS(Int)=  0.00000263
 Iteration  2 RMS(Cart)=  0.00000119 RMS(Int)=  0.00000189
 Iteration  3 RMS(Cart)=  0.00000000 RMS(Int)=  0.00000189
 Variable       Old X    -DE/DX   Delta X   Delta X   Delta X     New X
                                 (Linear)    (Quad)   (Total)
    R1        4.76058  -0.00042   0.00000  -0.00501  -0.00501   4.75557
    R2        4.57219  -0.00046   0.00000  -0.00513  -0.00513   4.56706
    R3        4.95196  -0.00090   0.00000  -0.01110  -0.01110   4.94086
    R4        4.74388  -0.00088   0.00000  -0.01159  -0.01158   4.73230
    R5        5.22719  -0.00074   0.00000  -0.01037  -0.01037   5.21682
    R6        4.52285  -0.00049   0.00000  -0.00507  -0.00507   4.51778
    R7        4.77742  -0.00118   0.00000  -0.01256  -0.01256   4.76486
    R8        4.76160  -0.00042   0.00000  -0.00493  -0.00493   4.75667
    R9        5.22172  -0.00068   0.00000  -0.00973  -0.00973   5.21199
   R10        4.85244  -0.00114   0.00000  -0.01298  -0.01297   4.83947
   R11        4.73599  -0.00030   0.00000  -0.00413  -0.00413   4.73186
   R12        4.46791  -0.00020   0.00000  -0.00228  -0.00228   4.46563
   R13        5.34528  -0.00041   0.00000  -0.00658  -0.00659   5.33869
   R14        4.70431  -0.00084   0.00000  -0.00998  -0.00998   4.69434
   R15        4.67736  -0.00088   0.00000  -0.00912  -0.00912   4.66824
   R16        5.40302  -0.00081   0.00000  -0.01082  -0.01082   5.39220
   R17        4.74360  -0.00031   0.00000  -0.00470  -0.00470   4.73890
   R18        4.70401  -0.00086   0.00000  -0.01005  -0.01005   4.69395
   R19        4.46737  -0.00022   0.00000  -0.00239  -0.00239   4.46499
   R20        4.73154  -0.00085   0.00000  -0.01092  -0.01091   4.72063
   R21        4.68293  -0.00087   0.00000  -0.00933  -0.00933   4.67359
   R22        4.57272  -0.00047   0.00000  -0.00528  -0.00529   4.56743
   R23        4.96246  -0.00091   0.00000  -0.01119  -0.01119   4.95127
   R24        4.84083  -0.00108   0.00000  -0.01199  -0.01199   4.82884
    A1        1.71326  -0.00012   0.00000  -0.00126  -0.00126   1.71200
    A2        1.51982  -0.00014   0.00000  -0.00111  -0.00111   1.51871
    A3        1.80944   0.00009   0.00000   0.00164   0.00164   1.81108
    A4        2.07013  -0.00001   0.00000  -0.00098  -0.00098   2.06916
    A5        1.87011   0.00007   0.00000   0.00083   0.00083   1.87093
    A6        1.39066  -0.00005   0.00000  -0.00020  -0.00020   1.39046
    A7        1.87192   0.00006   0.00000   0.00069   0.00069   1.87262
    A8        2.17617   0.00003   0.00000   0.00107   0.00107   2.17724
    A9        1.81005   0.00007   0.00000   0.00140   0.00140   1.81145
   A10        1.38794  -0.00004   0.00000  -0.00011  -0.00011   1.38783
   A11        2.07017  -0.00002   0.00000  -0.00048  -0.00048   2.06969
   A12        1.87998   0.00003   0.00000   0.00104   0.00104   1.88102
   A13        1.88512   0.00001   0.00000   0.00000   0.00000   1.88512
   A14        1.63016  -0.00001   0.00000   0.00020   0.00020   1.63035
   A15        1.86626  -0.00002   0.00000  -0.00004  -0.00004   1.86622
   A16        2.43359   0.00000   0.00000   0.00055   0.00055   2.43414
   A17        1.57488  -0.00003   0.00000  -0.00031  -0.00031   1.57457
   A18        1.79870   0.00002   0.00000   0.00026   0.00026   1.79896
   A19        1.95402   0.00027   0.00000   0.00311   0.00311   1.95713
   A20        1.85773   0.00006   0.00000   0.00062   0.00062   1.85835
   A21        1.47759  -0.00002   0.00000  -0.00012  -0.00012   1.47747
   A22        1.56454   0.00004   0.00000   0.00049   0.00049   1.56503
   A23        1.71786   0.00002   0.00000   0.00056   0.00056   1.71842
   A24        1.74798  -0.00011   0.00000  -0.00133  -0.00133   1.74665
   A25        1.74414  -0.00010   0.00000  -0.00115  -0.00116   1.74298
   A26        2.08688   0.00031   0.00000   0.00358   0.00358   2.09046
   A27        2.15283   0.00017   0.00000   0.00125   0.00125   2.15408
   A28        1.77763   0.00008   0.00000   0.00020   0.00020   1.77783
   A29        1.77832   0.00008   0.00000   0.00030   0.00030   1.77862
   A30        2.15750   0.00015   0.00000   0.00098   0.00098   2.15848
   A31        1.71249  -0.00011   0.00000  -0.00121  -0.00121   1.71127
   A32        1.51809  -0.00012   0.00000  -0.00098  -0.00098   1.51711
   A33        1.86577  -0.00003   0.00000  -0.00007  -0.00007   1.86571
   A34        1.63557  -0.00003   0.00000  -0.00009  -0.00010   1.63548
   A35        1.88867  -0.00002   0.00000  -0.00025  -0.00025   1.88842
   A36        1.57862  -0.00005   0.00000  -0.00053  -0.00054   1.57809
   A37        1.79672   0.00003   0.00000   0.00045   0.00045   1.79717
   A38        2.07309  -0.00004   0.00000  -0.00061  -0.00061   2.07248
   A39        1.88094   0.00002   0.00000   0.00088   0.00088   1.88182
   A40        2.43876  -0.00002   0.00000   0.00029   0.00029   2.43906
   A41        1.85335   0.00006   0.00000   0.00068   0.00068   1.85402
   A42        1.56513   0.00004   0.00000   0.00035   0.00036   1.56549
   A43        1.71656   0.00002   0.00000   0.00063   0.00063   1.71719
   A44        1.95603   0.00026   0.00000   0.00282   0.00282   1.95885
   A45        1.47480  -0.00001   0.00000  -0.00004  -0.00004   1.47475
    D1       -1.34678   0.00002   0.00000   0.00057   0.00057  -1.34622
    D2        0.64703   0.00017   0.00000   0.00297   0.00297   0.65000
    D3       -0.36801   0.00013   0.00000   0.00217   0.00217  -0.36584
    D4       -0.58640  -0.00010   0.00000  -0.00147  -0.00147  -0.58787
    D5        1.44491  -0.00006   0.00000  -0.00063  -0.00063   1.44428
    D6        0.46438  -0.00009   0.00000  -0.00136  -0.00136   0.46302
    D7        0.69289  -0.00008   0.00000  -0.00154  -0.00155   0.69134
    D8       -0.32323  -0.00010   0.00000  -0.00192  -0.00192  -0.32515
    D9       -1.01309  -0.00012   0.00000  -0.00050  -0.00051  -1.01360
   D10        0.31718   0.00012   0.00000   0.00179   0.00179   0.31898
   D11       -0.08105   0.00000   0.00000   0.00038   0.00039  -0.08066
   D12        0.93684  -0.00003   0.00000   0.00009   0.00009   0.93693
   D13       -1.01188   0.00007   0.00000   0.00142   0.00143  -1.01045
   D14        0.00601   0.00004   0.00000   0.00113   0.00113   0.00714
   D15        0.08577   0.00000   0.00000  -0.00047  -0.00047   0.08531
   D16       -1.17595  -0.00008   0.00000  -0.00050  -0.00050  -1.17645
   D17        0.63438   0.00004   0.00000   0.00000   0.00000   0.63438
   D18       -0.62735  -0.00004   0.00000  -0.00003  -0.00003  -0.62737
   D19        1.17972   0.00008   0.00000   0.00041   0.00041   1.18013
   D20       -0.08200   0.00000   0.00000   0.00038   0.00038  -0.08162
   D21       -0.65037  -0.00017   0.00000  -0.00272  -0.00272  -0.65310
   D22        0.36469  -0.00012   0.00000  -0.00185  -0.00185   0.36284
   D23        1.34310  -0.00001   0.00000  -0.00019  -0.00019   1.34292
   D24       -0.00860  -0.00003   0.00000  -0.00108  -0.00108  -0.00968
   D25        1.01157  -0.00008   0.00000  -0.00154  -0.00155   1.01002
   D26       -0.94238   0.00005   0.00000   0.00014   0.00014  -0.94225
   D27        0.07778   0.00000   0.00000  -0.00033  -0.00033   0.07745
   D28        0.08180   0.00000   0.00000  -0.00045  -0.00045   0.08135
   D29        1.03573  -0.00004   0.00000  -0.00052  -0.00052   1.03522
   D30       -0.53561   0.00000   0.00000  -0.00089  -0.00089  -0.53649
   D31        0.41832  -0.00003   0.00000  -0.00096  -0.00096   0.41737
   D32       -0.95034   0.00002   0.00000  -0.00011  -0.00011  -0.95045
   D33        0.00359  -0.00001   0.00000  -0.00018  -0.00018   0.00341
   D34        0.68328   0.00011   0.00000   0.00107   0.00107   0.68436
   D35       -0.39731   0.00007   0.00000   0.00032   0.00032  -0.39699
   D36       -1.39081   0.00007   0.00000  -0.00017  -0.00017  -1.39098
   D37        0.00125  -0.00001   0.00000   0.00001   0.00001   0.00126
   D38       -1.08444   0.00003   0.00000   0.00065   0.00065  -1.08379
   D39        1.08168  -0.00003   0.00000  -0.00045  -0.00045   1.08123
   D40       -0.00401   0.00001   0.00000   0.00020   0.00020  -0.00381
   D41       -0.70409   0.00005   0.00000   0.00078   0.00078  -0.70330
   D42        0.34020   0.00004   0.00000   0.00039   0.00040   0.34060
   D43       -0.09132  -0.00001   0.00000   0.00044   0.00044  -0.09088
   D44        0.98771   0.00020   0.00000   0.00246   0.00246   0.99017
   D45       -1.10252  -0.00017   0.00000  -0.00124  -0.00124  -1.10376
   D46       -0.02349   0.00004   0.00000   0.00078   0.00078  -0.02271
   D47       -0.00531   0.00001   0.00000   0.00039   0.00039  -0.00492
   D48        0.93433   0.00013   0.00000   0.00173   0.00173   0.93605
   D49       -0.94361  -0.00010   0.00000  -0.00114  -0.00114  -0.94475
   D50       -0.00397   0.00001   0.00000   0.00019   0.00019  -0.00378
   D51        0.40361  -0.00009   0.00000  -0.00072  -0.00073   0.40288
   D52        1.39750  -0.00009   0.00000  -0.00028  -0.00028   1.39722
   D53       -0.67799  -0.00012   0.00000  -0.00140  -0.00140  -0.67939
   D54       -0.34342  -0.00003   0.00000  -0.00008  -0.00008  -0.34351
   D55        0.69497  -0.00003   0.00000  -0.00024  -0.00024   0.69473
   D56        1.01262   0.00013   0.00000   0.00061   0.00061   1.01323
   D57       -0.31511  -0.00012   0.00000  -0.00169  -0.00170  -0.31680
   D58        0.02372  -0.00005   0.00000  -0.00103  -0.00104   0.02268
   D59       -0.99053  -0.00021   0.00000  -0.00246  -0.00247  -0.99300
   D60        1.10164   0.00016   0.00000   0.00108   0.00108   1.10272
   D61        0.08740   0.00000   0.00000  -0.00035  -0.00035   0.08705
   D62       -0.46733   0.00010   0.00000   0.00143   0.00143  -0.46591
   D63        0.58252   0.00010   0.00000   0.00161   0.00161   0.58413
   D64       -1.44880   0.00008   0.00000   0.00072   0.00073  -1.44808
   D65        0.33105   0.00007   0.00000   0.00132   0.00132   0.33236
   D66       -0.68407   0.00005   0.00000   0.00095   0.00095  -0.68312
   D67       -1.03039   0.00004   0.00000   0.00037   0.00037  -1.03002
   D68       -0.07839   0.00001   0.00000   0.00038   0.00038  -0.07801
   D69        0.00360  -0.00001   0.00000  -0.00018  -0.00018   0.00342
   D70        0.95561  -0.00004   0.00000  -0.00017  -0.00017   0.95544
   D71       -0.40873   0.00001   0.00000   0.00048   0.00048  -0.40825
   D72        0.54327  -0.00002   0.00000   0.00049   0.00049   0.54376
         Item               Value     Threshold  Converged?
 Maximum Force            0.001183     0.000450     NO 
 RMS     Force            0.000315     0.000300     NO 
 Maximum Displacement     0.008966     0.001800     NO 
 RMS     Displacement     0.002064     0.001200     NO 
 Predicted change in Energy=-8.357332D-05
 GradGradGradGradGradGradGradGradGradGradGradGradGradGradGradGradGradGrad

                          Input orientation:                          
 ---------------------------------------------------------------------
 Center     Atomic      Atomic             Coordinates (Angstroms)
 Number     Number       Type             X           Y           Z
 ---------------------------------------------------------------------
      1         14           0        1.273083   -2.154167   -0.315734
      2         14           0        1.111702    0.012688   -1.585251
      3         14           0       -1.015712   -1.418043   -0.561462
      4         14           0       -0.060227   -1.432745    1.814507
      5         14           0       -2.026687   -0.021852    1.254729
      6         14           0       -1.118150    0.002311   -2.447302
      7         14           0        1.705071    0.011352    0.865394
      8         14           0        1.248156    2.172904   -0.300438
      9         14           0       -1.030703    1.407006   -0.549443
     10         14           0       -0.086532    1.420546    1.825000
 ---------------------------------------------------------------------
                    Distance matrix (angstroms):
                    1          2          3          4          5
     1  Si   0.000000
     2  Si   2.516541   0.000000
     3  Si   2.416784   2.760620   0.000000
     4  Si   2.614592   3.875700   2.560937   0.000000
     5  Si   4.231029   4.232749   2.503991   2.484137   0.000000
     6  Si   3.861603   2.390708   2.363110   4.619697   3.811962
     7  Si   2.504226   2.521458   3.388473   2.470326   3.752160
     8  Si   4.327170   2.517120   4.253014   4.380133   4.237935
     9  Si   4.247823   2.758064   2.825114   3.820245   2.507720
    10  Si   4.382907   3.879128   3.823109   2.853432   2.483933
                    6          7          8          9         10
     6  Si   0.000000
     7  Si   4.352541   0.000000
     8  Si   3.862629   2.498049   0.000000
     9  Si   2.362770   3.381431   2.416982   0.000000
    10  Si   4.618245   2.473159   2.620100   2.555312   0.000000
 Stoichiometry    Si10(1+,2)
 Framework group  C1[X(Si10)]
 Deg. of freedom    24
 Full point group                 C1      NOp   1
 Largest Abelian subgroup         C1      NOp   1
 Largest concise Abelian subgroup C1      NOp   1
                         Standard orientation:                         
 ---------------------------------------------------------------------
 Center     Atomic      Atomic             Coordinates (Angstroms)
 Number     Number       Type             X           Y           Z
 ---------------------------------------------------------------------
      1         14           0       -0.315606   -2.155031   -1.271653
      2         14           0       -1.585514    0.011674   -1.111337
      3         14           0       -0.560943   -1.417514    1.016736
      4         14           0        1.814805   -1.432347    0.060702
      5         14           0        1.255210   -0.020328    2.026405
      6         14           0       -2.447039    0.002530    1.118724
      7         14           0        0.864991    0.010450   -1.705281
      8         14           0       -0.301163    2.172059   -1.249452
      9         14           0       -0.549480    1.407545    1.029947
     10         14           0        1.824738    1.420962    0.085209
 ---------------------------------------------------------------------
 Rotational constants (GHZ):      0.5608485      0.5467298      0.5062869
 Standard basis: GTBas3 (6D, 7F)
 There are   320 symmetry adapted basis functions of A   symmetry.
 Integral buffers will be    131072 words long.
 Raffenetti 2 integral format.
 Two-electron integral symmetry is turned on.
   320 basis functions,   680 primitive gaussians,   350 cartesian basis functions
    70 alpha electrons       69 beta electrons
       nuclear repulsion energy      1522.2587922568 Hartrees.
 NAtoms=   10 NActive=   10 NUniq=   10 SFac= 7.50D-01 NAtFMM=   80 NAOKFM=F Big=F
 One-electron integrals computed using PRISM.
 NBasis=   320 RedAO= T  NBF=   320
 NBsUse=   320 1.00D-06 NBFU=   320
 Initial guess read from the read-write file.
 B after Tr=     0.000000    0.000000    0.000000
         Rot=    1.000000    0.000000    0.000000    0.000000 Ang=   0.00 deg.
 Initial guess orbital symmetries:
 Alpha Orbitals:
       Occupied  (A) (A) (A) (A) (A) (A) (A) (A) (A) (A) (A) (A)
                 (A) (A) (A) (A) (A) (A) (A) (A) (A) (A) (A) (A)
                 (A) (A) (A) (A) (A) (A) (A) (A) (A) (A) (A) (A)
                 (A) (A) (A) (A) (A) (A) (A) (A) (A) (A) (A) (A)
                 (A) (A) (A) (A) (A) (A) (A) (A) (A) (A) (A) (A)
                 (A) (A) (A) (A) (A) (A) (A) (A) (A) (A)
       Virtual   (A) (A) (A) (A) (A) (A) (A) (A) (A) (A) (A) (A)
                 (A) (A) (A) (A) (A) (A) (A) (A) (A) (A) (A) (A)
                 (A) (A) (A) (A) (A) (A) (A) (A) (A) (A) (A) (A)
                 (A) (A) (A) (A) (A) (A) (A) (A) (A) (A) (A) (A)
                 (A) (A) (A) (A) (A) (A) (A) (A) (A) (A) (A) (A)
                 (A) (A) (A) (A) (A) (A) (A) (A) (A) (A) (A) (A)
                 (A) (A) (A) (A) (A) (A) (A) (A) (A) (A) (A) (A)
                 (A) (A) (A) (A) (A) (A) (A) (A) (A) (A) (A) (A)
                 (A) (A) (A) (A) (A) (A) (A) (A) (A) (A) (A) (A)
                 (A) (A) (A) (A) (A) (A) (A) (A) (A) (A) (A) (A)
                 (A) (A) (A) (A) (A) (A) (A) (A) (A) (A) (A) (A)
                 (A) (A) (A) (A) (A) (A) (A) (A) (A) (A) (A) (A)
                 (A) (A) (A) (A) (A) (A) (A) (A) (A) (A) (A) (A)
                 (A) (A) (A) (A) (A) (A) (A) (A) (A) (A) (A) (A)
                 (A) (A) (A) (A) (A) (A) (A) (A) (A) (A) (A) (A)
                 (A) (A) (A) (A) (A) (A) (A) (A) (A) (A) (A) (A)
                 (A) (A) (A) (A) (A) (A) (A) (A) (A) (A) (A) (A)
                 (A) (A) (A) (A) (A) (A) (A) (A) (A) (A) (A) (A)
                 (A) (A) (A) (A) (A) (A) (A) (A) (A) (A) (A) (A)
                 (A) (A) (A) (A) (A) (A) (A) (A) (A) (A) (A) (A)
                 (A) (A) (A) (A) (A) (A) (A) (A) (A) (A)
 Beta  Orbitals:
       Occupied  (A) (A) (A) (A) (A) (A) (A) (A) (A) (A) (A) (A)
                 (A) (A) (A) (A) (A) (A) (A) (A) (A) (A) (A) (A)
                 (A) (A) (A) (A) (A) (A) (A) (A) (A) (A) (A) (A)
                 (A) (A) (A) (A) (A) (A) (A) (A) (A) (A) (A) (A)
                 (A) (A) (A) (A) (A) (A) (A) (A) (A) (A) (A) (A)
                 (A) (A) (A) (A) (A) (A) (A) (A) (A)
       Virtual   (A) (A) (A) (A) (A) (A) (A) (A) (A) (A) (A) (A)
                 (A) (A) (A) (A) (A) (A) (A) (A) (A) (A) (A) (A)
                 (A) (A) (A) (A) (A) (A) (A) (A) (A) (A) (A) (A)
                 (A) (A) (A) (A) (A) (A) (A) (A) (A) (A) (A) (A)
                 (A) (A) (A) (A) (A) (A) (A) (A) (A) (A) (A) (A)
                 (A) (A) (A) (A) (A) (A) (A) (A) (A) (A) (A) (A)
                 (A) (A) (A) (A) (A) (A) (A) (A) (A) (A) (A) (A)
                 (A) (A) (A) (A) (A) (A) (A) (A) (A) (A) (A) (A)
                 (A) (A) (A) (A) (A) (A) (A) (A) (A) (A) (A) (A)
                 (A) (A) (A) (A) (A) (A) (A) (A) (A) (A) (A) (A)
                 (A) (A) (A) (A) (A) (A) (A) (A) (A) (A) (A) (A)
                 (A) (A) (A) (A) (A) (A) (A) (A) (A) (A) (A) (A)
                 (A) (A) (A) (A) (A) (A) (A) (A) (A) (A) (A) (A)
                 (A) (A) (A) (A) (A) (A) (A) (A) (A) (A) (A) (A)
                 (A) (A) (A) (A) (A) (A) (A) (A) (A) (A) (A) (A)
                 (A) (A) (A) (A) (A) (A) (A) (A) (A) (A) (A) (A)
                 (A) (A) (A) (A) (A) (A) (A) (A) (A) (A) (A) (A)
                 (A) (A) (A) (A) (A) (A) (A) (A) (A) (A) (A) (A)
                 (A) (A) (A) (A) (A) (A) (A) (A) (A) (A) (A) (A)
                 (A) (A) (A) (A) (A) (A) (A) (A) (A) (A) (A) (A)
                 (A) (A) (A) (A) (A) (A) (A) (A) (A) (A) (A)
 Initial guess <Sx>= 0.0000 <Sy>= 0.0000 <Sz>= 0.5000 <S**2>= 0.7634 S= 0.5067
 Requested convergence on RMS density matrix=1.00D-08 within 128 cycles.
 Requested convergence on MAX density matrix=1.00D-06.
 Requested convergence on             energy=1.00D-06.
 No special actions if energy rises.
 Keep R1 and R2 ints in memory in canonical form, NReq=3795183918.
 EnCoef did     6 forward-backward iterations
 SCF Done:  E(UB3LYP) =  -2894.66633739     A.U. after   14 cycles
             Convg  =    0.9607D-08             -V/T =  2.0035
 <Sx>= 0.0000 <Sy>= 0.0000 <Sz>= 0.5000 <S**2>= 0.7633 S= 0.5066
 <L.S>= 0.000000000000E+00
 Annihilation of the first spin contaminant:
 S**2 before annihilation     0.7633,   after     0.7501
 QCSCF skips out because SCF is already converged.
 Calling FoFJK, ICntrl=      2127 FMM=F ISym2X=0 I1Cent= 0 IOpClX= 1 NMat=1 NMatS=1 NMatT=0.
 ***** Axes restored to original set *****
 -------------------------------------------------------------------
 Center     Atomic                   Forces (Hartrees/Bohr)
 Number     Number              X              Y              Z
 -------------------------------------------------------------------
      1       14          -0.000012586    0.000647634    0.000915943
      2       14          -0.001113406   -0.000042352    0.001086353
      3       14           0.000865542    0.000640325    0.000351815
      4       14          -0.000049493    0.000931869   -0.001526698
      5       14           0.000675547    0.000040724    0.000572555
      6       14           0.000229684    0.000009531    0.000167757
      7       14          -0.001324645   -0.000041798   -0.001259678
      8       14          -0.000065474   -0.000642850    0.000890963
      9       14           0.000719143   -0.000590665    0.000283404
     10       14           0.000075688   -0.000952418   -0.001482415
 -------------------------------------------------------------------
 Cartesian Forces:  Max     0.001526698 RMS     0.000766875

 GradGradGradGradGradGradGradGradGradGradGradGradGradGradGradGradGradGrad
 Berny optimization.
 Using GEDIIS/GDIIS optimizer.
 Internal  Forces:  Max     0.000736691 RMS     0.000192417
 Search for a local minimum.
 Step number   2 out of a maximum of  100
 All quantities printed in internal units (Hartrees-Bohrs-Radians)
 Mixed Optimization -- En-DIIS/RFO-DIIS
 Swaping is turned off.
 Update second derivatives using D2CorX and points    1    2
 DE= -1.34D-04 DEPred=-8.36D-05 R= 1.60D+00
 SS=  1.41D+00  RLast= 4.50D-02 DXNew= 5.0454D-01 1.3506D-01
 Trust test= 1.60D+00 RLast= 4.50D-02 DXMaxT set to 3.00D-01
     Eigenvalues ---    0.02870   0.03635   0.03864   0.04160   0.04323
     Eigenvalues ---    0.04745   0.06788   0.07278   0.07303   0.08069
     Eigenvalues ---    0.08367   0.08494   0.08961   0.09563   0.09882
     Eigenvalues ---    0.09898   0.10429   0.11536   0.12373   0.12653
     Eigenvalues ---    0.12995   0.13298   0.14854   0.154911000.00000
     Eigenvalues --- 1000.000001000.000001000.000001000.000001000.00000
     Eigenvalues --- 1000.000001000.000001000.000001000.000001000.00000
     Eigenvalues --- 1000.000001000.000001000.000001000.000001000.00000
     Eigenvalues --- 1000.000001000.000001000.000001000.000001000.00000
     Eigenvalues --- 1000.000001000.000001000.000001000.000001000.00000
     Eigenvalues --- 1000.000001000.000001000.000001000.000001000.00000
     Eigenvalues --- 1000.000001000.000001000.000001000.000001000.00000
     Eigenvalues --- 1000.000001000.000001000.000001000.000001000.00000
     Eigenvalues --- 1000.000001000.000001000.000001000.000001000.00000
     Eigenvalues --- 1000.000001000.000001000.000001000.000001000.00000
     Eigenvalues --- 1000.000001000.000001000.000001000.000001000.00000
     Eigenvalues --- 1000.000001000.000001000.000001000.000001000.00000
     Eigenvalues --- 1000.000001000.000001000.000001000.000001000.00000
     Eigenvalues --- 1000.000001000.000001000.000001000.000001000.00000
     Eigenvalues --- 1000.000001000.000001000.000001000.000001000.00000
     Eigenvalues --- 1000.000001000.000001000.000001000.000001000.00000
     Eigenvalues --- 1000.000001000.000001000.000001000.000001000.00000
     Eigenvalues --- 1000.000001000.000001000.000001000.000001000.00000
     Eigenvalues --- 1000.000001000.000001000.000001000.000001000.00000
     Eigenvalues --- 1000.000001000.000001000.000001000.000001000.00000
     Eigenvalues --- 1000.000001000.000001000.000001000.000001000.00000
     Eigenvalues --- 1000.000001000.000001000.000001000.000001000.00000
     Eigenvalues --- 1000.000001000.000001000.000001000.000001000.00000
     Eigenvalues --- 1000.00000
 En-DIIS/RFO-DIIS IScMMF=        0 using points:     2    1
 RFO step:  Lambda=-2.93364062D-05.
 DIIS coeffs:      2.50136     -1.50136
 Iteration  1 RMS(Cart)=  0.00337024 RMS(Int)=  0.00001263
 Iteration  2 RMS(Cart)=  0.00000517 RMS(Int)=  0.00000971
 Iteration  3 RMS(Cart)=  0.00000000 RMS(Int)=  0.00000971
 Variable       Old X    -DE/DX   Delta X   Delta X   Delta X     New X
                                  (DIIS)     (GDIIS)  (Total)
    R1        4.75557  -0.00014  -0.00752   0.00282  -0.00473   4.75085
    R2        4.56706  -0.00015  -0.00771   0.00251  -0.00521   4.56185
    R3        4.94086  -0.00055  -0.01666  -0.00174  -0.01839   4.92247
    R4        4.73230  -0.00056  -0.01739  -0.00284  -0.02021   4.71209
    R5        5.21682  -0.00050  -0.01557  -0.00310  -0.01867   5.19815
    R6        4.51778  -0.00025  -0.00761  -0.00025  -0.00785   4.50993
    R7        4.76486  -0.00074  -0.01885  -0.00205  -0.02089   4.74398
    R8        4.75667  -0.00015  -0.00741   0.00283  -0.00460   4.75206
    R9        5.21199  -0.00045  -0.01461  -0.00264  -0.01725   5.19473
   R10        4.83947  -0.00067  -0.01948  -0.00041  -0.01988   4.81959
   R11        4.73186  -0.00001  -0.00620   0.00384  -0.00238   4.72948
   R12        4.46563  -0.00005  -0.00342   0.00089  -0.00253   4.46310
   R13        5.33869  -0.00031  -0.00989  -0.00205  -0.01195   5.32674
[...]
          Condensed to atoms (all electrons):
              1          2          3          4          5          6
     1  Si  13.142303   0.230863   0.289135   0.155727  -0.000280  -0.013979
     2  Si   0.230863  12.802436   0.061907  -0.008428  -0.006069   0.312475
     3  Si   0.289135   0.061907  12.691166   0.151693   0.231274   0.323044
     4  Si   0.155727  -0.008428   0.151693  13.095499   0.190156   0.001464
     5  Si  -0.000280  -0.006069   0.231274   0.190156  13.153184  -0.015259
     6  Si  -0.013979   0.312475   0.323044   0.001464  -0.015259  13.073423
     7  Si   0.195563   0.191374  -0.006047   0.210590   0.011714  -0.004924
     8  Si  -0.006453   0.230787   0.000260   0.000382  -0.000275  -0.013992
     9  Si   0.000285   0.061853   0.044027  -0.001473   0.230539   0.323145
    10  Si   0.000406  -0.008453  -0.001472   0.100009   0.190045   0.001450
              7          8          9         10
     1  Si   0.195563  -0.006453   0.000285   0.000406
     2  Si   0.191374   0.230787   0.061853  -0.008453
     3  Si  -0.006047   0.000260   0.044027  -0.001472
     4  Si   0.210590   0.000382  -0.001473   0.100009
     5  Si   0.011714  -0.000275   0.230539   0.190045
     6  Si  -0.004924  -0.013992   0.323145   0.001450
     7  Si  12.812578   0.196800  -0.006016   0.209955
     8  Si   0.196800  13.141968   0.289039   0.154856
     9  Si  -0.006016   0.289039  12.690568   0.152555
    10  Si   0.209955   0.154856   0.152555  13.096365
 Mulliken atomic charges:
              1
     1  Si   0.006430
     2  Si   0.131254
     3  Si   0.215011
     4  Si   0.104381
     5  Si   0.014971
     6  Si   0.013152
     7  Si   0.188412
     8  Si   0.006628
     9  Si   0.215477
    10  Si   0.104285
 Sum of Mulliken atomic charges =   1.00000
 Mulliken charges with hydrogens summed into heavy atoms:
              1
     1  Si   0.006430
     2  Si   0.131254
     3  Si   0.215011
     4  Si   0.104381
     5  Si   0.014971
     6  Si   0.013152
     7  Si   0.188412
     8  Si   0.006628
     9  Si   0.215477
    10  Si   0.104285
 Sum of Mulliken charges with hydrogens summed into heavy atoms =   1.00000
          Atomic-Atomic Spin Densities.
              1          2          3          4          5          6
     1  Si   0.013639   0.016103   0.007847  -0.014533   0.001177  -0.002088
     2  Si   0.016103   0.183965  -0.006370   0.002729  -0.003055   0.014929
     3  Si   0.007847  -0.006370  -0.196349   0.005767  -0.011689   0.011989
     4  Si  -0.014533   0.002729   0.005767   0.065167   0.044903   0.000399
     5  Si   0.001177  -0.003055  -0.011689   0.044903   0.125506   0.003416
     6  Si  -0.002088   0.014929   0.011989   0.000399   0.003416   0.107088
     7  Si  -0.003602  -0.038057  -0.005767   0.013159  -0.012228   0.000582
     8  Si   0.001553   0.016152  -0.003749   0.000886   0.001186  -0.002085
     9  Si  -0.003780  -0.006303   0.003181  -0.001003  -0.011368   0.012130
    10  Si   0.000870   0.002691  -0.000936  -0.024261   0.044597   0.000414
              7          8          9         10
     1  Si  -0.003602   0.001553  -0.003780   0.000870
     2  Si  -0.038057   0.016152  -0.006303   0.002691
     3  Si  -0.005767  -0.003749   0.003181  -0.000936
     4  Si   0.013159   0.000886  -0.001003  -0.024261
     5  Si  -0.012228   0.001186  -0.011368   0.044597
     6  Si   0.000582  -0.002085   0.012130   0.000414
     7  Si   0.702013  -0.003995  -0.005690   0.013470
     8  Si  -0.003995   0.013022   0.007645  -0.014272
     9  Si  -0.005690   0.007645  -0.196262   0.005540
    10  Si   0.013470  -0.014272   0.005540   0.065247
 Mulliken atomic spin densities:
              1
     1  Si   0.017185
     2  Si   0.182782
     3  Si  -0.196076
     4  Si   0.093212
     5  Si   0.182445
     6  Si   0.146774
     7  Si   0.659887
     8  Si   0.016342
     9  Si  -0.195910
    10  Si   0.093360
 Sum of Mulliken atomic spin densities =   1.00000
 Electronic spatial extent (au):  <R**2>=           2768.5156
 Charge=              1.0000 electrons
 Dipole moment (field-independent basis, Debye):
    X=             -0.4034    Y=              0.0022    Z=             -0.0547  Tot=              0.4071
 Quadrupole moment (field-independent basis, Debye-Ang):
   XX=           -111.5451   YY=           -115.4388   ZZ=           -115.4819
   XY=              0.0006   XZ=             -3.2245   YZ=             -0.0033
 Traceless Quadrupole moment (field-independent basis, Debye-Ang):
   XX=              2.6102   YY=             -1.2836   ZZ=             -1.3266
   XY=              0.0006   XZ=             -3.2245   YZ=             -0.0033
 Octapole moment (field-independent basis, Debye-Ang**2):
  XXX=             -7.5942  YYY=             -0.0209  ZZZ=             -6.5764  XYY=             -2.1814
  XXY=             -0.0063  XXZ=             -0.2108  XZZ=             -3.5368  YZZ=              0.0531
  YYZ=              8.2794  XYZ=              0.0205
 Hexadecapole moment (field-independent basis, Debye-Ang**3):
 XXXX=          -1505.4937 YYYY=          -1495.0032 ZZZZ=          -1309.2676 XXXY=             -0.0599
 XXXZ=            -29.7624 YYYX=              0.0402 YYYZ=             -0.0456 ZZZX=            -19.4355
 ZZZY=             -0.0550 XXYY=           -514.2894 XXZZ=           -466.8372 YYZZ=           -470.2064
 XXYZ=              0.0282 YYXZ=             -1.2670 ZZXY=             -0.0003
 N-N= 1.525498792706D+03 E-N=-1.487124974473D+04  KE= 4.332979875764D+03
                          Isotropic Fermi Contact Couplings
        Atom                 a.u.       MegaHertz       Gauss      10(-4) cm-1
     1  Si(29)             0.00784      -6.96333      -2.48469      -2.32272
     2  Si(29)             0.10692     -95.02417     -33.90699     -31.69665
     3  Si(29)            -0.12431     110.48189      39.42268      36.85279
     4  Si(29)            -0.02533      22.50704       8.03107       7.50754
     5  Si(29)            -0.03580      31.81288      11.35163      10.61163
     6  Si(29)            -0.05253      46.68799      16.65944      15.57344
     7  Si(29)             0.65673    -583.65077    -208.26110    -194.68494
     8  Si(29)             0.00806      -7.16342      -2.55609      -2.38946
     9  Si(29)            -0.12501     111.09654      39.64201      37.05782
    10  Si(29)            -0.02605      23.14850       8.25996       7.72151
 --------------------------------------------------------
       Center         ----  Spin Dipole Couplings  ----
                      3XX-RR        3YY-RR        3ZZ-RR
 --------------------------------------------------------
     1   Atom       -0.038969      0.018457      0.020513
     2   Atom       -0.188492     -0.083413      0.271904
     3   Atom        0.091487      0.024148     -0.115635
     4   Atom       -0.071655     -0.139075      0.210730
     5   Atom       -0.359203     -0.159090      0.518293
     6   Atom       -0.280546      0.023142      0.257404
     7   Atom       -0.485447     -0.592056      1.077504
     8   Atom       -0.037964      0.019599      0.018366
     9   Atom        0.092323      0.026267     -0.118589
    10   Atom       -0.073194     -0.139561      0.212755
 --------------------------------------------------------
                        XY            XZ            YZ
 --------------------------------------------------------
     1   Atom       -0.087572     -0.152674      0.071181
     2   Atom       -0.000529      0.138577     -0.000465
     3   Atom       -0.086601     -0.017271      0.277221
     4   Atom       -0.054711     -0.030722     -0.026500
     5   Atom       -0.000029     -0.413852      0.001054
     6   Atom        0.001452     -0.011158      0.000410
     7   Atom        0.000074     -0.185644      0.000030
     8   Atom        0.088336     -0.151041     -0.070568
     9   Atom        0.086257     -0.017449     -0.278587
    10   Atom        0.053239     -0.028591      0.026368
 --------------------------------------------------------


 ---------------------------------------------------------------------------------
              Anisotropic Spin Dipole Couplings in Principal Axis System
 ---------------------------------------------------------------------------------

       Atom             a.u.   MegaHertz   Gauss  10(-4) cm-1        Axes

              Baa    -0.1681    17.838     6.365     5.950  0.7954  0.1492  0.5874
     1 Si(29) Bbb    -0.0423     4.492     1.603     1.498  0.1979  0.8522 -0.4844
              Bcc     0.2105   -22.329    -7.968    -7.448 -0.5728  0.5015  0.6483
 
              Baa    -0.2270    24.080     8.592     8.032  0.9635  0.0027 -0.2676
     2 Si(29) Bbb    -0.0834     8.849     3.157     2.952 -0.0022  1.0000  0.0022
              Bcc     0.3104   -32.928   -11.750   -10.984  0.2676 -0.0015  0.9635
 
              Baa    -0.3354    35.582    12.696    11.869 -0.0947 -0.6221  0.7772
     3 Si(29) Bbb     0.0608    -6.446    -2.300    -2.150  0.9114  0.2598  0.3190
              Bcc     0.2747   -29.136   -10.396    -9.719 -0.4004  0.7386  0.5424
 
              Baa    -0.1734    18.397     6.565     6.137  0.4942  0.8637  0.0991
     4 Si(29) Bbb    -0.0418     4.438     1.584     1.480  0.8641 -0.5005  0.0526
              Bcc     0.2153   -22.835    -8.148    -7.617 -0.0950 -0.0596  0.9937
 
              Baa    -0.5236    55.545    19.820    18.528  0.9294 -0.0010  0.3692
     5 Si(29) Bbb    -0.1591    16.877     6.022     5.630  0.0014  1.0000 -0.0007
              Bcc     0.6827   -72.422   -25.842   -24.157 -0.3692  0.0012  0.9294
 
              Baa    -0.2808    29.787    10.629     9.936  0.9998 -0.0048  0.0207
     6 Si(29) Bbb     0.0231    -2.456    -0.876    -0.819  0.0048  1.0000 -0.0015
              Bcc     0.2576   -27.331    -9.752    -9.117 -0.0207  0.0016  0.9998
 
              Baa    -0.5921    62.808    22.411    20.950 -0.0009  1.0000 -0.0001
     7 Si(29) Bbb    -0.5072    53.805    19.199    17.948  0.9932  0.0009  0.1164
              Bcc     1.0993  -116.613   -41.610   -38.898 -0.1164  0.0000  0.9932
 
              Baa    -0.1670    17.715     6.321     5.909  0.7938 -0.1532  0.5885
     8 Si(29) Bbb    -0.0421     4.461     1.592     1.488 -0.2000  0.8481  0.4906
              Bcc     0.2090   -22.177    -7.913    -7.397 -0.5743 -0.5072  0.6426
 
              Baa    -0.3376    35.817    12.780    11.947 -0.0925  0.6190  0.7799
     9 Si(29) Bbb     0.0616    -6.533    -2.331    -2.179  0.9122 -0.2612  0.3156
              Bcc     0.2760   -29.284   -10.449    -9.768  0.3991  0.7407 -0.5405
 
              Baa    -0.1727    18.316     6.536     6.110 -0.4910  0.8659 -0.0957
    10 Si(29) Bbb    -0.0442     4.689     1.673     1.564  0.8668  0.4965  0.0455
              Bcc     0.2169   -23.005    -8.209    -7.674 -0.0869  0.0606  0.9944
 

 ---------------------------------------------------------------------------------

 1\1\GINC-NODE68\SP\UHF\GFHFB2\Si10(1+,2)\TAM\23-Dec-2011\0\\#N Geom=Al
 lCheck Guess=TCheck SCRF=Check HF/GFHFB2 SCF=Tight\\si10-c\\1,2\Si,0,1
 .2767774161,-2.1545577401,-0.3024488246\Si,0,1.1032134402,0.0128088994
 ,-1.5812526397\Si,0,-1.0081340146,-1.4104854745,-0.5622795408\Si,0,-0.
 0633632107,-1.427997254,1.8044532337\Si,0,-2.0264201384,-0.0197823256,
 1.2654264298\Si,0,-1.1194812423,0.001913164,-2.4526432162\Si,0,1.70050
 60692,0.0097192195,0.8516934917\Si,0,1.2481600796,2.1738151392,-0.2873
 486121\Si,0,-1.026344213,1.3999727944,-0.5509544446\Si,0,-0.0849141861
 ,1.4145935877,1.8153541328\\Version=AM64L-G09RevA.02\State=2-A\HF=-288
 9.050153\S2=0.982386\S2-1=0.\S2A=0.797144\RMSD=5.109e-09\Dipole=0.0213
 306,0.0012869,-0.1587437\Quadrupole=-0.9803406,-0.954312,1.9346526,-0.
 0026411,2.4009275,0.0068244\PG=C01 [X(Si10)]\\@


 Sometimes the fool who rushes in gets the job done.
                                    -- Al Bernstein
 Diagonal vibrational polarizability:
        0.0000000       0.0000000       0.0000000

 Temperature=              298.150000 Pressure=                      1.000000
 E(ZPE)=                     0.014135 E(Thermal)=                    0.028702
 E(CCSD(T))=             -2889.768626 E(Empiric)=                   -0.137873
 DE(Plus)=                  -0.024385 DE(2DF)=                      -0.354912
 E(Delta-G3XP)=             -3.134066 DE(HF)=                       -0.066532
 G4(0 K)=                -2893.472259 G4 Energy=                 -2893.457692
 G4 Enthalpy=            -2893.456748 G4 Free Energy=            -2893.514097
 1\1\GINC-NODE68\Mixed\G4\G4\Si10(1+,2)\TAM\23-Dec-2011\0\\# G4 scfcyc=
 500 scf=xqc\\si10-c\\1,2\Si,0,1.2767774161,-2.1545577401,-0.3024488246
 \Si,0,1.1032134402,0.0128088994,-1.5812526397\Si,0,-1.0081340146,-1.41
 04854745,-0.5622795408\Si,0,-0.0633632107,-1.427997254,1.8044532337\Si
 ,0,-2.0264201384,-0.0197823256,1.2654264298\Si,0,-1.1194812423,0.00191
 3164,-2.4526432162\Si,0,1.7005060692,0.0097192195,0.8516934917\Si,0,1.
 2481600796,2.1738151392,-0.2873486121\Si,0,-1.026344213,1.3999727944,-
 0.5509544446\Si,0,-0.0849141861,1.4145935877,1.8153541328\\Version=AM6
 4L-G09RevA.02\State=2-A\MP2/GTBas1=-2889.7011604\MP4/GTBas1=-2889.8397
 021\CCSD(T)/G3Bas1=-2889.7686258\MP2/GTBas2=-2889.7236633\MP4/GTBas2=-
 2889.8640874\MP2/GTBas3=-2890.025598\MP4/GTBas3=-2890.1946142\HF/GTLar
 geXP=-2888.9860607\MP2/GTLargeXP=-2893.1821674\HF/GFHFB1=-2889.0401418
 \HF/GFHFB2=-2889.050153\G4=-2893.4722594\FreqCoord=2.4127596491,-4.071
 5240662,-0.5715454477,2.0847712682,0.024205312,-2.988134436,-1.9050971
 929,-2.6654312613,-1.0625543423,-0.1197391152,-2.6985237286,3.40992243
 13,-3.8293790917,-0.0373831776,2.3913093936,-2.1155129588,0.003615356,
 -4.6348239802,3.2134907581,0.0183666632,1.6094674485,2.3586807204,4.10
 79152765,-0.5430101815,-1.9395094806,2.6455651748,-1.0411530121,-0.160
 4645566,2.67319447,3.4305221452\PG=C01 [X(Si10)]\NImag=0\\0.06356721,-
 0.03064061,0.08377949,-0.00057753,0.01143585,0.03409040,-0.00215599,0.
 00552920,-0.00348046,0.07905888,0.00184518,-0.02151523,0.00802865,0.00
 012418,0.04697885,-0.00118678,0.00772557,-0.00791964,0.01639361,-0.000
 04045,0.08399335,-0.04997567,0.01250270,-0.00485211,-0.00924636,-0.007
 28458,0.00700912,0.06985358,0.02065537,-0.00755897,0.00092532,-0.00621
 865,-0.00745818,-0.00097483,-0.01185844,0.06786154,-0.00470769,0.00088
 523,-0.00449944,0.00498689,-0.00475675,-0.00354594,0.01155213,-0.01983
 900,0.09901669,-0.00347013,0.00405890,0.01143284,-0.00404372,-0.004285
 94,0.00281061,0.00428140,-0.00020944,-0.01665117,0.05427710,0.00616014
 ,-0.00258766,-0.00706219,-0.00260553,0.00084481,-0.00118122,-0.0013004
 2,0.00161908,0.00338115,-0.00216383,0.04963441,0.00566445,-0.00437791,
 -0.00749291,0.00091363,0.00619611,-0.00513258,-0.01338040,0.00757508,-
 0.03121479,-0.00408920,-0.02278998,0.06607023,-0.00293416,-0.00229390,
 0.00085434,0.00245033,-0.00004691,0.00736108,-0.00742441,0.00589626,0.
 01481982,-0.02276889,0.01540125,-0.00621303,0.07700593,0.00001678,-0.0
 0675466,-0.00147524,-0.00000428,0.00131669,0.00009485,0.00612091,-0.00
 884368,-0.01128596,0.01985946,-0.00978618,-0.00101812,0.00024358,0.044
 81462,-0.00095941,0.00152526,-0.00325424,0.00681667,0.00010659,-0.0098
 4917,0.00767683,-0.00995804,-0.01668234,-0.00429600,0.00482806,0.00108
 108,-0.01400937,-0.00003147,0.04482548,-0.00157644,-0.00025101,-0.0023
 5159,-0.04698254,-0.00017298,-0.02928210,0.00145959,0.00272624,-0.0019
 8406,-0.00521237,-0.00139939,0.00343363,0.00111985,-0.00000586,0.00636
 836,0.05945493,0.00073263,-0.00200259,0.00381063,-0.00022460,-0.000825
 57,-0.00016569,0.00604883,-0.01761610,0.03517830,0.00223693,-0.0048365
 4,0.00315278,0.00001910,-0.00130366,0.00004814,-0.00007158,0.05141873,
 0.00122104,-0.00162960,0.00085814,-0.01742596,-0.00008959,-0.00594885,
 -0.00506156,0.02522623,-0.04380217,-0.00089719,-0.00454296,-0.00553201
 ,-0.00585752,-0.00004951,-0.00037028,0.03030256,-0.00001572,0.11130070
 ,0.00182366,0.00024662,-0.00145486,-0.00340421,-0.00003475,-0.01190618
 ,-0.00291681,-0.00248312,-0.00003818,-0.02021920,-0.01435459,0.0111907
 7,-0.01509172,-0.00012116,-0.00374429,-0.00309260,-0.00001580,0.002258
 60,0.06474637,0.00050954,-0.03004672,-0.01535724,-0.00004464,0.0084791
 5,0.00005143,0.00019323,-0.00029136,0.00188911,-0.02125984,-0.01695615
 ,0.01356440,-0.00009014,0.00673448,-0.00002667,0.00000888,-0.00070912,
 0.00007193,-0.00007044,0.07965529,-0.00205127,-0.01352202,-0.00447189,
 -0.01078468,0.00007522,-0.03491840,0.00122703,-0.00116923,-0.00212682,
 0.01534375,0.01593574,-0.00775880,-0.00617439,-0.00003055,0.00296040,-
 0.00612797,-0.00001738,-0.00749651,-0.00608421,-0.00021018,0.06827967,
 0.00047574,0.00437778,0.00068001,-0.00205145,-0.00158901,-0.00108211,0
 .00018210,-0.00441545,0.00287788,-0.00579477,-0.00065692,-0.00095866,-
 0.00292186,0.00004622,-0.00096220,-0.00157590,-0.00074087,0.00120473,0
 .00179626,-0.00000140,-0.00229880,0.06267573,-0.00437044,-0.00178869,0
 .00142662,-0.00525852,-0.02145722,-0.00779053,-0.00447013,-0.00748953,
 0.00221245,-0.00191448,-0.00416901,-0.00158992,0.00234399,-0.00674400,
 -0.00155748,0.00027375,-0.00199797,0.00161422,0.00023282,-0.03049340,0
 .01346906,0.03032709,0.08495438,0.00065726,-0.00141257,-0.00172184,-0.
 00339058,-0.00814694,-0.00800455,-0.00112999,-0.00450550,-0.00120456,0
 .00079737,0.00613847,-0.00435212,0.00089936,0.00147391,-0.00327818,-0.
 00230517,-0.00385848,0.00084838,-0.00167319,0.01533398,-0.00436016,-0.
 00011283,-0.01123753,0.03380343,0.00006781,0.00458235,-0.00115961,-0.0
 0943280,0.00721679,0.00704847,-0.00523911,0.00043496,-0.00200626,-0.00
 100662,-0.00025465,-0.00098990,-0.00726736,-0.00614509,0.00745058,0.00
 161002,-0.00575833,-0.00477102,-0.00304358,-0.00026964,0.00121073,-0.0
 4951282,-0.01301603,-0.00491763,0.06950988,0.00449479,-0.00741268,0.00
 442597,0.00617534,-0.00730173,0.00101271,-0.00030294,-0.01408495,-0.00
 304437,0.00469173,-0.00611399,0.00011646,-0.00597377,-0.00913686,0.010
 06893,-0.00247039,-0.01724674,-0.02511053,0.00243791,-0.00025520,0.001
 20350,-0.02118471,-0.00800233,-0.00097172,0.01178754,0.06779568,0.0029
 6141,-0.00221260,-0.00120429,0.00496944,0.00477125,-0.00350738,-0.0020
 6674,0.00287712,0.00592470,-0.00888356,0.00445710,-0.00179380,0.014635
 93,0.01153816,-0.01645096,-0.00153424,-0.03502447,-0.04436535,-0.00001
 297,-0.00193242,-0.00215029,-0.00483859,-0.00093640,-0.00448849,0.0114
 4270,0.01983965,0.09955964,-0.00582204,0.00188797,0.00090898,-0.004192
 15,0.00422802,0.00283427,-0.00097433,-0.00452774,-0.00884936,0.0039572
 0,0.00117395,0.00442872,-0.02216771,-0.02001056,-0.00434118,-0.0052045
 5,-0.00222632,-0.00097367,-0.02059817,0.02102447,0.01573981,-0.0032730
 2,-0.00414806,0.01117540,0.00431457,0.00034449,-0.01667338,0.05396020,
 0.00059662,-0.00411229,-0.00615838,0.00252749,0.00093844,0.00126816,0.
 00035083,-0.00613785,-0.00462017,-0.00101349,-0.00764878,-0.00082889,-
 0.01549946,-0.01029675,-0.00500332,0.00136234,-0.00488045,0.00452554,0
 .01416252,-0.01611698,-0.01573417,-0.00616274,-0.00281222,0.00718639,0
 .00142209,0.00175880,-0.00337740,0.00225380,0.04930806,-0.00102146,0.0
 0158279,-0.00438428,0.00100144,-0.00614409,-0.00516685,-0.00097431,-0.
 00015714,-0.00186534,0.00443256,0.00083581,-0.00387431,-0.00631622,0.0
 0078393,0.00101821,0.00348057,-0.00310811,-0.00549205,0.01146450,-0.01
 338433,-0.00795720,0.00549057,0.00438951,-0.00724191,-0.01330806,-0.00
 754061,-0.03152377,-0.00424959,0.02274223,0.06648749\\-0.00001245,-0.0
 0000603,0.00002804,0.00003361,-0.00000438,0.00005863,0.00002004,-0.000
 02132,-0.00004012,-0.00002499,0.00003144,-0.00001081,-0.00000457,-0.00
 001057,-0.00002985,0.00001625,0.00000526,-0.00002141,-0.00003178,0.000
 01571,-0.00000041,0.00000387,-0.00000146,0.00001981,0.00005705,0.00000
 481,-0.00001574,-0.00005704,-0.00001346,0.00001187\\\@
 Job cpu time:  4 days 15 hours 52 minutes 57.2 seconds.
 File lengths (MBytes):  RWF= 329880 Int=      0 D2E=      0 Chk=     67 Scr=      1
 Normal termination of Gaussian 09 at Fri Dec 23 22:50:13 2011.
