 Entering Gaussian System, Link 0=g09
 Initial command:
 /usr/local/chem/g09A2/l1.exe /temp0/tam/Gau-18931.inp -scrdir=/temp0/tam/
 Entering Link 1 = /usr/local/chem/g09A2/l1.exe PID=     18932.
  
 Copyright (c) 1988,1990,1992,1993,1995,1998,2003,2009, Gaussian, Inc.
                  All Rights Reserved.
  
 This is part of the Gaussian(R) 09 program.  It is based on
 the Gaussian(R) 03 system (copyright 2003, Gaussian, Inc.),
 the Gaussian(R) 98 system (copyright 1998, Gaussian, Inc.),
 the Gaussian(R) 94 system (copyright 1995, Gaussian, Inc.),
 the Gaussian 92(TM) system (copyright 1992, Gaussian, Inc.),
 the Gaussian 90(TM) system (copyright 1990, Gaussian, Inc.),
 the Gaussian 88(TM) system (copyright 1988, Gaussian, Inc.),
 the Gaussian 86(TM) system (copyright 1986, Carnegie Mellon
 University), and the Gaussian 82(TM) system (copyright 1983,
 Carnegie Mellon University). Gaussian is a federally registered
 trademark of Gaussian, Inc.
  
 This software contains proprietary and confidential information,
 including trade secrets, belonging to Gaussian, Inc.
  
 This software is provided under written license and may be
 used, copied, transmitted, or stored only in accord with that
 written license.
  
 The following legend is applicable only to US Government
 contracts under FAR:
  
                    RESTRICTED RIGHTS LEGEND
  
 Use, reproduction and disclosure by the US Government is
 subject to restrictions as set forth in subparagraphs (a)
 and (c) of the Commercial Computer Software - Restricted
 Rights clause in FAR 52.227-19.
  
 Gaussian, Inc.
 340 Quinnipiac St., Bldg. 40, Wallingford CT 06492
  
  
 ---------------------------------------------------------------
 Warning -- This program may not be used in any manner that
 competes with the business of Gaussian, Inc. or will provide
 assistance to any competitor of Gaussian, Inc.  The licensee
 of this program is prohibited from giving any competitor of
 Gaussian, Inc. access to this program.  By using this program,
 the user acknowledges that Gaussian, Inc. is engaged in the
 business of creating and licensing software in the field of
 computational chemistry and represents and warrants to the
 licensee that it is not a competitor of Gaussian, Inc. and that
 it will not use this program in any manner prohibited above.
 ---------------------------------------------------------------
  

 Cite this work as:
 Gaussian 09, Revision A.02,
 M. J. Frisch, G. W. Trucks, H. B. Schlegel, G. E. Scuseria, 
 M. A. Robb, J. R. Cheeseman, G. Scalmani, V. Barone, B. Mennucci, 
 G. A. Petersson, H. Nakatsuji, M. Caricato, X. Li, H. P. Hratchian, 
 A. F. Izmaylov, J. Bloino, G. Zheng, J. L. Sonnenberg, M. Hada, 
 M. Ehara, K. Toyota, R. Fukuda, J. Hasegawa, M. Ishida, T. Nakajima, 
 Y. Honda, O. Kitao, H. Nakai, T. Vreven, J. A. Montgomery, Jr., 
 J. E. Peralta, F. Ogliaro, M. Bearpark, J. J. Heyd, E. Brothers, 
 K. N. Kudin, V. N. Staroverov, R. Kobayashi, J. Normand, 
 K. Raghavachari, A. Rendell, J. C. Burant, S. S. Iyengar, J. Tomasi, 
 M. Cossi, N. Rega, J. M. Millam, M. Klene, J. E. Knox, J. B. Cross, 
 V. Bakken, C. Adamo, J. Jaramillo, R. Gomperts, R. E. Stratmann, 
 O. Yazyev, A. J. Austin, R. Cammi, C. Pomelli, J. W. Ochterski, 
 R. L. Martin, K. Morokuma, V. G. Zakrzewski, G. A. Voth, 
 P. Salvador, J. J. Dannenberg, S. Dapprich, A. D. Daniels, 
 O. Farkas, J. B. Foresman, J. V. Ortiz, J. Cioslowski, 
 and D. J. Fox, Gaussian, Inc., Wallingford CT, 2009.
 
 ******************************************
 Gaussian 09:  AM64L-G09RevA.02 11-Jun-2009
                18-Dec-2011 
 ******************************************
 %NprocShared=12
 Will use up to   12 processors via shared memory.
 %mem=70050MB
 %chk=S9L-ne-d-01
 -----------------------
 # G4 scfcyc=500 scf=xqc
 -----------------------
 1/14=-1,18=20,19=15,26=3,38=1/1,3;
 2/9=110,12=2,17=6,18=5,40=1/2;
 3/5=35,7=104,11=2,16=1,25=1,30=1,71=1,74=-5/1,2,3;
 4//1;
 5/5=2,7=500,8=3,13=1,38=5/2,8;
 6/7=2,8=2,9=2,10=2,28=1/1;
 7//1,2,3,16;
 1/14=-1,18=20,19=15/3(2);
 2/9=110/2;
 99//99;
 2/9=110/2;
 3/5=35,7=104,11=2,16=1,25=1,30=1,71=1,74=-5/1,2,3;
 4/5=5,16=3/1;
 5/5=2,7=500,8=3,13=1,38=5/2,8;
 7//1,2,3,16;
 1/14=-1,18=20,19=15/3(-5);
 2/9=110/2;
 6/7=2,8=2,9=2,10=2,19=2,28=1/1;
 99/9=1/99;
 ------
 si11-n
 ------
 Symbolic Z-matrix:
 Charge =  0 Multiplicity = 1
 Si                   -3.27639   0.44085   0. 
 Si                   -1.25066   1.90793   0. 
 Si                    0.65657   1.19954   1.29482 
 Si                    2.10585  -0.90779   0. 
 Si                   -1.43897  -0.52536  -1.22094 
 Si                   -1.43897  -0.52536   1.22094 
 Si                    0.65657   1.19954  -1.29482 
 Si                    0.72117  -1.09378   2.17592 
 Si                    2.57232   1.62073   0. 
 Si                   -0.02866  -2.2225    0. 
 Si                    0.72117  -1.09378  -2.17592 
 

 GradGradGradGradGradGradGradGradGradGradGradGradGradGradGradGradGradGrad
 Berny optimization.
 Initialization pass.
                           ----------------------------
                           !    Initial Parameters    !
                           ! (Angstroms and Degrees)  !
 --------------------------                            --------------------------
 ! Name  Definition              Value          Derivative Info.                !
 --------------------------------------------------------------------------------
 ! R1    R(1,2)                  2.5012         estimate D2E/DX2                !
 ! R2    R(1,5)                  2.4084         estimate D2E/DX2                !
 ! R3    R(1,6)                  2.4084         estimate D2E/DX2                !
 ! R4    R(2,3)                  2.4116         estimate D2E/DX2                !
 ! R5    R(2,5)                  2.7289         estimate D2E/DX2                !
 ! R6    R(2,6)                  2.7289         estimate D2E/DX2                !
 ! R7    R(2,7)                  2.4116         estimate D2E/DX2                !
 ! R8    R(3,4)                  2.8667         estimate D2E/DX2                !
 ! R9    R(3,6)                  2.7152         estimate D2E/DX2                !
 ! R10   R(3,7)                  2.5896         estimate D2E/DX2                !
 ! R11   R(3,8)                  2.4576         estimate D2E/DX2                !
 ! R12   R(3,9)                  2.3503         estimate D2E/DX2                !
 ! R13   R(4,7)                  2.8667         estimate D2E/DX2                !
 ! R14   R(4,8)                  2.5858         estimate D2E/DX2                !
 ! R15   R(4,9)                  2.5712         estimate D2E/DX2                !
 ! R16   R(4,10)                 2.5069         estimate D2E/DX2                !
 ! R17   R(4,11)                 2.5858         estimate D2E/DX2                !
 ! R18   R(5,6)                  2.4419         estimate D2E/DX2                !
 ! R19   R(5,7)                  2.7152         estimate D2E/DX2                !
 ! R20   R(5,10)                 2.5219         estimate D2E/DX2                !
 ! R21   R(5,11)                 2.4293         estimate D2E/DX2                !
 ! R22   R(6,8)                  2.4293         estimate D2E/DX2                !
 ! R23   R(6,10)                 2.5219         estimate D2E/DX2                !
 ! R24   R(7,9)                  2.3503         estimate D2E/DX2                !
 ! R25   R(7,11)                 2.4576         estimate D2E/DX2                !
 ! R26   R(8,10)                 2.5634         estimate D2E/DX2                !
 ! R27   R(10,11)                2.5634         estimate D2E/DX2                !
 ! A1    A(1,2,3)              117.9191         estimate D2E/DX2                !
 ! A2    A(1,2,7)              117.9191         estimate D2E/DX2                !
 ! A3    A(3,2,5)               91.8837         estimate D2E/DX2                !
 ! A4    A(6,2,7)               91.8837         estimate D2E/DX2                !
 ! A5    A(2,3,4)              111.916          estimate D2E/DX2                !
 ! A6    A(2,3,8)              119.1689         estimate D2E/DX2                !
 ! A7    A(2,3,9)              107.2292         estimate D2E/DX2                !
 ! A8    A(4,3,6)               84.8878         estimate D2E/DX2                !
 ! A9    A(6,3,7)               88.4408         estimate D2E/DX2                !
 ! A10   A(6,3,9)              136.7146         estimate D2E/DX2                !
 ! A11   A(7,3,8)              111.0095         estimate D2E/DX2                !
 ! A12   A(8,3,9)              110.079          estimate D2E/DX2                !
 ! A13   A(3,4,10)              87.424          estimate D2E/DX2                !
 ! A14   A(3,4,11)              99.3364         estimate D2E/DX2                !
 ! A15   A(7,4,8)               99.3364         estimate D2E/DX2                !
 ! A16   A(7,4,10)              87.424          estimate D2E/DX2                !
 ! A17   A(8,4,9)               99.6646         estimate D2E/DX2                !
 ! A18   A(8,4,11)             114.5926         estimate D2E/DX2                !
 ! A19   A(9,4,10)             132.0826         estimate D2E/DX2                !
 ! A20   A(9,4,11)              99.6646         estimate D2E/DX2                !
 ! A21   A(1,5,7)              110.3497         estimate D2E/DX2                !
 ! A22   A(1,5,10)             116.8206         estimate D2E/DX2                !
 ! A23   A(1,5,11)             166.3047         estimate D2E/DX2                !
 ! A24   A(2,5,10)             110.1733         estimate D2E/DX2                !
 ! A25   A(2,5,11)             108.8541         estimate D2E/DX2                !
 ! A26   A(6,5,7)               91.5592         estimate D2E/DX2                !
 ! A27   A(6,5,11)             113.1487         estimate D2E/DX2                !
 ! A28   A(7,5,10)              90.5206         estimate D2E/DX2                !
 ! A29   A(1,6,3)              110.3497         estimate D2E/DX2                !
 ! A30   A(1,6,8)              166.3047         estimate D2E/DX2                !
 ! A31   A(1,6,10)             116.8206         estimate D2E/DX2                !
 ! A32   A(2,6,8)              108.8541         estimate D2E/DX2                !
 ! A33   A(2,6,10)             110.1733         estimate D2E/DX2                !
 ! A34   A(3,6,5)               91.5592         estimate D2E/DX2                !
 ! A35   A(3,6,10)              90.5206         estimate D2E/DX2                !
 ! A36   A(5,6,8)              113.1487         estimate D2E/DX2                !
 ! A37   A(2,7,4)              111.916          estimate D2E/DX2                !
 ! A38   A(2,7,9)              107.2292         estimate D2E/DX2                !
 ! A39   A(2,7,11)             119.1689         estimate D2E/DX2                !
 ! A40   A(3,7,5)               88.4408         estimate D2E/DX2                !
 ! A41   A(3,7,11)             111.0095         estimate D2E/DX2                !
 ! A42   A(4,7,5)               84.8878         estimate D2E/DX2                !
 ! A43   A(5,7,9)              136.7146         estimate D2E/DX2                !
 ! A44   A(9,7,11)             110.079          estimate D2E/DX2                !
 ! A45   A(3,8,10)              95.674          estimate D2E/DX2                !
 ! A46   A(4,8,6)               97.3849         estimate D2E/DX2                !
 ! A47   A(4,10,5)              97.0787         estimate D2E/DX2                !
 ! A48   A(4,10,6)              97.0787         estimate D2E/DX2                !
 ! A49   A(5,10,8)             106.1541         estimate D2E/DX2                !
 ! A50   A(6,10,11)            106.1541         estimate D2E/DX2                !
 ! A51   A(8,10,11)            116.1738         estimate D2E/DX2                !
 ! A52   A(4,11,5)              97.3849         estimate D2E/DX2                !
 ! A53   A(7,11,10)             95.674          estimate D2E/DX2                !
 ! D1    D(1,2,3,4)             76.1317         estimate D2E/DX2                !
 ! D2    D(1,2,3,8)             12.1546         estimate D2E/DX2                !
 ! D3    D(1,2,3,9)            137.9392         estimate D2E/DX2                !
 ! D4    D(5,2,3,4)             25.7804         estimate D2E/DX2                !
 ! D5    D(5,2,3,8)            -38.1967         estimate D2E/DX2                !
 ! D6    D(5,2,3,9)             87.5879         estimate D2E/DX2                !
 ! D7    D(3,2,5,10)            13.762          estimate D2E/DX2                !
 ! D8    D(3,2,5,11)           -52.8247         estimate D2E/DX2                !
 ! D9    D(7,2,6,8)             52.8247         estimate D2E/DX2                !
 ! D10   D(7,2,6,10)           -13.762          estimate D2E/DX2                !
 ! D11   D(1,2,7,4)            -76.1317         estimate D2E/DX2                !
 ! D12   D(1,2,7,9)           -137.9392         estimate D2E/DX2                !
 ! D13   D(1,2,7,11)           -12.1546         estimate D2E/DX2                !
 ! D14   D(6,2,7,4)            -25.7804         estimate D2E/DX2                !
 ! D15   D(6,2,7,9)            -87.5879         estimate D2E/DX2                !
 ! D16   D(6,2,7,11)            38.1967         estimate D2E/DX2                !
 ! D17   D(2,3,4,10)           -57.1634         estimate D2E/DX2                !
 ! D18   D(2,3,4,11)             2.2932         estimate D2E/DX2                !
 ! D19   D(6,3,4,10)             2.1458         estimate D2E/DX2                !
 ! D20   D(6,3,4,11)            61.6024         estimate D2E/DX2                !
 ! D21   D(4,3,6,1)           -121.1187         estimate D2E/DX2                !
 ! D22   D(4,3,6,5)            -63.1783         estimate D2E/DX2                !
 ! D23   D(4,3,6,10)            -2.1309         estimate D2E/DX2                !
 ! D24   D(7,3,6,1)            -57.9404         estimate D2E/DX2                !
 ! D25   D(7,3,6,5)              0.0            estimate D2E/DX2                !
 ! D26   D(7,3,6,10)            61.0473         estimate D2E/DX2                !
 ! D27   D(9,3,6,1)            -91.5632         estimate D2E/DX2                !
 ! D28   D(9,3,6,5)            -33.6227         estimate D2E/DX2                !
 ! D29   D(9,3,6,10)            27.4246         estimate D2E/DX2                !
 ! D30   D(6,3,7,5)              0.0            estimate D2E/DX2                !
 ! D31   D(6,3,7,11)           -52.1548         estimate D2E/DX2                !
 ! D32   D(8,3,7,5)             52.1548         estimate D2E/DX2                !
 ! D33   D(8,3,7,11)             0.0            estimate D2E/DX2                !
 ! D34   D(2,3,8,10)            45.7848         estimate D2E/DX2                !
 ! D35   D(7,3,8,10)           -17.8364         estimate D2E/DX2                !
 ! D36   D(9,3,8,10)           -78.6308         estimate D2E/DX2                !
 ! D37   D(8,4,7,2)             -2.2932         estimate D2E/DX2                !
 ! D38   D(8,4,7,5)            -61.6024         estimate D2E/DX2                !
 ! D39   D(10,4,7,2)            57.1634         estimate D2E/DX2                !
 ! D40   D(10,4,7,5)            -2.1458         estimate D2E/DX2                !
 ! D41   D(7,4,8,6)             33.0772         estimate D2E/DX2                !
 ! D42   D(9,4,8,6)             84.6967         estimate D2E/DX2                !
 ! D43   D(11,4,8,6)           -20.6838         estimate D2E/DX2                !
 ! D44   D(3,4,10,5)            56.0804         estimate D2E/DX2                !
 ! D45   D(3,4,10,6)            -2.3188         estimate D2E/DX2                !
 ! D46   D(7,4,10,5)             2.3188         estimate D2E/DX2                !
 ! D47   D(7,4,10,6)           -56.0804         estimate D2E/DX2                !
 ! D48   D(9,4,10,5)            29.1996         estimate D2E/DX2                !
 ! D49   D(9,4,10,6)           -29.1996         estimate D2E/DX2                !
 ! D50   D(3,4,11,5)           -33.0772         estimate D2E/DX2                !
 ! D51   D(8,4,11,5)            20.6838         estimate D2E/DX2                !
 ! D52   D(9,4,11,5)           -84.6967         estimate D2E/DX2                !
 ! D53   D(7,5,6,3)              0.0            estimate D2E/DX2                !
 ! D54   D(7,5,6,8)            -54.2012         estimate D2E/DX2                !
 ! D55   D(11,5,6,3)            54.2012         estimate D2E/DX2                !
 ! D56   D(11,5,6,8)             0.0            estimate D2E/DX2                !
 ! D57   D(1,5,7,3)             57.9404         estimate D2E/DX2                !
 ! D58   D(1,5,7,4)            121.1187         estimate D2E/DX2                !
 ! D59   D(1,5,7,9)             91.5632         estimate D2E/DX2                !
 ! D60   D(6,5,7,3)              0.0            estimate D2E/DX2                !
 ! D61   D(6,5,7,4)             63.1783         estimate D2E/DX2                !
 ! D62   D(6,5,7,9)             33.6227         estimate D2E/DX2                !
 ! D63   D(10,5,7,3)           -61.0473         estimate D2E/DX2                !
 ! D64   D(10,5,7,4)             2.1309         estimate D2E/DX2                !
 ! D65   D(10,5,7,9)           -27.4246         estimate D2E/DX2                !
 ! D66   D(1,5,10,4)          -115.6668         estimate D2E/DX2                !
 ! D67   D(1,5,10,8)           -53.5444         estimate D2E/DX2                !
 ! D68   D(2,5,10,4)           -52.3594         estimate D2E/DX2                !
 ! D69   D(2,5,10,8)             9.763          estimate D2E/DX2                !
 ! D70   D(7,5,10,4)            -2.4459         estimate D2E/DX2                !
 ! D71   D(7,5,10,8)            59.6765         estimate D2E/DX2                !
 ! D72   D(1,5,11,4)            42.9753         estimate D2E/DX2                !
 ! D73   D(2,5,11,4)            56.4185         estimate D2E/DX2                !
 ! D74   D(6,5,11,4)           -11.9787         estimate D2E/DX2                !
 ! D75   D(1,6,8,4)            -42.9753         estimate D2E/DX2                !
 ! D76   D(2,6,8,4)            -56.4185         estimate D2E/DX2                !
 ! D77   D(5,6,8,4)             11.9787         estimate D2E/DX2                !
 ! D78   D(1,6,10,4)           115.6668         estimate D2E/DX2                !
 ! D79   D(1,6,10,11)           53.5444         estimate D2E/DX2                !
 ! D80   D(2,6,10,4)            52.3594         estimate D2E/DX2                !
 ! D81   D(2,6,10,11)           -9.763          estimate D2E/DX2                !
 ! D82   D(3,6,10,4)             2.4459         estimate D2E/DX2                !
 ! D83   D(3,6,10,11)          -59.6765         estimate D2E/DX2                !
 ! D84   D(2,7,11,10)          -45.7848         estimate D2E/DX2                !
 ! D85   D(3,7,11,10)           17.8364         estimate D2E/DX2                !
 ! D86   D(9,7,11,10)           78.6308         estimate D2E/DX2                !
 ! D87   D(3,8,10,5)           -28.0225         estimate D2E/DX2                !
 ! D88   D(3,8,10,11)           32.7451         estimate D2E/DX2                !
 ! D89   D(6,10,11,7)           28.0225         estimate D2E/DX2                !
 ! D90   D(8,10,11,7)          -32.7451         estimate D2E/DX2                !
 --------------------------------------------------------------------------------
 Trust Radius=3.00D-01 FncErr=1.00D-07 GrdErr=1.00D-06
 Number of steps in this run= 100 maximum allowed number of steps= 100.
 GradGradGradGradGradGradGradGradGradGradGradGradGradGradGradGradGradGrad

                          Input orientation:                          
 ---------------------------------------------------------------------
 Center     Atomic      Atomic             Coordinates (Angstroms)
 Number     Number       Type             X           Y           Z
 ---------------------------------------------------------------------
      1         14           0       -3.276393    0.440847    0.000000
      2         14           0       -1.250661    1.907927    0.000000
      3         14           0        0.656573    1.199538    1.294816
      4         14           0        2.105853   -0.907789    0.000000
      5         14           0       -1.438973   -0.525363   -1.220935
      6         14           0       -1.438973   -0.525363    1.220935
      7         14           0        0.656573    1.199538   -1.294816
      8         14           0        0.721172   -1.093780    2.175924
      9         14           0        2.572318    1.620733    0.000000
     10         14           0       -0.028660   -2.222496    0.000000
     11         14           0        0.721172   -1.093780   -2.175924
 ---------------------------------------------------------------------
                    Distance matrix (angstroms):
                    1          2          3          4          5
     1  Si   0.000000
     2  Si   2.501183   0.000000
     3  Si   4.209558   2.411618   0.000000
     4  Si   5.548638   4.381146   2.866669   0.000000
     5  Si   2.408393   2.728928   3.700756   3.768650   0.000000
     6  Si   2.408393   2.728928   2.715153   3.768650   2.441870
     7  Si   4.209558   2.411618   2.589631   2.866669   2.715153
     8  Si   4.803150   4.199168   2.457607   2.585842   4.065461
     9  Si   5.966536   3.833751   2.350326   2.571190   4.710294
    10  Si   4.200138   4.307398   3.722420   2.506910   2.521889
    11  Si   4.803150   4.199168   4.160470   2.585842   2.429265
                    6          7          8          9         10
     6  Si   0.000000
     7  Si   3.700756   0.000000
     8  Si   2.429265   4.160470   0.000000
     9  Si   4.710294   2.350326   3.940808   0.000000
    10  Si   2.521889   3.722420   2.563375   4.640636   0.000000
    11  Si   4.065461   2.457607   4.351848   3.940808   2.563375
                   11
    11  Si   0.000000
 Stoichiometry    Si11
 Framework group  CS[SG(Si5),X(Si6)]
 Deg. of freedom    16
 Full point group                 CS      NOp   2
 Largest Abelian subgroup         CS      NOp   2
 Largest concise Abelian subgroup CS      NOp   2
                         Standard orientation:                         
 ---------------------------------------------------------------------
 Center     Atomic      Atomic             Coordinates (Angstroms)
 Number     Number       Type             X           Y           Z
 ---------------------------------------------------------------------
      1         14           0       -0.407429    3.280716    0.000000
      2         14           0        1.526853    1.695008    0.000000
      3         14           0        1.327129   -0.329705    1.294816
      4         14           0       -0.342018   -2.267537    0.000000
      5         14           0       -0.874252    1.257909   -1.220935
      6         14           0       -0.874252    1.257909    1.220935
      7         14           0        1.327129   -0.329705   -1.294816
      8         14           0       -0.874252   -0.975771    2.175924
      9         14           0        2.221968   -2.075199    0.000000
     10         14           0       -2.156624   -0.537854    0.000000
     11         14           0       -0.874252   -0.975771   -2.175924
 ---------------------------------------------------------------------
 Rotational constants (GHZ):      0.5336346      0.3996618      0.3807610
 Standard basis: GTBas3 (6D, 7F)
 There are   206 symmetry adapted basis functions of A'  symmetry.
 There are   146 symmetry adapted basis functions of A"  symmetry.
 Integral buffers will be    131072 words long.
 Raffenetti 2 integral format.
 Two-electron integral symmetry is turned on.
   352 basis functions,   748 primitive gaussians,   385 cartesian basis functions
    77 alpha electrons       77 beta electrons
       nuclear repulsion energy      1792.0937056955 Hartrees.
 NAtoms=   11 NActive=   11 NUniq=    8 SFac= 1.42D+00 NAtFMM=   80 NAOKFM=F Big=F
 One-electron integrals computed using PRISM.
 NBasis=   352 RedAO= T  NBF=   206   146
 NBsUse=   352 1.00D-06 NBFU=   206   146
 Harris functional with IExCor=  402 diagonalized for initial guess.
 ExpMin= 7.78D-02 ExpMax= 1.61D+04 ExpMxC= 2.43D+03 IAcc=2 IRadAn=         0 AccDes= 0.00D+00
 HarFok:  IExCor=  402 AccDes= 0.00D+00 IRadAn=         0 IDoV= 1
 ScaDFX=  1.000000  1.000000  1.000000  1.000000
 FoFCou: FMM=F IPFlag=           0 FMFlag=      100000 FMFlg1=           0
         NFxFlg=           0 DoJE=T BraDBF=F KetDBF=T FulRan=T
         Omega=  0.000000  0.000000  1.000000  0.000000  0.000000 ICntrl=     500 IOpCl=  0
         NMat0=    1 NMatS0=    1 NMatT0=    0 NMatD0=    1 NMtDS0=    0 NMtDT0=    0
         I1Cent=           4 NGrid=           0.
 Petite list used in FoFCou.
 Initial guess orbital symmetries:
       Occupied  (A") (A') (A") (A') (A') (A') (A') (A") (A') (A')
                 (A') (A') (A") (A") (A') (A') (A') (A') (A") (A')
                 (A') (A') (A') (A") (A') (A") (A') (A") (A') (A")
                 (A') (A") (A') (A") (A') (A") (A') (A') (A') (A")
                 (A') (A") (A') (A") (A') (A') (A') (A") (A') (A")
                 (A") (A') (A') (A') (A") (A') (A') (A') (A") (A')
                 (A') (A') (A") (A") (A') (A') (A') (A") (A') (A")
                 (A") (A') (A') (A') (A") (A') (A')
       Virtual   (A') (A") (A") (A') (A') (A') (A') (A") (A") (A')
                 (A') (A") (A") (A') (A') (A") (A") (A') (A') (A")
                 (A') (A") (A') (A') (A") (A') (A") (A') (A') (A')
                 (A") (A") (A") (A') (A') (A') (A') (A') (A") (A')
                 (A") (A') (A') (A") (A') (A") (A') (A') (A") (A')
                 (A') (A") (A") (A') (A") (A') (A") (A') (A") (A')
                 (A") (A") (A') (A') (A") (A') (A") (A') (A") (A")
                 (A') (A') (A') (A") (A') (A') (A') (A") (A") (A')
                 (A") (A') (A') (A") (A') (A") (A") (A') (A') (A')
                 (A') (A") (A") (A') (A") (A') (A') (A") (A') (A")
                 (A') (A") (A') (A") (A") (A') (A') (A') (A") (A')
                 (A") (A') (A") (A') (A") (A") (A') (A') (A') (A')
                 (A') (A") (A') (A") (A') (A") (A") (A') (A') (A")
                 (A') (A') (A') (A") (A") (A') (A") (A") (A') (A')
                 (A") (A') (A') (A") (A') (A') (A') (A") (A') (A")
                 (A') (A") (A') (A") (A') (A") (A') (A") (A') (A')
                 (A') (A') (A") (A") (A') (A") (A') (A") (A') (A")
                 (A") (A') (A") (A') (A') (A') (A") (A") (A') (A")
                 (A') (A") (A') (A') (A") (A') (A") (A') (A') (A")
                 (A") (A') (A') (A") (A') (A") (A') (A") (A') (A")
                 (A") (A') (A") (A') (A') (A") (A') (A") (A') (A')
                 (A") (A") (A') (A') (A") (A') (A') (A") (A') (A")
                 (A') (A") (A') (A") (A') (A') (A') (A") (A") (A')
                 (A') (A") (A') (A') (A") (A") (A') (A") (A') (A")
                 (A') (A') (A") (A') (A") (A') (A") (A') (A") (A')
                 (A') (A") (A') (A") (A") (A') (A') (A") (A') (A')
                 (A") (A") (A') (A") (A') (A') (A') (A') (A") (A')
                 (A') (A") (A') (A') (A")
 The electronic state of the initial guess is 1-A'.
 Requested convergence on RMS density matrix=1.00D-08 within 128 cycles.
 Requested convergence on MAX density matrix=1.00D-06.
 Requested convergence on             energy=1.00D-06.
 No special actions if energy rises.
 Keep R1 ints in memory in canonical form, NReq=2789968036.
 Integral accuracy reduced to 1.0D-05 until final iterations.
 Initial convergence to 1.0D-05 achieved.  Increase integral accuracy.
 SCF Done:  E(RB3LYP) =  -3184.41248630     A.U. after   18 cycles
             Convg  =    0.7852D-08             -V/T =  2.0036
 QCSCF skips out because SCF is already converged.

 **********************************************************************

            Population analysis using the SCF density.

 **********************************************************************

 Orbital symmetries:
       Occupied  (A") (A') (A') (A") (A') (A') (A") (A') (A') (A')
                 (A') (A') (A") (A') (A') (A") (A') (A") (A') (A')
                 (A') (A') (A') (A") (A') (A") (A') (A") (A") (A')
                 (A') (A') (A") (A') (A") (A") (A') (A') (A") (A')
                 (A") (A') (A') (A") (A") (A') (A') (A") (A") (A')
                 (A') (A') (A') (A") (A') (A') (A') (A') (A") (A')
                 (A') (A') (A") (A") (A') (A') (A') (A") (A') (A")
                 (A') (A') (A") (A') (A") (A') (A')
       Virtual   (A') (A") (A") (A') (A') (A') (A') (A") (A") (A')
                 (A") (A') (A") (A') (A') (A") (A") (A') (A') (A")
                 (A') (A") (A') (A') (A") (A') (A') (A') (A") (A')
                 (A") (A") (A') (A') (A") (A') (A') (A') (A") (A')
                 (A") (A') (A') (A") (A") (A') (A') (A') (A") (A')
                 (A") (A") (A') (A') (A") (A') (A") (A') (A") (A')
                 (A") (A') (A") (A') (A") (A") (A') (A') (A") (A')
                 (A') (A") (A") (A') (A') (A') (A') (A") (A") (A')
                 (A") (A') (A') (A") (A') (A") (A") (A') (A') (A')
                 (A') (A") (A") (A") (A') (A') (A') (A") (A') (A")
                 (A') (A") (A') (A") (A") (A') (A') (A') (A") (A')
                 (A") (A') (A") (A') (A") (A') (A") (A') (A') (A')
                 (A') (A") (A') (A") (A") (A') (A") (A') (A') (A')
                 (A") (A') (A') (A") (A") (A') (A") (A") (A') (A')
                 (A') (A") (A') (A") (A') (A') (A') (A") (A') (A")
                 (A') (A") (A') (A') (A") (A') (A") (A") (A') (A')
                 (A') (A') (A") (A") (A') (A") (A') (A') (A") (A")
                 (A') (A") (A") (A') (A') (A') (A") (A") (A') (A")
                 (A') (A') (A") (A') (A") (A') (A") (A') (A") (A')
                 (A") (A') (A') (A') (A") (A") (A') (A") (A') (A")
                 (A") (A') (A') (A") (A') (A") (A') (A") (A') (A")
                 (A') (A") (A') (A') (A") (A') (A') (A") (A') (A")
                 (A") (A') (A') (A") (A') (A') (A") (A') (A") (A')
                 (A') (A") (A') (A") (A') (A") (A') (A") (A') (A')
                 (A') (A") (A") (A') (A") (A') (A") (A') (A") (A")
                 (A') (A') (A") (A') (A") (A') (A') (A") (A') (A')
                 (A") (A") (A') (A') (A") (A') (A') (A') (A") (A')
                 (A') (A") (A') (A') (A")
 The electronic state is 1-A'.
 Alpha  occ. eigenvalues --  -66.16555 -66.16555 -66.16217 -66.15778 -66.15777
 Alpha  occ. eigenvalues --  -66.15721 -66.15711 -66.15711 -66.15558 -66.15421
 Alpha  occ. eigenvalues --  -66.14803  -5.31047  -5.31042  -5.30540  -5.30237
 Alpha  occ. eigenvalues --   -5.30234  -5.30103  -5.30059  -5.30059  -5.29992
 Alpha  occ. eigenvalues --   -5.29805  -5.29372  -3.67071  -3.67069  -3.66864
 Alpha  occ. eigenvalues --   -3.66835  -3.66698  -3.66694  -3.66468  -3.66287
 Alpha  occ. eigenvalues --   -3.66236  -3.66230  -3.66221  -3.66038  -3.66034
 Alpha  occ. eigenvalues --   -3.65944  -3.65943  -3.65937  -3.65933  -3.65931
 Alpha  occ. eigenvalues --   -3.65926  -3.65899  -3.65897  -3.65896  -3.65860
 Alpha  occ. eigenvalues --   -3.65854  -3.65740  -3.65740  -3.65684  -3.65632
 Alpha  occ. eigenvalues --   -3.65596  -3.65512  -3.65222  -3.65221  -3.65077
 Alpha  occ. eigenvalues --   -0.67767  -0.59834  -0.57840  -0.56511  -0.48569
 Alpha  occ. eigenvalues --   -0.45727  -0.42945  -0.42242  -0.41201  -0.37817
 Alpha  occ. eigenvalues --   -0.34375  -0.29898  -0.28038  -0.27880  -0.27152
 Alpha  occ. eigenvalues --   -0.26332  -0.25819  -0.25422  -0.24136  -0.24026
 Alpha  occ. eigenvalues --   -0.23096  -0.19360
 Alpha virt. eigenvalues --   -0.11318  -0.11112  -0.09864  -0.08626  -0.07471
 Alpha virt. eigenvalues --   -0.05325  -0.04860  -0.04564  -0.04157  -0.03422
 Alpha virt. eigenvalues --   -0.02965  -0.02947  -0.01179  -0.00882   0.01286
 Alpha virt. eigenvalues --    0.02356   0.04367   0.05504   0.06492   0.06732
 Alpha virt. eigenvalues --    0.07379   0.07825   0.10092   0.12010   0.12535
 Alpha virt. eigenvalues --    0.13782   0.14049   0.14768   0.14771   0.15093
 Alpha virt. eigenvalues --    0.16318   0.16698   0.16800   0.17069   0.17671
 Alpha virt. eigenvalues --    0.18034   0.18210   0.19043   0.19782   0.20259
 Alpha virt. eigenvalues --    0.20701   0.22593   0.22617   0.22702   0.23618
 Alpha virt. eigenvalues --    0.24485   0.24802   0.25334   0.26407   0.27355
 Alpha virt. eigenvalues --    0.27918   0.28051   0.28203   0.29071   0.29282
 Alpha virt. eigenvalues --    0.29690   0.30608   0.31229   0.31405   0.32812
 Alpha virt. eigenvalues --    0.33133   0.34091   0.34288   0.35498   0.35785
 Alpha virt. eigenvalues --    0.36345   0.36886   0.37567   0.38624   0.38888
 Alpha virt. eigenvalues --    0.39127   0.39159   0.41874   0.42155   0.43687
 Alpha virt. eigenvalues --    0.44040   0.44254   0.45226   0.45912   0.47540
 Alpha virt. eigenvalues --    0.49143   0.49497   0.49582   0.51098   0.51257
 Alpha virt. eigenvalues --    0.51450   0.52514   0.52548   0.53615   0.54464
 Alpha virt. eigenvalues --    0.54999   0.56623   0.57323   0.58358   0.58506
 Alpha virt. eigenvalues --    0.60066   0.61487   0.62264   0.62312   0.63324
 Alpha virt. eigenvalues --    0.64273   0.65076   0.65809   0.66446   0.67393
 Alpha virt. eigenvalues --    0.67457   0.67887   0.68125   0.69348   0.70040
 Alpha virt. eigenvalues --    0.71090   0.71162   0.72621   0.72987   0.73146
 Alpha virt. eigenvalues --    0.73452   0.74381   0.74777   0.76030   0.79499
 Alpha virt. eigenvalues --    0.80749   0.80904   0.84553   0.84561   0.87549
 Alpha virt. eigenvalues --    0.87717   0.89569   0.89605   0.90119   0.93817
 Alpha virt. eigenvalues --    0.94004   0.95348   0.96550   0.97283   0.98019
 Alpha virt. eigenvalues --    0.98151   0.98369   1.00293   1.00539   1.01394
 Alpha virt. eigenvalues --    1.02517   1.03347   1.04094   1.06352   1.06367
 Alpha virt. eigenvalues --    1.06697   1.08397   1.09142   1.10056   1.10762
 Alpha virt. eigenvalues --    1.11293   1.12241   1.12748   1.13138   1.13592
 Alpha virt. eigenvalues --    1.16752   1.16785   1.18366   1.18588   1.19790
 Alpha virt. eigenvalues --    1.20494   1.21718   1.22184   1.23268   1.24227
 Alpha virt. eigenvalues --    1.24983   1.25703   1.27254   1.28031   1.29086
 Alpha virt. eigenvalues --    1.29594   1.29711   1.31552   1.31680   1.32798
 Alpha virt. eigenvalues --    1.33719   1.35128   1.37065   1.37519   1.39019
 Alpha virt. eigenvalues --    1.39716   1.39943   1.40132   1.41726   1.42452
 Alpha virt. eigenvalues --    1.43185   1.44277   1.46257   1.47019   1.47234
 Alpha virt. eigenvalues --    1.47660   1.48863   1.49539   1.49942   1.50169
 Alpha virt. eigenvalues --    1.51282   1.52758   1.53339   1.54275   1.55040
 Alpha virt. eigenvalues --    1.56099   1.57030   1.58711   1.59044   1.61681
 Alpha virt. eigenvalues --    1.64453   1.67233   1.69192   1.70303   1.76053
 Alpha virt. eigenvalues --    1.76648   1.77735   1.77876   1.80139   1.80311
 Alpha virt. eigenvalues --    1.81747   1.82197   1.82835   1.82886   1.83389
 Alpha virt. eigenvalues --    1.85253   1.85551   1.86241   1.86805   1.88470
 Alpha virt. eigenvalues --    1.89305   1.90100   1.91636   1.91707   1.93700
 Alpha virt. eigenvalues --    1.94451   1.94536   1.95934   1.96103   1.96841
 Alpha virt. eigenvalues --    1.97759   1.98372   1.98602   1.99407   2.01138
 Alpha virt. eigenvalues --    2.01517   2.01875   2.03402   2.06629   2.06881
 Alpha virt. eigenvalues --    2.09122   2.09143   2.10605   2.10999   2.12524
 Alpha virt. eigenvalues --    2.12897   2.13533   2.15801   2.15980   2.18887
 Alpha virt. eigenvalues --    2.18903   2.21447   2.24147   2.29024   2.32255
 Alpha virt. eigenvalues --    2.35611   2.40335   2.46594   2.48386   2.49181
 Alpha virt. eigenvalues --    2.77428   2.87929   2.95414   2.97587   3.01690
 Alpha virt. eigenvalues --    3.06634   3.11447   3.16803   3.26655   3.32134
          Condensed to atoms (all electrons):
              1          2          3          4          5          6
     1  Si  13.686409   0.101921  -0.005616  -0.000188   0.161178   0.161178
     2  Si   0.101921  13.641140   0.162106   0.005764  -0.002517  -0.002517
     3  Si  -0.005616   0.162106  13.449105  -0.002916  -0.008482   0.029518
     4  Si  -0.000188   0.005764  -0.002916  13.717395  -0.003961  -0.003961
     5  Si   0.161178  -0.002517  -0.008482  -0.003961  13.464180   0.076841
     6  Si   0.161178  -0.002517   0.029518  -0.003961   0.076841  13.464180
     7  Si  -0.005616   0.162106  -0.020220  -0.002916   0.029518  -0.008482
     8  Si  -0.009056  -0.004165   0.110093   0.078888  -0.006576   0.141154
     9  Si   0.001843  -0.039839   0.233723   0.089189   0.000546   0.000546
    10  Si  -0.006356   0.004817   0.015585   0.039219   0.046700   0.046700
    11  Si  -0.009056  -0.004165   0.004081   0.078888   0.141154  -0.006576
              7          8          9         10         11
     1  Si  -0.005616  -0.009056   0.001843  -0.006356  -0.009056
     2  Si   0.162106  -0.004165  -0.039839   0.004817  -0.004165
     3  Si  -0.020220   0.110093   0.233723   0.015585   0.004081
     4  Si  -0.002916   0.078888   0.089189   0.039219   0.078888
     5  Si   0.029518  -0.006576   0.000546   0.046700   0.141154
     6  Si  -0.008482   0.141154   0.000546   0.046700  -0.006576
     7  Si  13.449105   0.004081   0.233723   0.015585   0.110093
     8  Si   0.004081  13.722488  -0.015355   0.048108   0.003666
     9  Si   0.233723  -0.015355  13.541747  -0.004442  -0.015355
    10  Si   0.015585   0.048108  -0.004442  13.745195   0.048108
    11  Si   0.110093   0.003666  -0.015355   0.048108  13.722488
 Mulliken atomic charges:
              1
     1  Si  -0.076639
     2  Si  -0.024651
     3  Si   0.033023
     4  Si   0.004599
     5  Si   0.101420
     6  Si   0.101420
     7  Si   0.033023
     8  Si  -0.073326
     9  Si  -0.026324
    10  Si   0.000781
    11  Si  -0.073326
 Sum of Mulliken atomic charges =   0.00000
 Mulliken charges with hydrogens summed into heavy atoms:
              1
     1  Si  -0.076639
     2  Si  -0.024651
     3  Si   0.033023
     4  Si   0.004599
     5  Si   0.101420
     6  Si   0.101420
     7  Si   0.033023
     8  Si  -0.073326
     9  Si  -0.026324
    10  Si   0.000781
    11  Si  -0.073326
 Sum of Mulliken charges with hydrogens summed into heavy atoms =   0.00000
 Electronic spatial extent (au):  <R**2>=           3485.0247
 Charge=              0.0000 electrons
 Dipole moment (field-independent basis, Debye):
    X=              0.2421    Y=              1.0593    Z=              0.0000  Tot=              1.0866
 Quadrupole moment (field-independent basis, Debye-Ang):
   XX=           -144.3062   YY=           -147.0697   ZZ=           -143.1373
   XY=             -1.3881   XZ=              0.0000   YZ=              0.0000
 Traceless Quadrupole moment (field-independent basis, Debye-Ang):
   XX=              0.5315   YY=             -2.2320   ZZ=              1.7004
   XY=             -1.3881   XZ=              0.0000   YZ=              0.0000
 Octapole moment (field-independent basis, Debye-Ang**2):
  XXX=              3.3890  YYY=              8.5457  ZZZ=              0.0000  XYY=             -1.8380
  XXY=              4.6653  XXZ=              0.0000  XZZ=              7.2632  YZZ=              6.6185
  YYZ=              0.0000  XYZ=              0.0000
 Hexadecapole moment (field-independent basis, Debye-Ang**3):
 XXXX=          -1752.3324 YYYY=          -2623.2509 ZZZZ=          -1533.8195 XXXY=             97.5860
 XXXZ=              0.0000 YYYX=            118.8721 YYYZ=              0.0000 ZZZX=              0.0000
 ZZZY=              0.0000 XXYY=           -724.2529 XXZZ=           -544.6209 YYZZ=           -662.3132
 XXYZ=              0.0000 YYXZ=              0.0000 ZZXY=             28.1105
 N-N= 1.792093705696D+03 E-N=-1.116409413219D+04  KE= 3.173087218501D+03
 Symmetry A'   KE= 2.184201892307D+03
 Symmetry A"   KE= 9.888853261935D+02
 Calling FoFJK, ICntrl=      2127 FMM=F ISym2X=1 I1Cent= 0 IOpClX= 0 NMat=1 NMatS=1 NMatT=0.
 ***** Axes restored to original set *****
 -------------------------------------------------------------------
 Center     Atomic                   Forces (Hartrees/Bohr)
 Number     Number              X              Y              Z
 -------------------------------------------------------------------
      1       14           0.002254528   -0.000678747    0.000000000
      2       14          -0.001661551   -0.001015234    0.000000000
      3       14          -0.000261394   -0.001299306   -0.001665368
      4       14          -0.001692900    0.000859755    0.000000000
      5       14           0.001608178    0.001399132    0.001492580
      6       14           0.001608178    0.001399132   -0.001492580
      7       14          -0.000261394   -0.001299306    0.001665368
      8       14          -0.000666413   -0.000115328   -0.001909127
      9       14          -0.000926880   -0.001599204    0.000000000
     10       14           0.000666062    0.002464436    0.000000000
     11       14          -0.000666413   -0.000115328    0.001909127
 -------------------------------------------------------------------
 Cartesian Forces:  Max     0.002464436 RMS     0.001275424

 GradGradGradGradGradGradGradGradGradGradGradGradGradGradGradGradGradGrad
 Berny optimization.
 Internal  Forces:  Max     0.001156487 RMS     0.000322577
 Search for a local minimum.
 Step number   1 out of a maximum of  100
 All quantities printed in internal units (Hartrees-Bohrs-Radians)
 Mixed Optimization -- En-DIIS/RFO-DIIS
 Second derivative matrix not updated -- first step.
     Eigenvalues ---    0.01883   0.02600   0.03122   0.03876   0.04125
     Eigenvalues ---    0.05543   0.06572   0.06982   0.07078   0.07096
     Eigenvalues ---    0.07450   0.07739   0.08321   0.08379   0.09032
     Eigenvalues ---    0.09415   0.09564   0.09628   0.10395   0.10711
     Eigenvalues ---    0.10870   0.11754   0.12493   0.12550   0.13502
     Eigenvalues ---    0.14201   0.148571000.000001000.000001000.00000
     Eigenvalues --- 1000.000001000.000001000.000001000.000001000.00000
     Eigenvalues --- 1000.000001000.000001000.000001000.000001000.00000
     Eigenvalues --- 1000.000001000.000001000.000001000.000001000.00000
     Eigenvalues --- 1000.000001000.000001000.000001000.000001000.00000
     Eigenvalues --- 1000.000001000.000001000.000001000.000001000.00000
     Eigenvalues --- 1000.000001000.000001000.000001000.000001000.00000
     Eigenvalues --- 1000.000001000.000001000.000001000.000001000.00000
     Eigenvalues --- 1000.000001000.000001000.000001000.000001000.00000
     Eigenvalues --- 1000.000001000.000001000.000001000.000001000.00000
     Eigenvalues --- 1000.000001000.000001000.000001000.000001000.00000
     Eigenvalues --- 1000.000001000.000001000.000001000.000001000.00000
     Eigenvalues --- 1000.000001000.000001000.000001000.000001000.00000
     Eigenvalues --- 1000.000001000.000001000.000001000.000001000.00000
     Eigenvalues --- 1000.000001000.000001000.000001000.000001000.00000
     Eigenvalues --- 1000.000001000.000001000.000001000.000001000.00000
     Eigenvalues --- 1000.000001000.000001000.000001000.000001000.00000
     Eigenvalues --- 1000.000001000.000001000.000001000.000001000.00000
     Eigenvalues --- 1000.000001000.000001000.000001000.000001000.00000
     Eigenvalues --- 1000.000001000.000001000.000001000.000001000.00000
     Eigenvalues --- 1000.000001000.000001000.000001000.000001000.00000
     Eigenvalues --- 1000.000001000.000001000.000001000.000001000.00000
     Eigenvalues --- 1000.000001000.000001000.000001000.000001000.00000
     Eigenvalues --- 1000.000001000.000001000.000001000.000001000.00000
     Eigenvalues --- 1000.000001000.000001000.000001000.000001000.00000
     Eigenvalues --- 1000.000001000.000001000.000001000.000001000.00000
     Eigenvalues --- 1000.000001000.000001000.000001000.000001000.00000
     Eigenvalues --- 1000.000001000.000001000.000001000.000001000.00000
     Eigenvalues --- 1000.000001000.000001000.000001000.000001000.00000
 RFO step:  Lambda=-2.12193909D-04 EMin= 1.88331141D-02
 Linear search not attempted -- first point.
 Iteration  1 RMS(Cart)=  0.00233316 RMS(Int)=  0.00001358
 Iteration  2 RMS(Cart)=  0.00000479 RMS(Int)=  0.00000753
 Iteration  3 RMS(Cart)=  0.00000000 RMS(Int)=  0.00000753
 ClnCor:  largest displacement from symmetrization is 2.35D-09 for atom     7.
 Variable       Old X    -DE/DX   Delta X   Delta X   Delta X     New X
                                 (Linear)    (Quad)   (Total)
    R1        4.72655  -0.00103   0.00000  -0.01178  -0.01180   4.71475
    R2        4.55120  -0.00086   0.00000  -0.00874  -0.00873   4.54248
    R3        4.55120  -0.00086   0.00000  -0.00874  -0.00873   4.54248
    R4        4.55730  -0.00001   0.00000  -0.00068  -0.00069   4.55661
    R5        5.15693  -0.00056   0.00000  -0.00986  -0.00985   5.14707
    R6        5.15693  -0.00056   0.00000  -0.00986  -0.00985   5.14707
    R7        4.55730  -0.00001   0.00000  -0.00068  -0.00069   4.55661
    R8        5.41722  -0.00047   0.00000  -0.00764  -0.00764   5.40958
    R9        5.13090  -0.00116   0.00000  -0.01445  -0.01444   5.11645
   R10        4.89369  -0.00084   0.00000  -0.01133  -0.01133   4.88236
   R11        4.64420  -0.00051   0.00000  -0.00523  -0.00524   4.63897
   R12        4.44147  -0.00055   0.00000  -0.00508  -0.00508   4.43639
   R13        5.41722  -0.00047   0.00000  -0.00764  -0.00764   5.40958
   R14        4.88653  -0.00069   0.00000  -0.01000  -0.00999   4.87654
   R15        4.85884  -0.00093   0.00000  -0.01214  -0.01213   4.84671
   R16        4.73737  -0.00103   0.00000  -0.01152  -0.01152   4.72585
   R17        4.88653  -0.00069   0.00000  -0.01000  -0.00999   4.87654
   R18        4.61447  -0.00098   0.00000  -0.00640  -0.00643   4.60803
   R19        5.13090  -0.00116   0.00000  -0.01445  -0.01444   5.11645
   R20        4.76568  -0.00069   0.00000  -0.00687  -0.00689   4.75879
   R21        4.59065  -0.00069   0.00000  -0.00802  -0.00802   4.58263
   R22        4.59065  -0.00069   0.00000  -0.00802  -0.00802   4.58263
   R23        4.76568  -0.00069   0.00000  -0.00687  -0.00689   4.75879
   R24        4.44147  -0.00055   0.00000  -0.00508  -0.00508   4.43639
   R25        4.64420  -0.00051   0.00000  -0.00523  -0.00524   4.63897
   R26        4.84408  -0.00100   0.00000  -0.01202  -0.01200   4.83208
   R27        4.84408  -0.00100   0.00000  -0.01202  -0.01200   4.83208
    A1        2.05808  -0.00023   0.00000  -0.00162  -0.00162   2.05646
    A2        2.05808  -0.00023   0.00000  -0.00162  -0.00162   2.05646
    A3        1.60367  -0.00031   0.00000  -0.00257  -0.00257   1.60110
    A4        1.60367  -0.00031   0.00000  -0.00257  -0.00257   1.60110
    A5        1.95330   0.00018   0.00000   0.00164   0.00163   1.95494
    A6        2.07989   0.00008   0.00000   0.00032   0.00032   2.08021
    A7        1.87150   0.00014   0.00000   0.00265   0.00265   1.87415
    A8        1.48157   0.00000   0.00000   0.00042   0.00041   1.48198
    A9        1.54358  -0.00002   0.00000   0.00040   0.00040   1.54398
   A10        2.38612  -0.00007   0.00000  -0.00010  -0.00011   2.38601
   A11        1.93748  -0.00001   0.00000  -0.00023  -0.00022   1.93726
   A12        1.92124  -0.00016   0.00000  -0.00241  -0.00241   1.91883
   A13        1.52584  -0.00008   0.00000  -0.00065  -0.00065   1.52519
   A14        1.73375  -0.00008   0.00000  -0.00029  -0.00029   1.73346
   A15        1.73375  -0.00008   0.00000  -0.00029  -0.00029   1.73346
   A16        1.52584  -0.00008   0.00000  -0.00065  -0.00065   1.52519
   A17        1.73948  -0.00001   0.00000   0.00070   0.00070   1.74017
   A18        2.00002  -0.00006   0.00000  -0.00008  -0.00008   1.99994
   A19        2.30528  -0.00007   0.00000   0.00029   0.00029   2.30557
   A20        1.73948  -0.00001   0.00000   0.00070   0.00070   1.74017
   A21        1.92597   0.00008   0.00000   0.00165   0.00165   1.92761
   A22        2.03890   0.00002   0.00000  -0.00112  -0.00111   2.03779
   A23        2.90256   0.00017   0.00000   0.00240   0.00239   2.90495
   A24        1.92289   0.00019   0.00000   0.00155   0.00156   1.92444
   A25        1.89986   0.00027   0.00000   0.00362   0.00362   1.90348
   A26        1.59801   0.00002   0.00000  -0.00040  -0.00040   1.59761
   A27        1.97482   0.00002   0.00000  -0.00051  -0.00051   1.97431
   A28        1.57988   0.00001   0.00000  -0.00001  -0.00001   1.57987
   A29        1.92597   0.00008   0.00000   0.00165   0.00165   1.92761
   A30        2.90256   0.00017   0.00000   0.00240   0.00239   2.90495
   A31        2.03890   0.00002   0.00000  -0.00112  -0.00111   2.03779
   A32        1.89986   0.00027   0.00000   0.00362   0.00362   1.90348
   A33        1.92289   0.00019   0.00000   0.00155   0.00156   1.92444
   A34        1.59801   0.00002   0.00000  -0.00040  -0.00040   1.59761
   A35        1.57988   0.00001   0.00000  -0.00001  -0.00001   1.57987
   A36        1.97482   0.00002   0.00000  -0.00051  -0.00051   1.97431
   A37        1.95330   0.00018   0.00000   0.00164   0.00163   1.95494
   A38        1.87150   0.00014   0.00000   0.00265   0.00265   1.87415
   A39        2.07989   0.00008   0.00000   0.00032   0.00032   2.08021
   A40        1.54358  -0.00002   0.00000   0.00040   0.00040   1.54398
   A41        1.93748  -0.00001   0.00000  -0.00023  -0.00022   1.93726
   A42        1.48157   0.00000   0.00000   0.00042   0.00041   1.48198
   A43        2.38612  -0.00007   0.00000  -0.00010  -0.00011   2.38601
   A44        1.92124  -0.00016   0.00000  -0.00241  -0.00241   1.91883
   A45        1.66983  -0.00006   0.00000  -0.00079  -0.00079   1.66904
   A46        1.69969  -0.00001   0.00000   0.00014   0.00013   1.69982
   A47        1.69434   0.00007   0.00000   0.00020   0.00020   1.69455
   A48        1.69434   0.00007   0.00000   0.00020   0.00020   1.69455
   A49        1.85274   0.00000   0.00000   0.00062   0.00062   1.85335
   A50        1.85274   0.00000   0.00000   0.00062   0.00062   1.85335
   A51        2.02762   0.00014   0.00000   0.00131   0.00131   2.02893
   A52        1.69969  -0.00001   0.00000   0.00014   0.00013   1.69982
   A53        1.66983  -0.00006   0.00000  -0.00079  -0.00079   1.66904
    D1        1.32875  -0.00024   0.00000  -0.00288  -0.00288   1.32587
    D2        0.21214  -0.00027   0.00000  -0.00268  -0.00267   0.20946
    D3        2.40749  -0.00029   0.00000  -0.00336  -0.00335   2.40414
    D4        0.44995  -0.00008   0.00000  -0.00210  -0.00210   0.44785
    D5       -0.66666  -0.00011   0.00000  -0.00190  -0.00190  -0.66856
    D6        1.52870  -0.00013   0.00000  -0.00258  -0.00257   1.52612
    D7        0.24019   0.00007   0.00000   0.00221   0.00221   0.24240
    D8       -0.92196   0.00003   0.00000   0.00215   0.00213  -0.91983
    D9        0.92196  -0.00003   0.00000  -0.00215  -0.00213   0.91983
   D10       -0.24019  -0.00007   0.00000  -0.00221  -0.00221  -0.24240
   D11       -1.32875   0.00024   0.00000   0.00288   0.00288  -1.32587
   D12       -2.40749   0.00029   0.00000   0.00336   0.00335  -2.40414
   D13       -0.21214   0.00027   0.00000   0.00268   0.00267  -0.20946
   D14       -0.44995   0.00008   0.00000   0.00210   0.00210  -0.44785
   D15       -1.52870   0.00013   0.00000   0.00258   0.00257  -1.52612
   D16        0.66666   0.00011   0.00000   0.00190   0.00190   0.66856
   D17       -0.99769   0.00003   0.00000   0.00106   0.00106  -0.99663
   D18        0.04002  -0.00001   0.00000   0.00066   0.00067   0.04069
   D19        0.03745   0.00001   0.00000   0.00050   0.00050   0.03795
   D20        1.07516  -0.00003   0.00000   0.00010   0.00010   1.07527
   D21       -2.11392  -0.00005   0.00000   0.00041   0.00040  -2.11352
   D22       -1.10267  -0.00005   0.00000  -0.00043  -0.00043  -1.10310
   D23       -0.03719  -0.00001   0.00000  -0.00046  -0.00046  -0.03765
   D24       -1.01125  -0.00001   0.00000   0.00084   0.00084  -1.01042
   D25        0.00000   0.00000   0.00000   0.00000   0.00000   0.00000
   D26        1.06548   0.00004   0.00000  -0.00003  -0.00003   1.06545
   D27       -1.59808  -0.00016   0.00000  -0.00182  -0.00183  -1.59990
   D28       -0.58683  -0.00015   0.00000  -0.00266  -0.00266  -0.58949
   D29        0.47865  -0.00012   0.00000  -0.00269  -0.00269   0.47596
   D30        0.00000   0.00000   0.00000   0.00000   0.00000   0.00000
   D31       -0.91027  -0.00003   0.00000  -0.00078  -0.00078  -0.91105
   D32        0.91027   0.00003   0.00000   0.00078   0.00078   0.91105
   D33        0.00000   0.00000   0.00000   0.00000   0.00000   0.00000
   D34        0.79910   0.00016   0.00000   0.00119   0.00119   0.80029
   D35       -0.31130   0.00003   0.00000  -0.00035  -0.00035  -0.31166
   D36       -1.37237   0.00003   0.00000  -0.00058  -0.00058  -1.37295
   D37       -0.04002   0.00001   0.00000  -0.00066  -0.00067  -0.04069
   D38       -1.07516   0.00003   0.00000  -0.00010  -0.00010  -1.07527
   D39        0.99769  -0.00003   0.00000  -0.00106  -0.00106   0.99663
   D40       -0.03745  -0.00001   0.00000  -0.00050  -0.00050  -0.03795
   D41        0.57731  -0.00009   0.00000  -0.00155  -0.00154   0.57577
   D42        1.47824  -0.00010   0.00000  -0.00088  -0.00087   1.47736
   D43       -0.36100  -0.00006   0.00000  -0.00202  -0.00201  -0.36301
   D44        0.97879  -0.00007   0.00000  -0.00040  -0.00040   0.97839
   D45       -0.04047  -0.00001   0.00000  -0.00049  -0.00049  -0.04096
   D46        0.04047   0.00001   0.00000   0.00049   0.00049   0.04096
   D47       -0.97879   0.00007   0.00000   0.00040   0.00040  -0.97839
   D48        0.50963  -0.00003   0.00000   0.00005   0.00004   0.50967
   D49       -0.50963   0.00003   0.00000  -0.00005  -0.00004  -0.50967
   D50       -0.57731   0.00009   0.00000   0.00155   0.00154  -0.57577
   D51        0.36100   0.00006   0.00000   0.00202   0.00201   0.36301
   D52       -1.47824   0.00010   0.00000   0.00088   0.00087  -1.47736
   D53        0.00000   0.00000   0.00000   0.00000   0.00000   0.00000
   D54       -0.94599  -0.00011   0.00000  -0.00152  -0.00152  -0.94751
   D55        0.94599   0.00011   0.00000   0.00152   0.00152   0.94751
   D56        0.00000   0.00000   0.00000   0.00000   0.00000   0.00000
   D57        1.01125   0.00001   0.00000  -0.00084  -0.00084   1.01042
   D58        2.11392   0.00005   0.00000  -0.00041  -0.00040   2.11352
   D59        1.59808   0.00016   0.00000   0.00182   0.00183   1.59990
   D60        0.00000   0.00000   0.00000   0.00000   0.00000   0.00000
   D61        1.10267   0.00005   0.00000   0.00043   0.00043   1.10310
   D62        0.58683   0.00015   0.00000   0.00266   0.00266   0.58949
   D63       -1.06548  -0.00004   0.00000   0.00003   0.00003  -1.06545
   D64        0.03719   0.00001   0.00000   0.00046   0.00046   0.03765
   D65       -0.47865   0.00012   0.00000   0.00269   0.00269  -0.47596
   D66       -2.01877  -0.00012   0.00000  -0.00220  -0.00220  -2.02096
   D67       -0.93453  -0.00001   0.00000  -0.00165  -0.00164  -0.93617
   D68       -0.91384  -0.00014   0.00000  -0.00252  -0.00252  -0.91637
   D69        0.17040  -0.00004   0.00000  -0.00197  -0.00197   0.16843
   D70       -0.04269  -0.00001   0.00000  -0.00058  -0.00057  -0.04326
   D71        1.04155   0.00009   0.00000  -0.00002  -0.00002   1.04153
   D72        0.75006  -0.00025   0.00000  -0.01070  -0.01074   0.73932
   D73        0.98469   0.00011   0.00000  -0.00032  -0.00031   0.98438
   D74       -0.20907  -0.00004   0.00000  -0.00110  -0.00109  -0.21016
   D75       -0.75006   0.00025   0.00000   0.01070   0.01074  -0.73932
   D76       -0.98469  -0.00011   0.00000   0.00032   0.00031  -0.98438
   D77        0.20907   0.00004   0.00000   0.00110   0.00109   0.21016
   D78        2.01877   0.00012   0.00000   0.00220   0.00220   2.02096
   D79        0.93453   0.00001   0.00000   0.00165   0.00164   0.93617
   D80        0.91384   0.00014   0.00000   0.00252   0.00252   0.91637
   D81       -0.17040   0.00004   0.00000   0.00197   0.00197  -0.16843
   D82        0.04269   0.00001   0.00000   0.00058   0.00057   0.04326
   D83       -1.04155  -0.00009   0.00000   0.00002   0.00002  -1.04153
   D84       -0.79910  -0.00016   0.00000  -0.00119  -0.00119  -0.80029
   D85        0.31130  -0.00003   0.00000   0.00035   0.00035   0.31166
   D86        1.37237  -0.00003   0.00000   0.00058   0.00058   1.37295
   D87       -0.48909  -0.00001   0.00000   0.00084   0.00083  -0.48825
   D88        0.57151   0.00003   0.00000   0.00144   0.00144   0.57295
   D89        0.48909   0.00001   0.00000  -0.00084  -0.00083   0.48825
   D90       -0.57151  -0.00003   0.00000  -0.00144  -0.00144  -0.57295
         Item               Value     Threshold  Converged?
 Maximum Force            0.001156     0.000450     NO 
 RMS     Force            0.000323     0.000300     NO 
 Maximum Displacement     0.011188     0.001800     NO 
 RMS     Displacement     0.002334     0.001200     NO 
 Predicted change in Energy=-1.064456D-04
 GradGradGradGradGradGradGradGradGradGradGradGradGradGradGradGradGradGrad

                          Input orientation:                          
 ---------------------------------------------------------------------
 Center     Atomic      Atomic             Coordinates (Angstroms)
 Number     Number       Type             X           Y           Z
 ---------------------------------------------------------------------
      1         14           0       -3.270886    0.438146    0.000000
      2         14           0       -1.253939    1.906699    0.000000
      3         14           0        0.654624    1.197660    1.291818
      4         14           0        2.102481   -0.906989    0.000000
      5         14           0       -1.435272   -0.522128   -1.219233
      6         14           0       -1.435272   -0.522128    1.219233
      7         14           0        0.654624    1.197660   -1.291818
      8         14           0        0.720630   -1.093227    2.171421
      9         14           0        2.569982    1.614813    0.000000
     10         14           0       -0.027600   -2.217264    0.000000
     11         14           0        0.720630   -1.093227   -2.171421
 ---------------------------------------------------------------------
                    Distance matrix (angstroms):
                    1          2          3          4          5
     1  Si   0.000000
     2  Si   2.494939   0.000000
     3  Si   4.201819   2.411253   0.000000
     4  Si   5.539174   4.379770   2.862626   0.000000
     5  Si   2.403774   2.723713   3.691979   3.761694   0.000000
     6  Si   2.403774   2.723713   2.707509   3.761694   2.438465
     7  Si   4.201819   2.411253   2.583636   2.862626   2.707509
     8  Si   4.795036   4.196850   2.454836   2.580555   4.058399
     9  Si   5.958211   3.835045   2.347639   2.564769   4.700544
    10  Si   4.191671   4.302438   3.714287   2.500813   2.518244
    11  Si   4.795036   4.196850   4.152896   2.580555   2.425022
                    6          7          8          9         10
     6  Si   0.000000
     7  Si   3.691979   0.000000
     8  Si   2.425022   4.152896   0.000000
     9  Si   4.700544   2.347639   3.933021   0.000000
    10  Si   2.518244   3.714287   2.557025   4.629497   0.000000
    11  Si   4.058399   2.454836   4.342842   3.933021   2.557025
                   11
    11  Si   0.000000
 Stoichiometry    Si11
 Framework group  CS[SG(Si5),X(Si6)]
 Deg. of freedom    16
 Full point group                 CS      NOp   2
 Largest Abelian subgroup         CS      NOp   2
 Largest concise Abelian subgroup CS      NOp   2
                         Standard orientation:                         
 ---------------------------------------------------------------------
 Center     Atomic      Atomic             Coordinates (Angstroms)
 Number     Number       Type             X           Y           Z
 ---------------------------------------------------------------------
      1         14           0       -0.414033    3.274025    0.000000
      2         14           0        1.522032    1.700376    0.000000
      3         14           0        1.325355   -0.326116    1.291818
      4         14           0       -0.338371   -2.264632    0.000000
      5         14           0       -0.872249    1.253718   -1.219233
      6         14           0       -0.872249    1.253718    1.219233
      7         14           0        1.325355   -0.326116   -1.291818
      8         14           0       -0.872249   -0.976544    2.171421
      9         14           0        2.219062   -2.070794    0.000000
     10         14           0       -2.150406   -0.541091    0.000000
     11         14           0       -0.872249   -0.976544   -2.171421
 ---------------------------------------------------------------------
 Rotational constants (GHZ):      0.5357258      0.4009477      0.3819780
 Standard basis: GTBas3 (6D, 7F)
 There are   206 symmetry adapted basis functions of A'  symmetry.
 There are   146 symmetry adapted basis functions of A"  symmetry.
 Integral buffers will be    131072 words long.
 Raffenetti 2 integral format.
 Two-electron integral symmetry is turned on.
   352 basis functions,   748 primitive gaussians,   385 cartesian basis functions
    77 alpha electrons       77 beta electrons
       nuclear repulsion energy      1795.1824702049 Hartrees.
 NAtoms=   11 NActive=   11 NUniq=    8 SFac= 1.42D+00 NAtFMM=   80 NAOKFM=F Big=F
 One-electron integrals computed using PRISM.
 NBasis=   352 RedAO= T  NBF=   206   146
 NBsUse=   352 1.00D-06 NBFU=   206   146
 Initial guess read from the read-write file.
 B after Tr=     0.000000    0.000000    0.000000
         Rot=    1.000000    0.000000    0.000000    0.000000 Ang=   0.00 deg.
 Initial guess orbital symmetries:
       Occupied  (A") (A') (A') (A") (A') (A') (A") (A') (A') (A')
                 (A') (A') (A") (A') (A') (A") (A') (A") (A') (A')
                 (A') (A') (A') (A") (A') (A") (A') (A") (A") (A')
                 (A') (A') (A") (A') (A") (A") (A') (A') (A") (A')
                 (A") (A') (A') (A") (A") (A') (A') (A") (A") (A')
                 (A') (A') (A') (A") (A') (A') (A') (A') (A") (A')
                 (A') (A') (A") (A") (A') (A') (A') (A") (A') (A")
                 (A') (A') (A") (A') (A") (A') (A')
       Virtual   (A') (A") (A") (A') (A') (A') (A') (A") (A") (A')
                 (A") (A') (A") (A') (A') (A") (A") (A') (A') (A")
                 (A') (A") (A') (A') (A") (A') (A') (A') (A") (A')
                 (A") (A") (A') (A') (A") (A') (A') (A') (A") (A')
                 (A") (A') (A') (A") (A") (A') (A') (A') (A") (A')
                 (A") (A") (A') (A') (A") (A') (A") (A') (A") (A')
                 (A") (A') (A") (A') (A") (A") (A') (A') (A") (A')
                 (A') (A") (A") (A') (A') (A') (A') (A") (A") (A')
                 (A") (A') (A') (A") (A') (A") (A") (A') (A') (A')
                 (A') (A") (A") (A") (A') (A') (A') (A") (A') (A")
                 (A') (A") (A') (A") (A") (A') (A') (A') (A") (A')
                 (A") (A') (A") (A') (A") (A') (A") (A') (A') (A')
                 (A') (A") (A') (A") (A") (A') (A") (A') (A') (A')
                 (A") (A') (A') (A") (A") (A') (A") (A") (A') (A')
                 (A') (A") (A') (A") (A') (A') (A') (A") (A') (A")
                 (A') (A") (A') (A') (A") (A') (A") (A") (A') (A')
                 (A') (A') (A") (A") (A') (A") (A') (A') (A") (A")
                 (A') (A") (A") (A') (A') (A') (A") (A") (A') (A")
                 (A') (A') (A") (A') (A") (A') (A") (A') (A") (A')
                 (A") (A') (A') (A') (A") (A") (A') (A") (A') (A")
                 (A") (A') (A') (A") (A') (A") (A') (A") (A') (A")
                 (A') (A") (A') (A') (A") (A') (A') (A") (A') (A")
                 (A") (A') (A') (A") (A') (A') (A") (A') (A") (A')
                 (A') (A") (A') (A") (A') (A") (A') (A") (A') (A')
                 (A') (A") (A") (A') (A") (A') (A") (A') (A") (A")
                 (A') (A') (A") (A') (A") (A') (A') (A") (A') (A')
                 (A") (A") (A') (A') (A") (A') (A') (A') (A") (A')
                 (A') (A") (A') (A') (A")
 Requested convergence on RMS density matrix=1.00D-08 within 128 cycles.
 Requested convergence on MAX density matrix=1.00D-06.
 Requested convergence on             energy=1.00D-06.
 No special actions if energy rises.
 Keep R1 ints in memory in canonical form, NReq=2789968036.
 SCF Done:  E(RB3LYP) =  -3184.41265559     A.U. after   11 cycles
             Convg  =    0.9607D-08             -V/T =  2.0036
 QCSCF skips out because SCF is already converged.
 Calling FoFJK, ICntrl=      2127 FMM=F ISym2X=1 I1Cent= 0 IOpClX= 0 NMat=1 NMatS=1 NMatT=0.
 ***** Axes restored to original set *****
 -------------------------------------------------------------------
 Center     Atomic                   Forces (Hartrees/Bohr)
 Number     Number              X              Y              Z
 -------------------------------------------------------------------
      1       14           0.000870539   -0.000534225    0.000000000
      2       14          -0.001166964   -0.000463184    0.000000000
      3       14          -0.000270231   -0.000811665   -0.001037085
      4       14          -0.000838274    0.000700187    0.000000000
      5       14           0.001323613    0.001134671    0.000801684
      6       14           0.001323613    0.001134671   -0.000801684
      7       14          -0.000270231   -0.000811665    0.001037085
      8       14          -0.000410199   -0.000406370   -0.001011861
      9       14          -0.000381677   -0.000974642    0.000000000
     10       14           0.000230008    0.001438591    0.000000000
     11       14          -0.000410199   -0.000406370    0.001011861
 -------------------------------------------------------------------
 Cartesian Forces:  Max     0.001438591 RMS     0.000792467

 GradGradGradGradGradGradGradGradGradGradGradGradGradGradGradGradGradGrad
 Berny optimization.
 Using GEDIIS/GDIIS optimizer.
 Internal  Forces:  Max     0.000819398 RMS     0.000195339
 Search for a local minimum.
 Step number   2 out of a maximum of  100
 All quantities printed in internal units (Hartrees-Bohrs-Radians)
 Mixed Optimization -- En-DIIS/RFO-DIIS
 Swaping is turned off.
 Update second derivatives using D2CorX and points    1    2
 DE= -1.69D-04 DEPred=-1.06D-04 R= 1.59D+00
 SS=  1.41D+00  RLast= 5.33D-02 DXNew= 5.0454D-01 1.5983D-01
 Trust test= 1.59D+00 RLast= 5.33D-02 DXMaxT set to 3.00D-01
     Eigenvalues ---    0.01864   0.01916   0.03116   0.03648   0.04115
     Eigenvalues ---    0.04365   0.05534   0.06578   0.07070   0.07103
     Eigenvalues ---    0.07125   0.07741   0.08079   0.08321   0.09043
     Eigenvalues ---    0.09399   0.09563   0.09660   0.10167   0.10703
     Eigenvalues ---    0.10868   0.11462   0.12504   0.12703   0.13645
     Eigenvalues ---    0.14210   0.148731000.000001000.000001000.00000
     Eigenvalues --- 1000.000001000.000001000.000001000.000001000.00000
     Eigenvalues --- 1000.000001000.000001000.000001000.000001000.00000
     Eigenvalues --- 1000.000001000.000001000.000001000.000001000.00000
     Eigenvalues --- 1000.000001000.000001000.000001000.000001000.00000
     Eigenvalues --- 1000.000001000.000001000.000001000.000001000.00000
     Eigenvalues --- 1000.000001000.000001000.000001000.000001000.00000
     Eigenvalues --- 1000.000001000.000001000.000001000.000001000.00000
     Eigenvalues --- 1000.000001000.000001000.000001000.000001000.00000
     Eigenvalues --- 1000.000001000.000001000.000001000.000001000.00000
     Eigenvalues --- 1000.000001000.000001000.000001000.000001000.00000
     Eigenvalues --- 1000.000001000.000001000.000001000.000001000.00000
     Eigenvalues --- 1000.000001000.000001000.000001000.000001000.00000
     Eigenvalues --- 1000.000001000.000001000.000001000.000001000.00000
     Eigenvalues --- 1000.000001000.000001000.000001000.000001000.00000
     Eigenvalues --- 1000.000001000.000001000.000001000.000001000.00000
     Eigenvalues --- 1000.000001000.000001000.000001000.000001000.00000
     Eigenvalues --- 1000.000001000.000001000.000001000.000001000.00000
     Eigenvalues --- 1000.000001000.000001000.000001000.000001000.00000
     Eigenvalues --- 1000.000001000.000001000.000001000.000001000.00000
     Eigenvalues --- 1000.000001000.000001000.000001000.000001000.00000
     Eigenvalues --- 1000.000001000.000001000.000001000.000001000.00000
     Eigenvalues --- 1000.000001000.000001000.000001000.000001000.00000
     Eigenvalues --- 1000.000001000.000001000.000001000.000001000.00000
     Eigenvalues --- 1000.000001000.000001000.000001000.000001000.00000
     Eigenvalues --- 1000.000001000.000001000.000001000.000001000.00000
     Eigenvalues --- 1000.000001000.000001000.000001000.000001000.00000
     Eigenvalues --- 1000.000001000.000001000.000001000.000001000.00000
     Eigenvalues --- 1000.000001000.000001000.000001000.000001000.00000
 En-DIIS/RFO-DIIS IScMMF=        0 using points:     2    1
 RFO step:  Lambda=-3.69851361D-05.
 DIIS coeffs:      2.52044     -1.52044
 Iteration  1 RMS(Cart)=  0.00392594 RMS(Int)=  0.00008870
 Iteration  2 RMS(Cart)=  0.00002799 RMS(Int)=  0.00005962
 Iteration  3 RMS(Cart)=  0.00000001 RMS(Int)=  0.00005962
 ClnCor:  largest displacement from symmetrization is 9.03D-10 for atom     7.
 Variable       Old X    -DE/DX   Delta X   Delta X   Delta X     New X
                                  (DIIS)     (GDIIS)  (Total)
    R1        4.71475  -0.00046  -0.01794   0.00241  -0.01567   4.69908
    R2        4.54248  -0.00032  -0.01327   0.00275  -0.01038   4.53209
    R3        4.54248  -0.00032  -0.01327   0.00275  -0.01038   4.53209
    R4        4.55661   0.00010  -0.00105   0.00186   0.00077   4.55738
    R5        5.14707  -0.00036  -0.01498  -0.00303  -0.01796   5.12912
    R6        5.14707  -0.00036  -0.01498  -0.00303  -0.01796   5.12912
    R7        4.55661   0.00010  -0.00105   0.00186   0.00077   4.55738
    R8        5.40958  -0.00028  -0.01162  -0.00077  -0.01239   5.39719
    R9        5.11645  -0.00082  -0.02196  -0.00610  -0.02802   5.08843
   R10        4.88236  -0.00053  -0.01723  -0.00199  -0.01923   4.86314
   R11        4.63897  -0.00018  -0.00796   0.00331  -0.00472   4.63425
   R12        4.43639  -0.00024  -0.00772   0.00097  -0.00677   4.42962
   R13        5.40958  -0.00028  -0.01162  -0.00077  -0.01239   5.39719
   R14        4.87654  -0.00033  -0.01519  -0.00044  -0.01557   4.86097
   R15        4.84671  -0.00057  -0.01845  -0.00226  -0.02070   4.82602
   R16        4.72585  -0.00057  -0.01752   0.00214  -0.01540   4.71045
   R17        4.87654  -0.00033  -0.01519  -0.00044  -0.01557   4.86097
   R18        4.60803  -0.00063  -0.00978   0.00104  -0.00903   4.59900
   R19        5.11645  -0.00082  -0.02196  -0.00610  -0.02802   5.08843
   R20        4.75879  -0.00042  -0.01047  -0.00034  -0.01092   4.74787
   R21        4.58263  -0.00038  -0.01219  -0.00015  -0.01232   4.57031
   R22        4.58263  -0.00038  -0.01219  -0.00015  -0.01232   4.57031
   R23        4.75879  -0.00042  -0.01047  -0.00034  -0.01092   4.74787
   R24        4.43639  -0.00024  -0.00772   0.00097  -0.00677   4.42962
   R25        4.63897  -0.00018  -0.00796   0.00331  -0.00472   4.63425
   R26        4.83208  -0.00058  -0.01825  -0.00237  -0.02049   4.81159
   R27        4.83208  -0.00058  -0.01825  -0.00237  -0.02049   4.81159
    A1        2.05646  -0.00014  -0.00246  -0.00040  -0.00284   2.05362
    A2        2.05646  -0.00014  -0.00246  -0.00040  -0.00284   2.05362
    A3        1.60110  -0.00023  -0.00391  -0.00111  -0.00505   1.59604
    A4        1.60110  -0.00023  -0.00391  -0.00111  -0.00505   1.59604
    A5        1.95494   0.00014   0.00248   0.00089   0.00337   1.95831
    A6        2.08021   0.00007   0.00048   0.00037   0.00085   2.08106
    A7        1.87415   0.00011   0.00403   0.00084   0.00487   1.87902
    A8        1.48198   0.00002   0.00063   0.00084   0.00144   1.48342
    A9        1.54398  -0.00001   0.00061   0.00026   0.00085   1.54484
   A10        2.38601  -0.00003  -0.00016   0.00054   0.00033   2.38635
   A11        1.93726   0.00000  -0.00034  -0.00025  -0.00057   1.93669
   A12        1.91883  -0.00010  -0.00366  -0.00079  -0.00443   1.91440
   A13        1.52519  -0.00006  -0.00099  -0.00079  -0.00177   1.52342
   A14        1.73346  -0.00004  -0.00044   0.00039  -0.00006   1.73340
   A15        1.73346  -0.00004  -0.00044   0.00039  -0.00006   1.73340
   A16        1.52519  -0.00006  -0.00099  -0.00079  -0.00177   1.52342
   A17        1.74017   0.00002   0.00106   0.00113   0.00217   1.74234
   A18        1.99994  -0.00004  -0.00012  -0.00040  -0.00051   1.99943
   A19        2.30557  -0.00003   0.00045  -0.00025   0.00020   2.30577
   A20        1.74017   0.00002   0.00106   0.00113   0.00217   1.74234
   A21        1.92761   0.00011   0.00250   0.00206   0.00451   1.93212
   A22        2.03779   0.00002  -0.00169  -0.00111  -0.00273   2.03506
   A23        2.90495   0.00021   0.00363   0.00315   0.00666   2.91162
   A24        1.92444   0.00016   0.00236   0.00105   0.00345   1.92790
   A25        1.90348   0.00025   0.00550   0.00284   0.00835   1.91183
   A26        1.59761   0.00001  -0.00061  -0.00026  -0.00085   1.59675
   A27        1.97431   0.00003  -0.00077  -0.00032  -0.00105   1.97326
   A28        1.57987   0.00002  -0.00001   0.00076   0.00077   1.58064
   A29        1.92761   0.00011   0.00250   0.00206   0.00451   1.93212
   A30        2.90495   0.00021   0.00363   0.00315   0.00666   2.91162
   A31        2.03779   0.00002  -0.00169  -0.00111  -0.00273   2.03506
   A32        1.90348   0.00025   0.00550   0.00284   0.00835   1.91183
   A33        1.92444   0.00016   0.00236   0.00105   0.00345   1.92790
   A34        1.59761   0.00001  -0.00061  -0.00026  -0.00085   1.59675
   A35        1.57987   0.00002  -0.00001   0.00076   0.00077   1.58064
   A36        1.97431   0.00003  -0.00077  -0.00032  -0.00105   1.97326
   A37        1.95494   0.00014   0.00248   0.00089   0.00337   1.95831
   A38        1.87415   0.00011   0.00403   0.00084   0.00487   1.87902
   A39        2.08021   0.00007   0.00048   0.00037   0.00085   2.08106
   A40        1.54398  -0.00001   0.00061   0.00026   0.00085   1.54484
   A41        1.93726   0.00000  -0.00034  -0.00025  -0.00057   1.93669
   A42        1.48198   0.00002   0.00063   0.00084   0.00144   1.48342
   A43        2.38601  -0.00003  -0.00016   0.00054   0.00033   2.38635
   A44        1.91883  -0.00010  -0.00366  -0.00079  -0.00443   1.91440
   A45        1.66904  -0.00007  -0.00120  -0.00085  -0.00207   1.66697
   A46        1.69982  -0.00004   0.00020  -0.00026  -0.00011   1.69971
   A47        1.69455   0.00002   0.00031  -0.00083  -0.00052   1.69403
   A48        1.69455   0.00002   0.00031  -0.00083  -0.00052   1.69403
   A49        1.85335   0.00001   0.00094   0.00073   0.00163   1.85499
   A50        1.85335   0.00001   0.00094   0.00073   0.00163   1.85499
   A51        2.02893   0.00014   0.00200   0.00087   0.00286   2.03179
   A52        1.69982  -0.00004   0.00020  -0.00026  -0.00011   1.69971
   A53        1.66904  -0.00007  -0.00120  -0.00085  -0.00207   1.66697
    D1        1.32587  -0.00015  -0.00437  -0.00033  -0.00466   1.32121
    D2        0.20946  -0.00019  -0.00407  -0.00047  -0.00451   0.20496
    D3        2.40414  -0.00018  -0.00509  -0.00051  -0.00555   2.39859
    D4        0.44785  -0.00006  -0.00319  -0.00071  -0.00389   0.44396
    D5       -0.66856  -0.00010  -0.00289  -0.00084  -0.00373  -0.67229
    D6        1.52612  -0.00009  -0.00391  -0.00088  -0.00477   1.52135
    D7        0.24240   0.00008   0.00335   0.00182   0.00516   0.24755
    D8       -0.91983   0.00002   0.00325   0.00145   0.00461  -0.91522
    D9        0.91983  -0.00002  -0.00325  -0.00145  -0.00461   0.91522
   D10       -0.24240  -0.00008  -0.00335  -0.00182  -0.00516  -0.24755
   D11       -1.32587   0.00015   0.00437   0.00033   0.00466  -1.32121
   D12       -2.40414   0.00018   0.00509   0.00051   0.00555  -2.39859
   D13       -0.20946   0.00019   0.00407   0.00047   0.00451  -0.20496
   D14       -0.44785   0.00006   0.00319   0.00071   0.00389  -0.44396
   D15       -1.52612   0.00009   0.00391   0.00088   0.00477  -1.52135
   D16        0.66856   0.00010   0.00289   0.00084   0.00373   0.67229
   D17       -0.99663   0.00002   0.00162   0.00017   0.00179  -0.99484
   D18        0.04069  -0.00002   0.00101  -0.00084   0.00019   0.04088
   D19        0.03795   0.00000   0.00076   0.00025   0.00100   0.03895
   D20        1.07527  -0.00004   0.00016  -0.00076  -0.00060   1.07467
   D21       -2.11352  -0.00005   0.00061   0.00016   0.00071  -2.11281
   D22       -1.10310  -0.00003  -0.00066  -0.00012  -0.00079  -1.10389
   D23       -0.03765   0.00000  -0.00070  -0.00027  -0.00095  -0.03860
   D24       -1.01042  -0.00002   0.00127   0.00029   0.00150  -1.00892
   D25        0.00000   0.00000   0.00000   0.00000   0.00000   0.00000
   D26        1.06545   0.00003  -0.00004  -0.00014  -0.00016   1.06529
   D27       -1.59990  -0.00013  -0.00277  -0.00025  -0.00310  -1.60300
   D28       -0.58949  -0.00011  -0.00404  -0.00054  -0.00459  -0.59408
   D29        0.47596  -0.00008  -0.00409  -0.00068  -0.00476   0.47121
   D30        0.00000   0.00000   0.00000   0.00000   0.00000   0.00000
   D31       -0.91105  -0.00003  -0.00118  -0.00072  -0.00188  -0.91293
   D32        0.91105   0.00003   0.00118   0.00072   0.00188   0.91293
   D33        0.00000   0.00000   0.00000   0.00000   0.00000   0.00000
   D34        0.80029   0.00012   0.00181  -0.00036   0.00147   0.80176
   D35       -0.31166   0.00001  -0.00053  -0.00091  -0.00142  -0.31307
   D36       -1.37295   0.00000  -0.00088  -0.00112  -0.00198  -1.37493
   D37       -0.04069   0.00002  -0.00101   0.00084  -0.00019  -0.04088
   D38       -1.07527   0.00004  -0.00016   0.00076   0.00060  -1.07467
   D39        0.99663  -0.00002  -0.00162  -0.00017  -0.00179   0.99484
   D40       -0.03795   0.00000  -0.00076  -0.00025  -0.00100  -0.03895
   D41        0.57577  -0.00011  -0.00234  -0.00253  -0.00483   0.57094
   D42        1.47736  -0.00009  -0.00132  -0.00195  -0.00323   1.47413
   D43       -0.36301  -0.00011  -0.00305  -0.00371  -0.00669  -0.36969
   D44        0.97839  -0.00005  -0.00061  -0.00001  -0.00064   0.97774
   D45       -0.04096   0.00000  -0.00074  -0.00022  -0.00095  -0.04190
   D46        0.04096   0.00000   0.00074   0.00022   0.00095   0.04190
   D47       -0.97839   0.00005   0.00061   0.00001   0.00064  -0.97774
   D48        0.50967  -0.00003   0.00007   0.00011   0.00015   0.50982
   D49       -0.50967   0.00003  -0.00007  -0.00011  -0.00015  -0.50982
   D50       -0.57577   0.00011   0.00234   0.00253   0.00483  -0.57094
   D51        0.36301   0.00011   0.00305   0.00371   0.00669   0.36969
   D52       -1.47736   0.00009   0.00132   0.00195   0.00323  -1.47413
   D53        0.00000   0.00000   0.00000   0.00000   0.00000   0.00000
   D54       -0.94751  -0.00011  -0.00230  -0.00176  -0.00405  -0.95155
   D55        0.94751   0.00011   0.00230   0.00176   0.00405   0.95155
   D56        0.00000   0.00000   0.00000   0.00000   0.00000   0.00000
   D57        1.01042   0.00002  -0.00127  -0.00029  -0.00150   1.00892
   D58        2.11352   0.00005  -0.00061  -0.00016  -0.00071   2.11281
   D59        1.59990   0.00013   0.00277   0.00025   0.00310   1.60300
   D60        0.00000   0.00000   0.00000   0.00000   0.00000   0.00000
[...]
 Alpha virt. eigenvalues --    3.65393   3.65558   3.65842   3.66543   3.66988
 Alpha virt. eigenvalues --    3.67218   3.67548   3.67787   3.68154   3.68444
 Alpha virt. eigenvalues --    3.68973   3.69405   3.70485   3.71055   3.71625
 Alpha virt. eigenvalues --    3.72183   3.72607   3.72609   3.73292   3.73688
 Alpha virt. eigenvalues --    3.73900   3.74070   3.74839   3.75990   3.76368
 Alpha virt. eigenvalues --    3.76584   3.77455   3.77799   3.78234   3.78655
 Alpha virt. eigenvalues --    3.78704   3.79911   3.81027   3.81225   3.82053
 Alpha virt. eigenvalues --    3.82257   3.82624   3.83337   3.84336   3.85284
 Alpha virt. eigenvalues --    3.86549   3.86743   3.87382   3.88200   3.88834
 Alpha virt. eigenvalues --    3.89229   3.90295   3.91282   3.91836   3.92238
 Alpha virt. eigenvalues --    3.94573   3.94620   3.95479   3.96226   3.96535
 Alpha virt. eigenvalues --    3.96948   3.97336   3.97961   3.98616   3.99174
 Alpha virt. eigenvalues --    3.99590   3.99689   4.01116   4.02623   4.03182
 Alpha virt. eigenvalues --    4.03835   4.03837   4.05275   4.05332   4.06008
 Alpha virt. eigenvalues --    4.07449   4.07478   4.09524   4.09539   4.09902
 Alpha virt. eigenvalues --    4.09976   4.12510   4.12727   4.13366   4.13781
 Alpha virt. eigenvalues --    4.14328   4.15065   4.15924   4.16554   4.16914
 Alpha virt. eigenvalues --    4.17635   4.18727   4.19437   4.20615   4.20763
 Alpha virt. eigenvalues --    4.21459   4.22372   4.22618   4.22885   4.23385
 Alpha virt. eigenvalues --    4.23858   4.24224   4.25650   4.25811   4.26838
 Alpha virt. eigenvalues --    4.27046   4.27589   4.28072   4.29095   4.29105
 Alpha virt. eigenvalues --    4.29470   4.29846   4.30759   4.31301   4.31837
 Alpha virt. eigenvalues --    4.32871   4.32918   4.34344   4.34945   4.35293
 Alpha virt. eigenvalues --    4.35953   4.36590   4.36657   4.37059   4.37868
 Alpha virt. eigenvalues --    4.38457   4.38977   4.39928   4.40139   4.41076
 Alpha virt. eigenvalues --    4.42356   4.42447   4.43355   4.44267   4.44806
 Alpha virt. eigenvalues --    4.45456   4.45652   4.45963   4.46474   4.46487
 Alpha virt. eigenvalues --    4.47256   4.48950   4.49078   4.49603   4.49926
 Alpha virt. eigenvalues --    4.50261   4.51393   4.52396   4.52522   4.53192
 Alpha virt. eigenvalues --    4.53254   4.54243   4.55702   4.55804   4.57100
 Alpha virt. eigenvalues --    4.57907   4.58012   4.58185   4.58633   4.59855
 Alpha virt. eigenvalues --    4.60330   4.61049   4.62011   4.62155   4.62553
 Alpha virt. eigenvalues --    4.63396   4.63741   4.64982   4.65354   4.66587
 Alpha virt. eigenvalues --    4.67223   4.67389   4.68548   4.69197   4.69657
 Alpha virt. eigenvalues --    4.70296   4.70807   4.71178   4.71556   4.71956
 Alpha virt. eigenvalues --    4.72593   4.73078   4.73459   4.74484   4.75370
 Alpha virt. eigenvalues --    4.75889   4.75980   4.77367   4.78346   4.79321
 Alpha virt. eigenvalues --    4.79439   4.79714   4.81210   4.81398   4.81629
 Alpha virt. eigenvalues --    4.82597   4.83135   4.83956   4.84131   4.85033
 Alpha virt. eigenvalues --    4.85424   4.86590   4.86673   4.87224   4.87764
 Alpha virt. eigenvalues --    4.89356   4.90345   4.90539   4.91554   4.91906
 Alpha virt. eigenvalues --    4.93428   4.94041   4.94310   4.94568   4.94902
 Alpha virt. eigenvalues --    4.96492   4.96508   4.96917   4.97071   4.99313
 Alpha virt. eigenvalues --    5.00448   5.00692   5.00819   5.02276   5.03282
 Alpha virt. eigenvalues --    5.03623   5.04236   5.05823   5.06575   5.06679
 Alpha virt. eigenvalues --    5.09150   5.09455   5.11987   5.12042   5.12801
 Alpha virt. eigenvalues --    5.13172   5.13598   5.15839   5.17094   5.17346
 Alpha virt. eigenvalues --    5.18192   5.18316   5.20425   5.23793   5.24046
 Alpha virt. eigenvalues --    5.24966   5.25720   5.25734   5.27975   5.30073
 Alpha virt. eigenvalues --    5.30758   5.30763   5.32614   5.32688   5.33470
 Alpha virt. eigenvalues --    5.35427   5.35586   5.36393   5.36612   5.39492
 Alpha virt. eigenvalues --    5.41108   5.43372   5.43661   5.44544   5.49321
 Alpha virt. eigenvalues --    5.49650   5.50467   5.52071   5.54419   5.55708
 Alpha virt. eigenvalues --    5.56439   5.60203   5.65638   5.69165   5.71179
 Alpha virt. eigenvalues --    5.76066   5.76335   5.82098   5.83796   5.86001
 Alpha virt. eigenvalues --    5.92435   5.97564   6.06105   6.53120   6.57685
 Alpha virt. eigenvalues --    6.62824   6.65060   6.65337   6.72093   6.72889
 Alpha virt. eigenvalues --    6.78593   6.79052   6.82365   6.83566   6.85222
 Alpha virt. eigenvalues --    6.87245   6.88116   6.91351   6.92219   6.92354
 Alpha virt. eigenvalues --    6.92839   6.94530   6.95266   6.95286   6.97986
 Alpha virt. eigenvalues --    7.02234   7.03498   7.04438   7.05371   7.05563
 Alpha virt. eigenvalues --    7.09618   7.12058   7.12448   7.13441   7.17161
 Alpha virt. eigenvalues --    7.18350   7.18503   7.20507   7.23371   7.23672
 Alpha virt. eigenvalues --    7.25861   7.28164   7.34263   7.34454   7.35281
 Alpha virt. eigenvalues --    7.37510   7.38485   7.41120   7.44770   7.48821
 Alpha virt. eigenvalues --    7.51019   7.59865   7.62324   7.67719   7.69938
 Alpha virt. eigenvalues --    7.76267   7.81285   7.81308  13.94126  14.00686
 Alpha virt. eigenvalues --   14.02353  14.03916  14.05674  14.07266  14.07995
 Alpha virt. eigenvalues --   14.12834  14.22451  14.23428  14.25518  14.27625
 Alpha virt. eigenvalues --   14.29367  14.32989  14.34296  14.37197  14.37789
 Alpha virt. eigenvalues --   14.46098  14.46206  14.50303  14.51834  14.54595
 Alpha virt. eigenvalues --   14.57620  14.59068  14.62934  14.69884  14.71397
 Alpha virt. eigenvalues --   14.78946  14.95498  15.03385  15.10956  15.14544
 Alpha virt. eigenvalues --   15.24272  41.54239  42.00646  42.29640  42.92153
 Alpha virt. eigenvalues --   42.94908  43.42434  44.12967  44.22944  45.04224
 Alpha virt. eigenvalues --   46.23810  46.58355
          Condensed to atoms (all electrons):
              1          2          3          4          5          6
     1  Si  13.286291   0.174107  -0.006201  -0.006736   0.300934   0.300934
     2  Si   0.174107  13.312620   0.279436   0.008556   0.063621   0.063621
     3  Si  -0.006201   0.279436  12.732449   0.049528  -0.023311   0.115021
     4  Si  -0.006736   0.008556   0.049528  13.188060  -0.010631  -0.010631
     5  Si   0.300934   0.063621  -0.023311  -0.010631  12.798666   0.218250
     6  Si   0.300934   0.063621   0.115021  -0.010631   0.218250  12.798666
     7  Si  -0.006201   0.279436   0.090687   0.049528   0.115021  -0.023311
     8  Si  -0.011207  -0.007153   0.258894   0.197603  -0.007723   0.276429
     9  Si   0.002674  -0.029547   0.370285   0.157260   0.000398   0.000398
    10  Si  -0.021495  -0.001122   0.012987   0.152746   0.170042   0.170042
    11  Si  -0.011207  -0.007153  -0.009592   0.197603   0.276429  -0.007723
              7          8          9         10         11
     1  Si  -0.006201  -0.011207   0.002674  -0.021495  -0.011207
     2  Si   0.279436  -0.007153  -0.029547  -0.001122  -0.007153
     3  Si   0.090687   0.258894   0.370285   0.012987  -0.009592
     4  Si   0.049528   0.197603   0.157260   0.152746   0.197603
     5  Si   0.115021  -0.007723   0.000398   0.170042   0.276429
     6  Si  -0.023311   0.276429   0.000398   0.170042  -0.007723
     7  Si  12.732449  -0.009592   0.370285   0.012987   0.258894
     8  Si  -0.009592  13.273963  -0.007964   0.151807   0.005292
     9  Si   0.370285  -0.007964  13.244296  -0.002899  -0.007964
    10  Si   0.012987   0.151807  -0.002899  13.210220   0.151807
    11  Si   0.258894   0.005292  -0.007964   0.151807  13.273963
 Mulliken atomic charges:
              1
     1  Si  -0.001893
     2  Si  -0.136422
     3  Si   0.129817
     4  Si   0.027115
     5  Si   0.098303
     6  Si   0.098303
     7  Si   0.129817
     8  Si  -0.120349
     9  Si  -0.097222
    10  Si  -0.007122
    11  Si  -0.120349
 Sum of Mulliken atomic charges =   0.00000
 Mulliken charges with hydrogens summed into heavy atoms:
              1
     1  Si  -0.001893
     2  Si  -0.136422
     3  Si   0.129817
     4  Si   0.027115
     5  Si   0.098303
     6  Si   0.098303
     7  Si   0.129817
     8  Si  -0.120349
     9  Si  -0.097222
    10  Si  -0.007122
    11  Si  -0.120349
 Sum of Mulliken charges with hydrogens summed into heavy atoms =   0.00000
 Electronic spatial extent (au):  <R**2>=           3472.0494
 Charge=              0.0000 electrons
 Dipole moment (field-independent basis, Debye):
    X=              0.5218    Y=              1.7516    Z=              0.0000  Tot=              1.8276
 Quadrupole moment (field-independent basis, Debye-Ang):
   XX=           -149.9617   YY=           -153.2808   ZZ=           -147.6774
   XY=             -1.5051   XZ=              0.0000   YZ=              0.0000
 Traceless Quadrupole moment (field-independent basis, Debye-Ang):
   XX=              0.3450   YY=             -2.9742   ZZ=              2.6292
   XY=             -1.5051   XZ=              0.0000   YZ=              0.0000
 Octapole moment (field-independent basis, Debye-Ang**2):
  XXX=              5.0108  YYY=             10.0531  ZZZ=              0.0000  XYY=             -2.9040
  XXY=              9.2605  XXZ=              0.0000  XZZ=             12.3438  YZZ=             13.2285
  YYZ=              0.0000  XYZ=              0.0000
 Hexadecapole moment (field-independent basis, Debye-Ang**3):
 XXXX=          -1834.5297 YYYY=          -2746.1166 ZZZZ=          -1600.3410 XXXY=            103.2782
 XXXZ=              0.0000 YYYX=            134.8853 YYYZ=              0.0000 ZZZX=              0.0000
 ZZZY=              0.0000 XXYY=           -754.5885 XXZZ=           -562.2866 YYZZ=           -681.6243
 XXYZ=              0.0000 YYXZ=              0.0000 ZZXY=             24.2650
 N-N= 1.799619592969D+03 E-N=-1.118232124781D+04  KE= 3.178205406607D+03
 Symmetry A'   KE= 2.187378120187D+03
 Symmetry A"   KE= 9.908272864201D+02
 1\1\GINC-NODE79\SP\RHF\GFHFB2\Si11\TAM\18-Dec-2011\0\\#N Geom=AllCheck
  Guess=TCheck SCRF=Check HF/GFHFB2 SCF=Tight\\si11-n\\0,1\Si,0,-3.2693
 076745,0.4231608361,0.\Si,0,-1.2663580532,1.909282937,0.\Si,0,0.650030
 7978,1.192312633,1.2878693069\Si,0,2.1011160967,-0.9023632948,0.\Si,0,
 -1.4205271785,-0.5020990483,-1.2189242915\Si,0,-1.4205271785,-0.502099
 0483,1.2189242915\Si,0,0.6500307978,1.192312633,-1.2878693069\Si,0,0.7
 223541832,-1.1062310434,2.1637811535\Si,0,2.5645068143,1.6073294472,0.
 \Si,0,-0.0336715784,-2.2053620178,0.\Si,0,0.7223541832,-1.1062310434,-
 2.1637811535\\Version=AM64L-G09RevA.02\State=1-A'\HF=-3178.2140112\RMS
 D=7.715e-09\Dipole=-0.6075571,0.3845722,0.\Quadrupole=-1.4450428,-0.50
 96968,1.9547395,1.5986838,0.,0.\PG=CS [SG(Si5),X(Si6)]\\@


 SCIENCE IS A VERY HUMAN FORM OF KNOWLEDGE.
 WE ARE ALWAYS AT THE BRINK OF THE KNOWN,
 WE ALWAYS FEEL FORWARD FOR WHAT IS HOPED.
 EVERY JUDGEMENT IN SCIENCE STANDS ON THE EDGE OF ERROR, AND IS PERSONAL.
 SCIENCE IS A TRIBUTE TO WHAT WE CAN KNOW ALTHOUGH WE ARE FALLIBLE.

                     -- J. BRONOWSKI
 Diagonal vibrational polarizability:
        0.0000000       0.0000000       0.0000000

 Temperature=              298.150000 Pressure=                      1.000000
 E(ZPE)=                     0.016278 E(Thermal)=                    0.032137
 E(CCSD(T))=             -3179.027557 E(Empiric)=                   -0.152834
 DE(Plus)=                  -0.027766 DE(2DF)=                      -0.394399
 E(Delta-G3XP)=             -3.451310 DE(HF)=                       -0.073082
 G4(0 K)=                -3183.110670 G4 Energy=                 -3183.094812
 G4 Enthalpy=            -3183.093867 G4 Free Energy=            -3183.153131
 1\1\GINC-NODE79\Mixed\G4\G4\Si11\TAM\18-Dec-2011\0\\# G4 scfcyc=500 sc
 f=xqc\\si11-n\\0,1\Si,0,-3.2693076745,0.4231608361,0.\Si,0,-1.26635805
 32,1.909282937,0.\Si,0,0.6500307978,1.192312633,1.2878693069\Si,0,2.10
 11160967,-0.9023632948,0.\Si,0,-1.4205271785,-0.5020990483,-1.21892429
 15\Si,0,-1.4205271785,-0.5020990483,1.2189242915\Si,0,0.6500307978,1.1
 92312633,-1.2878693069\Si,0,0.7223541832,-1.1062310434,2.1637811535\Si
 ,0,2.5645068143,1.6073294472,0.\Si,0,-0.0336715784,-2.2053620178,0.\Si
 ,0,0.7223541832,-1.1062310434,-2.1637811535\\Version=AM64L-G09RevA.02\
 State=1-A'\MP2/GTBas1=-3178.9588044\MP4/GTBas1=-3179.1066597\CCSD(T)/G
 3Bas1=-3179.0275569\MP2/GTBas2=-3178.9837484\MP4/GTBas2=-3179.1344255\
 MP2/GTBas3=-3179.316942\MP4/GTBas3=-3179.5010586\HF/GTLargeXP=-3178.14
 36428\MP2/GTLargeXP=-3182.7931963\HF/GFHFB1=-3178.2028735\HF/GFHFB2=-3
 178.2140112\G4=-3183.1106702\FreqCoord=-6.178096149,0.7996580904,0.,-2
 .3930699068,3.6080218612,0.,1.2283801858,2.2531443411,2.4337202851,3.9
 705339961,-1.7052194996,0.,-2.6844073316,-0.9488296929,-2.3034330876,-
 2.6844073316,-0.9488296929,2.3034330876,1.2283801858,2.2531443411,-2.4
 337202851,1.3650515771,-2.0904737118,4.0889537917,4.846215545,3.037412
 4606,0.,-0.0636300616,-4.1675302374,0.,1.3650515771,-2.0904737118,-4.0
 889537917\PG=CS [SG(Si5),X(Si6)]\NImag=0\\0.11930455,-0.01720004,0.040
 67769,0.,0.,0.02805884,-0.02753482,-0.02205136,0.,0.10592210,-0.019840
 83,-0.01473371,0.,-0.00165155,0.06438268,0.,0.,-0.00853164,0.,0.,0.049
 72663,-0.00383049,-0.00181946,-0.00309847,-0.03434362,0.00768816,-0.02
 091970,0.10823062,0.00037126,-0.00046402,-0.00299693,0.00935915,-0.008
 36657,0.01285506,0.01227592,0.06940026,0.00400199,-0.00155971,0.003135
 75,-0.01357459,0.00871937,-0.01463105,-0.00761910,-0.01854319,0.083054
 35,-0.00712334,-0.00365156,0.,0.00241704,-0.00065359,0.,-0.00273847,0.
 00198055,0.00113751,0.06571352,-0.00004133,0.00044068,0.,0.00919328,-0
 .00580467,0.,0.00066130,0.00066348,-0.00752641,0.02128988,0.05388040,0
 .,0.,-0.00423297,0.,0.,-0.00215459,-0.00009907,-0.00379610,-0.00180369
 ,0.,0.,0.03498377,-0.04000578,0.02174543,0.02340630,-0.00120774,0.0005
 4880,-0.00487306,-0.00154654,-0.00408668,0.00159031,-0.00903578,0.0025
 1171,-0.00545075,0.10739046,0.01907153,-0.01308900,-0.01129112,0.00161
 712,-0.01224139,-0.00743510,-0.00586803,-0.00023380,-0.00407689,0.0000
 1664,-0.00190813,0.00477321,-0.03846192,0.05312913,0.02348344,-0.00769
 808,-0.00844255,-0.00471350,-0.00149082,-0.00241487,-0.00480814,-0.000
 43607,-0.00626816,0.00658923,0.00092136,0.00422955,-0.02220479,0.01190
 475,0.08568657,-0.04000578,0.02174543,-0.02340630,-0.00120774,0.000548
 80,0.00487306,-0.00600199,-0.00883010,-0.00167931,-0.00903578,0.002511
 71,0.00545075,0.00282961,0.00175991,-0.00125859,0.10739046,0.01907153,
 -0.01308900,0.01129112,0.00161712,-0.01224139,0.00743510,-0.01028192,-
 0.00405478,0.00027094,0.00001664,-0.00190813,-0.00477321,0.00175991,0.
 00369958,-0.00325325,-0.03846192,0.05312913,-0.02348344,0.00769808,-0.
 00844255,0.00471350,0.00149082,-0.00241487,0.00125837,-0.00072671,0.00
 240331,-0.00658923,-0.00092136,0.00422955,0.00125859,0.00325325,-0.049
 48450,0.02220479,-0.01190475,0.08568657,-0.00383049,-0.00181946,0.0030
 9847,-0.03434362,0.00768816,0.02091970,0.01083067,0.00059754,-0.000403
 29,-0.00273847,0.00066130,0.00009907,-0.00600199,-0.01028192,-0.001258
 37,-0.00154654,-0.00586803,0.00480814,0.10823062,0.00037126,-0.0004640
 2,0.00299693,0.00935915,-0.00836657,-0.01285506,0.00059754,-0.01015375
 ,0.00028589,0.00198055,0.00066348,0.00379610,-0.00883010,-0.00405478,0
 .00072671,-0.00408668,-0.00023380,0.00043607,0.01227592,0.06940026,-0.
 00400199,0.00155971,0.00313575,0.01357459,-0.00871937,-0.01463105,0.00
 040329,-0.00028589,-0.03545058,-0.00113751,0.00752641,-0.00180369,0.00
 167931,-0.00027094,0.00240331,-0.00159031,0.00407689,-0.00626816,0.007
 61910,0.01854319,0.08305435,0.00330012,-0.00149650,-0.00065150,0.00003
 424,0.00113916,-0.00304997,-0.00137307,0.00127695,-0.00160327,-0.00573
 009,-0.00149138,0.00785356,-0.00194492,0.00029308,-0.00648781,-0.03876
 511,0.01591351,-0.01849212,-0.00409762,0.00072569,0.00430053,0.0515618
 9,-0.00120685,-0.00165795,-0.00078553,-0.00120373,-0.00113115,0.003542
 98,0.00328557,-0.03411535,0.01735942,0.00222661,-0.00081660,0.00106946
 ,-0.00291855,-0.00261960,-0.00067799,0.01301252,-0.00068745,0.00720028
 ,0.00442056,-0.00131598,0.00438333,-0.01055891,0.05260652,0.00131876,-
 0.00093286,-0.00153710,0.00126472,-0.00238434,-0.00110370,-0.00208178,
 0.01474650,-0.01134143,0.00438520,0.00324082,-0.02012989,-0.00074692,0
 .00230635,-0.00647157,-0.01647304,0.00727187,-0.00762465,-0.00080133,0
 .00291554,-0.00603624,0.02208630,-0.02348190,0.08477053,-0.00291796,0.
 00411615,0.,-0.00982273,-0.00199502,0.,-0.05871162,-0.01081864,0.02144
 638,0.00987089,-0.00909568,0.,-0.00025494,0.00072791,0.00125285,-0.000
 25494,0.00072791,-0.00125285,-0.05871162,-0.01081864,-0.02144638,0.000
 57782,-0.00295318,-0.00156165,0.11938828,-0.00028668,0.00492499,0.,-0.
 00308907,0.00465953,0.,-0.01081300,-0.00310104,0.00875407,-0.00448496,
 -0.03283989,0.,0.00397288,-0.00325606,-0.00107493,0.00397288,-0.003256
 06,0.00107493,-0.01081300,-0.00310104,-0.00875407,-0.00206483,-0.00262
 930,-0.00119278,0.02809512,0.04400943,0.,0.,-0.00153922,0.,0.,-0.00074
 391,0.03502848,0.01019798,-0.01413675,0.,0.,-0.00001981,-0.00169193,-0
 .00300255,-0.00311531,0.00169193,0.00300255,-0.00311531,-0.03502848,-0
 .01019798,-0.01413675,0.00281530,0.00375804,-0.00135116,0.,0.,0.043762
 40,-0.00065613,0.00192787,0.,0.00005265,0.00538874,0.,-0.00641787,-0.0
 0285163,0.00100390,-0.03586946,-0.02470940,0.,-0.01145728,0.01521214,-
 0.00908644,-0.01145728,0.01521214,0.00908644,-0.00641787,-0.00285163,-
 0.00100390,0.00296019,-0.00332681,-0.00658631,0.00025900,-0.00242450,0
 .,0.06604386,0.00089700,-0.00088772,0.,-0.00194638,-0.00502561,0.,-0.0
 0014664,-0.00825844,0.00069983,-0.02094738,-0.01155402,0.,0.01074598,-
 0.01873851,0.00827861,0.01074598,-0.01873851,-0.00827861,-0.00014664,-
 0.00825844,-0.00069983,-0.00295952,-0.00249079,-0.00462621,0.00496725,
 -0.00278127,0.,0.00174989,0.07922410,0.,0.,-0.00006722,0.,0.,-0.001997
 25,0.00113477,-0.00809912,0.00107449,0.,0.,0.00683166,-0.00944009,0.01
 111090,-0.00849781,0.00944009,-0.01111090,-0.00849781,-0.00113477,0.00
 809912,0.00107449,-0.00757496,-0.01023107,-0.02513429,0.,0.,-0.0042530
 3,0.,0.,0.06460105,0.00330012,-0.00149650,0.00065151,0.00003424,0.0011
 3916,0.00304997,-0.00409762,0.00072569,-0.00430053,-0.00573009,-0.0014
 9138,-0.00785356,-0.03876511,0.01591351,0.01849212,-0.00194492,0.00029
 308,0.00648781,-0.00137307,0.00127695,0.00160327,-0.00652345,-0.000777
 24,-0.00080395,0.00057782,-0.00206483,-0.00281530,0.00296019,-0.002959
 52,0.00757496,0.05156189,-0.00120685,-0.00165795,0.00078553,-0.0012037
 3,-0.00113115,-0.00354298,0.00442056,-0.00131598,-0.00438333,0.0022266
 1,-0.00081660,-0.00106946,0.01301252,-0.00068745,-0.00720028,-0.002918
 55,-0.00261960,0.00067799,0.00328557,-0.03411535,-0.01735942,-0.000777
 24,-0.00514236,0.00213701,-0.00295318,-0.00262930,-0.00375804,-0.00332
 681,-0.00249079,0.01023107,-0.01055891,0.05260652,-0.00131876,0.000932
 86,-0.00153710,-0.00126472,0.00238434,-0.00110370,0.00080133,-0.002915
 54,-0.00603624,-0.00438520,-0.00324082,-0.02012989,0.01647304,-0.00727
 187,-0.00762465,0.00074692,-0.00230635,-0.00647157,0.00208178,-0.01474
 650,-0.01134143,0.00080395,-0.00213701,-0.00404051,0.00156165,0.001192
 78,-0.00135116,0.00658631,0.00462621,-0.02513429,-0.02208630,0.0234819
 0,0.08477053\\-0.00005302,-0.00000729,0.,0.00000575,0.00004281,0.,-0.0
 0002313,0.00012977,0.00001431,0.00001798,0.00003991,0.,-0.00000774,-0.
 00004744,-0.00007086,-0.00000774,-0.00004744,0.00007086,-0.00002313,0.
 00012977,-0.00001431,0.00006747,-0.00005011,0.00010030,0.00000736,-0.0
 0001705,0.,-0.00005127,-0.00012283,0.,0.00006747,-0.00005011,-0.000100
 30\\\@
 Job cpu time:  1 days  8 hours 25 minutes 11.3 seconds.
 File lengths (MBytes):  RWF=  12472 Int=      0 D2E=      0 Chk=     70 Scr=      1
 Normal termination of Gaussian 09 at Sun Dec 18 08:45:13 2011.
