 Entering Gaussian System, Link 0=g09
 Initial command:
 /usr/local/chem/g09A2/l1.exe /temp0/tam/Gau-27361.inp -scrdir=/temp0/tam/
 Entering Link 1 = /usr/local/chem/g09A2/l1.exe PID=     27362.
  
 Copyright (c) 1988,1990,1992,1993,1995,1998,2003,2009, Gaussian, Inc.
                  All Rights Reserved.
  
 This is part of the Gaussian(R) 09 program.  It is based on
 the Gaussian(R) 03 system (copyright 2003, Gaussian, Inc.),
 the Gaussian(R) 98 system (copyright 1998, Gaussian, Inc.),
 the Gaussian(R) 94 system (copyright 1995, Gaussian, Inc.),
 the Gaussian 92(TM) system (copyright 1992, Gaussian, Inc.),
 the Gaussian 90(TM) system (copyright 1990, Gaussian, Inc.),
 the Gaussian 88(TM) system (copyright 1988, Gaussian, Inc.),
 the Gaussian 86(TM) system (copyright 1986, Carnegie Mellon
 University), and the Gaussian 82(TM) system (copyright 1983,
 Carnegie Mellon University). Gaussian is a federally registered
 trademark of Gaussian, Inc.
  
 This software contains proprietary and confidential information,
 including trade secrets, belonging to Gaussian, Inc.
  
 This software is provided under written license and may be
 used, copied, transmitted, or stored only in accord with that
 written license.
  
 The following legend is applicable only to US Government
 contracts under FAR:
  
                    RESTRICTED RIGHTS LEGEND
  
 Use, reproduction and disclosure by the US Government is
 subject to restrictions as set forth in subparagraphs (a)
 and (c) of the Commercial Computer Software - Restricted
 Rights clause in FAR 52.227-19.
  
 Gaussian, Inc.
 340 Quinnipiac St., Bldg. 40, Wallingford CT 06492
  
  
 ---------------------------------------------------------------
 Warning -- This program may not be used in any manner that
 competes with the business of Gaussian, Inc. or will provide
 assistance to any competitor of Gaussian, Inc.  The licensee
 of this program is prohibited from giving any competitor of
 Gaussian, Inc. access to this program.  By using this program,
 the user acknowledges that Gaussian, Inc. is engaged in the
 business of creating and licensing software in the field of
 computational chemistry and represents and warrants to the
 licensee that it is not a competitor of Gaussian, Inc. and that
 it will not use this program in any manner prohibited above.
 ---------------------------------------------------------------
  

 Cite this work as:
 Gaussian 09, Revision A.02,
 M. J. Frisch, G. W. Trucks, H. B. Schlegel, G. E. Scuseria, 
 M. A. Robb, J. R. Cheeseman, G. Scalmani, V. Barone, B. Mennucci, 
 G. A. Petersson, H. Nakatsuji, M. Caricato, X. Li, H. P. Hratchian, 
 A. F. Izmaylov, J. Bloino, G. Zheng, J. L. Sonnenberg, M. Hada, 
 M. Ehara, K. Toyota, R. Fukuda, J. Hasegawa, M. Ishida, T. Nakajima, 
 Y. Honda, O. Kitao, H. Nakai, T. Vreven, J. A. Montgomery, Jr., 
 J. E. Peralta, F. Ogliaro, M. Bearpark, J. J. Heyd, E. Brothers, 
 K. N. Kudin, V. N. Staroverov, R. Kobayashi, J. Normand, 
 K. Raghavachari, A. Rendell, J. C. Burant, S. S. Iyengar, J. Tomasi, 
 M. Cossi, N. Rega, J. M. Millam, M. Klene, J. E. Knox, J. B. Cross, 
 V. Bakken, C. Adamo, J. Jaramillo, R. Gomperts, R. E. Stratmann, 
 O. Yazyev, A. J. Austin, R. Cammi, C. Pomelli, J. W. Ochterski, 
 R. L. Martin, K. Morokuma, V. G. Zakrzewski, G. A. Voth, 
 P. Salvador, J. J. Dannenberg, S. Dapprich, A. D. Daniels, 
 O. Farkas, J. B. Foresman, J. V. Ortiz, J. Cioslowski, 
 and D. J. Fox, Gaussian, Inc., Wallingford CT, 2009.
 
 ******************************************
 Gaussian 09:  AM64L-G09RevA.02 11-Jun-2009
                 5-Mar-2012 
 ******************************************
 %NprocShared=8
 Will use up to    8 processors via shared memory.
 %mem=19050MB
 %chk=S9L-ne-d-01
 -----------------------
 # G4 scfcyc=500 scf=xqc
 -----------------------
 1/14=-1,18=20,19=15,26=3,38=1/1,3;
 2/9=110,12=2,17=6,18=5,40=1/2;
 3/5=35,7=104,11=2,16=1,25=1,30=1,71=1,74=-5/1,2,3;
 4//1;
 5/5=2,7=500,8=3,13=1,38=5/2,8;
 6/7=2,8=2,9=2,10=2,28=1/1;
 7//1,2,3,16;
 1/14=-1,18=20,19=15/3(2);
 2/9=110/2;
 99//99;
 2/9=110/2;
 3/5=35,7=104,11=2,16=1,25=1,30=1,71=1,74=-5/1,2,3;
 4/5=5,16=3/1;
 5/5=2,7=500,8=3,13=1,38=5/2,8;
 7//1,2,3,16;
 1/14=-1,18=20,19=15/3(-5);
 2/9=110/2;
 6/7=2,8=2,9=2,10=2,19=2,28=1/1;
 99/9=1/99;
 --------
 si5-an-d
 --------
 Symbolic Z-matrix:
 Charge = -1 Multiplicity = 2
 Si                   -1.38899  -0.80193   0. 
 Si                    0.        1.60387   0. 
 Si                    1.38899  -0.80193   0. 
 Si                    0.        0.        1.72561 
 Si                    0.        0.       -1.72561 
 

 GradGradGradGradGradGradGradGradGradGradGradGradGradGradGradGradGradGrad
 Berny optimization.
 Initialization pass.
                           ----------------------------
                           !    Initial Parameters    !
                           ! (Angstroms and Degrees)  !
 --------------------------                            --------------------------
 ! Name  Definition              Value          Derivative Info.                !
 --------------------------------------------------------------------------------
 ! R1    R(1,2)                  2.778          estimate D2E/DX2                !
 ! R2    R(1,3)                  2.778          estimate D2E/DX2                !
 ! R3    R(1,4)                  2.3559         estimate D2E/DX2                !
 ! R4    R(1,5)                  2.3559         estimate D2E/DX2                !
 ! R5    R(2,3)                  2.778          estimate D2E/DX2                !
 ! R6    R(2,4)                  2.3559         estimate D2E/DX2                !
 ! R7    R(2,5)                  2.3559         estimate D2E/DX2                !
 ! R8    R(3,4)                  2.3559         estimate D2E/DX2                !
 ! R9    R(3,5)                  2.3559         estimate D2E/DX2                !
 ! A1    A(4,1,5)               94.1883         estimate D2E/DX2                !
 ! A2    A(4,2,5)               94.1883         estimate D2E/DX2                !
 ! A3    A(4,3,5)               94.1883         estimate D2E/DX2                !
 --------------------------------------------------------------------------------
 Trust Radius=3.00D-01 FncErr=1.00D-07 GrdErr=1.00D-06
 Number of steps in this run=  22 maximum allowed number of steps= 100.
 GradGradGradGradGradGradGradGradGradGradGradGradGradGradGradGradGradGrad

                          Input orientation:                          
 ---------------------------------------------------------------------
 Center     Atomic      Atomic             Coordinates (Angstroms)
 Number     Number       Type             X           Y           Z
 ---------------------------------------------------------------------
      1         14           0       -1.388991   -0.801934    0.000000
      2         14           0        0.000000    1.603868    0.000000
      3         14           0        1.388991   -0.801934    0.000000
      4         14           0        0.000000    0.000000    1.725613
      5         14           0        0.000000    0.000000   -1.725613
 ---------------------------------------------------------------------
                    Distance matrix (angstroms):
                    1          2          3          4          5
     1  Si   0.000000
     2  Si   2.777981   0.000000
     3  Si   2.777981   2.777981   0.000000
     4  Si   2.355872   2.355872   2.355872   0.000000
     5  Si   2.355872   2.355872   2.355872   3.451226   0.000000
 Stoichiometry    Si5(1-,2)
 Framework group  D3H[C3(Si.Si),3C2(Si)]
 Deg. of freedom     2
 Full point group                 D3H     NOp  12
 Largest Abelian subgroup         C2V     NOp   4
 Largest concise Abelian subgroup C2V     NOp   4
                         Standard orientation:                         
 ---------------------------------------------------------------------
 Center     Atomic      Atomic             Coordinates (Angstroms)
 Number     Number       Type             X           Y           Z
 ---------------------------------------------------------------------
      1         14           0        0.000000    1.603868    0.000000
      2         14           0        1.388991   -0.801934    0.000000
      3         14           0       -1.388991   -0.801934    0.000000
      4         14           0        0.000000    0.000000    1.725613
      5         14           0        0.000000    0.000000   -1.725613
 ---------------------------------------------------------------------
 Rotational constants (GHZ):      2.3407690      1.8406364      1.8406364
 Standard basis: GTBas3 (6D, 7F)
 There are    59 symmetry adapted basis functions of A1  symmetry.
 There are    23 symmetry adapted basis functions of A2  symmetry.
 There are    39 symmetry adapted basis functions of B1  symmetry.
 There are    39 symmetry adapted basis functions of B2  symmetry.
 Integral buffers will be    131072 words long.
 Raffenetti 2 integral format.
 Two-electron integral symmetry is turned on.
   160 basis functions,   340 primitive gaussians,   175 cartesian basis functions
    36 alpha electrons       35 beta electrons
       nuclear repulsion energy       406.2144764802 Hartrees.
 NAtoms=    5 NActive=    5 NUniq=    2 SFac= 3.00D+00 NAtFMM=   80 NAOKFM=F Big=F
 One-electron integrals computed using PRISM.
 NBasis=   160 RedAO= T  NBF=    59    23    39    39
 NBsUse=   160 1.00D-06 NBFU=    59    23    39    39
 Harris functional with IExCor=  402 diagonalized for initial guess.
 ExpMin= 7.78D-02 ExpMax= 1.61D+04 ExpMxC= 2.43D+03 IAcc=2 IRadAn=         0 AccDes= 0.00D+00
 HarFok:  IExCor=  402 AccDes= 0.00D+00 IRadAn=         0 IDoV= 1
 ScaDFX=  1.000000  1.000000  1.000000  1.000000
 FoFCou: FMM=F IPFlag=           0 FMFlag=      100000 FMFlg1=           0
         NFxFlg=           0 DoJE=T BraDBF=F KetDBF=T FulRan=T
         Omega=  0.000000  0.000000  1.000000  0.000000  0.000000 ICntrl=     500 IOpCl=  0
         NMat0=    1 NMatS0=    1 NMatT0=    0 NMatD0=    1 NMtDS0=    0 NMtDT0=    0
         I1Cent=           4 NGrid=           0.
 Petite list used in FoFCou.
 Initial guess orbital symmetries:
 Alpha Orbitals:
       Occupied  (A2") (A1') (E') (E') (A1') (A2") (A1') (E') (E')
                 (A1') (A1') (A2") (E') (E') (E") (E") (E') (E')
                 (A1') (E") (E") (A2") (A2') (E') (E') (A1') (A2")
                 (E') (E') (A1') (E") (E") (A1') (E') (E') (A2")
       Virtual   (E') (E') (A2') (E') (E') (A2") (E") (E") (A1')
                 (A1') (E") (E") (E') (E') (A1') (A2") (E") (E")
                 (E') (E') (A1') (E') (E') (A2") (E') (E') (A2')
                 (E') (E') (E") (E") (A1') (A1") (A2") (E') (E')
                 (E") (E") (E') (E') (A1') (A2") (E") (E") (A2')
                 (A1') (E') (E') (E') (E') (A1') (A2") (E") (E")
                 (A1') (A2") (E") (E") (A1') (A2') (E') (E') (E")
                 (E") (A1') (E') (E') (A1") (E') (E') (A2") (A2")
                 (E') (E') (E") (E") (A1') (A2') (E') (E') (A1')
                 (A1") (A2") (E') (E') (E") (E") (A2') (E") (E")
                 (A1') (E') (E') (A2") (E") (E") (E") (E") (E')
                 (E') (A1') (E') (E') (A2") (A1") (A1') (E') (E')
                 (A2") (E") (E") (E') (E') (E') (E') (A2') (E")
                 (E") (A1') (A1') (E') (E') (A2") (A1')
 Beta  Orbitals:
       Occupied  (A2") (A1') (E') (E') (A1') (A2") (A1') (E') (E')
                 (A1') (A1') (A2") (E') (E') (E") (E") (E') (E')
                 (A1') (E") (E") (A2") (A2') (E') (E') (A1') (A2")
                 (E') (E') (A1') (E") (E") (A1') (E') (E')
       Virtual   (A2") (E') (E') (A2') (E') (E') (A2") (E") (E")
                 (A1') (A1') (E") (E") (E') (E') (A1') (A2") (E")
                 (E") (E') (E') (A1') (E') (E') (A2") (E') (E')
                 (A2') (E') (E') (E") (E") (A1') (A1") (A2") (E')
                 (E') (E") (E") (E') (E') (A1') (A2") (E") (E")
                 (A2') (A1') (E') (E') (E') (E') (A1') (A2") (E")
                 (E") (A1') (A2") (E") (E") (A1') (A2') (E') (E')
                 (E") (E") (A1') (E') (E') (A1") (E') (E') (A2")
                 (A2") (E') (E') (E") (E") (A1') (A2') (E') (E')
                 (A1') (A1") (A2") (E') (E') (E") (E") (A2') (E")
                 (E") (A1') (E') (E') (A2") (E") (E") (E") (E")
                 (E') (E') (A1') (E') (E') (A2") (A1") (A1') (E')
                 (E') (A2") (E") (E") (E') (E') (E') (E') (A2')
                 (E") (E") (A1') (A1') (E') (E') (A2") (A1')
 The electronic state of the initial guess is 2-A2".
 Initial guess <Sx>= 0.0000 <Sy>= 0.0000 <Sz>= 0.5000 <S**2>= 0.7500 S= 0.5000
 Requested convergence on RMS density matrix=1.00D-08 within 128 cycles.
 Requested convergence on MAX density matrix=1.00D-06.
 Requested convergence on             energy=1.00D-06.
 No special actions if energy rises.
 Keep R1 and R2 ints in memory in canonical form, NReq=240053959.
 Integral accuracy reduced to 1.0D-05 until final iterations.
 Initial convergence to 1.0D-05 achieved.  Increase integral accuracy.
 SCF Done:  E(UB3LYP) =  -1447.49077498     A.U. after   15 cycles
             Convg  =    0.3979D-08             -V/T =  2.0034
 <Sx>= 0.0000 <Sy>= 0.0000 <Sz>= 0.5000 <S**2>= 0.7582 S= 0.5041
 <L.S>= 0.000000000000E+00
 Annihilation of the first spin contaminant:
 S**2 before annihilation     0.7582,   after     0.7500
 QCSCF skips out because SCF is already converged.

 **********************************************************************

            Population analysis using the SCF density.

 **********************************************************************

 Orbital symmetries:
 Alpha Orbitals:
       Occupied  (A2") (A1') (E') (E') (A1') (A2") (A1') (A1')
                 (E') (E') (A1') (A2") (E') (E') (E") (E") (A2')
                 (E') (E') (A1') (E') (E') (E") (E") (A2") (A1')
                 (A2") (E') (E') (A1') (A1') (E") (E") (E') (E')
                 (A2")
       Virtual   (E') (E') (A2') (E') (E') (A2") (E") (E") (A1')
                 (A1') (A1') (E") (E") (A2") (E') (E') (A1') (E')
                 (E') (E") (E") (E') (E') (A2") (A2') (E') (E')
                 (E") (E") (E') (E') (A1') (A2") (A1") (E') (E')
                 (E") (E") (E') (E') (A1') (A2") (E") (E") (A2')
                 (A1') (E') (E') (E') (E') (A1') (A2") (E") (E")
                 (A1') (A2") (A1') (E") (E") (A2') (E') (E') (A1')
                 (E") (E") (E') (E') (A1") (A2") (E') (E') (A2")
                 (E') (E') (A1') (E") (E") (A1') (A2') (E') (E')
                 (A2") (A1") (E') (E') (A2') (E") (E") (E') (E')
                 (A1') (E") (E") (A2") (E") (E") (E") (E") (E')
                 (E') (A1') (E') (E') (A2") (A1") (E') (E') (A1')
                 (E") (E") (A2") (E') (E') (E') (E') (A2') (E")
                 (E") (A1') (A1') (E') (E') (A2") (A1')
 Beta  Orbitals:
       Occupied  (A2") (A1') (E') (E') (A1') (A1') (A2") (A1')
                 (E') (E') (E') (E') (E") (E") (A1') (A2") (A2')
                 (E') (E') (E') (E') (A1') (E") (E") (A2") (A1')
                 (A2") (E') (E') (A1') (A1') (E") (E") (E') (E')
       Virtual   (A2") (E') (E') (A2') (E') (E') (A2") (E") (E")
                 (A1') (A1') (A1') (E") (E") (A2") (E') (E') (E')
                 (E') (A1') (E") (E") (E') (E') (A2') (A2") (E')
                 (E') (E") (E") (E') (E') (A1') (A2") (A1") (E')
                 (E') (E") (E") (E') (E') (A1') (A2") (E") (E")
                 (A2') (A1') (E') (E') (E') (E') (A2") (A1') (E")
                 (E") (A1') (A2") (A1') (E") (E") (A2') (E') (E')
                 (A1') (E") (E") (E') (E') (A1") (E') (E') (A2")
                 (A2") (E') (E') (A1') (E") (E") (A1') (A2') (E')
                 (E') (A2") (A1") (E') (E') (A2') (E") (E") (E')
                 (E') (E") (E") (A1') (A2") (E") (E") (E") (E")
                 (E') (E') (A1') (E') (E') (A2") (A1") (E') (E')
                 (A1') (E") (E") (A2") (E') (E') (A2') (E') (E')
                 (E") (E") (A1') (A1') (E') (E') (A2") (A1')
 The electronic state is 2-A2".
 Alpha  occ. eigenvalues --  -65.96629 -65.96629 -65.96061 -65.96061 -65.96060
 Alpha  occ. eigenvalues --   -5.11314  -5.11313  -5.10729  -5.10728  -5.10728
 Alpha  occ. eigenvalues --   -3.47291  -3.47289  -3.47091  -3.47091  -3.47088
 Alpha  occ. eigenvalues --   -3.47088  -3.46625  -3.46622  -3.46622  -3.46482
 Alpha  occ. eigenvalues --   -3.46481  -3.46481  -3.46466  -3.46466  -3.46465
 Alpha  occ. eigenvalues --   -0.45547  -0.30992  -0.26114  -0.26114  -0.15693
 Alpha  occ. eigenvalues --   -0.09633  -0.08182  -0.08182  -0.04751  -0.04751
 Alpha  occ. eigenvalues --   -0.04224
 Alpha virt. eigenvalues --    0.09231   0.09231   0.13584   0.14279   0.14279
 Alpha virt. eigenvalues --    0.16190   0.18706   0.18706   0.20217   0.26741
 Alpha virt. eigenvalues --    0.30247   0.30406   0.30406   0.31183   0.32668
 Alpha virt. eigenvalues --    0.32668   0.35410   0.36733   0.36733   0.37891
 Alpha virt. eigenvalues --    0.37891   0.41638   0.41638   0.44173   0.44693
 Alpha virt. eigenvalues --    0.45084   0.45084   0.45832   0.45832   0.48452
 Alpha virt. eigenvalues --    0.48452   0.50348   0.51027   0.52698   0.59986
 Alpha virt. eigenvalues --    0.59986   0.60726   0.60726   0.64090   0.64090
 Alpha virt. eigenvalues --    0.66415   0.68218   0.68688   0.68688   0.75063
 Alpha virt. eigenvalues --    0.76584   0.81951   0.81951   0.85112   0.85112
 Alpha virt. eigenvalues --    0.87106   0.87190   0.92890   0.92890   0.95495
 Alpha virt. eigenvalues --    1.02496   1.03373   1.05386   1.05386   1.08260
 Alpha virt. eigenvalues --    1.10174   1.10174   1.13356   1.15119   1.15119
 Alpha virt. eigenvalues --    1.16375   1.16375   1.21134   1.21734   1.22513
 Alpha virt. eigenvalues --    1.22513   1.25196   1.28896   1.28896   1.29729
 Alpha virt. eigenvalues --    1.30427   1.30427   1.41167   1.42679   1.43493
 Alpha virt. eigenvalues --    1.43493   1.44296   1.45799   1.49134   1.49134
 Alpha virt. eigenvalues --    1.54752   1.55238   1.55238   1.62183   1.62183
 Alpha virt. eigenvalues --    1.62270   1.62372   1.62372   1.67516   1.87190
 Alpha virt. eigenvalues --    1.87190   1.89617   1.89617   1.90134   1.90134
 Alpha virt. eigenvalues --    1.95210   1.99062   1.99062   2.01648   2.04476
 Alpha virt. eigenvalues --    2.05995   2.05995   2.07690   2.17914   2.17914
 Alpha virt. eigenvalues --    2.19365   2.20928   2.20928   2.23077   2.23077
 Alpha virt. eigenvalues --    2.23137   2.32551   2.32551   2.44152   2.60237
 Alpha virt. eigenvalues --    2.91151   2.91151   2.94458   2.99322
  Beta  occ. eigenvalues --  -65.96477 -65.96477 -65.96039 -65.96039 -65.96038
  Beta  occ. eigenvalues --   -5.11146  -5.11146  -5.10706  -5.10705  -5.10705
  Beta  occ. eigenvalues --   -3.47001  -3.47001  -3.46998  -3.46998  -3.46760
  Beta  occ. eigenvalues --   -3.46757  -3.46619  -3.46617  -3.46617  -3.46475
  Beta  occ. eigenvalues --   -3.46475  -3.46473  -3.46372  -3.46372  -3.46370
  Beta  occ. eigenvalues --   -0.44764  -0.29546  -0.25835  -0.25835  -0.12756
  Beta  occ. eigenvalues --   -0.09065  -0.07697  -0.07697  -0.04674  -0.04674
  Beta virt. eigenvalues --    0.02909   0.09453   0.09453   0.13577   0.14810
  Beta virt. eigenvalues --    0.14810   0.16486   0.19275   0.19275   0.21221
  Beta virt. eigenvalues --    0.27223   0.30557   0.31052   0.31052   0.32475
  Beta virt. eigenvalues --    0.32771   0.32771   0.36904   0.36904   0.37224
  Beta virt. eigenvalues --    0.38481   0.38481   0.41732   0.41732   0.44694
  Beta virt. eigenvalues --    0.45041   0.45170   0.45170   0.46138   0.46138
  Beta virt. eigenvalues --    0.48531   0.48531   0.50681   0.52322   0.52871
  Beta virt. eigenvalues --    0.60832   0.60832   0.61314   0.61314   0.64439
  Beta virt. eigenvalues --    0.64439   0.67124   0.69051   0.69160   0.69160
  Beta virt. eigenvalues --    0.75097   0.76766   0.82411   0.82411   0.85472
  Beta virt. eigenvalues --    0.85472   0.87910   0.88000   0.93834   0.93834
  Beta virt. eigenvalues --    0.95959   1.02750   1.03557   1.06390   1.06390
  Beta virt. eigenvalues --    1.08240   1.10289   1.10289   1.14079   1.15796
  Beta virt. eigenvalues --    1.15796   1.16827   1.16827   1.21220   1.22686
  Beta virt. eigenvalues --    1.22686   1.22805   1.26424   1.29388   1.29388
  Beta virt. eigenvalues --    1.29867   1.30638   1.30638   1.41893   1.42665
  Beta virt. eigenvalues --    1.44445   1.44445   1.44668   1.46015   1.49309
  Beta virt. eigenvalues --    1.49309   1.54866   1.55862   1.55862   1.62609
  Beta virt. eigenvalues --    1.62609   1.63017   1.63017   1.63464   1.68158
  Beta virt. eigenvalues --    1.87500   1.87500   1.89982   1.89982   1.90425
  Beta virt. eigenvalues --    1.90425   1.95371   1.99113   1.99113   2.02045
  Beta virt. eigenvalues --    2.04621   2.06089   2.06089   2.07776   2.18227
  Beta virt. eigenvalues --    2.18227   2.20009   2.21138   2.21138   2.23150
  Beta virt. eigenvalues --    2.23516   2.23516   2.32977   2.32977   2.44658
  Beta virt. eigenvalues --    2.60678   2.91228   2.91228   2.95250   2.99892
          Condensed to atoms (all electrons):
              1          2          3          4          5
     1  Si  13.623385   0.022994   0.022994   0.258608   0.258608
     2  Si   0.022994  13.623385   0.022994   0.258608   0.258608
     3  Si   0.022994   0.022994  13.623385   0.258608   0.258608
     4  Si   0.258608   0.258608   0.258608  13.543313  -0.099020
     5  Si   0.258608   0.258608   0.258608  -0.099020  13.543313
 Mulliken atomic charges:
              1
     1  Si  -0.186589
     2  Si  -0.186589
     3  Si  -0.186589
     4  Si  -0.220116
     5  Si  -0.220116
 Sum of Mulliken atomic charges =  -1.00000
 Mulliken charges with hydrogens summed into heavy atoms:
              1
     1  Si  -0.186589
     2  Si  -0.186589
     3  Si  -0.186589
     4  Si  -0.220116
     5  Si  -0.220116
 Sum of Mulliken charges with hydrogens summed into heavy atoms =  -1.00000
          Atomic-Atomic Spin Densities.
              1          2          3          4          5
     1  Si   0.012515  -0.008434  -0.008434   0.016581   0.016581
     2  Si  -0.008434   0.012515  -0.008434   0.016581   0.016581
     3  Si  -0.008434  -0.008434   0.012515   0.016581   0.016581
     4  Si   0.016581   0.016581   0.016581   0.474083  -0.067035
     5  Si   0.016581   0.016581   0.016581  -0.067035   0.474083
 Mulliken atomic spin densities:
              1
     1  Si   0.028807
     2  Si   0.028807
     3  Si   0.028807
     4  Si   0.456789
     5  Si   0.456789
 Sum of Mulliken atomic spin densities =   1.00000
 Electronic spatial extent (au):  <R**2>=            862.0439
 Charge=             -1.0000 electrons
 Dipole moment (field-independent basis, Debye):
    X=              0.0000    Y=              0.0000    Z=              0.0000  Tot=              0.0000
 Quadrupole moment (field-independent basis, Debye-Ang):
   XX=            -79.8072   YY=            -79.8072   ZZ=            -80.4481
   XY=              0.0000   XZ=              0.0000   YZ=              0.0000
 Traceless Quadrupole moment (field-independent basis, Debye-Ang):
   XX=              0.2136   YY=              0.2136   ZZ=             -0.4273
   XY=              0.0000   XZ=              0.0000   YZ=              0.0000
 Octapole moment (field-independent basis, Debye-Ang**2):
  XXX=              0.0000  YYY=            -10.8348  ZZZ=              0.0000  XYY=              0.0000
  XXY=             10.8348  XXZ=              0.0000  XZZ=              0.0000  YZZ=              0.0000
  YYZ=              0.0000  XYZ=              0.0000
 Hexadecapole moment (field-independent basis, Debye-Ang**3):
 XXXX=           -526.9796 YYYY=           -526.9796 ZZZZ=           -723.0696 XXXY=              0.0000
 XXXZ=              0.0000 YYYX=              0.0000 YYYZ=              0.0000 ZZZX=              0.0000
 ZZZY=              0.0000 XXYY=           -175.6599 XXZZ=           -194.3783 YYZZ=           -194.3783
 XXYZ=              0.0000 YYXZ=              0.0000 ZZXY=              0.0000
 N-N= 4.062144764802D+02 E-N=-6.398511698807D+03  KE= 2.163173002927D+03
 Symmetry A1   KE= 1.148275084737D+03
 Symmetry A2   KE= 7.601556788975D+01
 Symmetry B1   KE= 4.688027544033D+02
 Symmetry B2   KE= 4.700795958968D+02
                          Isotropic Fermi Contact Couplings
        Atom                 a.u.       MegaHertz       Gauss      10(-4) cm-1
     1  Si(29)            -0.00735       6.53215       2.33083       2.17889
     2  Si(29)            -0.00735       6.53215       2.33083       2.17889
     3  Si(29)            -0.00735       6.53215       2.33083       2.17889
     4  Si(29)             0.05505     -48.92476     -17.45757     -16.31954
     5  Si(29)             0.05505     -48.92476     -17.45757     -16.31954
 --------------------------------------------------------
       Center         ----  Spin Dipole Couplings  ----
                      3XX-RR        3YY-RR        3ZZ-RR
 --------------------------------------------------------
     1   Atom       -0.090501     -0.077759      0.168260
     2   Atom       -0.080944     -0.087316      0.168260
     3   Atom       -0.080944     -0.087316      0.168260
     4   Atom       -0.420473     -0.420473      0.840947
     5   Atom       -0.420473     -0.420473      0.840947
 --------------------------------------------------------
                        XY            XZ            YZ
 --------------------------------------------------------
     1   Atom        0.000000      0.000000      0.000000
     2   Atom       -0.005518      0.000000      0.000000
     3   Atom        0.005518      0.000000      0.000000
     4   Atom        0.000000      0.000000      0.000000
     5   Atom        0.000000      0.000000      0.000000
 --------------------------------------------------------


 ---------------------------------------------------------------------------------
              Anisotropic Spin Dipole Couplings in Principal Axis System
 ---------------------------------------------------------------------------------

       Atom             a.u.   MegaHertz   Gauss  10(-4) cm-1        Axes

              Baa    -0.0905     9.601     3.426     3.202  1.0000  0.0000  0.0000
     1 Si(29) Bbb    -0.0778     8.249     2.943     2.752  0.0000  1.0000  0.0000
              Bcc     0.1683   -17.850    -6.369    -5.954  0.0000  0.0000  1.0000
 
              Baa    -0.0905     9.601     3.426     3.202  0.5000  0.8660  0.0000
     2 Si(29) Bbb    -0.0778     8.249     2.943     2.752  0.8660 -0.5000  0.0000
              Bcc     0.1683   -17.850    -6.369    -5.954  0.0000  0.0000  1.0000
 
              Baa    -0.0905     9.601     3.426     3.202 -0.5000  0.8660  0.0000
     3 Si(29) Bbb    -0.0778     8.249     2.943     2.752  0.8660  0.5000  0.0000
              Bcc     0.1683   -17.850    -6.369    -5.954  0.0000  0.0000  1.0000
 
              Baa    -0.4205    44.606    15.916    14.879  0.4023  0.9155  0.0000
     4 Si(29) Bbb    -0.4205    44.606    15.916    14.879  0.9155 -0.4023  0.0000
              Bcc     0.8409   -89.211   -31.833   -29.758  0.0000  0.0000  1.0000
 
              Baa    -0.4205    44.606    15.916    14.879  0.6945  0.7195  0.0000
     5 Si(29) Bbb    -0.4205    44.606    15.916    14.879  0.7195 -0.6945  0.0000
              Bcc     0.8409   -89.211   -31.833   -29.758  0.0000  0.0000  1.0000
 

 ---------------------------------------------------------------------------------

 Calling FoFJK, ICntrl=      2127 FMM=F ISym2X=1 I1Cent= 0 IOpClX= 1 NMat=1 NMatS=1 NMatT=0.
 ***** Axes restored to original set *****
 -------------------------------------------------------------------
 Center     Atomic                   Forces (Hartrees/Bohr)
 Number     Number              X              Y              Z
 -------------------------------------------------------------------
      1       14           0.002591642    0.001496285    0.000000000
      2       14           0.000000000   -0.002992570    0.000000000
      3       14          -0.002591642    0.001496285    0.000000000
      4       14           0.000000000    0.000000000   -0.001345941
      5       14           0.000000000    0.000000000    0.001345941
 -------------------------------------------------------------------
 Cartesian Forces:  Max     0.002992570 RMS     0.001425705

 GradGradGradGradGradGradGradGradGradGradGradGradGradGradGradGradGradGrad
 Berny optimization.
 Internal  Forces:  Max     0.001192072 RMS     0.000754172
 Search for a local minimum.
 Step number   1 out of a maximum of   22
 All quantities printed in internal units (Hartrees-Bohrs-Radians)
 Mixed Optimization -- En-DIIS/RFO-DIIS
 Second derivative matrix not updated -- first step.
 The second derivative matrix:
                          R1        R2        R3        R4        R5
           R1           0.05384
           R2           0.00000   0.05384
           R3           0.00000   0.00000   0.12798
           R4           0.00000   0.00000   0.00000   0.12798
           R5           0.00000   0.00000   0.00000   0.00000   0.05384
           R6           0.00000   0.00000   0.00000   0.00000   0.00000
           R7           0.00000   0.00000   0.00000   0.00000   0.00000
           R8           0.00000   0.00000   0.00000   0.00000   0.00000
           R9           0.00000   0.00000   0.00000   0.00000   0.00000
           A1           0.00000   0.00000   0.00000   0.00000   0.00000
           A2           0.00000   0.00000   0.00000   0.00000   0.00000
           A3           0.00000   0.00000   0.00000   0.00000   0.00000
                          R6        R7        R8        R9        A1
           R6           0.12798
           R7           0.00000   0.12798
           R8           0.00000   0.00000   0.12798
           R9           0.00000   0.00000   0.00000   0.12798
           A1           0.00000   0.00000   0.00000   0.00000   0.25000
           A2           0.00000   0.00000   0.00000   0.00000   0.00000
           A3           0.00000   0.00000   0.00000   0.00000   0.00000
                          A2        A3
           A2           0.25000
           A3           0.00000   0.25000
     Eigenvalues ---    0.05384   0.05384   0.07140   0.12798   0.12798
     Eigenvalues ---    0.12798   0.13948   0.14075   0.140751000.00000
     Eigenvalues --- 1000.000001000.00000
 RFO step:  Lambda=-8.75875286D-05 EMin= 5.38397042D-02
 Linear search not attempted -- first point.
 Iteration  1 RMS(Cart)=  0.00500764 RMS(Int)=  0.00000550
 Iteration  2 RMS(Cart)=  0.00000420 RMS(Int)=  0.00000093
 Iteration  3 RMS(Cart)=  0.00000000 RMS(Int)=  0.00000093
 ClnCor:  largest displacement from symmetrization is 9.28D-13 for atom     5.
 Variable       Old X    -DE/DX   Delta X   Delta X   Delta X     New X
                                 (Linear)    (Quad)   (Total)
    R1        5.24962  -0.00119   0.00000  -0.01731  -0.01731   5.23231
    R2        5.24962  -0.00119   0.00000  -0.01731  -0.01731   5.23231
    R3        4.45195  -0.00064   0.00000  -0.00622  -0.00622   4.44573
    R4        4.45195  -0.00064   0.00000  -0.00622  -0.00622   4.44573
    R5        5.24962  -0.00119   0.00000  -0.01731  -0.01731   5.23231
    R6        4.45195  -0.00064   0.00000  -0.00622  -0.00622   4.44573
    R7        4.45195  -0.00064   0.00000  -0.00622  -0.00622   4.44573
    R8        4.45195  -0.00064   0.00000  -0.00622  -0.00622   4.44573
    R9        4.45195  -0.00064   0.00000  -0.00622  -0.00622   4.44573
    A1        1.64390   0.00015   0.00000   0.00353   0.00353   1.64743
    A2        1.64390   0.00015   0.00000   0.00353   0.00353   1.64743
    A3        1.64390   0.00015   0.00000   0.00353   0.00353   1.64743
         Item               Value     Threshold  Converged?
 Maximum Force            0.001192     0.000450     NO 
 RMS     Force            0.000754     0.000300     NO 
 Maximum Displacement     0.009994     0.001800     NO 
 RMS     Displacement     0.005007     0.001200     NO 
 Predicted change in Energy=-4.384053D-05
 GradGradGradGradGradGradGradGradGradGradGradGradGradGradGradGradGradGrad

                          Input orientation:                          
 ---------------------------------------------------------------------
 Center     Atomic      Atomic             Coordinates (Angstroms)
 Number     Number       Type             X           Y           Z
 ---------------------------------------------------------------------
      1         14           0       -1.384411   -0.799290    0.000000
      2         14           0        0.000000    1.598580    0.000000
      3         14           0        1.384411   -0.799290    0.000000
      4         14           0        0.000000    0.000000    1.726028
      5         14           0        0.000000    0.000000   -1.726028
 ---------------------------------------------------------------------
                    Distance matrix (angstroms):
                    1          2          3          4          5
     1  Si   0.000000
     2  Si   2.768821   0.000000
     3  Si   2.768821   2.768821   0.000000
     4  Si   2.352579   2.352579   2.352579   0.000000
     5  Si   2.352579   2.352579   2.352579   3.452056   0.000000
 Stoichiometry    Si5(1-,2)
 Framework group  D3H[C3(Si.Si),3C2(Si)]
 Deg. of freedom     2
 Full point group                 D3H     NOp  12
 Largest Abelian subgroup         C2V     NOp   4
 Largest concise Abelian subgroup C2V     NOp   4
                         Standard orientation:                         
 ---------------------------------------------------------------------
 Center     Atomic      Atomic             Coordinates (Angstroms)
 Number     Number       Type             X           Y           Z
 ---------------------------------------------------------------------
      1         14           0        0.000000    1.598580    0.000000
      2         14           0        1.384411   -0.799290    0.000000
      3         14           0       -1.384411   -0.799290    0.000000
      4         14           0        0.000000    0.000000    1.726028
      5         14           0        0.000000    0.000000   -1.726028
 ---------------------------------------------------------------------
 Rotational constants (GHZ):      2.3562825      1.8448736      1.8448736
 Standard basis: GTBas3 (6D, 7F)
 There are    59 symmetry adapted basis functions of A1  symmetry.
 There are    23 symmetry adapted basis functions of A2  symmetry.
 There are    39 symmetry adapted basis functions of B1  symmetry.
 There are    39 symmetry adapted basis functions of B2  symmetry.
 Integral buffers will be    131072 words long.
 Raffenetti 2 integral format.
 Two-electron integral symmetry is turned on.
   160 basis functions,   340 primitive gaussians,   175 cartesian basis functions
    36 alpha electrons       35 beta electrons
       nuclear repulsion energy       406.9475411796 Hartrees.
 NAtoms=    5 NActive=    5 NUniq=    2 SFac= 3.00D+00 NAtFMM=   80 NAOKFM=F Big=F
 One-electron integrals computed using PRISM.
 NBasis=   160 RedAO= T  NBF=    59    23    39    39
 NBsUse=   160 1.00D-06 NBFU=    59    23    39    39
 Initial guess read from the read-write file.
 B after Tr=     0.000000    0.000000    0.000000
         Rot=    1.000000    0.000000    0.000000    0.000000 Ang=   0.00 deg.
 Initial guess orbital symmetries:
 Alpha Orbitals:
       Occupied  (A2") (A1') (E') (E') (A1') (A2") (A1') (A1')
                 (E') (E') (A1') (A2") (E') (E') (E") (E") (A2')
                 (E') (E') (A1') (E') (E') (E") (E") (A2") (A1')
                 (A2") (E') (E') (A1') (A1') (E") (E") (E') (E')
                 (A2")
       Virtual   (E') (E') (A2') (E') (E') (A2") (E") (E") (A1')
                 (A1') (A1') (E") (E") (A2") (E') (E') (A1') (E')
                 (E') (E") (E") (E') (E') (A2") (A2') (E') (E')
                 (E") (E") (E') (E') (A1') (A2") (A1") (E') (E')
                 (E") (E") (E') (E') (A1') (A2") (E") (E") (A2')
                 (A1') (E') (E') (E') (E') (A1') (A2") (E") (E")
                 (A1') (A2") (A1') (E") (E") (A2') (E') (E') (A1')
                 (E") (E") (E') (E') (A1") (A2") (E') (E') (A2")
                 (E') (E') (A1') (E") (E") (A1') (A2') (E') (E')
                 (A2") (A1") (E') (E') (A2') (E") (E") (E') (E')
                 (A1') (E") (E") (A2") (E") (E") (E") (E") (E')
                 (E') (A1') (E') (E') (A2") (A1") (E') (E') (A1')
                 (E") (E") (A2") (E') (E') (E') (E') (A2') (E")
                 (E") (A1') (A1') (E') (E') (A2") (A1')
 Beta  Orbitals:
       Occupied  (A2") (A1') (E') (E') (A1') (A1') (A2") (A1')
                 (E') (E') (E') (E') (E") (E") (A1') (A2") (A2')
                 (E') (E') (E') (E') (A1') (E") (E") (A2") (A1')
                 (A2") (E') (E') (A1') (A1') (E") (E") (E') (E')
       Virtual   (A2") (E') (E') (A2') (E') (E') (A2") (E") (E")
                 (A1') (A1') (A1') (E") (E") (A2") (E') (E') (E')
                 (E') (A1') (E") (E") (E') (E') (A2') (A2") (E')
                 (E') (E") (E") (E') (E') (A1') (A2") (A1") (E')
                 (E') (E") (E") (E') (E') (A1') (A2") (E") (E")
                 (A2') (A1') (E') (E') (E') (E') (A2") (A1') (E")
                 (E") (A1') (A2") (A1') (E") (E") (A2') (E') (E')
                 (A1') (E") (E") (E') (E') (A1") (E') (E') (A2")
                 (A2") (E') (E') (A1') (E") (E") (A1') (A2') (E')
                 (E') (A2") (A1") (E') (E') (A2') (E") (E") (E')
                 (E') (E") (E") (A1') (A2") (E") (E") (E") (E")
                 (E') (E') (A1') (E') (E') (A2") (A1") (E') (E')
                 (A1') (E") (E") (A2") (E') (E') (A2') (E') (E')
                 (E") (E") (A1') (A1') (E') (E') (A2") (A1')
 Initial guess <Sx>= 0.0000 <Sy>= 0.0000 <Sz>= 0.5000 <S**2>= 0.7582 S= 0.5041
 Requested convergence on RMS density matrix=1.00D-08 within 128 cycles.
 Requested convergence on MAX density matrix=1.00D-06.
 Requested convergence on             energy=1.00D-06.
 No special actions if energy rises.
 Keep R1 and R2 ints in memory in canonical form, NReq=240053959.
 SCF Done:  E(UB3LYP) =  -1447.49084370     A.U. after    9 cycles
             Convg  =    0.6441D-08             -V/T =  2.0034
 <Sx>= 0.0000 <Sy>= 0.0000 <Sz>= 0.5000 <S**2>= 0.7582 S= 0.5041
 <L.S>= 0.000000000000E+00
 Annihilation of the first spin contaminant:
 S**2 before annihilation     0.7582,   after     0.7500
 QCSCF skips out because SCF is already converged.
 Calling FoFJK, ICntrl=      2127 FMM=F ISym2X=1 I1Cent= 0 IOpClX= 1 NMat=1 NMatS=1 NMatT=0.
 ***** Axes restored to original set *****
 -------------------------------------------------------------------
 Center     Atomic                   Forces (Hartrees/Bohr)
 Number     Number              X              Y              Z
 -------------------------------------------------------------------
      1       14           0.001468204    0.000847668    0.000000000
      2       14           0.000000000   -0.001695336    0.000000000
      3       14          -0.001468204    0.000847668    0.000000000
      4       14           0.000000000    0.000000000   -0.000717928
      5       14           0.000000000    0.000000000    0.000717928
 -------------------------------------------------------------------
 Cartesian Forces:  Max     0.001695336 RMS     0.000802219

 GradGradGradGradGradGradGradGradGradGradGradGradGradGradGradGradGradGrad
 Berny optimization.
 Using GEDIIS/GDIIS optimizer.
 Internal  Forces:  Max     0.000687827 RMS     0.000425281
 Search for a local minimum.
 Step number   2 out of a maximum of   22
 All quantities printed in internal units (Hartrees-Bohrs-Radians)
 Mixed Optimization -- En-DIIS/RFO-DIIS
 Swaping is turned off.
 Update second derivatives using D2CorX and points    1    2
 DE= -6.87D-05 DEPred=-4.38D-05 R= 1.57D+00
 SS=  1.41D+00  RLast= 3.42D-02 DXNew= 5.0454D-01 1.0256D-01
 Trust test= 1.57D+00 RLast= 3.42D-02 DXMaxT set to 3.00D-01
 The second derivative matrix:
                          R1        R2        R3        R4        R5
           R1           0.05063
           R2          -0.00321   0.05063
           R3          -0.00452  -0.00452   0.12307
           R4          -0.00452  -0.00452  -0.00491   0.12307
           R5          -0.00321  -0.00321  -0.00452  -0.00452   0.05063
           R6          -0.00452  -0.00452  -0.00491  -0.00491  -0.00452
           R7          -0.00452  -0.00452  -0.00491  -0.00491  -0.00452
           R8          -0.00452  -0.00452  -0.00491  -0.00491  -0.00452
           R9          -0.00452  -0.00452  -0.00491  -0.00491  -0.00452
           A1           0.00869   0.00869   0.00762   0.00762   0.00869
           A2           0.00869   0.00869   0.00762   0.00762   0.00869
           A3           0.00869   0.00869   0.00762   0.00762   0.00869
                          R6        R7        R8        R9        A1
           R6           0.12307
           R7          -0.00491   0.12307
           R8          -0.00491  -0.00491   0.12307
           R9          -0.00491  -0.00491  -0.00491   0.12307
           A1           0.00762   0.00762   0.00762   0.00762   0.24116
           A2           0.00762   0.00762   0.00762   0.00762  -0.00884
           A3           0.00762   0.00762   0.00762   0.00762  -0.00884
                          A2        A3
           A2           0.24116
           A3          -0.00884   0.24116
     Eigenvalues ---    0.03178   0.05384   0.05384   0.12798   0.12798
     Eigenvalues ---    0.12798   0.13561   0.14086   0.140861000.00000
     Eigenvalues --- 1000.000001000.00000
 En-DIIS/RFO-DIIS IScMMF=        0 using points:     2    1
 RFO step:  Lambda=-1.18252090D-05.
 DIIS coeffs:      2.31278     -1.31278
 Iteration  1 RMS(Cart)=  0.00668184 RMS(Int)=  0.00001053
 Iteration  2 RMS(Cart)=  0.00000784 RMS(Int)=  0.00000265
 Iteration  3 RMS(Cart)=  0.00000000 RMS(Int)=  0.00000265
 ClnCor:  largest displacement from symmetrization is 2.20D-12 for atom     5.
 Variable       Old X    -DE/DX   Delta X   Delta X   Delta X     New X
                                  (DIIS)     (GDIIS)  (Total)
    R1        5.23231  -0.00069  -0.02272  -0.00032  -0.02304   5.20928
    R2        5.23231  -0.00069  -0.02272  -0.00032  -0.02304   5.20928
    R3        4.44573  -0.00035  -0.00817   0.00029  -0.00788   4.43785
    R4        4.44573  -0.00035  -0.00817   0.00029  -0.00788   4.43785
    R5        5.23231  -0.00069  -0.02272  -0.00032  -0.02304   5.20928
    R6        4.44573  -0.00035  -0.00817   0.00029  -0.00788   4.43785
    R7        4.44573  -0.00035  -0.00817   0.00029  -0.00788   4.43785
    R8        4.44573  -0.00035  -0.00817   0.00029  -0.00788   4.43785
    R9        4.44573  -0.00035  -0.00817   0.00029  -0.00788   4.43785
    A1        1.64743   0.00010   0.00464   0.00023   0.00488   1.65230
    A2        1.64743   0.00010   0.00464   0.00023   0.00488   1.65230
    A3        1.64743   0.00010   0.00464   0.00023   0.00488   1.65230
         Item               Value     Threshold  Converged?
 Maximum Force            0.000688     0.000450     NO 
 RMS     Force            0.000425     0.000300     NO 
 Maximum Displacement     0.013301     0.001800     NO 
 RMS     Displacement     0.006681     0.001200     NO 
 Predicted change in Energy=-3.269294D-05
 GradGradGradGradGradGradGradGradGradGradGradGradGradGradGradGradGradGrad

                          Input orientation:                          
 ---------------------------------------------------------------------
 Center     Atomic      Atomic             Coordinates (Angstroms)
 Number     Number       Type             X           Y           Z
 ---------------------------------------------------------------------
      1         14           0       -1.378315   -0.795771    0.000000
      2         14           0        0.000000    1.591541    0.000000
      3         14           0        1.378315   -0.795771    0.000000
      4         14           0        0.000000    0.000000    1.726852
      5         14           0        0.000000    0.000000   -1.726852
 ---------------------------------------------------------------------
                    Distance matrix (angstroms):
                    1          2          3          4          5
     1  Si   0.000000
     2  Si   2.756630   0.000000
     3  Si   2.756630   2.756630   0.000000
     4  Si   2.348408   2.348408   2.348408   0.000000
     5  Si   2.348408   2.348408   2.348408   3.453705   0.000000
 Stoichiometry    Si5(1-,2)
 Framework group  D3H[C3(Si.Si),3C2(Si)]
 Deg. of freedom     2
 Full point group                 D3H     NOp  12
 Largest Abelian subgroup         C2V     NOp   4
 Largest concise Abelian subgroup C2V     NOp   4
                         Standard orientation:                         
 ---------------------------------------------------------------------
 Center     Atomic      Atomic             Coordinates (Angstroms)
 Number     Number       Type             X           Y           Z
 ---------------------------------------------------------------------
      1         14           0        0.000000    1.591541    0.000000
      2         14           0        1.378315   -0.795771    0.000000
      3         14           0       -1.378315   -0.795771    0.000000
      4         14           0        0.000000    0.000000    1.726852
      5         14           0        0.000000    0.000000   -1.726852
 ---------------------------------------------------------------------
 Rotational constants (GHZ):      2.3771698      1.8501619      1.8501619
 Standard basis: GTBas3 (6D, 7F)
 There are    59 symmetry adapted basis functions of A1  symmetry.
 There are    23 symmetry adapted basis functions of A2  symmetry.
 There are    39 symmetry adapted basis functions of B1  symmetry.
 There are    39 symmetry adapted basis functions of B2  symmetry.
 Integral buffers will be    131072 words long.
 Raffenetti 2 integral format.
 Two-electron integral symmetry is turned on.
   160 basis functions,   340 primitive gaussians,   175 cartesian basis functions
    36 alpha electrons       35 beta electrons
       nuclear repulsion energy       407.8999847414 Hartrees.
 NAtoms=    5 NActive=    5 NUniq=    2 SFac= 3.00D+00 NAtFMM=   80 NAOKFM=F Big=F
 One-electron integrals computed using PRISM.
 NBasis=   160 RedAO= T  NBF=    59    23    39    39
 NBsUse=   160 1.00D-06 NBFU=    59    23    39    39
 Initial guess read from the read-write file.
 B after Tr=     0.000000    0.000000    0.000000
         Rot=    1.000000    0.000000    0.000000    0.000000 Ang=   0.00 deg.
 Initial guess orbital symmetries:
 Alpha Orbitals:
       Occupied  (A2") (A1') (E') (E') (A1') (A2") (A1') (A1')
                 (E') (E') (A1') (A2") (E') (E') (E") (E") (A2')
                 (E') (E') (A1') (E') (E') (E") (E") (A2") (A1')
                 (A2") (E') (E') (A1') (A1') (E") (E") (E') (E')
                 (A2")
       Virtual   (E') (E') (A2') (E') (E') (A2") (E") (E") (A1')
                 (A1') (A1') (E") (E") (A2") (E') (E') (A1') (E')
                 (E') (E") (E") (E') (E') (A2") (A2') (E') (E')
                 (E") (E") (E') (E') (A1') (A2") (A1") (E') (E')
                 (E") (E") (E') (E') (A1') (A2") (E") (E") (A2')
                 (A1') (E') (E') (E') (E') (A1') (A2") (E") (E")
                 (A1') (A2") (A1') (E") (E") (A2') (E') (E') (A1')
                 (E") (E") (E') (E') (A1") (A2") (E') (E') (A2")
                 (E') (E') (A1') (E") (E") (A1') (A2') (E') (E')
                 (A2") (A1") (E') (E') (A2') (E") (E") (A1') (E')
                 (E') (E") (E") (A2") (E") (E") (E") (E") (E')
                 (E') (A1') (E') (E') (A2") (A1") (E') (E') (A1')
                 (E") (E") (A2") (E') (E') (A2') (E') (E') (E")
                 (E") (A1') (A1') (E') (E') (A2") (A1')
 Beta  Orbitals:
       Occupied  (A2") (A1') (E') (E') (A1') (A1') (A2") (A1')
                 (E') (E') (E') (E') (E") (E") (A1') (A2") (A2')
                 (E') (E') (E') (E') (A1') (E") (E") (A2") (A1')
                 (A2") (E') (E') (A1') (A1') (E") (E") (E') (E')
       Virtual   (A2") (E') (E') (A2') (E') (E') (A2") (E") (E")
                 (A1') (A1') (A1') (E") (E") (A2") (E') (E') (E')
                 (E') (A1') (E") (E") (E') (E') (A2') (A2") (E')
                 (E') (E") (E") (E') (E') (A1') (A2") (A1") (E')
                 (E') (E") (E") (E') (E') (A1') (A2") (E") (E")
                 (A2') (A1') (E') (E') (E') (E') (A1') (A2") (E")
                 (E") (A1') (A2") (A1') (E") (E") (A2') (E') (E')
                 (A1') (E") (E") (E') (E') (A1") (A2") (E') (E')
                 (A2") (E') (E') (A1') (E") (E") (A1') (A2') (E')
                 (E') (A2") (A1") (E') (E') (A2') (E") (E") (E')
                 (E') (E") (E") (A1') (A2") (E") (E") (E") (E")
                 (E') (E') (A1') (E') (E') (A2") (A1") (E') (E')
                 (A1') (E") (E") (A2") (E') (E') (A2') (E') (E')
                 (E") (E") (A1') (A1') (E') (E') (A2") (A1')
 Initial guess <Sx>= 0.0000 <Sy>= 0.0000 <Sz>= 0.5000 <S**2>= 0.7582 S= 0.5041
 Requested convergence on RMS density matrix=1.00D-08 within 128 cycles.
 Requested convergence on MAX density matrix=1.00D-06.
 Requested convergence on             energy=1.00D-06.
 No special actions if energy rises.
 Keep R1 and R2 ints in memory in canonical form, NReq=240053959.
 SCF Done:  E(UB3LYP) =  -1447.49087579     A.U. after    9 cycles
             Convg  =    0.8472D-08             -V/T =  2.0034
 <Sx>= 0.0000 <Sy>= 0.0000 <Sz>= 0.5000 <S**2>= 0.7582 S= 0.5041
 <L.S>= 0.000000000000E+00
 Annihilation of the first spin contaminant:
 S**2 before annihilation     0.7582,   after     0.7500
 QCSCF skips out because SCF is already converged.
 Calling FoFJK, ICntrl=      2127 FMM=F ISym2X=1 I1Cent= 0 IOpClX= 1 NMat=1 NMatS=1 NMatT=0.
 ***** Axes restored to original set *****
 -------------------------------------------------------------------
 Center     Atomic                   Forces (Hartrees/Bohr)
 Number     Number              X              Y              Z
 -------------------------------------------------------------------
      1       14          -0.000035446   -0.000020465    0.000000000
      2       14           0.000000000    0.000040929    0.000000000
      3       14           0.000035446   -0.000020465    0.000000000
      4       14           0.000000000    0.000000000    0.000041202
      5       14           0.000000000    0.000000000   -0.000041202
 -------------------------------------------------------------------
 Cartesian Forces:  Max     0.000041202 RMS     0.000023694

 GradGradGradGradGradGradGradGradGradGradGradGradGradGradGradGradGradGrad
 Berny optimization.
 Using GEDIIS/GDIIS optimizer.
 Internal  Forces:  Max     0.000017894 RMS     0.000013800
 Search for a local minimum.
 Step number   3 out of a maximum of   22
 All quantities printed in internal units (Hartrees-Bohrs-Radians)
 Mixed Optimization -- En-DIIS/RFO-DIIS
 Swaping is turned off.
 Update second derivatives using D2CorX and points    1    2    3
 DE= -3.21D-05 DEPred=-3.27D-05 R= 9.81D-01
 SS=  1.41D+00  RLast= 4.51D-02 DXNew= 5.0454D-01 1.3537D-01
 Trust test= 9.81D-01 RLast= 4.51D-02 DXMaxT set to 3.00D-01
 The second derivative matrix:
                          R1        R2        R3        R4        R5
           R1           0.05089
           R2          -0.00295   0.05089
           R3          -0.00437  -0.00437   0.12316
           R4          -0.00437  -0.00437  -0.00482   0.12316
           R5          -0.00295  -0.00295  -0.00437  -0.00437   0.05089
           R6          -0.00437  -0.00437  -0.00482  -0.00482  -0.00437
           R7          -0.00437  -0.00437  -0.00482  -0.00482  -0.00437
           R8          -0.00437  -0.00437  -0.00482  -0.00482  -0.00437
           R9          -0.00437  -0.00437  -0.00482  -0.00482  -0.00437
           A1           0.00903   0.00903   0.00780   0.00780   0.00903
           A2           0.00903   0.00903   0.00780   0.00780   0.00903
           A3           0.00903   0.00903   0.00780   0.00780   0.00903
                          R6        R7        R8        R9        A1
           R6           0.12316
           R7          -0.00482   0.12316
           R8          -0.00482  -0.00482   0.12316
           R9          -0.00482  -0.00482  -0.00482   0.12316
           A1           0.00780   0.00780   0.00780   0.00780   0.24106
           A2           0.00780   0.00780   0.00780   0.00780  -0.00894
           A3           0.00780   0.00780   0.00780   0.00780  -0.00894
                          A2        A3
           A2           0.24106
           A3          -0.00894   0.24106
     Eigenvalues ---    0.03242   0.05384   0.05384   0.12798   0.12798
     Eigenvalues ---    0.12798   0.13591   0.14101   0.141011000.00000
     Eigenvalues --- 1000.000001000.00000
 En-DIIS/RFO-DIIS IScMMF=        0 using points:     3    2    1
 RFO step:  Lambda= 0.00000000D+00.
 DIIS coeffs:      1.24704     -0.60972      0.36268
 Iteration  1 RMS(Cart)=  0.00017509 RMS(Int)=  0.00000083
 Iteration  2 RMS(Cart)=  0.00000000 RMS(Int)=  0.00000083
 ClnCor:  largest displacement from symmetrization is 1.61D-12 for atom     2.
 Variable       Old X    -DE/DX   Delta X   Delta X   Delta X     New X
                                  (DIIS)     (GDIIS)  (Total)
    R1        5.20928   0.00001   0.00059   0.00000   0.00059   5.20986
    R2        5.20928   0.00001   0.00059   0.00000   0.00059   5.20986
    R3        4.43785   0.00002   0.00031   0.00000   0.00031   4.43816
    R4        4.43785   0.00002   0.00031   0.00000   0.00031   4.43816
    R5        5.20928   0.00001   0.00059   0.00000   0.00059   5.20986
    R6        4.43785   0.00002   0.00031   0.00000   0.00031   4.43816
    R7        4.43785   0.00002   0.00031   0.00000   0.00031   4.43816
    R8        4.43785   0.00002   0.00031   0.00000   0.00031   4.43816
    R9        4.43785   0.00002   0.00031   0.00000   0.00031   4.43816
    A1        1.65230   0.00000  -0.00008   0.00000  -0.00008   1.65222
    A2        1.65230   0.00000  -0.00008   0.00000  -0.00008   1.65222
    A3        1.65230   0.00000  -0.00008   0.00000  -0.00008   1.65222
         Item               Value     Threshold  Converged?
 Maximum Force            0.000018     0.000450     YES
 RMS     Force            0.000014     0.000300     YES
 Maximum Displacement     0.000339     0.001800     YES
 RMS     Displacement     0.000175     0.001200     YES
 Predicted change in Energy=-1.822367D-08
 Optimization completed.
    -- Stationary point found.
                           ----------------------------
                           !   Optimized Parameters   !
                           ! (Angstroms and Degrees)  !
 --------------------------                            --------------------------
 ! Name  Definition              Value          Derivative Info.                !
 --------------------------------------------------------------------------------
 ! R1    R(1,2)                  2.7566         -DE/DX =    0.0                 !
 ! R2    R(1,3)                  2.7566         -DE/DX =    0.0                 !
 ! R3    R(1,4)                  2.3484         -DE/DX =    0.0                 !
 ! R4    R(1,5)                  2.3484         -DE/DX =    0.0                 !
 ! R5    R(2,3)                  2.7566         -DE/DX =    0.0                 !
 ! R6    R(2,4)                  2.3484         -DE/DX =    0.0                 !
 ! R7    R(2,5)                  2.3484         -DE/DX =    0.0                 !
 ! R8    R(3,4)                  2.3484         -DE/DX =    0.0                 !
 ! R9    R(3,5)                  2.3484         -DE/DX =    0.0                 !
 ! A1    A(4,1,5)               94.67           -DE/DX =    0.0                 !
 ! A2    A(4,2,5)               94.67           -DE/DX =    0.0                 !
 ! A3    A(4,3,5)               94.67           -DE/DX =    0.0                 !
 --------------------------------------------------------------------------------
 GradGradGradGradGradGradGradGradGradGradGradGradGradGradGradGradGradGrad

                          Input orientation:                          
 ---------------------------------------------------------------------
 Center     Atomic      Atomic             Coordinates (Angstroms)
 Number     Number       Type             X           Y           Z
 ---------------------------------------------------------------------
      1         14           0       -1.378315   -0.795771    0.000000
      2         14           0        0.000000    1.591541    0.000000
      3         14           0        1.378315   -0.795771    0.000000
      4         14           0        0.000000    0.000000    1.726852
      5         14           0        0.000000    0.000000   -1.726852
 ---------------------------------------------------------------------
                    Distance matrix (angstroms):
                    1          2          3          4          5
     1  Si   0.000000
     2  Si   2.756630   0.000000
     3  Si   2.756630   2.756630   0.000000
     4  Si   2.348408   2.348408   2.348408   0.000000
     5  Si   2.348408   2.348408   2.348408   3.453705   0.000000
 Stoichiometry    Si5(1-,2)
 Framework group  D3H[C3(Si.Si),3C2(Si)]
 Deg. of freedom     2
 Full point group                 D3H     NOp  12
 Largest Abelian subgroup         C2V     NOp   4
 Largest concise Abelian subgroup C2V     NOp   4
                         Standard orientation:                         
 ---------------------------------------------------------------------
 Center     Atomic      Atomic             Coordinates (Angstroms)
 Number     Number       Type             X           Y           Z
 ---------------------------------------------------------------------
      1         14           0        0.000000    1.591541    0.000000
      2         14           0        1.378315   -0.795771    0.000000
      3         14           0       -1.378315   -0.795771    0.000000
      4         14           0        0.000000    0.000000    1.726852
      5         14           0        0.000000    0.000000   -1.726852
 ---------------------------------------------------------------------
 Rotational constants (GHZ):      2.3771698      1.8501619      1.8501619

 **********************************************************************

            Population analysis using the SCF density.

 **********************************************************************

 Orbital symmetries:
 Alpha Orbitals:
       Occupied  (A2") (A1') (E') (E') (A1') (A2") (A1') (A1')
                 (E') (E') (A1') (A2") (E') (E') (E") (E") (A2')
                 (E') (E') (A1') (E') (E') (E") (E") (A2") (A1')
                 (A2") (E') (E') (A1') (A1') (E") (E") (E') (E')
                 (A2")
       Virtual   (E') (E') (A2') (E') (E') (A2") (E") (E") (A1')
                 (A1') (A1') (E") (E") (A2") (E') (E') (A1') (E')
                 (E') (E") (E") (E') (E') (A2") (A2') (E') (E')
                 (E") (E") (E') (E') (A1') (A2") (A1") (E') (E')
                 (E") (E") (E') (E') (A1') (A2") (E") (E") (A2')
                 (A1') (E') (E') (E') (E') (A1') (A2") (E") (E")
                 (A1') (A2") (A1') (E") (E") (A2') (E') (E') (A1')
                 (E") (E") (E') (E') (A1") (A2") (E') (E') (A2")
                 (E') (E') (A1') (E") (E") (A1') (A2') (E') (E')
                 (A2") (A1") (E') (E') (A2') (E") (E") (A1') (E")
                 (E") (E') (E') (A2") (E") (E") (E") (E") (E')
                 (E') (A1') (E') (E') (A2") (A1") (E') (E') (A1')
                 (E") (E") (A2") (E') (E') (A2') (E') (E') (E")
                 (E") (A1') (A1') (E') (E') (A2") (A1')
 Beta  Orbitals:
       Occupied  (A2") (A1') (E') (E') (A1') (A1') (A2") (A1')
                 (E') (E') (E') (E') (E") (E") (A1') (A2") (A2')
                 (E') (E') (A1') (E') (E') (E") (E") (A2") (A1')
                 (A2") (E') (E') (A1') (A1') (E") (E") (E') (E')
       Virtual   (A2") (E') (E') (A2') (E') (E') (A2") (E") (E")
                 (A1') (A1') (A1') (E") (E") (A2") (E') (E') (E')
                 (E') (A1') (E") (E") (E') (E') (A2') (A2") (E')
                 (E') (E") (E") (E') (E') (A1') (A2") (A1") (E')
                 (E') (E") (E") (E') (E') (A1') (A2") (E") (E")
                 (A2') (A1') (E') (E') (E') (E') (A1') (A2") (E")
                 (E") (A1') (A2") (A1') (E") (E") (A2') (E') (E')
                 (A1') (E") (E") (E') (E') (A1") (A2") (E') (E')
                 (A2") (E') (E') (A1') (E") (E") (A1') (A2') (E')
                 (E') (A2") (A1") (E') (E') (A2') (E") (E") (E')
                 (E') (A1') (E") (E") (A2") (E") (E") (E") (E")
                 (E') (E') (A1') (E') (E') (A2") (A1") (E') (E')
                 (A1') (E") (E") (A2") (E') (E') (A2') (E') (E')
                 (E") (E") (A1') (A1') (E') (E') (A2") (A1')
 The electronic state is 2-A2".
 Alpha  occ. eigenvalues --  -65.96650 -65.96650 -65.95926 -65.95926 -65.95925
 Alpha  occ. eigenvalues --   -5.11345  -5.11345  -5.10612  -5.10611  -5.10611
 Alpha  occ. eigenvalues --   -3.47325  -3.47323  -3.47121  -3.47121  -3.47118
 Alpha  occ. eigenvalues --   -3.47118  -3.46503  -3.46500  -3.46500  -3.46366
 Alpha  occ. eigenvalues --   -3.46365  -3.46365  -3.46352  -3.46352  -3.46351
 Alpha  occ. eigenvalues --   -0.45824  -0.31156  -0.26078  -0.26078  -0.15763
 Alpha  occ. eigenvalues --   -0.09579  -0.08222  -0.08222  -0.04701  -0.04701
 Alpha  occ. eigenvalues --   -0.04383
 Alpha virt. eigenvalues --    0.09356   0.09356   0.13817   0.14291   0.14291
 Alpha virt. eigenvalues --    0.16322   0.18797   0.18797   0.20143   0.26738
 Alpha virt. eigenvalues --    0.30337   0.30348   0.30348   0.31067   0.32702
 Alpha virt. eigenvalues --    0.32702   0.35361   0.36867   0.36867   0.37905
 Alpha virt. eigenvalues --    0.37905   0.41685   0.41685   0.44311   0.44785
 Alpha virt. eigenvalues --    0.45192   0.45192   0.45875   0.45875   0.48674
 Alpha virt. eigenvalues --    0.48674   0.50490   0.51105   0.52947   0.60192
 Alpha virt. eigenvalues --    0.60192   0.60863   0.60863   0.64217   0.64217
 Alpha virt. eigenvalues --    0.66471   0.68201   0.68884   0.68884   0.75591
 Alpha virt. eigenvalues --    0.76620   0.82233   0.82233   0.85308   0.85308
 Alpha virt. eigenvalues --    0.87141   0.87619   0.93100   0.93100   0.95852
 Alpha virt. eigenvalues --    1.02511   1.03690   1.05388   1.05388   1.08448
 Alpha virt. eigenvalues --    1.10597   1.10597   1.13334   1.15404   1.15404
 Alpha virt. eigenvalues --    1.16494   1.16494   1.21510   1.21825   1.23115
 Alpha virt. eigenvalues --    1.23115   1.25069   1.29266   1.29266   1.29795
 Alpha virt. eigenvalues --    1.30975   1.30975   1.41571   1.43206   1.43323
 Alpha virt. eigenvalues --    1.43323   1.44435   1.46056   1.49721   1.49721
 Alpha virt. eigenvalues --    1.55230   1.55307   1.55307   1.62188   1.62820
 Alpha virt. eigenvalues --    1.62820   1.62913   1.62913   1.68221   1.87119
 Alpha virt. eigenvalues --    1.87119   1.89842   1.89842   1.90369   1.90369
 Alpha virt. eigenvalues --    1.95326   1.99443   1.99443   2.01601   2.05137
 Alpha virt. eigenvalues --    2.06004   2.06004   2.08567   2.17713   2.17713
 Alpha virt. eigenvalues --    2.19666   2.20633   2.20633   2.22283   2.23823
 Alpha virt. eigenvalues --    2.23823   2.33162   2.33162   2.44215   2.60022
 Alpha virt. eigenvalues --    2.91832   2.91832   2.94507   2.99106
  Beta  occ. eigenvalues --  -65.96497 -65.96497 -65.95905 -65.95905 -65.95904
  Beta  occ. eigenvalues --   -5.11176  -5.11176  -5.10589  -5.10588  -5.10588
  Beta  occ. eigenvalues --   -3.47030  -3.47030  -3.47027  -3.47027  -3.46791
  Beta  occ. eigenvalues --   -3.46789  -3.46498  -3.46495  -3.46495  -3.46359
  Beta  occ. eigenvalues --   -3.46359  -3.46359  -3.46258  -3.46258  -3.46256
  Beta  occ. eigenvalues --   -0.45037  -0.29706  -0.25801  -0.25801  -0.12755
  Beta  occ. eigenvalues --   -0.09075  -0.07741  -0.07741  -0.04626  -0.04626
  Beta virt. eigenvalues --    0.02770   0.09588   0.09588   0.13808   0.14820
  Beta virt. eigenvalues --    0.14820   0.16618   0.19369   0.19369   0.21174
  Beta virt. eigenvalues --    0.27190   0.30657   0.30997   0.30997   0.32354
  Beta virt. eigenvalues --    0.32801   0.32801   0.37043   0.37043   0.37175
  Beta virt. eigenvalues --    0.38487   0.38487   0.41781   0.41781   0.44785
  Beta virt. eigenvalues --    0.45187   0.45280   0.45280   0.46186   0.46186
  Beta virt. eigenvalues --    0.48753   0.48753   0.50814   0.52410   0.53115
  Beta virt. eigenvalues --    0.61085   0.61085   0.61454   0.61454   0.64532
  Beta virt. eigenvalues --    0.64532   0.67183   0.69013   0.69357   0.69357
  Beta virt. eigenvalues --    0.75625   0.76801   0.82666   0.82666   0.85683
  Beta virt. eigenvalues --    0.85683   0.88067   0.88351   0.94061   0.94061
  Beta virt. eigenvalues --    0.96298   1.02756   1.03868   1.06380   1.06380
  Beta virt. eigenvalues --    1.08425   1.10710   1.10710   1.14063   1.16072
  Beta virt. eigenvalues --    1.16072   1.16949   1.16949   1.21593   1.22967
  Beta virt. eigenvalues --    1.23282   1.23282   1.26235   1.29773   1.29773
  Beta virt. eigenvalues --    1.29941   1.31183   1.31183   1.42290   1.43197
  Beta virt. eigenvalues --    1.44282   1.44282   1.44805   1.46276   1.49877
  Beta virt. eigenvalues --    1.49877   1.55344   1.55940   1.55940   1.63338
  Beta virt. eigenvalues --    1.63338   1.63398   1.63455   1.63455   1.68872
  Beta virt. eigenvalues --    1.87454   1.87454   1.90188   1.90188   1.90674
  Beta virt. eigenvalues --    1.90674   1.95487   1.99499   1.99499   2.02010
  Beta virt. eigenvalues --    2.05282   2.06108   2.06108   2.08651   2.18030
  Beta virt. eigenvalues --    2.18030   2.20300   2.20833   2.20833   2.22295
  Beta virt. eigenvalues --    2.24251   2.24251   2.33590   2.33590   2.44709
  Beta virt. eigenvalues --    2.60477   2.91909   2.91909   2.95305   2.99677
          Condensed to atoms (all electrons):
              1          2          3          4          5
     1  Si  13.622157   0.022376   0.022376   0.260473   0.260473
     2  Si   0.022376  13.622157   0.022376   0.260473   0.260473
     3  Si   0.022376   0.022376  13.622157   0.260473   0.260473
     4  Si   0.260473   0.260473   0.260473  13.536980  -0.100183
     5  Si   0.260473   0.260473   0.260473  -0.100183  13.536980
 Mulliken atomic charges:
              1
     1  Si  -0.187856
     2  Si  -0.187856
     3  Si  -0.187856
     4  Si  -0.218216
     5  Si  -0.218216
 Sum of Mulliken atomic charges =  -1.00000
 Mulliken charges with hydrogens summed into heavy atoms:
              1
     1  Si  -0.187856
     2  Si  -0.187856
     3  Si  -0.187856
     4  Si  -0.218216
     5  Si  -0.218216
 Sum of Mulliken charges with hydrogens summed into heavy atoms =  -1.00000
          Atomic-Atomic Spin Densities.
              1          2          3          4          5
     1  Si   0.011359  -0.008583  -0.008583   0.016948   0.016948
     2  Si  -0.008583   0.011359  -0.008583   0.016948   0.016948
     3  Si  -0.008583  -0.008583   0.011359   0.016948   0.016948
     4  Si   0.016948   0.016948   0.016948   0.474003  -0.066983
     5  Si   0.016948   0.016948   0.016948  -0.066983   0.474003
 Mulliken atomic spin densities:
              1
     1  Si   0.028089
     2  Si   0.028089
     3  Si   0.028089
     4  Si   0.457866
     5  Si   0.457866
 Sum of Mulliken atomic spin densities =   1.00000
 Electronic spatial extent (au):  <R**2>=            856.3380
 Charge=             -1.0000 electrons
 Dipole moment (field-independent basis, Debye):
    X=              0.0000    Y=              0.0000    Z=              0.0000  Tot=              0.0000
 Quadrupole moment (field-independent basis, Debye-Ang):
   XX=            -79.8259   YY=            -79.8259   ZZ=            -80.1069
   XY=              0.0000   XZ=              0.0000   YZ=              0.0000
 Traceless Quadrupole moment (field-independent basis, Debye-Ang):
   XX=              0.0937   YY=              0.0937   ZZ=             -0.1873
   XY=              0.0000   XZ=              0.0000   YZ=              0.0000
 Octapole moment (field-independent basis, Debye-Ang**2):
  XXX=              0.0000  YYY=            -10.8436  ZZZ=              0.0000  XYY=              0.0000
  XXY=             10.8436  XXZ=              0.0000  XZZ=              0.0000  YZZ=              0.0000
  YYZ=              0.0000  XYZ=              0.0000
 Hexadecapole moment (field-independent basis, Debye-Ang**3):
 XXXX=           -522.0482 YYYY=           -522.0482 ZZZZ=           -720.5870 XXXY=              0.0000
 XXXZ=              0.0000 YYYX=              0.0000 YYYZ=              0.0000 ZZZX=              0.0000
 ZZZY=              0.0000 XXYY=           -174.0161 XXZZ=           -193.3290 YYZZ=           -193.3290
 XXYZ=              0.0000 YYXZ=              0.0000 ZZXY=              0.0000
 N-N= 4.078999847414D+02 E-N=-6.403626077131D+03  KE= 2.163219893461D+03
 Symmetry A1   KE= 1.148293529823D+03
 Symmetry A2   KE= 7.602478500902D+01
 Symmetry B1   KE= 4.688048774644D+02
 Symmetry B2   KE= 4.700967011646D+02
                          Isotropic Fermi Contact Couplings
        Atom                 a.u.       MegaHertz       Gauss      10(-4) cm-1
     1  Si(29)            -0.00753       6.69255       2.38807       2.23239
     2  Si(29)            -0.00753       6.69255       2.38807       2.23239
     3  Si(29)            -0.00753       6.69255       2.38807       2.23239
     4  Si(29)             0.05639     -50.11862     -17.88357     -16.71777
     5  Si(29)             0.05639     -50.11862     -17.88357     -16.71777
 --------------------------------------------------------
       Center         ----  Spin Dipole Couplings  ----
                      3XX-RR        3YY-RR        3ZZ-RR
 --------------------------------------------------------
     1   Atom       -0.089800     -0.076956      0.166756
     2   Atom       -0.080167     -0.086589      0.166756
     3   Atom       -0.080167     -0.086589      0.166756
     4   Atom       -0.422229     -0.422229      0.844457
     5   Atom       -0.422229     -0.422229      0.844457
 --------------------------------------------------------
                        XY            XZ            YZ
 --------------------------------------------------------
     1   Atom        0.000000      0.000000      0.000000
     2   Atom       -0.005562      0.000000      0.000000
     3   Atom        0.005562      0.000000      0.000000
     4   Atom        0.000000      0.000000      0.000000
     5   Atom        0.000000      0.000000      0.000000
 --------------------------------------------------------


 ---------------------------------------------------------------------------------
              Anisotropic Spin Dipole Couplings in Principal Axis System
 ---------------------------------------------------------------------------------

       Atom             a.u.   MegaHertz   Gauss  10(-4) cm-1        Axes

              Baa    -0.0898     9.526     3.399     3.178  1.0000  0.0000  0.0000
     1 Si(29) Bbb    -0.0770     8.164     2.913     2.723  0.0000  1.0000  0.0000
              Bcc     0.1668   -17.690    -6.312    -5.901  0.0000  0.0000  1.0000
 
              Baa    -0.0898     9.526     3.399     3.178  0.5000  0.8660  0.0000
     2 Si(29) Bbb    -0.0770     8.164     2.913     2.723  0.8660 -0.5000  0.0000
              Bcc     0.1668   -17.690    -6.312    -5.901  0.0000  0.0000  1.0000
 
              Baa    -0.0898     9.526     3.399     3.178 -0.5000  0.8660  0.0000
     3 Si(29) Bbb    -0.0770     8.164     2.913     2.723  0.8660  0.5000  0.0000
              Bcc     0.1668   -17.690    -6.312    -5.901  0.0000  0.0000  1.0000
 
              Baa    -0.4222    44.792    15.983    14.941  0.9372 -0.3487  0.0000
     4 Si(29) Bbb    -0.4222    44.792    15.983    14.941  0.3487  0.9372  0.0000
              Bcc     0.8445   -89.583   -31.966   -29.882  0.0000  0.0000  1.0000
 
              Baa    -0.4222    44.792    15.983    14.941  1.0000  0.0065  0.0000
     5 Si(29) Bbb    -0.4222    44.792    15.983    14.941 -0.0065  1.0000  0.0000
              Bcc     0.8445   -89.583   -31.966   -29.882  0.0000  0.0000  1.0000
 

 ---------------------------------------------------------------------------------

 1\1\GINC-NODE194\FOpt\UB3LYP\GTBas3\Si5(1-,2)\TAM\05-Mar-2012\0\\# G4 
 scfcyc=500 scf=xqc\\si5-an-d\\-1,2\Si,-1.3783150044,-0.7957705436,0.\S
 i,-0.0000000024,1.591541077,0.\Si,1.3783150068,-0.7957705394,0.\Si,0.,
 -0.000000002,1.726852373\Si,0.,-0.000000002,-1.726852373\\Version=AM64
 L-G09RevA.02\State=2-A2"\HF=-1447.4908758\S2=0.758249\S2-1=0.\S2A=0.75
 0024\RMSD=8.472e-09\RMSF=2.369e-05\Dipole=0.,0.,0.\Quadrupole=0.069630
 9,0.0696309,-0.1392619,0.,0.,0.\PG=D03H [C3(Si1.Si1),3C2(Si1)]\\@


 LIVE PURE, SPEAK TRUE, RIGHT WRONG, FOLLOW THE KING...
 ELSE, WHEREFORE BORN......
           IDYLLS OF THE KING, TENNYSON
 Job cpu time:  0 days  0 hours  8 minutes  8.5 seconds.
 File lengths (MBytes):  RWF=     23 Int=      0 D2E=      0 Chk=     12 Scr=      1
 Normal termination of Gaussian 09 at Mon Mar  5 12:05:40 2012.
 Link1:  Proceeding to internal job step number  2.
 ----------------------------------------------------------
 #N Geom=AllCheck Guess=TCheck SCRF=Check B3LYP/GTBas3 Freq
 ----------------------------------------------------------
 1/10=4,29=7,30=1,38=1,40=1/1,3;
 2/12=2,40=1/2;
 3/5=35,11=2,14=-4,16=1,25=1,30=1,70=2,71=2,74=-5,116=-2/1,2,3;
 4/5=101/1;
 5/5=2,7=500,8=3,13=1,98=1/2,8;
 8/6=4,10=90,11=11/1;
 11/6=1,8=1,9=11,15=111,16=1/1,2,10;
 10/6=1/2;
 6/7=2,8=2,9=2,10=2,18=1,28=1/1;
 7/8=1,10=1,25=1/1,2,3,16;
 1/10=4,30=1/3;
 99//99;
 --------
 si5-an-d
 --------
 Redundant internal coordinates taken from checkpoint file:
 S9L-ne-d-01.chk
 Charge = -1 Multiplicity = 2
 Si,0,-1.3783150044,-0.7957705436,0.
 Si,0,-0.0000000024,1.591541077,0.
 Si,0,1.3783150068,-0.7957705394,0.
 Si,0,0.,-0.000000002,1.726852373
 Si,0,0.,-0.000000002,-1.726852373
 Recover connectivity data from disk.

 GradGradGradGradGradGradGradGradGradGradGradGradGradGradGradGradGradGrad
 Berny optimization.
 Initialization pass.
                           ----------------------------
                           !    Initial Parameters    !
                           ! (Angstroms and Degrees)  !
 --------------------------                            --------------------------
 ! Name  Definition              Value          Derivative Info.                !
 --------------------------------------------------------------------------------
 ! R1    R(1,2)                  2.7566         calculate D2E/DX2 analytically  !
 ! R2    R(1,3)                  2.7566         calculate D2E/DX2 analytically  !
 ! R3    R(1,4)                  2.3484         calculate D2E/DX2 analytically  !
 ! R4    R(1,5)                  2.3484         calculate D2E/DX2 analytically  !
 ! R5    R(2,3)                  2.7566         calculate D2E/DX2 analytically  !
 ! R6    R(2,4)                  2.3484         calculate D2E/DX2 analytically  !
 ! R7    R(2,5)                  2.3484         calculate D2E/DX2 analytically  !
 ! R8    R(3,4)                  2.3484         calculate D2E/DX2 analytically  !
 ! R9    R(3,5)                  2.3484         calculate D2E/DX2 analytically  !
 ! A1    A(4,1,5)               94.67           calculate D2E/DX2 analytically  !
 ! A2    A(4,2,5)               94.67           calculate D2E/DX2 analytically  !
 ! A3    A(4,3,5)               94.67           calculate D2E/DX2 analytically  !
 --------------------------------------------------------------------------------
 Trust Radius=3.00D-01 FncErr=1.00D-07 GrdErr=1.00D-07
 Number of steps in this run=   2 maximum allowed number of steps=   2.
 GradGradGradGradGradGradGradGradGradGradGradGradGradGradGradGradGradGrad

                          Input orientation:                          
 ---------------------------------------------------------------------
 Center     Atomic      Atomic             Coordinates (Angstroms)
 Number     Number       Type             X           Y           Z
 ---------------------------------------------------------------------
      1         14           0       -1.378315   -0.795771    0.000000
      2         14           0        0.000000    1.591541    0.000000
      3         14           0        1.378315   -0.795771    0.000000
      4         14           0        0.000000    0.000000    1.726852
      5         14           0        0.000000    0.000000   -1.726852
 ---------------------------------------------------------------------
                    Distance matrix (angstroms):
                    1          2          3          4          5
     1  Si   0.000000
     2  Si   2.756630   0.000000
     3  Si   2.756630   2.756630   0.000000
     4  Si   2.348408   2.348408   2.348408   0.000000
     5  Si   2.348408   2.348408   2.348408   3.453705   0.000000
 Stoichiometry    Si5(1-,2)
 Framework group  D3H[C3(Si.Si),3C2(Si)]
 Deg. of freedom     2
 Full point group                 D3H     NOp  12
 Largest Abelian subgroup         C2V     NOp   4
 Largest concise Abelian subgroup C2V     NOp   4
                         Standard orientation:                         
 ---------------------------------------------------------------------
 Center     Atomic      Atomic             Coordinates (Angstroms)
 Number     Number       Type             X           Y           Z
 ---------------------------------------------------------------------
      1         14           0        0.000000    1.591541    0.000000
      2         14           0        1.378315   -0.795771    0.000000
      3         14           0       -1.378315   -0.795771    0.000000
      4         14           0        0.000000    0.000000    1.726852
      5         14           0        0.000000    0.000000   -1.726852
 ---------------------------------------------------------------------
 Rotational constants (GHZ):      2.3771698      1.8501619      1.8501619
 Standard basis: GTBas3 (6D, 7F)
 There are    59 symmetry adapted basis functions of A1  symmetry.
 There are    23 symmetry adapted basis functions of A2  symmetry.
 There are    39 symmetry adapted basis functions of B1  symmetry.
 There are    39 symmetry adapted basis functions of B2  symmetry.
 Integral buffers will be    131072 words long.
 Raffenetti 2 integral format.
 Two-electron integral symmetry is turned on.
   160 basis functions,   340 primitive gaussians,   175 cartesian basis functions
    36 alpha electrons       35 beta electrons
       nuclear repulsion energy       407.8999847414 Hartrees.
 NAtoms=    5 NActive=    5 NUniq=    2 SFac= 3.00D+00 NAtFMM=   80 NAOKFM=F Big=F
 One-electron integrals computed using PRISM.
 NBasis=   160 RedAO= T  NBF=    59    23    39    39
 NBsUse=   160 1.00D-06 NBFU=    59    23    39    39
 Initial guess read from the checkpoint file:  S9L-ne-d-01.chk
 B after Tr=     0.000000    0.000000    0.000000
         Rot=    1.000000    0.000000    0.000000    0.000000 Ang=   0.00 deg.
 Initial guess orbital symmetries:
 Alpha Orbitals:
       Occupied  (A2") (A1') (E') (E') (A1') (A2") (A1') (A1')
                 (E') (E') (A1') (A2") (E') (E') (E") (E") (A2')
                 (E') (E') (A1') (E') (E') (E") (E") (A2") (A1')
                 (A2") (E') (E') (A1') (A1') (E") (E") (E') (E')
                 (A2")
       Virtual   (E') (E') (A2') (E') (E') (A2") (E") (E") (A1')
                 (A1') (A1') (E") (E") (A2") (E') (E') (A1') (E')
[...]
 Alpha virt. eigenvalues --    4.35292   4.35292   4.36744   4.36744   4.41261
 Alpha virt. eigenvalues --    4.41881   4.42017   4.42017   4.42145   4.42145
 Alpha virt. eigenvalues --    4.43227   4.43689   4.47257   4.48399   4.48399
 Alpha virt. eigenvalues --    4.50967   4.50967   4.54708   4.56092   4.59822
 Alpha virt. eigenvalues --    4.60241   4.60962   4.60962   4.61057   4.61057
 Alpha virt. eigenvalues --    4.63604   4.63604   4.65022   4.65022   4.66089
 Alpha virt. eigenvalues --    4.70967   4.74465   4.74465   4.81557   4.81624
 Alpha virt. eigenvalues --    4.84689   4.84689   4.84993   4.84993   4.86737
 Alpha virt. eigenvalues --    4.87793   4.87793   4.87924   4.95265   4.95265
 Alpha virt. eigenvalues --    4.96462   4.96462   4.97486   4.97486   4.98700
 Alpha virt. eigenvalues --    5.00994   5.05617   5.05617   5.10758   5.11949
 Alpha virt. eigenvalues --    5.15956   5.18459   5.18459   5.20467   5.22799
 Alpha virt. eigenvalues --    5.22799   5.33484   5.33484   5.34905   5.34905
 Alpha virt. eigenvalues --    5.46625   5.46625   5.48882   5.53155   5.58671
 Alpha virt. eigenvalues --    5.76140   5.83961   5.83961   5.91589   6.60923
 Alpha virt. eigenvalues --    6.60923   6.62815   6.62815   6.75554   7.02982
 Alpha virt. eigenvalues --    7.03265   7.03265   7.06081   7.20961   7.20961
 Alpha virt. eigenvalues --    7.22101   7.22101   7.22481   7.30550   7.30550
 Alpha virt. eigenvalues --    7.32893   7.33344   7.33344   7.41766   7.41766
 Alpha virt. eigenvalues --    7.44946   7.46526   7.51140   7.51140  13.82152
 Alpha virt. eigenvalues --   13.82152  13.90209  14.02925  14.02925  14.13220
 Alpha virt. eigenvalues --   14.17756  14.17756  14.24477  14.82092  14.82092
 Alpha virt. eigenvalues --   15.09388  15.11027  15.11027  15.19480  40.25110
 Alpha virt. eigenvalues --   41.92609  41.92609  42.38738  42.51076
  Beta  occ. eigenvalues --  -68.61962 -68.61962 -68.61894 -68.61894 -68.61894
  Beta  occ. eigenvalues --   -5.96644  -5.96642  -5.96425  -5.96421  -5.96421
  Beta  occ. eigenvalues --   -4.06980  -4.06980  -4.06980  -4.06980  -4.06679
  Beta  occ. eigenvalues --   -4.06679  -4.06672  -4.06667  -4.06643  -4.06643
  Beta  occ. eigenvalues --   -4.06509  -4.06497  -4.06497  -4.06337  -4.06332
  Beta  occ. eigenvalues --   -0.65765  -0.44705  -0.40341  -0.40341  -0.19308
  Beta  occ. eigenvalues --   -0.16943  -0.15701  -0.15701  -0.11621  -0.11621
  Beta virt. eigenvalues --    0.10833   0.11629   0.11629   0.11767   0.12640
  Beta virt. eigenvalues --    0.13679   0.14943   0.14943   0.14951   0.14951
  Beta virt. eigenvalues --    0.15698   0.15698   0.15873   0.16271   0.16294
  Beta virt. eigenvalues --    0.16294   0.18832   0.18832   0.22120   0.22120
  Beta virt. eigenvalues --    0.22443   0.22449   0.23163   0.24221   0.28217
  Beta virt. eigenvalues --    0.28217   0.28825   0.28825   0.29475   0.29491
  Beta virt. eigenvalues --    0.31929   0.32960   0.32960   0.34794   0.34794
  Beta virt. eigenvalues --    0.36715   0.38044   0.38044   0.40435   0.41109
  Beta virt. eigenvalues --    0.41109   0.41243   0.41243   0.42613   0.43859
  Beta virt. eigenvalues --    0.45680   0.45680   0.46802   0.49327   0.49327
  Beta virt. eigenvalues --    0.49781   0.53727   0.53727   0.55027   0.55904
  Beta virt. eigenvalues --    0.57011   0.60522   0.60522   0.62526   0.62526
  Beta virt. eigenvalues --    0.63519   0.64084   0.64084   0.66283   0.66283
  Beta virt. eigenvalues --    0.66385   0.69376   0.69376   0.71903   0.73004
  Beta virt. eigenvalues --    0.73712   0.73712   0.76860   0.77680   0.77680
  Beta virt. eigenvalues --    0.81042   0.81174   0.81174   0.81534   0.81534
  Beta virt. eigenvalues --    0.83530   0.83530   0.83571   0.85529   0.90525
  Beta virt. eigenvalues --    0.90525   0.93065   0.93065   0.93991   0.94003
  Beta virt. eigenvalues --    0.94692   0.94692   0.96561   0.96791   0.97046
  Beta virt. eigenvalues --    1.01717   1.01717   1.01927   1.02562   1.02562
  Beta virt. eigenvalues --    1.02570   1.04255   1.04418   1.04418   1.08397
  Beta virt. eigenvalues --    1.08397   1.08683   1.08683   1.09349   1.09349
  Beta virt. eigenvalues --    1.13234   1.13515   1.13700   1.14369   1.14369
  Beta virt. eigenvalues --    1.15238   1.15905   1.15905   1.15972   1.15972
  Beta virt. eigenvalues --    1.16790   1.18539   1.18539   1.19704   1.22565
  Beta virt. eigenvalues --    1.23490   1.23946   1.23946   1.24692   1.26702
  Beta virt. eigenvalues --    1.27180   1.27275   1.27275   1.29334   1.29334
  Beta virt. eigenvalues --    1.31444   1.31444   1.36853   1.36853   1.47269
  Beta virt. eigenvalues --    1.54467   1.54628   1.54628   1.55146   1.55146
  Beta virt. eigenvalues --    1.55262   1.59796   1.59796   1.61565   1.64282
  Beta virt. eigenvalues --    1.64282   1.68177   1.68177   1.68601   1.68601
  Beta virt. eigenvalues --    1.71270   1.71322   1.72666   1.72666   1.73176
  Beta virt. eigenvalues --    1.74109   1.76811   1.76811   1.77956   1.77958
  Beta virt. eigenvalues --    1.84602   1.84602   1.84898   1.84898   1.86908
  Beta virt. eigenvalues --    1.86908   1.90044   1.93584   1.93584   1.93606
  Beta virt. eigenvalues --    1.96302   1.96780   1.96780   1.96908   1.98298
  Beta virt. eigenvalues --    1.98996   1.98996   2.00323   2.00627   2.00945
  Beta virt. eigenvalues --    2.00945   2.02452   2.03356   2.04814   2.04814
  Beta virt. eigenvalues --    2.07411   2.07411   2.07727   2.07727   2.08893
  Beta virt. eigenvalues --    2.10934   2.10934   2.13193   2.14165   2.15040
  Beta virt. eigenvalues --    2.15430   2.15430   2.15566   2.15566   2.16787
  Beta virt. eigenvalues --    2.16787   2.17349   2.23125   2.23125   2.23866
  Beta virt. eigenvalues --    2.26746   2.26746   2.28636   2.29800   2.29800
  Beta virt. eigenvalues --    2.33080   2.33813   2.33813   2.36244   2.36414
  Beta virt. eigenvalues --    2.36414   2.37075   2.39275   2.39275   2.43778
  Beta virt. eigenvalues --    2.43778   2.44770   2.44813   2.44813   2.45897
  Beta virt. eigenvalues --    2.47486   2.55830   2.57618   2.57618   2.67981
  Beta virt. eigenvalues --    2.74112   2.74112   2.78106   2.79648   2.79648
  Beta virt. eigenvalues --    2.85122   2.85122   2.89956   2.89956   2.99039
  Beta virt. eigenvalues --    3.00646   3.03173   3.09183   3.09183   3.11864
  Beta virt. eigenvalues --    3.11864   3.13197   3.16718   3.16718   3.21106
  Beta virt. eigenvalues --    3.23220   3.23220   3.25942   3.31335   3.33079
  Beta virt. eigenvalues --    3.33079   3.40253   3.40253   3.43637   3.44476
  Beta virt. eigenvalues --    3.44476   3.44545   3.44545   3.46773   3.46773
  Beta virt. eigenvalues --    3.51374   3.53670   3.55691   3.55691   3.60626
  Beta virt. eigenvalues --    3.60626   3.62275   3.62275   3.62735   3.64084
  Beta virt. eigenvalues --    3.64084   3.65256   3.66695   3.66695   3.67722
  Beta virt. eigenvalues --    3.69234   3.69509   3.69509   3.69673   3.71099
  Beta virt. eigenvalues --    3.72878   3.72878   3.76125   3.76125   3.76191
  Beta virt. eigenvalues --    3.78295   3.78370   3.82405   3.82598   3.82953
  Beta virt. eigenvalues --    3.82953   3.83400   3.83400   3.84782   3.85330
  Beta virt. eigenvalues --    3.85330   3.88823   3.89269   3.89269   3.91592
  Beta virt. eigenvalues --    3.91592   3.91766   3.94148   3.98144   3.98144
  Beta virt. eigenvalues --    4.01142   4.03406   4.04050   4.04050   4.04514
  Beta virt. eigenvalues --    4.04514   4.05360   4.08243   4.08243   4.08892
  Beta virt. eigenvalues --    4.08892   4.10290   4.10346   4.11141   4.14888
  Beta virt. eigenvalues --    4.14888   4.15413   4.15413   4.22302   4.22302
  Beta virt. eigenvalues --    4.24874   4.24874   4.28851   4.30169   4.34143
  Beta virt. eigenvalues --    4.34143   4.35468   4.35468   4.36850   4.36850
  Beta virt. eigenvalues --    4.41455   4.41994   4.42058   4.42058   4.42271
  Beta virt. eigenvalues --    4.42271   4.43555   4.44422   4.47269   4.48579
  Beta virt. eigenvalues --    4.48579   4.51225   4.51225   4.55075   4.56458
  Beta virt. eigenvalues --    4.60149   4.60492   4.61256   4.61256   4.61611
  Beta virt. eigenvalues --    4.61611   4.63799   4.63799   4.65187   4.65187
  Beta virt. eigenvalues --    4.66435   4.71313   4.74638   4.74638   4.81728
  Beta virt. eigenvalues --    4.82234   4.84941   4.84941   4.85272   4.85272
  Beta virt. eigenvalues --    4.86812   4.88204   4.88247   4.88247   4.95658
  Beta virt. eigenvalues --    4.95658   4.96762   4.96762   4.97955   4.97955
  Beta virt. eigenvalues --    4.98845   5.01135   5.05681   5.05681   5.10855
  Beta virt. eigenvalues --    5.12313   5.16476   5.18700   5.18700   5.20720
  Beta virt. eigenvalues --    5.23142   5.23142   5.33584   5.33584   5.35213
  Beta virt. eigenvalues --    5.35213   5.46973   5.46973   5.49299   5.53386
  Beta virt. eigenvalues --    5.58995   5.76373   5.84202   5.84202   5.91710
  Beta virt. eigenvalues --    6.60980   6.60980   6.62906   6.62906   6.75850
  Beta virt. eigenvalues --    7.03099   7.03290   7.03290   7.06169   7.20990
  Beta virt. eigenvalues --    7.20990   7.22115   7.22115   7.22913   7.30800
  Beta virt. eigenvalues --    7.30800   7.33062   7.33599   7.33599   7.41940
  Beta virt. eigenvalues --    7.41940   7.45210   7.46530   7.51262   7.51262
  Beta virt. eigenvalues --   13.82161  13.82161  13.90214  14.03054  14.03054
  Beta virt. eigenvalues --   14.13681  14.17800  14.17800  14.25082  14.82144
  Beta virt. eigenvalues --   14.82144  15.09852  15.11170  15.11170  15.19973
  Beta virt. eigenvalues --   40.25152  41.92645  41.92645  42.38888  42.51240
          Condensed to atoms (all electrons):
              1          2          3          4          5
     1  Si  13.399456   0.097349   0.097349   0.296824   0.296824
     2  Si   0.097349  13.399456   0.097349   0.296824   0.296824
     3  Si   0.097349   0.097349  13.399456   0.296824   0.296824
     4  Si   0.296824   0.296824   0.296824  13.320424   0.007400
     5  Si   0.296824   0.296824   0.296824   0.007400  13.320424
 Mulliken atomic charges:
              1
     1  Si  -0.187802
     2  Si  -0.187802
     3  Si  -0.187802
     4  Si  -0.218297
     5  Si  -0.218297
 Sum of Mulliken atomic charges =  -1.00000
 Mulliken charges with hydrogens summed into heavy atoms:
              1
     1  Si  -0.187802
     2  Si  -0.187802
     3  Si  -0.187802
     4  Si  -0.218297
     5  Si  -0.218297
 Sum of Mulliken charges with hydrogens summed into heavy atoms =  -1.00000
          Atomic-Atomic Spin Densities.
              1          2          3          4          5
     1  Si  -0.012183  -0.050682  -0.050682   0.088254   0.088254
     2  Si  -0.050682  -0.012183  -0.050682   0.088254   0.088254
     3  Si  -0.050682  -0.050682  -0.012183   0.088254   0.088254
     4  Si   0.088254   0.088254   0.088254   0.241641  -0.100849
     5  Si   0.088254   0.088254   0.088254  -0.100849   0.241641
 Mulliken atomic spin densities:
              1
     1  Si   0.062963
     2  Si   0.062963
     3  Si   0.062963
     4  Si   0.405555
     5  Si   0.405555
 Sum of Mulliken atomic spin densities =   1.00000
 Electronic spatial extent (au):  <R**2>=            865.4606
 Charge=             -1.0000 electrons
 Dipole moment (field-independent basis, Debye):
    X=              0.0000    Y=              0.0000    Z=              0.0000  Tot=              0.0000
 Quadrupole moment (field-independent basis, Debye-Ang):
   XX=            -84.4660   YY=            -84.4660   ZZ=            -83.0967
   XY=              0.0000   XZ=              0.0000   YZ=              0.0000
 Traceless Quadrupole moment (field-independent basis, Debye-Ang):
   XX=             -0.4564   YY=             -0.4564   ZZ=              0.9129
   XY=              0.0000   XZ=              0.0000   YZ=              0.0000
 Octapole moment (field-independent basis, Debye-Ang**2):
  XXX=              0.0000  YYY=            -16.9517  ZZZ=              0.0000  XYY=              0.0000
  XXY=             16.9517  XXZ=              0.0000  XZZ=              0.0000  YZZ=              0.0000
  YYZ=              0.0000  XYZ=              0.0000
 Hexadecapole moment (field-independent basis, Debye-Ang**3):
 XXXX=           -591.7178 YYYY=           -591.7178 ZZZZ=           -774.3158 XXXY=              0.0000
 XXXZ=              0.0000 YYYX=              0.0000 YYYZ=              0.0000 ZZZX=              0.0000
 ZZZY=              0.0000 XXYY=           -197.2393 XXZZ=           -209.4381 YYZZ=           -209.4381
 XXYZ=              0.0000 YYXZ=              0.0000 ZZXY=              0.0000
 N-N= 4.078999847414D+02 E-N=-6.405071826949D+03  KE= 2.166331435749D+03
 Symmetry A1   KE= 1.149633765203D+03
 Symmetry A2   KE= 7.624320336203D+01
 Symmetry B1   KE= 4.695174091030D+02
 Symmetry B2   KE= 4.709370580809D+02
                          Isotropic Fermi Contact Couplings
        Atom                 a.u.       MegaHertz       Gauss      10(-4) cm-1
     1  Si(29)            -0.02402      21.35141       7.61871       7.12206
     2  Si(29)            -0.02402      21.35141       7.61871       7.12206
     3  Si(29)            -0.02402      21.35141       7.61871       7.12206
     4  Si(29)            -0.03611      32.09152      11.45105      10.70458
     5  Si(29)            -0.03611      32.09152      11.45105      10.70458
 --------------------------------------------------------
       Center         ----  Spin Dipole Couplings  ----
                      3XX-RR        3YY-RR        3ZZ-RR
 --------------------------------------------------------
     1   Atom       -0.121666     -0.108208      0.229874
     2   Atom       -0.111573     -0.118301      0.229874
     3   Atom       -0.111573     -0.118301      0.229874
     4   Atom       -0.523419     -0.523419      1.046839
     5   Atom       -0.523419     -0.523419      1.046839
 --------------------------------------------------------
                        XY            XZ            YZ
 --------------------------------------------------------
     1   Atom        0.000000      0.000000      0.000000
     2   Atom       -0.005827      0.000000      0.000000
     3   Atom        0.005827      0.000000      0.000000
     4   Atom        0.000000      0.000000      0.000000
     5   Atom        0.000000      0.000000      0.000000
 --------------------------------------------------------


 ---------------------------------------------------------------------------------
              Anisotropic Spin Dipole Couplings in Principal Axis System
 ---------------------------------------------------------------------------------

       Atom             a.u.   MegaHertz   Gauss  10(-4) cm-1        Axes

              Baa    -0.1217    12.907     4.605     4.305  1.0000  0.0000  0.0000
     1 Si(29) Bbb    -0.1082    11.479     4.096     3.829  0.0000  1.0000  0.0000
              Bcc     0.2299   -24.386    -8.702    -8.134  0.0000  0.0000  1.0000
 
              Baa    -0.1217    12.907     4.605     4.305  0.5000  0.8660  0.0000
     2 Si(29) Bbb    -0.1082    11.479     4.096     3.829  0.8660 -0.5000  0.0000
              Bcc     0.2299   -24.386    -8.702    -8.134  0.0000  0.0000  1.0000
 
              Baa    -0.1217    12.907     4.605     4.305 -0.5000  0.8660  0.0000
     3 Si(29) Bbb    -0.1082    11.479     4.096     3.829  0.8660  0.5000  0.0000
              Bcc     0.2299   -24.386    -8.702    -8.134  0.0000  0.0000  1.0000
 
              Baa    -0.5234    55.526    19.813    18.522  0.0677  0.9977  0.0000
     4 Si(29) Bbb    -0.5234    55.526    19.813    18.522  0.9977 -0.0677  0.0000
              Bcc     1.0468  -111.053   -39.626   -37.043  0.0000  0.0000  1.0000
 
              Baa    -0.5234    55.526    19.813    18.522  0.0317  0.9995  0.0000
     5 Si(29) Bbb    -0.5234    55.526    19.813    18.522  0.9995 -0.0317  0.0000
              Bcc     1.0468  -111.053   -39.626   -37.043  0.0000  0.0000  1.0000
 

 ---------------------------------------------------------------------------------

 1\1\GINC-NODE194\SP\UHF\GFHFB2\Si5(1-,2)\TAM\05-Mar-2012\0\\#N Geom=Al
 lCheck Guess=TCheck SCRF=Check HF/GFHFB2 SCF=Tight\\si5-an-d\\-1,2\Si,
 0,-1.3783150044,-0.7957705436,0.\Si,0,-0.0000000024,1.591541077,0.\Si,
 0,1.3783150068,-0.7957705394,0.\Si,0,0.,-0.000000002,1.726852373\Si,0,
 0.,-0.000000002,-1.726852373\\Version=AM64L-G09RevA.02\State=2-A2"\HF=
 -1444.6768134\S2=0.80597\S2-1=0.\S2A=0.750915\RMSD=6.628e-09\Dipole=0.
 ,0.,0.\Quadrupole=-0.3393489,-0.3393489,0.6786978,0.,0.,0.\PG=D03H [C3
 (Si1.Si1),3C2(Si1)]\\@


 TO DETECT ERRORS, THE PROGRAMMER MUST HAVE A CONNIVING MIND,
 ONE THAT DELIGHTS IN UNCOVERING FLAWS WHERE BEAUTY AND
 PERFECTION WERE ONCE THOUGHT TO LIE.

             -- THE PSYCHOLOGY OF COMPUTER PROGRAMMING
                GERALD M. WEINBERG
 Diagonal vibrational polarizability:
        0.0000000       0.0000000       0.0000000

 Temperature=              298.150000 Pressure=                      1.000000
 E(ZPE)=                     0.006698 E(Thermal)=                    0.013123
 E(CCSD(T))=             -1445.025316 E(Empiric)=                   -0.073721
 DE(Plus)=                  -0.012613 DE(2DF)=                      -0.169308
 E(Delta-G3XP)=             -1.570006 DE(HF)=                       -0.033490
 G4(0 K)=                -1446.877757 G4 Energy=                 -1446.871332
 G4 Enthalpy=            -1446.870388 G4 Free Energy=            -1446.907896
 1\1\GINC-NODE194\Mixed\G4\G4\Si5(1-,2)\TAM\05-Mar-2012\0\\# G4 scfcyc=
 500 scf=xqc\\si5-an-d\\-1,2\Si,0,-1.3783150044,-0.7957705436,0.\Si,0,-
 0.0000000024,1.591541077,0.\Si,0,1.3783150068,-0.7957705394,0.\Si,0,0.
 ,-0.000000002,1.726852373\Si,0,0.,-0.000000002,-1.726852373\\Version=A
 M64L-G09RevA.02\State=2-A2"\MP2/GTBas1=-1444.9735848\MP4/GTBas1=-1445.
 0337985\CCSD(T)/G3Bas1=-1445.025316\MP2/GTBas2=-1444.9850393\MP4/GTBas
 2=-1445.0464118\MP2/GTBas3=-1445.1293736\MP4/GTBas3=-1445.203107\HF/GT
 LargeXP=-1444.6444019\MP2/GTLargeXP=-1446.7108341\HF/GFHFB1=-1444.6723
 874\HF/GFHFB2=-1444.6768134\G4=-1446.8777566\FreqCoord=-2.6046378831,-
 1.503788392,0.,-0.0000000046,3.0075767647,0.,2.6046378876,-1.503788384
 1,0.,0.,-0.0000000038,3.263278057,0.,-0.0000000038,-3.263278057\PG=D03
 H [C3(Si1.Si1),3C2(Si1)]\NImag=0\\0.08776355,0.03904990,0.04267261,0.,
 0.,0.07681797,-0.00846653,-0.01662205,0.,0.02012714,-0.00425898,-0.020
 52220,0.,0.,0.11030902,0.,0.,0.00223616,0.,0.,0.07681797,-0.02655003,0
 .00618153,0.,-0.00846653,0.00425898,0.,0.08776355,-0.00618153,-0.00243
 869,0.,0.01662205,-0.02052220,0.,-0.03904990,0.04267261,0.,0.,0.002236
 16,0.,0.,0.00223616,0.,0.,0.07681797,-0.02637360,-0.01430488,-0.029791
 12,-0.00159673,0.00000012,-0.00000019,-0.02637321,0.01430489,0.0297913
 4,0.05090984,-0.01430488,-0.00985575,-0.01719991,0.00000018,-0.0346322
 1,0.03440019,0.01430482,-0.00985573,-0.01720026,-0.00000046,0.05091037
 ,-0.02256477,-0.01302778,-0.04064514,0.00000006,0.02605496,-0.04064512
 ,0.02256429,-0.01302742,-0.04064512,0.00000040,0.00000023,0.14882912,-
 0.02637360,-0.01430488,0.02979112,-0.00159673,0.00000012,0.00000019,-0
 .02637321,0.01430489,-0.02979134,0.00343322,0.00000021,0.00000044,0.05
 090984,-0.01430488,-0.00985575,0.01719991,0.00000018,-0.03463221,-0.03
 440019,0.01430483,-0.00985573,0.01720026,0.00000021,0.00343298,0.00000
 026,-0.00000046,0.05091037,0.02256477,0.01302778,-0.04064514,-0.000000
 06,-0.02605496,-0.04064512,-0.02256429,0.01302742,-0.04064512,-0.00000
 044,-0.00000026,-0.02689378,-0.00000040,-0.00000023,0.14882912\\0.0000
 3544,0.00002046,0.,0.,-0.00004092,0.,-0.00003544,0.00002046,0.,0.,0.,-
 0.00004119,0.,0.,0.00004119\\\@
 Job cpu time:  0 days  1 hours 26 minutes 14.2 seconds.
 File lengths (MBytes):  RWF=    408 Int=      0 D2E=      0 Chk=     17 Scr=      1
 Normal termination of Gaussian 09 at Mon Mar  5 12:30:24 2012.
