 Entering Gaussian System, Link 0=g09
 Initial command:
 /usr/local/chem/g09A2/l1.exe /temp0/tam/Gau-22675.inp -scrdir=/temp0/tam/
 Entering Link 1 = /usr/local/chem/g09A2/l1.exe PID=     22676.
  
 Copyright (c) 1988,1990,1992,1993,1995,1998,2003,2009, Gaussian, Inc.
                  All Rights Reserved.
  
 This is part of the Gaussian(R) 09 program.  It is based on
 the Gaussian(R) 03 system (copyright 2003, Gaussian, Inc.),
 the Gaussian(R) 98 system (copyright 1998, Gaussian, Inc.),
 the Gaussian(R) 94 system (copyright 1995, Gaussian, Inc.),
 the Gaussian 92(TM) system (copyright 1992, Gaussian, Inc.),
 the Gaussian 90(TM) system (copyright 1990, Gaussian, Inc.),
 the Gaussian 88(TM) system (copyright 1988, Gaussian, Inc.),
 the Gaussian 86(TM) system (copyright 1986, Carnegie Mellon
 University), and the Gaussian 82(TM) system (copyright 1983,
 Carnegie Mellon University). Gaussian is a federally registered
 trademark of Gaussian, Inc.
  
 This software contains proprietary and confidential information,
 including trade secrets, belonging to Gaussian, Inc.
  
 This software is provided under written license and may be
 used, copied, transmitted, or stored only in accord with that
 written license.
  
 The following legend is applicable only to US Government
 contracts under FAR:
  
                    RESTRICTED RIGHTS LEGEND
  
 Use, reproduction and disclosure by the US Government is
 subject to restrictions as set forth in subparagraphs (a)
 and (c) of the Commercial Computer Software - Restricted
 Rights clause in FAR 52.227-19.
  
 Gaussian, Inc.
 340 Quinnipiac St., Bldg. 40, Wallingford CT 06492
  
  
 ---------------------------------------------------------------
 Warning -- This program may not be used in any manner that
 competes with the business of Gaussian, Inc. or will provide
 assistance to any competitor of Gaussian, Inc.  The licensee
 of this program is prohibited from giving any competitor of
 Gaussian, Inc. access to this program.  By using this program,
 the user acknowledges that Gaussian, Inc. is engaged in the
 business of creating and licensing software in the field of
 computational chemistry and represents and warrants to the
 licensee that it is not a competitor of Gaussian, Inc. and that
 it will not use this program in any manner prohibited above.
 ---------------------------------------------------------------
  

 Cite this work as:
 Gaussian 09, Revision A.02,
 M. J. Frisch, G. W. Trucks, H. B. Schlegel, G. E. Scuseria, 
 M. A. Robb, J. R. Cheeseman, G. Scalmani, V. Barone, B. Mennucci, 
 G. A. Petersson, H. Nakatsuji, M. Caricato, X. Li, H. P. Hratchian, 
 A. F. Izmaylov, J. Bloino, G. Zheng, J. L. Sonnenberg, M. Hada, 
 M. Ehara, K. Toyota, R. Fukuda, J. Hasegawa, M. Ishida, T. Nakajima, 
 Y. Honda, O. Kitao, H. Nakai, T. Vreven, J. A. Montgomery, Jr., 
 J. E. Peralta, F. Ogliaro, M. Bearpark, J. J. Heyd, E. Brothers, 
 K. N. Kudin, V. N. Staroverov, R. Kobayashi, J. Normand, 
 K. Raghavachari, A. Rendell, J. C. Burant, S. S. Iyengar, J. Tomasi, 
 M. Cossi, N. Rega, J. M. Millam, M. Klene, J. E. Knox, J. B. Cross, 
 V. Bakken, C. Adamo, J. Jaramillo, R. Gomperts, R. E. Stratmann, 
 O. Yazyev, A. J. Austin, R. Cammi, C. Pomelli, J. W. Ochterski, 
 R. L. Martin, K. Morokuma, V. G. Zakrzewski, G. A. Voth, 
 P. Salvador, J. J. Dannenberg, S. Dapprich, A. D. Daniels, 
 O. Farkas, J. B. Foresman, J. V. Ortiz, J. Cioslowski, 
 and D. J. Fox, Gaussian, Inc., Wallingford CT, 2009.
 
 ******************************************
 Gaussian 09:  AM64L-G09RevA.02 11-Jun-2009
                20-Dec-2011 
 ******************************************
 %NprocShared=6
 Will use up to    6 processors via shared memory.
 %mem=18050MB
 %chk=S9L-ne-d-01
 -----------------------
 # G4 scfcyc=500 scf=xqc
 -----------------------
 1/14=-1,18=20,19=15,26=3,38=1/1,3;
 2/9=110,12=2,17=6,18=5,40=1/2;
 3/5=35,7=104,11=2,16=1,25=1,30=1,71=1,74=-5/1,2,3;
 4//1;
 5/5=2,7=500,8=3,13=1,38=5/2,8;
 6/7=2,8=2,9=2,10=2,28=1/1;
 7//1,2,3,16;
 1/14=-1,18=20,19=15/3(2);
 2/9=110/2;
 99//99;
 2/9=110/2;
 3/5=35,7=104,11=2,16=1,25=1,30=1,71=1,74=-5/1,2,3;
 4/5=5,16=3/1;
 5/5=2,7=500,8=3,13=1,38=5/2,8;
 7//1,2,3,16;
 1/14=-1,18=20,19=15/3(-5);
 2/9=110/2;
 6/7=2,8=2,9=2,10=2,19=2,28=1/1;
 99/9=1/99;
 -----
 si6-c
 -----
 Symbolic Z-matrix:
 Charge =  1 Multiplicity = 2
 Si                   -1.42888   0.        0.23906 
 Si                    0.        0.        2.14519 
 Si                    0.        0.       -1.95625 
 Si                    0.       -1.80481  -0.33367 
 Si                    0.        1.80481  -0.33367 
 Si                    1.42888   0.        0.23906 
 

 GradGradGradGradGradGradGradGradGradGradGradGradGradGradGradGradGradGrad
 Berny optimization.
 Initialization pass.
                           ----------------------------
                           !    Initial Parameters    !
                           ! (Angstroms and Degrees)  !
 --------------------------                            --------------------------
 ! Name  Definition              Value          Derivative Info.                !
 --------------------------------------------------------------------------------
 ! R1    R(1,2)                  2.3822         estimate D2E/DX2                !
 ! R2    R(1,3)                  2.6194         estimate D2E/DX2                !
 ! R3    R(1,4)                  2.3721         estimate D2E/DX2                !
 ! R4    R(1,5)                  2.3721         estimate D2E/DX2                !
 ! R5    R(1,6)                  2.8578         estimate D2E/DX2                !
 ! R6    R(2,6)                  2.3822         estimate D2E/DX2                !
 ! R7    R(3,4)                  2.427          estimate D2E/DX2                !
 ! R8    R(3,5)                  2.427          estimate D2E/DX2                !
 ! R9    R(3,6)                  2.6194         estimate D2E/DX2                !
 ! R10   R(4,6)                  2.3721         estimate D2E/DX2                !
 ! R11   R(5,6)                  2.3721         estimate D2E/DX2                !
 ! A1    A(2,1,3)              110.0848         estimate D2E/DX2                !
 ! A2    A(2,1,4)               80.322          estimate D2E/DX2                !
 ! A3    A(2,1,5)               80.322          estimate D2E/DX2                !
 ! A4    A(4,1,5)               99.0759         estimate D2E/DX2                !
 ! A5    A(4,3,5)               96.0871         estimate D2E/DX2                !
 ! A6    A(2,6,3)              110.0848         estimate D2E/DX2                !
 ! A7    A(2,6,4)               80.322          estimate D2E/DX2                !
 ! A8    A(2,6,5)               80.322          estimate D2E/DX2                !
 ! A9    A(4,6,5)               99.0759         estimate D2E/DX2                !
 ! D1    D(2,1,4,3)           -121.1948         estimate D2E/DX2                !
 ! D2    D(2,1,5,3)            121.1948         estimate D2E/DX2                !
 ! D3    D(2,1,5,4)             78.4665         estimate D2E/DX2                !
 --------------------------------------------------------------------------------
 Trust Radius=3.00D-01 FncErr=1.00D-07 GrdErr=1.00D-06
 Number of steps in this run=  33 maximum allowed number of steps= 100.
 GradGradGradGradGradGradGradGradGradGradGradGradGradGradGradGradGradGrad

                          Input orientation:                          
 ---------------------------------------------------------------------
 Center     Atomic      Atomic             Coordinates (Angstroms)
 Number     Number       Type             X           Y           Z
 ---------------------------------------------------------------------
      1         14           0       -1.428879    0.000000    0.239057
      2         14           0        0.000000    0.000000    2.145195
      3         14           0        0.000000    0.000000   -1.956249
      4         14           0        0.000000   -1.804810   -0.333674
      5         14           0        0.000000    1.804810   -0.333674
      6         14           0        1.428879    0.000000    0.239057
 ---------------------------------------------------------------------
                    Distance matrix (angstroms):
                    1          2          3          4          5
     1  Si   0.000000
     2  Si   2.382238   0.000000
     3  Si   2.619363   4.101444   0.000000
     4  Si   2.372141   3.066289   2.426951   0.000000
     5  Si   2.372141   3.066289   2.426951   3.609620   0.000000
     6  Si   2.857758   2.382238   2.619363   2.372141   2.372141
                    6
     6  Si   0.000000
 Stoichiometry    Si6(1+,2)
 Framework group  C2V[C2(SiSi),SGV(Si2),SGV'(Si2)]
 Deg. of freedom     5
 Full point group                 C2V     NOp   4
 Largest Abelian subgroup         C2V     NOp   4
 Largest concise Abelian subgroup C2V     NOp   4
                         Standard orientation:                         
 ---------------------------------------------------------------------
 Center     Atomic      Atomic             Coordinates (Angstroms)
 Number     Number       Type             X           Y           Z
 ---------------------------------------------------------------------
      1         14           0        0.000000    1.428879    0.239105
      2         14           0        0.000000    0.000000    2.145243
      3         14           0        0.000000    0.000000   -1.956201
      4         14           0       -1.804810    0.000000   -0.333626
      5         14           0        1.804810    0.000000   -0.333626
      6         14           0        0.000000   -1.428879    0.239105
 ---------------------------------------------------------------------
 Rotational constants (GHZ):      1.7044740      1.4058639      1.1821750
 Standard basis: GTBas3 (6D, 7F)
 There are    74 symmetry adapted basis functions of A1  symmetry.
 There are    26 symmetry adapted basis functions of A2  symmetry.
 There are    46 symmetry adapted basis functions of B1  symmetry.
 There are    46 symmetry adapted basis functions of B2  symmetry.
 Integral buffers will be    131072 words long.
 Raffenetti 2 integral format.
 Two-electron integral symmetry is turned on.
   192 basis functions,   408 primitive gaussians,   210 cartesian basis functions
    42 alpha electrons       41 beta electrons
       nuclear repulsion energy       584.6047584230 Hartrees.
 NAtoms=    6 NActive=    6 NUniq=    4 SFac= 1.69D+00 NAtFMM=   80 NAOKFM=F Big=F
 One-electron integrals computed using PRISM.
 NBasis=   192 RedAO= T  NBF=    74    26    46    46
 NBsUse=   192 1.00D-06 NBFU=    74    26    46    46
 Harris functional with IExCor=  402 diagonalized for initial guess.
 ExpMin= 7.78D-02 ExpMax= 1.61D+04 ExpMxC= 2.43D+03 IAcc=2 IRadAn=         0 AccDes= 0.00D+00
 HarFok:  IExCor=  402 AccDes= 0.00D+00 IRadAn=         0 IDoV= 1
 ScaDFX=  1.000000  1.000000  1.000000  1.000000
 FoFCou: FMM=F IPFlag=           0 FMFlag=      100000 FMFlg1=           0
         NFxFlg=           0 DoJE=T BraDBF=F KetDBF=T FulRan=T
         Omega=  0.000000  0.000000  1.000000  0.000000  0.000000 ICntrl=     500 IOpCl=  0
         NMat0=    1 NMatS0=    1 NMatT0=    0 NMatD0=    1 NMtDS0=    0 NMtDT0=    0
         I1Cent=           4 NGrid=           0.
 Petite list used in FoFCou.
 Initial guess orbital symmetries:
 Alpha Orbitals:
       Occupied  (A1) (B2) (B1) (A1) (A1) (A1) (A1) (B2) (B1) (A1)
                 (A1) (A1) (B2) (A1) (A2) (B1) (B2) (A1) (A1) (B1)
                 (B2) (A2) (A1) (B1) (A1) (B1) (B2) (A1) (B2) (B1)
                 (A1) (A1) (B1) (B2) (A1) (A1) (B2) (B1) (A2) (A1)
                 (A1) (B1)
       Virtual   (B2) (B1) (A1) (B2) (B2) (A1) (A1) (B1) (A2) (A1)
                 (B1) (B2) (B1) (A2) (A1) (A1) (B2) (A2) (B1) (A1)
                 (B2) (A1) (B2) (B1) (A1) (A1) (A1) (A2) (B1) (B2)
                 (B1) (A1) (B2) (A1) (B1) (A2) (A1) (B2) (B2) (B1)
                 (A1) (B2) (A2) (B1) (A2) (A1) (B1) (A1) (B2) (B1)
                 (A1) (A2) (B2) (A1) (B1) (A1) (B2) (A1) (B2) (A1)
                 (A1) (B1) (B1) (A1) (B2) (A2) (B1) (A1) (A2) (B2)
                 (A1) (B1) (A2) (B2) (A1) (B1) (B2) (A1) (A2) (A1)
                 (B1) (B2) (B1) (A1) (B2) (A2) (A1) (B1) (B2) (B1)
                 (A1) (A1) (B2) (A1) (A2) (B1) (A1) (B1) (A2) (B2)
                 (A2) (B2) (B1) (A1) (B2) (A1) (B1) (A1) (B2) (A1)
                 (A2) (B2) (B1) (A1) (A2) (B1) (B2) (A2) (A1) (B1)
                 (A1) (A2) (B2) (B1) (A1) (B2) (A1) (A2) (A1) (B2)
                 (A1) (B1) (B1) (B2) (A1) (A1) (A2) (B1) (B2) (B1)
                 (A2) (B2) (A1) (A1) (A1) (A1) (A1) (B2) (B1) (A1)
 Beta  Orbitals:
       Occupied  (A1) (B2) (B1) (A1) (A1) (A1) (A1) (B2) (B1) (A1)
                 (A1) (A1) (B2) (A1) (A2) (B1) (B2) (A1) (A1) (B1)
                 (B2) (A2) (A1) (B1) (A1) (B1) (B2) (A1) (B2) (B1)
                 (A1) (A1) (B1) (B2) (A1) (A1) (B2) (B1) (A2) (A1)
                 (A1)
       Virtual   (B1) (B2) (B1) (A1) (B2) (B2) (A1) (A1) (B1) (A2)
                 (A1) (B1) (B2) (B1) (A2) (A1) (A1) (B2) (A2) (B1)
                 (A1) (B2) (A1) (B2) (B1) (A1) (A1) (A1) (A2) (B1)
                 (B2) (B1) (A1) (B2) (A1) (B1) (A2) (A1) (B2) (B2)
                 (B1) (A1) (B2) (A2) (B1) (A2) (A1) (B1) (A1) (B2)
                 (B1) (A1) (A2) (B2) (A1) (B1) (A1) (B2) (A1) (B2)
                 (A1) (A1) (B1) (B1) (A1) (B2) (A2) (B1) (A1) (A2)
                 (B2) (A1) (B1) (A2) (B2) (A1) (B1) (B2) (A1) (A2)
                 (A1) (B1) (B2) (B1) (A1) (B2) (A2) (A1) (B1) (B2)
                 (B1) (A1) (A1) (B2) (A1) (A2) (B1) (A1) (B1) (A2)
                 (B2) (A2) (B2) (B1) (A1) (B2) (A1) (B1) (A1) (B2)
                 (A1) (A2) (B2) (B1) (A1) (A2) (B1) (B2) (A2) (A1)
                 (B1) (A1) (A2) (B2) (B1) (A1) (B2) (A1) (A2) (A1)
                 (B2) (A1) (B1) (B1) (B2) (A1) (A1) (A2) (B1) (B2)
                 (B1) (A2) (B2) (A1) (A1) (A1) (A1) (A1) (B2) (B1)
                 (A1)
 The electronic state of the initial guess is 2-B1.
 Initial guess <Sx>= 0.0000 <Sy>= 0.0000 <Sz>= 0.5000 <S**2>= 0.7500 S= 0.5000
 Requested convergence on RMS density matrix=1.00D-08 within 128 cycles.
 Requested convergence on MAX density matrix=1.00D-06.
 Requested convergence on             energy=1.00D-06.
 No special actions if energy rises.
 Keep R1 and R2 ints in memory in canonical form, NReq=495764245.
 Integral accuracy reduced to 1.0D-05 until final iterations.
 Initial convergence to 1.0D-05 achieved.  Increase integral accuracy.
 SCF Done:  E(UB3LYP) =  -1736.65180943     A.U. after   17 cycles
             Convg  =    0.3253D-08             -V/T =  2.0035
 <Sx>= 0.0000 <Sy>= 0.0000 <Sz>= 0.5000 <S**2>= 0.7607 S= 0.5053
 <L.S>= 0.000000000000E+00
 Annihilation of the first spin contaminant:
 S**2 before annihilation     0.7607,   after     0.7500
 QCSCF skips out because SCF is already converged.

 **********************************************************************

            Population analysis using the SCF density.

 **********************************************************************

 Orbital symmetries:
 Alpha Orbitals:
       Occupied  (A1) (B1) (A1) (A1) (A1) (B2) (A1) (B1) (A1) (A1)
                 (A1) (B2) (B1) (B2) (A1) (A1) (B1) (A1) (B1) (B2)
                 (A2) (B2) (B1) (A1) (A1) (B2) (B1) (A2) (B2) (A1)
                 (A1) (A1) (B1) (B2) (A1) (A1) (B1) (B2) (A2) (A1)
                 (A1) (B1)
       Virtual   (B2) (B1) (A1) (B2) (B2) (A1) (A1) (B1) (A2) (B1)
                 (B2) (A1) (B1) (A2) (A1) (B2) (A1) (A1) (A2) (B1)
                 (A1) (B2) (A1) (B2) (B1) (A1) (A1) (A2) (B1) (B2)
                 (B1) (B2) (A1) (A1) (B1) (A2) (A1) (B2) (B1) (B2)
                 (A1) (B2) (B1) (A2) (A2) (A1) (B1) (B2) (A1) (B1)
                 (A1) (A2) (B2) (A1) (B1) (A1) (B2) (A1) (A1) (B2)
                 (B1) (A1) (B1) (A1) (B2) (A2) (A1) (B1) (A2) (A1)
                 (B1) (B2) (A2) (B2) (A1) (B1) (B2) (A1) (A1) (A2)
                 (B1) (B1) (A1) (B2) (A1) (B2) (A2) (B1) (B2) (B1)
                 (A1) (A1) (B2) (A1) (B1) (A2) (A1) (B1) (A2) (A2)
                 (B2) (B2) (B1) (A1) (B2) (A1) (B1) (A1) (B2) (A1)
                 (A2) (B2) (B1) (A1) (A2) (B1) (B2) (A2) (A1) (B1)
                 (A2) (A1) (B2) (A1) (B1) (B2) (A1) (A2) (B2) (A1)
                 (A1) (B1) (B1) (A1) (B2) (A1) (A2) (B1) (B2) (B1)
                 (A2) (A1) (B2) (A1) (A1) (A1) (A1) (B1) (B2) (A1)
 Beta  Orbitals:
       Occupied  (A1) (B1) (A1) (A1) (A1) (B2) (A1) (B1) (A1) (A1)
                 (A1) (B2) (B1) (B2) (A1) (A1) (B1) (B2) (B2) (A2)
                 (A1) (B1) (A1) (B1) (A1) (B2) (B2) (A1) (A2) (B1)
                 (A1) (A1) (B1) (B2) (A1) (A1) (B2) (B1) (A2) (A1)
                 (A1)
       Virtual   (B1) (B2) (B1) (A1) (B2) (B2) (A1) (A1) (B1) (A2)
                 (B1) (B2) (A1) (B1) (A2) (A1) (B2) (A1) (A1) (A2)
                 (B1) (A1) (B2) (A1) (B2) (B1) (A1) (A1) (A2) (B1)
                 (B2) (B1) (B2) (A1) (A1) (B1) (A2) (B2) (A1) (B1)
                 (B2) (A1) (B2) (A2) (B1) (A2) (A1) (B1) (B2) (A1)
                 (B1) (A1) (A2) (B2) (A1) (B1) (A1) (B2) (A1) (B2)
                 (A1) (B1) (A1) (B1) (A1) (B2) (A2) (A1) (B1) (A2)
                 (A1) (B2) (B1) (A2) (B2) (A1) (B1) (B2) (A1) (A1)
                 (A2) (B1) (B2) (A1) (B1) (B2) (A1) (A2) (B1) (B2)
                 (B1) (A1) (A1) (B2) (A1) (B1) (A2) (A1) (B1) (A2)
                 (A2) (B2) (B2) (B1) (A1) (B2) (A1) (B1) (A1) (B2)
                 (A1) (A2) (B2) (B1) (A1) (A2) (B1) (B2) (A1) (A2)
                 (B1) (A2) (A1) (B2) (A1) (B1) (B2) (A1) (A2) (B2)
                 (A1) (A1) (B1) (B1) (B2) (A1) (A1) (A2) (B1) (B2)
                 (B1) (A2) (A1) (B2) (A1) (A1) (A1) (A1) (B1) (B2)
                 (A1)
 The electronic state is 2-B1.
 Alpha  occ. eigenvalues --  -66.34605 -66.34023 -66.34023 -66.33803 -66.32514
 Alpha  occ. eigenvalues --  -66.32513  -5.48921  -5.48445  -5.48445  -5.48145
 Alpha  occ. eigenvalues --   -5.47143  -5.47142  -3.84966  -3.84663  -3.84466
 Alpha  occ. eigenvalues --   -3.84383  -3.84381  -3.84257  -3.84254  -3.84202
 Alpha  occ. eigenvalues --   -3.84198  -3.84145  -3.83890  -3.83794  -3.83108
 Alpha  occ. eigenvalues --   -3.83107  -3.82901  -3.82901  -3.82857  -3.82856
 Alpha  occ. eigenvalues --   -0.83736  -0.68268  -0.67578  -0.63871  -0.54585
 Alpha  occ. eigenvalues --   -0.50887  -0.44539  -0.44453  -0.44280  -0.43988
 Alpha  occ. eigenvalues --   -0.40000  -0.39779
 Alpha virt. eigenvalues --   -0.28228  -0.26444  -0.25972  -0.25476  -0.18867
 Alpha virt. eigenvalues --   -0.17833  -0.17001  -0.16606  -0.14294  -0.13393
 Alpha virt. eigenvalues --   -0.12361  -0.12359  -0.04221  -0.03960  -0.02292
 Alpha virt. eigenvalues --   -0.00275  -0.00149   0.00654   0.01194   0.01322
 Alpha virt. eigenvalues --    0.03987   0.04265   0.05089   0.05668   0.05718
 Alpha virt. eigenvalues --    0.06628   0.09207   0.09683   0.10003   0.11289
 Alpha virt. eigenvalues --    0.12025   0.12971   0.13303   0.15271   0.15942
 Alpha virt. eigenvalues --    0.16347   0.17340   0.17408   0.19668   0.20574
 Alpha virt. eigenvalues --    0.21095   0.23304   0.24704   0.24917   0.27723
 Alpha virt. eigenvalues --    0.28944   0.29788   0.31285   0.31386   0.33499
 Alpha virt. eigenvalues --    0.34390   0.36209   0.40021   0.43408   0.45663
 Alpha virt. eigenvalues --    0.46264   0.46935   0.49553   0.51307   0.51396
 Alpha virt. eigenvalues --    0.53835   0.54324   0.54599   0.55787   0.55975
 Alpha virt. eigenvalues --    0.57170   0.65730   0.65791   0.68812   0.70706
 Alpha virt. eigenvalues --    0.70766   0.70817   0.74724   0.77064   0.79026
 Alpha virt. eigenvalues --    0.80693   0.81572   0.81985   0.83094   0.83521
 Alpha virt. eigenvalues --    0.83628   0.83742   0.84454   0.84763   0.90726
 Alpha virt. eigenvalues --    0.90734   0.91372   0.93243   0.97389   0.99560
 Alpha virt. eigenvalues --    1.00694   1.02824   1.04791   1.07005   1.08463
 Alpha virt. eigenvalues --    1.09487   1.12047   1.13205   1.15683   1.16971
 Alpha virt. eigenvalues --    1.17142   1.17811   1.20307   1.20532   1.21443
 Alpha virt. eigenvalues --    1.24547   1.26689   1.27483   1.28273   1.29458
 Alpha virt. eigenvalues --    1.30298   1.31946   1.34565   1.37282   1.48427
 Alpha virt. eigenvalues --    1.53036   1.54144   1.54507   1.54803   1.56646
 Alpha virt. eigenvalues --    1.59004   1.59183   1.63477   1.65252   1.65683
 Alpha virt. eigenvalues --    1.69285   1.71635   1.73275   1.74246   1.76709
 Alpha virt. eigenvalues --    1.78486   1.82254   1.84376   1.86524   1.86529
 Alpha virt. eigenvalues --    1.87979   1.88584   1.89478   1.93300   1.94626
 Alpha virt. eigenvalues --    1.95923   1.99359   1.99586   2.08525   2.27786
 Alpha virt. eigenvalues --    2.54811   2.64753   2.66424   2.67575   2.78179
  Beta  occ. eigenvalues --  -66.34604 -66.33838 -66.33838 -66.33771 -66.32495
  Beta  occ. eigenvalues --  -66.32494  -5.48919  -5.48227  -5.48227  -5.48110
  Beta  occ. eigenvalues --   -5.47123  -5.47122  -3.84954  -3.84664  -3.84474
  Beta  occ. eigenvalues --   -3.84142  -3.84138  -3.84129  -3.84078  -3.84074
  Beta  occ. eigenvalues --   -3.83807  -3.83798  -3.83779  -3.83751  -3.83103
  Beta  occ. eigenvalues --   -3.83102  -3.82852  -3.82852  -3.82816  -3.82815
  Beta  occ. eigenvalues --   -0.83144  -0.68013  -0.66212  -0.63654  -0.54001
  Beta  occ. eigenvalues --   -0.48043  -0.44385  -0.44039  -0.43843  -0.43654
  Beta  occ. eigenvalues --   -0.39902
  Beta virt. eigenvalues --   -0.32175  -0.28161  -0.26227  -0.25521  -0.25151
  Beta virt. eigenvalues --   -0.18322  -0.17454  -0.16520  -0.16237  -0.13642
  Beta virt. eigenvalues --   -0.12610  -0.12348  -0.10670  -0.03405  -0.02910
  Beta virt. eigenvalues --   -0.02204  -0.00231  -0.00068   0.01357   0.01454
  Beta virt. eigenvalues --    0.02296   0.04397   0.04425   0.05357   0.05778
  Beta virt. eigenvalues --    0.05972   0.06795   0.09568   0.09895   0.11133
  Beta virt. eigenvalues --    0.11396   0.12465   0.13053   0.13399   0.15673
  Beta virt. eigenvalues --    0.16378   0.16622   0.17421   0.17782   0.20360
  Beta virt. eigenvalues --    0.20646   0.21213   0.24567   0.25278   0.25493
  Beta virt. eigenvalues --    0.28229   0.29554   0.30387   0.31385   0.32134
  Beta virt. eigenvalues --    0.34159   0.34965   0.36820   0.40219   0.43597
  Beta virt. eigenvalues --    0.45952   0.46751   0.47444   0.49962   0.51397
  Beta virt. eigenvalues --    0.51913   0.54494   0.54596   0.55648   0.55965
  Beta virt. eigenvalues --    0.56168   0.58315   0.66226   0.66666   0.69643
  Beta virt. eigenvalues --    0.70803   0.70854   0.70971   0.75054   0.77617
  Beta virt. eigenvalues --    0.79078   0.81059   0.81766   0.82431   0.83314
  Beta virt. eigenvalues --    0.83821   0.84214   0.84919   0.85103   0.85348
  Beta virt. eigenvalues --    0.90802   0.91200   0.91586   0.93918   0.98200
  Beta virt. eigenvalues --    0.99909   1.01368   1.03287   1.05413   1.07368
  Beta virt. eigenvalues --    1.09110   1.09805   1.12476   1.13575   1.16258
  Beta virt. eigenvalues --    1.17310   1.17348   1.17838   1.20837   1.21164
  Beta virt. eigenvalues --    1.21600   1.25389   1.27354   1.27722   1.28411
  Beta virt. eigenvalues --    1.29624   1.31045   1.32367   1.35323   1.37693
  Beta virt. eigenvalues --    1.48655   1.53258   1.54403   1.54871   1.54997
  Beta virt. eigenvalues --    1.57181   1.59165   1.59433   1.63649   1.65508
  Beta virt. eigenvalues --    1.66053   1.69438   1.71950   1.73598   1.74669
  Beta virt. eigenvalues --    1.76887   1.78538   1.82509   1.84872   1.86609
  Beta virt. eigenvalues --    1.86857   1.88175   1.88825   1.89859   1.93353
  Beta virt. eigenvalues --    1.95157   1.96439   1.99653   1.99811   2.09031
  Beta virt. eigenvalues --    2.28155   2.55050   2.64957   2.67369   2.67651
  Beta virt. eigenvalues --    2.78472
          Condensed to atoms (all electrons):
              1          2          3          4          5          6
     1  Si  13.442152   0.147755   0.062270   0.110417   0.110417   0.029193
     2  Si   0.147755  13.353975  -0.001380   0.043946   0.043946   0.147755
     3  Si   0.062270  -0.001380  13.390522   0.138878   0.138878   0.062270
     4  Si   0.110417   0.043946   0.138878  13.418213   0.012207   0.110417
     5  Si   0.110417   0.043946   0.138878   0.012207  13.418213   0.110417
     6  Si   0.029193   0.147755   0.062270   0.110417   0.110417  13.442152
 Mulliken atomic charges:
              1
     1  Si   0.097796
     2  Si   0.264003
     3  Si   0.208562
     4  Si   0.165922
     5  Si   0.165922
     6  Si   0.097796
 Sum of Mulliken atomic charges =   1.00000
 Mulliken charges with hydrogens summed into heavy atoms:
              1
     1  Si   0.097796
     2  Si   0.264003
     3  Si   0.208562
     4  Si   0.165922
     5  Si   0.165922
     6  Si   0.097796
 Sum of Mulliken charges with hydrogens summed into heavy atoms =   1.00000
          Atomic-Atomic Spin Densities.
              1          2          3          4          5          6
     1  Si   0.019567   0.007445  -0.003720   0.011464   0.011464  -0.007431
     2  Si   0.007445  -0.001827   0.001295  -0.008190  -0.008190   0.007445
     3  Si  -0.003720   0.001295   0.057682   0.008945   0.008945  -0.003720
     4  Si   0.011464  -0.008190   0.008945   0.419666  -0.015841   0.011464
     5  Si   0.011464  -0.008190   0.008945  -0.015841   0.419666   0.011464
     6  Si  -0.007431   0.007445  -0.003720   0.011464   0.011464   0.019567
 Mulliken atomic spin densities:
              1
     1  Si   0.038790
     2  Si  -0.002022
     3  Si   0.069427
     4  Si   0.427508
     5  Si   0.427508
     6  Si   0.038790
 Sum of Mulliken atomic spin densities =   1.00000
 Electronic spatial extent (au):  <R**2>=           1108.6431
 Charge=              1.0000 electrons
 Dipole moment (field-independent basis, Debye):
    X=              0.0000    Y=              0.0000    Z=              0.2019  Tot=              0.2019
 Quadrupole moment (field-independent basis, Debye-Ang):
   XX=            -61.8053   YY=            -65.1925   ZZ=            -62.0481
   XY=              0.0000   XZ=              0.0000   YZ=              0.0000
 Traceless Quadrupole moment (field-independent basis, Debye-Ang):
   XX=              1.2100   YY=             -2.1772   ZZ=              0.9672
   XY=              0.0000   XZ=              0.0000   YZ=              0.0000
 Octapole moment (field-independent basis, Debye-Ang**2):
  XXX=              0.0000  YYY=              0.0000  ZZZ=              3.0910  XYY=              0.0000
  XXY=              0.0000  XXZ=             -2.1915  XZZ=              0.0000  YZZ=              0.0000
  YYZ=              0.1351  XYZ=              0.0000
 Hexadecapole moment (field-independent basis, Debye-Ang**3):
 XXXX=           -536.3314 YYYY=           -377.2112 ZZZZ=           -724.5153 XXXY=              0.0000
 XXXZ=              0.0000 YYYX=              0.0000 YYYZ=              0.0000 ZZZX=              0.0000
 ZZZY=              0.0000 XXYY=           -165.4873 XXZZ=           -214.5693 YYZZ=           -190.2777
 XXYZ=              0.0000 YYXZ=              0.0000 ZZXY=              0.0000
 N-N= 5.846047584230D+02 E-N=-7.923298340962D+03  KE= 2.595281568924D+03
 Symmetry A1   KE= 1.506922421816D+03
 Symmetry A2   KE= 7.623751852253D+01
 Symmetry B1   KE= 5.066260834759D+02
 Symmetry B2   KE= 5.054955451096D+02
                          Isotropic Fermi Contact Couplings
        Atom                 a.u.       MegaHertz       Gauss      10(-4) cm-1
     1  Si(29)            -0.00981       8.72214       3.11228       2.90939
     2  Si(29)             0.00160      -1.42243      -0.50756      -0.47447
     3  Si(29)            -0.00409       3.63859       1.29834       1.21370
     4  Si(29)             0.24180    -214.89554     -76.68007     -71.68144
     5  Si(29)             0.24180    -214.89554     -76.68007     -71.68144
     6  Si(29)            -0.00981       8.72214       3.11228       2.90939
 --------------------------------------------------------
       Center         ----  Spin Dipole Couplings  ----
                      3XX-RR        3YY-RR        3ZZ-RR
 --------------------------------------------------------
     1   Atom        0.154587     -0.073475     -0.081113
     2   Atom        0.031255     -0.010397     -0.020858
     3   Atom        0.236774     -0.106209     -0.130565
     4   Atom        0.853766     -0.432436     -0.421330
     5   Atom        0.853766     -0.432436     -0.421330
     6   Atom        0.154587     -0.073475     -0.081113
 --------------------------------------------------------
                        XY            XZ            YZ
 --------------------------------------------------------
     1   Atom        0.000000      0.000000     -0.001853
     2   Atom        0.000000      0.000000      0.000000
     3   Atom        0.000000      0.000000      0.000000
     4   Atom        0.000000     -0.109990      0.000000
     5   Atom        0.000000      0.109990      0.000000
     6   Atom        0.000000      0.000000      0.001853
 --------------------------------------------------------


 ---------------------------------------------------------------------------------
              Anisotropic Spin Dipole Couplings in Principal Axis System
 ---------------------------------------------------------------------------------

       Atom             a.u.   MegaHertz   Gauss  10(-4) cm-1        Axes

              Baa    -0.0815     8.650     3.087     2.885  0.0000  0.2240  0.9746
     1 Si(29) Bbb    -0.0730     7.749     2.765     2.585  0.0000  0.9746 -0.2240
              Bcc     0.1546   -16.399    -5.852    -5.470  1.0000  0.0000  0.0000
 
              Baa    -0.0209     2.213     0.790     0.738  0.0000  0.0000  1.0000
     2 Si(29) Bbb    -0.0104     1.103     0.394     0.368  0.0000  1.0000  0.0000
              Bcc     0.0313    -3.316    -1.183    -1.106  1.0000  0.0000  0.0000
 
              Baa    -0.1306    13.851     4.942     4.620  0.0000  0.0000  1.0000
     3 Si(29) Bbb    -0.1062    11.267     4.020     3.758  0.0000  1.0000  0.0000
              Bcc     0.2368   -25.118    -8.963    -8.378  1.0000  0.0000  0.0000
 
              Baa    -0.4324    45.875    16.369    15.302  0.0000  1.0000  0.0000
     4 Si(29) Bbb    -0.4307    45.695    16.305    15.242  0.0853  0.0000  0.9964
              Bcc     0.8632   -91.570   -32.674   -30.544  0.9964  0.0000 -0.0853
 
              Baa    -0.4324    45.875    16.369    15.302  0.0000  1.0000  0.0000
     5 Si(29) Bbb    -0.4307    45.695    16.305    15.242 -0.0853  0.0000  0.9964
              Bcc     0.8632   -91.570   -32.674   -30.544  0.9964  0.0000  0.0853
 
              Baa    -0.0815     8.650     3.087     2.885  0.0000 -0.2240  0.9746
     6 Si(29) Bbb    -0.0730     7.749     2.765     2.585  0.0000  0.9746  0.2240
              Bcc     0.1546   -16.399    -5.852    -5.470  1.0000  0.0000  0.0000
 

 ---------------------------------------------------------------------------------

 Calling FoFJK, ICntrl=      2127 FMM=F ISym2X=1 I1Cent= 0 IOpClX= 1 NMat=1 NMatS=1 NMatT=0.
 ***** Axes restored to original set *****
 -------------------------------------------------------------------
 Center     Atomic                   Forces (Hartrees/Bohr)
 Number     Number              X              Y              Z
 -------------------------------------------------------------------
      1       14           0.000000157    0.000000000   -0.001071681
      2       14           0.000000000    0.000000000   -0.000847288
      3       14           0.000000000    0.000000000    0.001279545
      4       14           0.000000000    0.001096415    0.000855553
      5       14           0.000000000   -0.001096415    0.000855553
      6       14          -0.000000157    0.000000000   -0.001071681
 -------------------------------------------------------------------
 Cartesian Forces:  Max     0.001279545 RMS     0.000688005

 GradGradGradGradGradGradGradGradGradGradGradGradGradGradGradGradGradGrad
 Berny optimization.
 Internal  Forces:  Max     0.000997259 RMS     0.000580654
 Search for a local minimum.
 Step number   1 out of a maximum of   33
 All quantities printed in internal units (Hartrees-Bohrs-Radians)
 Mixed Optimization -- En-DIIS/RFO-DIIS
 Second derivative matrix not updated -- first step.
     Eigenvalues ---    0.07817   0.08060   0.09267   0.10500   0.11710
     Eigenvalues ---    0.12021   0.12274   0.12442   0.13204   0.13941
     Eigenvalues ---    0.14811   0.179431000.000001000.000001000.00000
     Eigenvalues --- 1000.000001000.000001000.000001000.000001000.00000
     Eigenvalues --- 1000.000001000.000001000.00000
 RFO step:  Lambda=-6.27727602D-05 EMin= 7.81731515D-02
 Linear search not attempted -- first point.
 Iteration  1 RMS(Cart)=  0.00516349 RMS(Int)=  0.00001854
 Iteration  2 RMS(Cart)=  0.00001081 RMS(Int)=  0.00000964
 Iteration  3 RMS(Cart)=  0.00000000 RMS(Int)=  0.00000964
 ClnCor:  largest displacement from symmetrization is 4.65D-05 for atom     5.
 Variable       Old X    -DE/DX   Delta X   Delta X   Delta X     New X
                                 (Linear)    (Quad)   (Total)
    R1        4.50178  -0.00035   0.00000  -0.00102  -0.00100   4.50077
    R2        4.94988  -0.00094   0.00000  -0.01035  -0.01034   4.93954
    R3        4.48270  -0.00075   0.00000  -0.00500  -0.00498   4.47772
    R4        4.48270  -0.00072   0.00000  -0.00499  -0.00498   4.47772
    R5        5.40038   0.00100   0.00000   0.00777   0.00774   5.40812
    R6        4.50178  -0.00017   0.00000  -0.00099  -0.00100   4.50077
    R7        4.58627   0.00015   0.00000  -0.00012  -0.00012   4.58615
    R8        4.58627   0.00017   0.00000  -0.00012  -0.00012   4.58615
    R9        4.94988  -0.00088   0.00000  -0.01033  -0.01034   4.93954
   R10        4.48270  -0.00071   0.00000  -0.00499  -0.00498   4.47772
   R11        4.48270  -0.00075   0.00000  -0.00500  -0.00498   4.47772
    A1        1.92134  -0.00039   0.00000  -0.00353  -0.00354   1.91780
    A2        1.40188  -0.00051   0.00000  -0.00490  -0.00491   1.39697
    A3        1.40188  -0.00072   0.00000  -0.00492  -0.00491   1.39697
    A4        1.72920  -0.00004   0.00000   0.00008   0.00006   1.72926
    A5        1.67704  -0.00048   0.00000  -0.00235  -0.00235   1.67469
    A6        1.92134  -0.00046   0.00000  -0.00355  -0.00354   1.91780
    A7        1.40188  -0.00055   0.00000  -0.00490  -0.00491   1.39697
    A8        1.40188  -0.00075   0.00000  -0.00493  -0.00491   1.39697
    A9        1.72920  -0.00004   0.00000   0.00008   0.00006   1.72926
    D1       -2.11525   0.00022   0.00000   0.00164   0.00164  -2.11361
    D2        2.11525  -0.00004   0.00000  -0.00162  -0.00164   2.11361
    D3        1.36950  -0.00066   0.00000  -0.00605  -0.00607   1.36343
         Item               Value     Threshold  Converged?
 Maximum Force            0.000997     0.000450     NO 
 RMS     Force            0.000581     0.000300     NO 
 Maximum Displacement     0.012217     0.001800     NO 
 RMS     Displacement     0.005165     0.001200     NO 
 Predicted change in Energy=-3.137735D-05
 GradGradGradGradGradGradGradGradGradGradGradGradGradGradGradGradGradGrad

                          Input orientation:                          
 ---------------------------------------------------------------------
 Center     Atomic      Atomic             Coordinates (Angstroms)
 Number     Number       Type             X           Y           Z
 ---------------------------------------------------------------------
      1         14           0       -1.430926    0.000000    0.234793
      2         14           0        0.000000    0.000000    2.138730
      3         14           0        0.000000    0.000000   -1.952642
      4         14           0        0.000000   -1.802853   -0.327991
      5         14           0        0.000000    1.802853   -0.327991
      6         14           0        1.430926    0.000000    0.234793
 ---------------------------------------------------------------------
                    Distance matrix (angstroms):
                    1          2          3          4          5
     1  Si   0.000000
     2  Si   2.381706   0.000000
     3  Si   2.613890   4.091372   0.000000
     4  Si   2.369505   3.055321   2.426885   0.000000
     5  Si   2.369505   3.055321   2.426885   3.605706   0.000000
     6  Si   2.861853   2.381706   2.613890   2.369505   2.369505
                    6
     6  Si   0.000000
 Stoichiometry    Si6(1+,2)
 Framework group  C2V[C2(SiSi),SGV(Si2),SGV'(Si2)]
 Deg. of freedom     5
 Full point group                 C2V     NOp   4
 Largest Abelian subgroup         C2V     NOp   4
 Largest concise Abelian subgroup C2V     NOp   4
                         Standard orientation:                         
 ---------------------------------------------------------------------
 Center     Atomic      Atomic             Coordinates (Angstroms)
 Number     Number       Type             X           Y           Z
 ---------------------------------------------------------------------
      1         14           0        0.000000    1.430926    0.234844
      2         14           0        0.000000    0.000000    2.138781
      3         14           0        0.000000    0.000000   -1.952591
      4         14           0       -1.802853    0.000000   -0.327939
      5         14           0        1.802853    0.000000   -0.327939
      6         14           0        0.000000   -1.430926    0.234844
 ---------------------------------------------------------------------
 Rotational constants (GHZ):      1.7048620      1.4104355      1.1874187
 Standard basis: GTBas3 (6D, 7F)
 There are    74 symmetry adapted basis functions of A1  symmetry.
 There are    26 symmetry adapted basis functions of A2  symmetry.
 There are    46 symmetry adapted basis functions of B1  symmetry.
 There are    46 symmetry adapted basis functions of B2  symmetry.
 Integral buffers will be    131072 words long.
 Raffenetti 2 integral format.
 Two-electron integral symmetry is turned on.
   192 basis functions,   408 primitive gaussians,   210 cartesian basis functions
    42 alpha electrons       41 beta electrons
       nuclear repulsion energy       585.2712930854 Hartrees.
 NAtoms=    6 NActive=    6 NUniq=    4 SFac= 1.69D+00 NAtFMM=   80 NAOKFM=F Big=F
 One-electron integrals computed using PRISM.
 NBasis=   192 RedAO= T  NBF=    74    26    46    46
 NBsUse=   192 1.00D-06 NBFU=    74    26    46    46
 Initial guess read from the read-write file.
 B after Tr=     0.000000    0.000000    0.000000
         Rot=    1.000000    0.000000    0.000000    0.000000 Ang=   0.00 deg.
 Initial guess orbital symmetries:
 Alpha Orbitals:
       Occupied  (A1) (B1) (A1) (A1) (A1) (B2) (A1) (B1) (A1) (A1)
                 (A1) (B2) (B1) (B2) (A1) (A1) (B1) (A1) (B1) (B2)
                 (A2) (B2) (B1) (A1) (A1) (B2) (B1) (A2) (B2) (A1)
                 (A1) (A1) (B1) (B2) (A1) (A1) (B1) (B2) (A2) (A1)
                 (A1) (B1)
       Virtual   (B2) (B1) (A1) (B2) (B2) (A1) (A1) (B1) (A2) (B1)
                 (B2) (A1) (B1) (A2) (A1) (B2) (A1) (A1) (A2) (B1)
                 (A1) (B2) (A1) (B2) (B1) (A1) (A1) (A2) (B1) (B2)
                 (B1) (B2) (A1) (A1) (B1) (A2) (A1) (B2) (B1) (B2)
                 (A1) (B2) (B1) (A2) (A2) (A1) (B1) (B2) (A1) (B1)
                 (A1) (A2) (B2) (A1) (B1) (A1) (B2) (A1) (A1) (B2)
                 (B1) (A1) (B1) (A1) (B2) (A2) (A1) (B1) (A2) (A1)
                 (B1) (B2) (A2) (B2) (A1) (B1) (B2) (A1) (A1) (A2)
                 (B1) (B1) (A1) (B2) (A1) (B2) (A2) (B1) (B2) (B1)
                 (A1) (A1) (B2) (A1) (B1) (A2) (A1) (B1) (A2) (A2)
                 (B2) (B2) (B1) (A1) (B2) (A1) (B1) (A1) (B2) (A1)
                 (A2) (B2) (B1) (A1) (A2) (B1) (B2) (A2) (A1) (B1)
                 (A2) (A1) (B2) (A1) (B1) (B2) (A1) (A2) (B2) (A1)
                 (A1) (B1) (B1) (A1) (B2) (A1) (A2) (B1) (B2) (B1)
                 (A2) (A1) (B2) (A1) (A1) (A1) (A1) (B1) (B2) (A1)
 Beta  Orbitals:
       Occupied  (A1) (B1) (A1) (A1) (A1) (B2) (A1) (B1) (A1) (A1)
                 (A1) (B2) (B1) (B2) (A1) (A1) (B1) (B2) (B2) (A2)
                 (A1) (B1) (A1) (B1) (A1) (B2) (B2) (A1) (A2) (B1)
                 (A1) (A1) (B1) (B2) (A1) (A1) (B2) (B1) (A2) (A1)
                 (A1)
       Virtual   (B1) (B2) (B1) (A1) (B2) (B2) (A1) (A1) (B1) (A2)
                 (B1) (B2) (A1) (B1) (A2) (A1) (B2) (A1) (A1) (A2)
                 (B1) (A1) (B2) (A1) (B2) (B1) (A1) (A1) (A2) (B1)
                 (B2) (B1) (B2) (A1) (A1) (B1) (A2) (B2) (A1) (B1)
                 (B2) (A1) (B2) (A2) (B1) (A2) (A1) (B1) (B2) (A1)
                 (B1) (A1) (A2) (B2) (A1) (B1) (A1) (B2) (A1) (B2)
                 (A1) (B1) (A1) (B1) (A1) (B2) (A2) (A1) (B1) (A2)
                 (A1) (B2) (B1) (A2) (B2) (A1) (B1) (B2) (A1) (A1)
                 (A2) (B1) (B2) (A1) (B1) (B2) (A1) (A2) (B1) (B2)
                 (B1) (A1) (A1) (B2) (A1) (B1) (A2) (A1) (B1) (A2)
                 (A2) (B2) (B2) (B1) (A1) (B2) (A1) (B1) (A1) (B2)
                 (A1) (A2) (B2) (B1) (A1) (A2) (B1) (B2) (A1) (A2)
                 (B1) (A2) (A1) (B2) (A1) (B1) (B2) (A1) (A2) (B2)
                 (A1) (A1) (B1) (B1) (B2) (A1) (A1) (A2) (B1) (B2)
                 (B1) (A2) (A1) (B2) (A1) (A1) (A1) (A1) (B1) (B2)
                 (A1)
 Initial guess <Sx>= 0.0000 <Sy>= 0.0000 <Sz>= 0.5000 <S**2>= 0.7607 S= 0.5053
 Requested convergence on RMS density matrix=1.00D-08 within 128 cycles.
 Requested convergence on MAX density matrix=1.00D-06.
 Requested convergence on             energy=1.00D-06.
 No special actions if energy rises.
 Keep R1 and R2 ints in memory in canonical form, NReq=495764245.
 SCF Done:  E(UB3LYP) =  -1736.65185972     A.U. after   11 cycles
             Convg  =    0.4859D-08             -V/T =  2.0035
 <Sx>= 0.0000 <Sy>= 0.0000 <Sz>= 0.5000 <S**2>= 0.7607 S= 0.5053
 <L.S>= 0.000000000000E+00
 Annihilation of the first spin contaminant:
 S**2 before annihilation     0.7607,   after     0.7500
 QCSCF skips out because SCF is already converged.
 Calling FoFJK, ICntrl=      2127 FMM=F ISym2X=1 I1Cent= 0 IOpClX= 1 NMat=1 NMatS=1 NMatT=0.
 ***** Axes restored to original set *****
 -------------------------------------------------------------------
 Center     Atomic                   Forces (Hartrees/Bohr)
 Number     Number              X              Y              Z
 -------------------------------------------------------------------
      1       14          -0.000106432    0.000000000   -0.000762510
      2       14           0.000000000    0.000000000   -0.000263657
      3       14           0.000000000    0.000000000    0.000313081
      4       14           0.000000000    0.000466733    0.000737798
      5       14           0.000000000   -0.000466733    0.000737798
      6       14           0.000106432    0.000000000   -0.000762510
 -------------------------------------------------------------------
 Cartesian Forces:  Max     0.000762510 RMS     0.000399820

 GradGradGradGradGradGradGradGradGradGradGradGradGradGradGradGradGradGrad
 Berny optimization.
 Using GEDIIS/GDIIS optimizer.
 Internal  Forces:  Max     0.000610558 RMS     0.000370741
 Search for a local minimum.
 Step number   2 out of a maximum of   33
 All quantities printed in internal units (Hartrees-Bohrs-Radians)
 Mixed Optimization -- En-DIIS/RFO-DIIS
 Swaping is turned off.
 Update second derivatives using D2CorX and points    1    2
 DE= -5.03D-05 DEPred=-3.14D-05 R= 1.60D+00
 SS=  1.41D+00  RLast= 2.33D-02 DXNew= 5.0454D-01 7.0007D-02
 Trust test= 1.60D+00 RLast= 2.33D-02 DXMaxT set to 3.00D-01
     Eigenvalues ---    0.04089   0.07832   0.08409   0.10498   0.11253
     Eigenvalues ---    0.11879   0.12239   0.12409   0.13079   0.13527
     Eigenvalues ---    0.14312   0.176191000.000001000.000001000.00000
     Eigenvalues --- 1000.000001000.000001000.000001000.000001000.00000
     Eigenvalues --- 1000.000001000.000001000.00000
 En-DIIS/RFO-DIIS IScMMF=        0 using points:     2    1
 RFO step:  Lambda=-1.46183019D-05.
 DIIS coeffs:      2.52101     -1.52101
 Iteration  1 RMS(Cart)=  0.00930698 RMS(Int)=  0.00007997
 Iteration  2 RMS(Cart)=  0.00004250 RMS(Int)=  0.00005138
 Iteration  3 RMS(Cart)=  0.00000000 RMS(Int)=  0.00005138
 ClnCor:  largest displacement from symmetrization is 3.94D-05 for atom     5.
 Variable       Old X    -DE/DX   Delta X   Delta X   Delta X     New X
                                  (DIIS)     (GDIIS)  (Total)
    R1        4.50077  -0.00006  -0.00153   0.00314   0.00162   4.50239
    R2        4.93954  -0.00053  -0.01573  -0.00061  -0.01635   4.92319
    R3        4.47772  -0.00046  -0.00758  -0.00077  -0.00830   4.46941
    R4        4.47772  -0.00044  -0.00758  -0.00077  -0.00830   4.46941
    R5        5.40812   0.00061   0.01177   0.00191   0.01358   5.42169
    R6        4.50077   0.00005  -0.00153   0.00314   0.00162   4.50239
    R7        4.58615   0.00036  -0.00019   0.00564   0.00544   4.59159
    R8        4.58615   0.00038  -0.00019   0.00565   0.00544   4.59159
    R9        4.93954  -0.00050  -0.01573  -0.00062  -0.01635   4.92319
   R10        4.47772  -0.00043  -0.00758  -0.00078  -0.00830   4.46941
   R11        4.47772  -0.00045  -0.00758  -0.00078  -0.00830   4.46941
    A1        1.91780  -0.00021  -0.00539  -0.00006  -0.00544   1.91236
    A2        1.39697  -0.00034  -0.00747  -0.00158  -0.00908   1.38789
    A3        1.39697  -0.00048  -0.00747  -0.00158  -0.00908   1.38789
    A4        1.72926   0.00003   0.00010   0.00106   0.00104   1.73030
    A5        1.67469  -0.00037  -0.00358  -0.00211  -0.00575   1.66893
    A6        1.91780  -0.00025  -0.00539  -0.00005  -0.00544   1.91236
    A7        1.39697  -0.00036  -0.00747  -0.00158  -0.00908   1.38789
    A8        1.39697  -0.00050  -0.00747  -0.00158  -0.00908   1.38789
    A9        1.72926   0.00003   0.00010   0.00106   0.00104   1.73030
    D1       -2.11361   0.00011   0.00249  -0.00035   0.00215  -2.11145
    D2        2.11361   0.00001  -0.00249   0.00035  -0.00215   2.11145
    D3        1.36343  -0.00045  -0.00924  -0.00218  -0.01149   1.35194
         Item               Value     Threshold  Converged?
 Maximum Force            0.000611     0.000450     NO 
 RMS     Force            0.000371     0.000300     NO 
 Maximum Displacement     0.021480     0.001800     NO 
 RMS     Displacement     0.009325     0.001200     NO 
 Predicted change in Energy=-3.466861D-05
 GradGradGradGradGradGradGradGradGradGradGradGradGradGradGradGradGradGrad

                          Input orientation:                          
 ---------------------------------------------------------------------
 Center     Atomic      Atomic             Coordinates (Angstroms)
 Number     Number       Type             X           Y           Z
 ---------------------------------------------------------------------
      1         14           0       -1.434518    0.000000    0.226338
      2         14           0        0.000000    0.000000    2.128641
      3         14           0        0.000000    0.000000   -1.948388
      4         14           0        0.000000   -1.800305   -0.316624
      5         14           0        0.000000    1.800305   -0.316624
      6         14           0        1.434518    0.000000    0.226338
 ---------------------------------------------------------------------
                    Distance matrix (angstroms):
                    1          2          3          4          5
     1  Si   0.000000
     2  Si   2.382562   0.000000
     3  Si   2.605240   4.077029   0.000000
     4  Si   2.365111   3.036514   2.429764   0.000000
     5  Si   2.365111   3.036514   2.429764   3.600610   0.000000
     6  Si   2.869037   2.382562   2.605240   2.365111   2.365111
                    6
     6  Si   0.000000
 Stoichiometry    Si6(1+,2)
 Framework group  C2V[C2(SiSi),SGV(Si2),SGV'(Si2)]
 Deg. of freedom     5
 Full point group                 C2V     NOp   4
 Largest Abelian subgroup         C2V     NOp   4
 Largest concise Abelian subgroup C2V     NOp   4
                         Standard orientation:                         
 ---------------------------------------------------------------------
 Center     Atomic      Atomic             Coordinates (Angstroms)
 Number     Number       Type             X           Y           Z
 ---------------------------------------------------------------------
      1         14           0        0.000000    1.434518    0.226391
      2         14           0        0.000000    0.000000    2.128694
      3         14           0        0.000000    0.000000   -1.948335
      4         14           0       -1.800305    0.000000   -0.316571
      5         14           0        1.800305    0.000000   -0.316571
      6         14           0        0.000000   -1.434518    0.226391
 ---------------------------------------------------------------------
 Rotational constants (GHZ):      1.7045041      1.4172424      1.1953121
 Standard basis: GTBas3 (6D, 7F)
 There are    74 symmetry adapted basis functions of A1  symmetry.
 There are    26 symmetry adapted basis functions of A2  symmetry.
 There are    46 symmetry adapted basis functions of B1  symmetry.
 There are    46 symmetry adapted basis functions of B2  symmetry.
 Integral buffers will be    131072 words long.
 Raffenetti 2 integral format.
 Two-electron integral symmetry is turned on.
   192 basis functions,   408 primitive gaussians,   210 cartesian basis functions
    42 alpha electrons       41 beta electrons
       nuclear repulsion energy       586.1872130408 Hartrees.
 NAtoms=    6 NActive=    6 NUniq=    4 SFac= 1.69D+00 NAtFMM=   80 NAOKFM=F Big=F
 One-electron integrals computed using PRISM.
 NBasis=   192 RedAO= T  NBF=    74    26    46    46
 NBsUse=   192 1.00D-06 NBFU=    74    26    46    46
 Initial guess read from the read-write file.
 B after Tr=     0.000000    0.000000    0.000000
         Rot=    1.000000    0.000000    0.000000    0.000000 Ang=   0.00 deg.
 Initial guess orbital symmetries:
 Alpha Orbitals:
       Occupied  (A1) (B1) (A1) (A1) (A1) (B2) (A1) (B1) (A1) (A1)
                 (A1) (B2) (B1) (B2) (A1) (A1) (B1) (A1) (B1) (B2)
                 (A2) (B2) (B1) (A1) (A1) (B2) (B1) (A2) (B2) (A1)
                 (A1) (A1) (B1) (B2) (A1) (A1) (B1) (B2) (A2) (A1)
                 (A1) (B1)
       Virtual   (B2) (B1) (A1) (B2) (B2) (A1) (A1) (B1) (A2) (B1)
                 (A1) (B2) (B1) (A2) (A1) (B2) (A1) (A1) (A2) (B1)
                 (A1) (B2) (A1) (B2) (B1) (A1) (A1) (A2) (B1) (B2)
                 (B1) (B2) (A1) (A1) (B1) (A2) (A1) (B2) (B1) (B2)
                 (A1) (B2) (B1) (A2) (A2) (A1) (B1) (B2) (A1) (B1)
                 (A1) (A2) (B2) (A1) (B1) (A1) (B2) (A1) (A1) (B2)
                 (B1) (A1) (B1) (A1) (B2) (A2) (B1) (A1) (A2) (B2)
                 (A1) (B1) (A2) (B2) (A1) (B1) (B2) (A1) (A1) (A2)
                 (B1) (B1) (A1) (B2) (A1) (B2) (A2) (B1) (B2) (B1)
                 (A1) (A1) (B2) (A1) (B1) (A2) (A1) (B1) (A2) (B2)
                 (A2) (B2) (B1) (A1) (B2) (A1) (B1) (A1) (B2) (A1)
                 (A2) (B2) (B1) (A1) (A2) (B1) (B2) (A2) (A1) (B1)
                 (A2) (A1) (B2) (A1) (B1) (B2) (A1) (A2) (B2) (A1)
                 (A1) (B1) (B1) (A1) (B2) (A1) (A2) (B1) (B2) (B1)
                 (A2) (A1) (B2) (A1) (A1) (A1) (A1) (B1) (B2) (A1)
 Beta  Orbitals:
       Occupied  (A1) (B1) (A1) (A1) (A1) (B2) (A1) (B1) (A1) (A1)
                 (A1) (B2) (B1) (B2) (A1) (A1) (B1) (B2) (A2) (B2)
                 (A1) (B1) (A1) (B1) (A1) (B2) (B2) (A1) (A2) (B1)
                 (A1) (A1) (B1) (B2) (A1) (A1) (B2) (B1) (A2) (A1)
                 (A1)
       Virtual   (B1) (B2) (B1) (A1) (B2) (B2) (A1) (A1) (B1) (A2)
                 (B1) (B2) (A1) (B1) (A2) (A1) (B2) (A1) (A2) (A1)
                 (B1) (B2) (A1) (A1) (B2) (B1) (A1) (A1) (A2) (B1)
                 (B2) (B1) (B2) (A1) (A1) (B1) (A2) (B2) (A1) (B1)
                 (B2) (A1) (B2) (A2) (B1) (A2) (A1) (B1) (B2) (A1)
                 (B1) (A1) (A2) (B2) (A1) (B1) (A1) (B2) (A1) (B2)
                 (A1) (B1) (A1) (B1) (A1) (B2) (A2) (A1) (B1) (A2)
                 (B2) (A1) (B1) (A2) (B2) (A1) (B1) (B2) (A1) (A1)
                 (A2) (B1) (B2) (A1) (B1) (B2) (A1) (A2) (B1) (B2)
                 (B1) (A1) (A1) (B2) (A1) (B1) (A2) (A1) (B1) (A2)
                 (B2) (A2) (B2) (B1) (A1) (B2) (A1) (B1) (A1) (B2)
                 (A1) (A2) (B2) (B1) (A1) (A2) (B1) (B2) (A2) (A1)
                 (B1) (A2) (A1) (B2) (A1) (B1) (B2) (A1) (A2) (B2)
                 (A1) (A1) (B1) (B1) (B2) (A1) (A1) (A2) (B1) (B2)
                 (B1) (A2) (A1) (B2) (A1) (A1) (A1) (A1) (B1) (B2)
                 (A1)
 Initial guess <Sx>= 0.0000 <Sy>= 0.0000 <Sz>= 0.5000 <S**2>= 0.7607 S= 0.5053
 Harris functional with IExCor=  402 diagonalized for initial guess.
 ExpMin= 7.78D-02 ExpMax= 1.61D+04 ExpMxC= 2.43D+03 IAcc=2 IRadAn=         0 AccDes= 0.00D+00
 HarFok:  IExCor=  402 AccDes= 0.00D+00 IRadAn=         0 IDoV= 1
 ScaDFX=  1.000000  1.000000  1.000000  1.000000
 FoFCou: FMM=F IPFlag=           0 FMFlag=      100000 FMFlg1=           0
         NFxFlg=           0 DoJE=T BraDBF=F KetDBF=T FulRan=T
         Omega=  0.000000  0.000000  1.000000  0.000000  0.000000 ICntrl=     500 IOpCl=  0
         NMat0=    1 NMatS0=    1 NMatT0=    0 NMatD0=    1 NMtDS0=    0 NMtDT0=    0
         I1Cent=           4 NGrid=           0.
 Petite list used in FoFCou.
 Requested convergence on RMS density matrix=1.00D-08 within 128 cycles.
 Requested convergence on MAX density matrix=1.00D-06.
 Requested convergence on             energy=1.00D-06.
 No special actions if energy rises.
 Keep R1 and R2 ints in memory in canonical form, NReq=495764245.
 Integral accuracy reduced to 1.0D-05 until final iterations.
 Initial convergence to 1.0D-05 achieved.  Increase integral accuracy.
 SCF Done:  E(UB3LYP) =  -1736.65189823     A.U. after   13 cycles
             Convg  =    0.4629D-08             -V/T =  2.0035
 <Sx>= 0.0000 <Sy>= 0.0000 <Sz>= 0.5000 <S**2>= 0.7607 S= 0.5053
 <L.S>= 0.000000000000E+00
 Annihilation of the first spin contaminant:
 S**2 before annihilation     0.7607,   after     0.7500
 QCSCF skips out because SCF is already converged.
 Calling FoFJK, ICntrl=      2127 FMM=F ISym2X=1 I1Cent= 0 IOpClX= 1 NMat=1 NMatS=1 NMatT=0.
 ***** Axes restored to original set *****
 -------------------------------------------------------------------
 Center     Atomic                   Forces (Hartrees/Bohr)
 Number     Number              X              Y              Z
 -------------------------------------------------------------------
      1       14          -0.000212389    0.000000000   -0.000106865
      2       14           0.000000000    0.000000000    0.000290148
      3       14           0.000000000    0.000000000   -0.000899681
      4       14           0.000000000   -0.000353383    0.000411632
      5       14           0.000000000    0.000353383    0.000411632
      6       14           0.000212389    0.000000000   -0.000106865
 -------------------------------------------------------------------
 Cartesian Forces:  Max     0.000899681 RMS     0.000297705

 GradGradGradGradGradGradGradGradGradGradGradGradGradGradGradGradGradGrad
 Berny optimization.
 Using GEDIIS/GDIIS optimizer.
 Internal  Forces:  Max     0.000493260 RMS     0.000169516
 Search for a local minimum.
 Step number   3 out of a maximum of   33
 All quantities printed in internal units (Hartrees-Bohrs-Radians)
 Mixed Optimization -- En-DIIS/RFO-DIIS
 Swaping is turned off.
 Update second derivatives using D2CorX and points    1    2    3
 DE= -3.85D-05 DEPred=-3.47D-05 R= 1.11D+00
 SS=  1.41D+00  RLast= 4.03D-02 DXNew= 5.0454D-01 1.2093D-01
 Trust test= 1.11D+00 RLast= 4.03D-02 DXMaxT set to 3.00D-01
     Eigenvalues ---    0.03519   0.07834   0.08404   0.10493   0.11043
     Eigenvalues ---    0.11826   0.12237   0.12407   0.13174   0.14302
     Eigenvalues ---    0.15011   0.176261000.000001000.000001000.00000
     Eigenvalues --- 1000.000001000.000001000.000001000.000001000.00000
     Eigenvalues --- 1000.000001000.000001000.00000
 En-DIIS/RFO-DIIS IScMMF=        0 using points:     3    2    1
 RFO step:  Lambda=-2.00696804D-06.
 DIIS coeffs:      2.73011     -4.33736      2.60724
 Iteration  1 RMS(Cart)=  0.00380321 RMS(Int)=  0.00005546
 Iteration  2 RMS(Cart)=  0.00000929 RMS(Int)=  0.00005397
 Iteration  3 RMS(Cart)=  0.00000000 RMS(Int)=  0.00005397
 ClnCor:  largest displacement from symmetrization is 2.89D-05 for atom     5.
 Variable       Old X    -DE/DX   Delta X   Delta X   Delta X     New X
                                  (DIIS)     (GDIIS)  (Total)
    R1        4.50239   0.00019   0.00542  -0.00129   0.00412   4.50651
    R2        4.92319   0.00012  -0.00132   0.00142   0.00011   4.92330
    R3        4.46941  -0.00001  -0.00138   0.00005  -0.00137   4.46804
    R4        4.46941  -0.00001  -0.00138   0.00005  -0.00137   4.46804
    R5        5.42169   0.00005   0.00332   0.00102   0.00446   5.42615
    R6        4.50239   0.00020   0.00542  -0.00129   0.00412   4.50651
    R7        4.59159   0.00049   0.00974   0.00145   0.01121   4.60279
    R8        4.59159   0.00049   0.00974   0.00145   0.01121   4.60279
    R9        4.92319   0.00009  -0.00132   0.00144   0.00011   4.92330
   R10        4.46941   0.00000  -0.00138   0.00007  -0.00137   4.46804
   R11        4.46941   0.00000  -0.00138   0.00006  -0.00137   4.46804
    A1        1.91236   0.00003  -0.00018  -0.00029  -0.00046   1.91190
    A2        1.38789  -0.00006  -0.00291  -0.00045  -0.00332   1.38457
    A3        1.38789  -0.00009  -0.00291  -0.00045  -0.00332   1.38457
    A4        1.73030   0.00009   0.00163  -0.00008   0.00166   1.73196
    A5        1.66893  -0.00016  -0.00383  -0.00074  -0.00448   1.66445
    A6        1.91236   0.00004  -0.00018  -0.00029  -0.00046   1.91190
    A7        1.38789  -0.00006  -0.00291  -0.00045  -0.00332   1.38457
    A8        1.38789  -0.00009  -0.00291  -0.00045  -0.00332   1.38457
    A9        1.73030   0.00008   0.00163  -0.00008   0.00166   1.73196
    D1       -2.11145  -0.00003  -0.00055   0.00010  -0.00047  -2.11192
    D2        2.11145   0.00005   0.00055  -0.00009   0.00047   2.11192
    D3        1.35194  -0.00010  -0.00404  -0.00054  -0.00451   1.34743
         Item               Value     Threshold  Converged?
 Maximum Force            0.000493     0.000450     NO 
 RMS     Force            0.000170     0.000300     YES
 Maximum Displacement     0.010202     0.001800     NO 
 RMS     Displacement     0.003810     0.001200     NO 
 Predicted change in Energy=-3.427405D-06
 GradGradGradGradGradGradGradGradGradGradGradGradGradGradGradGradGradGrad

                          Input orientation:                          
 ---------------------------------------------------------------------
 Center     Atomic      Atomic             Coordinates (Angstroms)
 Number     Number       Type             X           Y           Z
 ---------------------------------------------------------------------
      1         14           0       -1.435698    0.000000    0.223003
      2         14           0        0.000000    0.000000    2.127145
      3         14           0        0.000000    0.000000   -1.951014
      4         14           0        0.000000   -1.801027   -0.311225
      5         14           0        0.000000    1.801027   -0.311225
      6         14           0        1.435698    0.000000    0.223003
 ---------------------------------------------------------------------
                    Distance matrix (angstroms):
                    1          2          3          4          5
     1  Si   0.000000
     2  Si   2.384740   0.000000
     3  Si   2.605298   4.078158   0.000000
     4  Si   2.364387   3.031394   2.435694   0.000000
     5  Si   2.364387   3.031394   2.435694   3.602055   0.000000
     6  Si   2.871395   2.384740   2.605298   2.364387   2.364387
                    6
     6  Si   0.000000
 Stoichiometry    Si6(1+,2)
 Framework group  C2V[C2(SiSi),SGV(Si2),SGV'(Si2)]
 Deg. of freedom     5
 Full point group                 C2V     NOp   4
 Largest Abelian subgroup         C2V     NOp   4
 Largest concise Abelian subgroup C2V     NOp   4
                         Standard orientation:                         
 ---------------------------------------------------------------------
 Center     Atomic      Atomic             Coordinates (Angstroms)
 Number     Number       Type             X           Y           Z
 ---------------------------------------------------------------------
      1         14           0        0.000000    1.435698    0.223055
      2         14           0        0.000000    0.000000    2.127197
      3         14           0        0.000000    0.000000   -1.950961
      4         14           0       -1.801027    0.000000   -0.311173
      5         14           0        1.801027    0.000000   -0.311173
      6         14           0        0.000000   -1.435698    0.223055
 ---------------------------------------------------------------------
 Rotational constants (GHZ):      1.7025809      1.4171465      1.1953677
 Standard basis: GTBas3 (6D, 7F)
 There are    74 symmetry adapted basis functions of A1  symmetry.
 There are    26 symmetry adapted basis functions of A2  symmetry.
 There are    46 symmetry adapted basis functions of B1  symmetry.
 There are    46 symmetry adapted basis functions of B2  symmetry.
 Integral buffers will be    131072 words long.
 Raffenetti 2 integral format.
 Two-electron integral symmetry is turned on.
   192 basis functions,   408 primitive gaussians,   210 cartesian basis functions
    42 alpha electrons       41 beta electrons
       nuclear repulsion energy       586.0188709702 Hartrees.
 NAtoms=    6 NActive=    6 NUniq=    4 SFac= 1.69D+00 NAtFMM=   80 NAOKFM=F Big=F
 One-electron integrals computed using PRISM.
 NBasis=   192 RedAO= T  NBF=    74    26    46    46
 NBsUse=   192 1.00D-06 NBFU=    74    26    46    46
 Initial guess read from the read-write file.
 B after Tr=     0.000000    0.000000    0.000000
         Rot=    1.000000    0.000000    0.000000    0.000000 Ang=   0.00 deg.
 Initial guess orbital symmetries:
 Alpha Orbitals:
       Occupied  (A1) (B1) (A1) (A1) (A1) (B2) (A1) (B1) (A1) (A1)
                 (A1) (B2) (B1) (B2) (A1) (B1) (A1) (A1) (B1) (B2)
                 (A2) (B2) (B1) (A1) (A1) (B2) (B1) (A2) (B2) (A1)
                 (A1) (A1) (B1) (B2) (A1) (A1) (B1) (A2) (B2) (A1)
                 (A1) (B1)
       Virtual   (B2) (B1) (A1) (B2) (B2) (A1) (A1) (B1) (A2) (B1)
                 (A1) (B2) (B1) (A2) (A1) (B2) (A1) (A1) (A2) (B1)
                 (A1) (B2) (A1) (B2) (B1) (A1) (A1) (A2) (B1) (B2)
                 (B1) (B2) (A1) (A1) (B1) (A2) (A1) (B2) (B1) (B2)
                 (A1) (B2) (B1) (A2) (A2) (A1) (B1) (B2) (A1) (B1)
                 (A1) (A2) (B2) (A1) (B1) (A1) (B2) (A1) (B2) (A1)
                 (B1) (A1) (B1) (A1) (B2) (A2) (B1) (A1) (A2) (B2)
                 (A1) (B1) (A2) (B2) (A1) (B1) (B2) (A1) (A2) (A1)
                 (B1) (B1) (A1) (B2) (A1) (B2) (A2) (B1) (B2) (B1)
                 (A1) (A1) (B2) (A1) (B1) (A2) (A1) (B1) (A2) (B2)
                 (A2) (B2) (B1) (A1) (B2) (A1) (B1) (A1) (B2) (A1)
                 (A2) (B2) (B1) (A1) (A2) (B1) (B2) (A2) (A1) (B1)
                 (A2) (A1) (B2) (A1) (B1) (B2) (A1) (A2) (B2) (A1)
                 (A1) (B1) (B1) (A1) (B2) (A1) (A2) (B1) (B2) (B1)
                 (A2) (B2) (A1) (A1) (A1) (A1) (A1) (B1) (B2) (A1)
 Beta  Orbitals:
       Occupied  (A1) (B1) (A1) (A1) (A1) (B2) (A1) (B1) (A1) (A1)
                 (A1) (B2) (B1) (B2) (A1) (A1) (B1) (B2) (A2) (B2)
                 (A1) (B1) (A1) (B1) (B2) (A1) (B2) (A1) (A2) (B1)
                 (A1) (A1) (B1) (B2) (A1) (A1) (B2) (A2) (B1) (A1)
                 (A1)
       Virtual   (B1) (B2) (B1) (A1) (B2) (B2) (A1) (A1) (B1) (A2)
                 (B1) (B2) (A1) (B1) (A2) (A1) (B2) (A1) (A2) (A1)
                 (B1) (B2) (A1) (A1) (B2) (B1) (A1) (A1) (A2) (B1)
                 (B2) (B1) (B2) (A1) (A1) (B1) (A2) (B2) (A1) (B1)
                 (B2) (A1) (B2) (B1) (A2) (A2) (A1) (B1) (B2) (A1)
                 (B1) (A1) (A2) (B2) (A1) (B1) (A1) (B2) (A1) (B2)
                 (A1) (A1) (B1) (B1) (A1) (B2) (A2) (A1) (B1) (A2)
                 (B2) (A1) (B1) (A2) (B2) (A1) (B1) (B2) (A1) (A2)
                 (A1) (B1) (A1) (B2) (B1) (B2) (A1) (A2) (B1) (B2)
                 (B1) (A1) (A1) (B2) (A1) (B1) (A2) (A1) (B1) (A2)
                 (B2) (A2) (B2) (B1) (A1) (B2) (A1) (B1) (A1) (B2)
                 (A1) (A2) (B2) (B1) (A1) (A2) (B1) (B2) (A2) (A1)
                 (B1) (A2) (A1) (B2) (A1) (B1) (B2) (A1) (A2) (B2)
                 (A1) (A1) (B1) (B1) (A1) (B2) (A1) (A2) (B1) (B2)
                 (B1) (A2) (B2) (A1) (A1) (A1) (A1) (A1) (B1) (B2)
                 (A1)
 Initial guess <Sx>= 0.0000 <Sy>= 0.0000 <Sz>= 0.5000 <S**2>= 0.7607 S= 0.5053
 Requested convergence on RMS density matrix=1.00D-08 within 128 cycles.
 Requested convergence on MAX density matrix=1.00D-06.
 Requested convergence on             energy=1.00D-06.
 No special actions if energy rises.
 Keep R1 and R2 ints in memory in canonical form, NReq=495764245.
 SCF Done:  E(UB3LYP) =  -1736.65190736     A.U. after   10 cycles
             Convg  =    0.5831D-08             -V/T =  2.0035
 <Sx>= 0.0000 <Sy>= 0.0000 <Sz>= 0.5000 <S**2>= 0.7607 S= 0.5053
 <L.S>= 0.000000000000E+00
 Annihilation of the first spin contaminant:
 S**2 before annihilation     0.7607,   after     0.7500
 QCSCF skips out because SCF is already converged.
 Calling FoFJK, ICntrl=      2127 FMM=F ISym2X=1 I1Cent= 0 IOpClX= 1 NMat=1 NMatS=1 NMatT=0.
 ***** Axes restored to original set *****
 -------------------------------------------------------------------
 Center     Atomic                   Forces (Hartrees/Bohr)
 Number     Number              X              Y              Z
 -------------------------------------------------------------------
      1       14          -0.000077723    0.000000000    0.000114080
      2       14           0.000000000    0.000000000   -0.000123446
      3       14           0.000000000    0.000000000   -0.000305899
      4       14           0.000000000   -0.000067825    0.000100592
      5       14           0.000000000    0.000067825    0.000100592
      6       14           0.000077723    0.000000000    0.000114080
 -------------------------------------------------------------------
 Cartesian Forces:  Max     0.000305899 RMS     0.000098984

 GradGradGradGradGradGradGradGradGradGradGradGradGradGradGradGradGradGrad
 Berny optimization.
 Using GEDIIS/GDIIS optimizer.
 Internal  Forces:  Max     0.000111334 RMS     0.000050632
 Search for a local minimum.
 Step number   4 out of a maximum of   33
 All quantities printed in internal units (Hartrees-Bohrs-Radians)
 Mixed Optimization -- En-DIIS/RFO-DIIS
 Swaping is turned off.
 Update second derivatives using D2CorX and points    1    2    3    4
 DE= -9.12D-06 DEPred=-3.43D-06 R= 2.66D+00
 SS=  1.41D+00  RLast= 2.01D-02 DXNew= 5.0454D-01 6.0246D-02
 Trust test= 2.66D+00 RLast= 2.01D-02 DXMaxT set to 3.00D-01
     Eigenvalues ---    0.02702   0.06384   0.07846   0.08996   0.10495
     Eigenvalues ---    0.11880   0.12235   0.12370   0.12491   0.13282
     Eigenvalues ---    0.14311   0.176481000.000001000.000001000.00000
     Eigenvalues --- 1000.000001000.000001000.000001000.000001000.00000
     Eigenvalues --- 1000.000001000.000001000.00000
 En-DIIS/RFO-DIIS IScMMF=        0 using points:     4    3    2    1
 RFO step:  Lambda=-2.58272385D-07.
 DIIS coeffs:      2.42338     -3.61972      5.53612     -3.33978
 Iteration  1 RMS(Cart)=  0.00130839 RMS(Int)=  0.00007219
 Iteration  2 RMS(Cart)=  0.00000073 RMS(Int)=  0.00007219
 ClnCor:  largest displacement from symmetrization is 4.19D-05 for atom     5.
 Variable       Old X    -DE/DX   Delta X   Delta X   Delta X     New X
                                  (DIIS)     (GDIIS)  (Total)
    R1        4.50651  -0.00007  -0.00105   0.00012  -0.00091   4.50559
    R2        4.92330   0.00009   0.00152   0.00027   0.00178   4.92508
    R3        4.46804   0.00000  -0.00035  -0.00007  -0.00037   4.46768
    R4        4.46804   0.00000  -0.00035  -0.00008  -0.00037   4.46768
    R5        5.42615   0.00005   0.00237   0.00024   0.00245   5.42860
    R6        4.50651  -0.00006  -0.00105   0.00012  -0.00091   4.50559
    R7        4.60279   0.00011   0.00358  -0.00009   0.00348   4.60627
    R8        4.60279   0.00011   0.00358  -0.00008   0.00348   4.60627
    R9        4.92330   0.00009   0.00152   0.00024   0.00178   4.92508
   R10        4.46804   0.00000  -0.00035  -0.00010  -0.00037   4.46768
   R11        4.46804   0.00000  -0.00035  -0.00009  -0.00037   4.46768
    A1        1.91190  -0.00001  -0.00053  -0.00001  -0.00055   1.91135
    A2        1.38457  -0.00002  -0.00118  -0.00002  -0.00124   1.38332
    A3        1.38457  -0.00003  -0.00118  -0.00001  -0.00124   1.38332
    A4        1.73196   0.00000   0.00030  -0.00012   0.00003   1.73199
    A5        1.66445  -0.00005  -0.00160  -0.00011  -0.00182   1.66263
    A6        1.91190  -0.00001  -0.00053  -0.00001  -0.00055   1.91135
    A7        1.38457  -0.00003  -0.00118  -0.00001  -0.00124   1.38332
    A8        1.38457  -0.00004  -0.00118  -0.00001  -0.00124   1.38332
    A9        1.73196   0.00000   0.00030  -0.00011   0.00003   1.73199
    D1       -2.11192   0.00001   0.00008  -0.00003   0.00008  -2.11184
    D2        2.11192   0.00000  -0.00008   0.00002  -0.00008   2.11184
    D3        1.34743  -0.00003  -0.00148   0.00001  -0.00156   1.34587
         Item               Value     Threshold  Converged?
 Maximum Force            0.000111     0.000450     YES
 RMS     Force            0.000051     0.000300     YES
 Maximum Displacement     0.003304     0.001800     NO 
 RMS     Displacement     0.001304     0.001200     NO 
 Predicted change in Energy=-3.861387D-07
 GradGradGradGradGradGradGradGradGradGradGradGradGradGradGradGradGradGrad

                          Input orientation:                          
 ---------------------------------------------------------------------
 Center     Atomic      Atomic             Coordinates (Angstroms)
 Number     Number       Type             X           Y           Z
 ---------------------------------------------------------------------
      1         14           0       -1.436347    0.000000    0.222575
      2         14           0        0.000000    0.000000    2.125621
      3         14           0        0.000000    0.000000   -1.952139
      4         14           0        0.000000   -1.800898   -0.309476
      5         14           0        0.000000    1.800898   -0.309476
      6         14           0        1.436347    0.000000    0.222575
 ---------------------------------------------------------------------
                    Distance matrix (angstroms):
                    1          2          3          4          5
     1  Si   0.000000
     2  Si   2.384256   0.000000
     3  Si   2.606238   4.077760   0.000000
     4  Si   2.364192   3.028685   2.437535   0.000000
     5  Si   2.364192   3.028685   2.437535   3.601796   0.000000
     6  Si   2.872694   2.384256   2.606238   2.364192   2.364192
                    6
     6  Si   0.000000
 Stoichiometry    Si6(1+,2)
 Framework group  C2V[C2(SiSi),SGV(Si2),SGV'(Si2)]
 Deg. of freedom     5
 Full point group                 C2V     NOp   4
 Largest Abelian subgroup         C2V     NOp   4
 Largest concise Abelian subgroup C2V     NOp   4
                         Standard orientation:                         
 ---------------------------------------------------------------------
 Center     Atomic      Atomic             Coordinates (Angstroms)
 Number     Number       Type             X           Y           Z
 ---------------------------------------------------------------------
      1         14           0        0.000000    1.436347    0.222628
      2         14           0        0.000000    0.000000    2.125674
      3         14           0        0.000000    0.000000   -1.952086
      4         14           0       -1.800898    0.000000   -0.309423
      5         14           0        1.800898    0.000000   -0.309423
      6         14           0        0.000000   -1.436347    0.222628
 ---------------------------------------------------------------------
 Rotational constants (GHZ):      1.7021317      1.4172476      1.1958085
 Standard basis: GTBas3 (6D, 7F)
 There are    74 symmetry adapted basis functions of A1  symmetry.
 There are    26 symmetry adapted basis functions of A2  symmetry.
 There are    46 symmetry adapted basis functions of B1  symmetry.
 There are    46 symmetry adapted basis functions of B2  symmetry.
 Integral buffers will be    131072 words long.
 Raffenetti 2 integral format.
 Two-electron integral symmetry is turned on.
   192 basis functions,   408 primitive gaussians,   210 cartesian basis functions
    42 alpha electrons       41 beta electrons
       nuclear repulsion energy       586.0073629101 Hartrees.
 NAtoms=    6 NActive=    6 NUniq=    4 SFac= 1.69D+00 NAtFMM=   80 NAOKFM=F Big=F
 One-electron integrals computed using PRISM.
 NBasis=   192 RedAO= T  NBF=    74    26    46    46
 NBsUse=   192 1.00D-06 NBFU=    74    26    46    46
 Initial guess read from the read-write file.
 B after Tr=     0.000000    0.000000    0.000000
         Rot=    1.000000    0.000000    0.000000    0.000000 Ang=   0.00 deg.
 Initial guess orbital symmetries:
 Alpha Orbitals:
       Occupied  (A1) (B1) (A1) (A1) (A1) (B2) (A1) (B1) (A1) (A1)
                 (A1) (B2) (B1) (B2) (A1) (B1) (A1) (A1) (B1) (B2)
                 (A2) (B2) (B1) (A1) (A1) (B2) (B1) (A2) (B2) (A1)
                 (A1) (A1) (B1) (B2) (A1) (A1) (A2) (B1) (B2) (A1)
                 (A1) (B1)
       Virtual   (B2) (B1) (A1) (B2) (B2) (A1) (A1) (B1) (A2) (B1)
                 (A1) (B2) (A2) (B1) (A1) (B2) (A1) (A1) (A2) (B1)
                 (A1) (B2) (A1) (B2) (B1) (A1) (A1) (A2) (B1) (B2)
                 (B1) (B2) (A1) (A1) (B1) (A2) (A1) (B2) (B1) (B2)
                 (A1) (B2) (B1) (A2) (A2) (A1) (B1) (B2) (A1) (B1)
                 (A1) (A2) (B2) (A1) (B1) (A1) (B2) (A1) (B2) (A1)
                 (B1) (A1) (B1) (A1) (B2) (A2) (B1) (A1) (A2) (B2)
                 (A1) (B1) (A2) (B2) (A1) (B1) (B2) (A1) (A2) (A1)
                 (B1) (A1) (B1) (B2) (A1) (B2) (A2) (B1) (B2) (B1)
                 (A1) (A1) (B2) (A1) (B1) (A2) (A1) (B1) (A2) (B2)
                 (A2) (B2) (B1) (A1) (B2) (A1) (B1) (A1) (B2) (A1)
                 (A2) (B2) (B1) (A1) (A2) (B1) (B2) (A2) (A1) (B1)
                 (A2) (A1) (B2) (A1) (B1) (B2) (A1) (A2) (B2) (A1)
                 (A1) (B1) (B1) (A1) (B2) (A1) (A2) (B1) (B2) (B1)
                 (A2) (B2) (A1) (A1) (A1) (A1) (A1) (B1) (B2) (A1)
 Beta  Orbitals:
       Occupied  (A1) (B1) (A1) (A1) (A1) (B2) (A1) (B1) (A1) (A1)
                 (A1) (B2) (B1) (B2) (A1) (A1) (B1) (B2) (A2) (B2)
                 (A1) (B1) (A1) (B1) (B2) (A1) (B2) (A1) (A2) (B1)
                 (A1) (A1) (B1) (B2) (A1) (A1) (B2) (A2) (B1) (A1)
                 (A1)
       Virtual   (B1) (B2) (B1) (A1) (B2) (B2) (A1) (A1) (B1) (A2)
                 (B1) (B2) (A1) (B1) (A2) (A1) (B2) (A1) (A2) (A1)
                 (B1) (B2) (A1) (A1) (B2) (B1) (A1) (A1) (A2) (B1)
                 (B2) (B1) (B2) (A1) (A1) (B1) (A2) (B2) (A1) (B1)
                 (B2) (A1) (B2) (B1) (A2) (A2) (A1) (B1) (B2) (A1)
                 (B1) (A1) (A2) (B2) (A1) (B1) (A1) (B2) (A1) (B2)
                 (A1) (A1) (B1) (B1) (A1) (B2) (A2) (A1) (B1) (A2)
                 (B2) (A1) (B1) (A2) (B2) (A1) (B1) (B2) (A1) (A2)
                 (A1) (B1) (A1) (B2) (B1) (B2) (A1) (A2) (B1) (B2)
                 (B1) (A1) (A1) (B2) (A1) (B1) (A2) (A1) (B1) (A2)
                 (B2) (A2) (B2) (B1) (A1) (B2) (A1) (B1) (A1) (B2)
                 (A1) (A2) (B2) (B1) (A1) (A2) (B1) (B2) (A2) (A1)
                 (B1) (A2) (A1) (B2) (A1) (B1) (B2) (A1) (A2) (B2)
                 (A1) (A1) (B1) (B1) (A1) (B2) (A1) (A2) (B1) (B2)
                 (B1) (A2) (B2) (A1) (A1) (A1) (A1) (A1) (B2) (B1)
                 (A1)
 Initial guess <Sx>= 0.0000 <Sy>= 0.0000 <Sz>= 0.5000 <S**2>= 0.7607 S= 0.5053
 Requested convergence on RMS density matrix=1.00D-08 within 128 cycles.
 Requested convergence on MAX density matrix=1.00D-06.
 Requested convergence on             energy=1.00D-06.
 No special actions if energy rises.
 Keep R1 and R2 ints in memory in canonical form, NReq=495764245.
 SCF Done:  E(UB3LYP) =  -1736.65190822     A.U. after   10 cycles
             Convg  =    0.4969D-08             -V/T =  2.0035
 <Sx>= 0.0000 <Sy>= 0.0000 <Sz>= 0.5000 <S**2>= 0.7607 S= 0.5053
 <L.S>= 0.000000000000E+00
 Annihilation of the first spin contaminant:
 S**2 before annihilation     0.7607,   after     0.7500
 QCSCF skips out because SCF is already converged.
 Calling FoFJK, ICntrl=      2127 FMM=F ISym2X=1 I1Cent= 0 IOpClX= 1 NMat=1 NMatS=1 NMatT=0.
 ***** Axes restored to original set *****
 -------------------------------------------------------------------
 Center     Atomic                   Forces (Hartrees/Bohr)
 Number     Number              X              Y              Z
 -------------------------------------------------------------------
      1       14          -0.000037499    0.000000000    0.000005887
      2       14           0.000000000    0.000000000    0.000044604
      3       14           0.000000000    0.000000000   -0.000060525
      4       14           0.000000000   -0.000026450    0.000002073
      5       14           0.000000000    0.000026450    0.000002073
      6       14           0.000037499    0.000000000    0.000005887
 -------------------------------------------------------------------
 Cartesian Forces:  Max     0.000060525 RMS     0.000023502

 GradGradGradGradGradGradGradGradGradGradGradGradGradGradGradGradGradGrad
 Berny optimization.
 Using GEDIIS/GDIIS optimizer.
 Internal  Forces:  Max     0.000026080 RMS     0.000012265
 Search for a local minimum.
 Step number   5 out of a maximum of   33
 All quantities printed in internal units (Hartrees-Bohrs-Radians)
 Mixed Optimization -- En-DIIS/RFO-DIIS
 Swaping is turned off.
 Update second derivatives using D2CorX and points    1    2    3    4    5
 DE= -8.64D-07 DEPred=-3.86D-07 R= 2.24D+00
 Trust test= 2.24D+00 RLast= 7.16D-03 DXMaxT set to 3.00D-01
     Eigenvalues ---    0.02712   0.04452   0.07799   0.08969   0.10160
     Eigenvalues ---    0.10503   0.11981   0.12226   0.12392   0.13102
     Eigenvalues ---    0.14293   0.176291000.000001000.000001000.00000
     Eigenvalues --- 1000.000001000.000001000.000001000.000001000.00000
     Eigenvalues --- 1000.000001000.000001000.00000
 En-DIIS/RFO-DIIS IScMMF=        0 using points:     5    4    3    2    1
 RFO step:  Lambda=-1.33974832D-08.
 DIIS coeffs:      1.39138     -0.88853      1.33183     -2.15554      1.32086
 Iteration  1 RMS(Cart)=  0.00018822 RMS(Int)=  0.00003050
 Iteration  2 RMS(Cart)=  0.00000001 RMS(Int)=  0.00003050
 ClnCor:  largest displacement from symmetrization is 1.78D-05 for atom     5.
 Variable       Old X    -DE/DX   Delta X   Delta X   Delta X     New X
                                  (DIIS)     (GDIIS)  (Total)
    R1        4.50559   0.00003   0.00027   0.00005   0.00032   4.50591
    R2        4.92508   0.00002   0.00066   0.00003   0.00069   4.92577
    R3        4.46768   0.00001   0.00018   0.00005   0.00021   4.46789
[...]
  Beta virt. eigenvalues --   -0.04423  -0.04297  -0.04290  -0.04228  -0.03733
  Beta virt. eigenvalues --   -0.03545  -0.03509  -0.03100  -0.02399  -0.01122
  Beta virt. eigenvalues --   -0.01075  -0.00756  -0.00621  -0.00408  -0.00344
  Beta virt. eigenvalues --   -0.00218   0.00319   0.01165   0.01366   0.02287
  Beta virt. eigenvalues --    0.02317   0.02652   0.03055   0.04440   0.04941
  Beta virt. eigenvalues --    0.05096   0.05302   0.06328   0.06336   0.08282
  Beta virt. eigenvalues --    0.08391   0.09434   0.11456   0.11872   0.12004
  Beta virt. eigenvalues --    0.12182   0.13274   0.13386   0.14064   0.16201
  Beta virt. eigenvalues --    0.16392   0.17078   0.17156   0.17397   0.17593
  Beta virt. eigenvalues --    0.18147   0.18254   0.18931   0.19013   0.19920
  Beta virt. eigenvalues --    0.21521   0.22653   0.25586   0.26748   0.26974
  Beta virt. eigenvalues --    0.27083   0.29306   0.29852   0.29880   0.30207
  Beta virt. eigenvalues --    0.31402   0.31438   0.31890   0.32168   0.34492
  Beta virt. eigenvalues --    0.35625   0.36299   0.37205   0.37780   0.39237
  Beta virt. eigenvalues --    0.39862   0.41749   0.41900   0.43231   0.43293
  Beta virt. eigenvalues --    0.45817   0.46175   0.46200   0.46487   0.46502
  Beta virt. eigenvalues --    0.48281   0.48367   0.48939   0.49608   0.51519
  Beta virt. eigenvalues --    0.53085   0.55291   0.55597   0.56824   0.56838
  Beta virt. eigenvalues --    0.57997   0.59137   0.59967   0.61828   0.61957
  Beta virt. eigenvalues --    0.63155   0.63643   0.63754   0.65501   0.65607
  Beta virt. eigenvalues --    0.66535   0.68224   0.68889   0.69289   0.69370
  Beta virt. eigenvalues --    0.70885   0.71475   0.71779   0.71878   0.72213
  Beta virt. eigenvalues --    0.73607   0.73978   0.74604   0.74738   0.75343
  Beta virt. eigenvalues --    0.75479   0.76299   0.76385   0.77538   0.77632
  Beta virt. eigenvalues --    0.78219   0.79068   0.80069   0.80290   0.80447
  Beta virt. eigenvalues --    0.81885   0.82974   0.83155   0.83733   0.84169
  Beta virt. eigenvalues --    0.84731   0.85259   0.87207   0.88935   0.89045
  Beta virt. eigenvalues --    0.89643   0.89778   0.90895   0.91907   0.92132
  Beta virt. eigenvalues --    0.92399   0.92767   0.93434   0.96063   0.96267
  Beta virt. eigenvalues --    0.96277   0.96823   0.97240   1.00349   1.00386
  Beta virt. eigenvalues --    1.01254   1.04201   1.05381   1.05493   1.08799
  Beta virt. eigenvalues --    1.11847   1.13206   1.16554   1.18724   1.19680
  Beta virt. eigenvalues --    1.19991   1.21615   1.22446   1.22495   1.24128
  Beta virt. eigenvalues --    1.26427   1.29057   1.29194   1.29704   1.30840
  Beta virt. eigenvalues --    1.31261   1.32701   1.34403   1.35226   1.35689
  Beta virt. eigenvalues --    1.36478   1.37040   1.37719   1.38908   1.39290
  Beta virt. eigenvalues --    1.41769   1.43874   1.44080   1.44307   1.46404
  Beta virt. eigenvalues --    1.46911   1.49057   1.49470   1.50773   1.52016
  Beta virt. eigenvalues --    1.52387   1.53053   1.53902   1.54276   1.54524
  Beta virt. eigenvalues --    1.56246   1.58321   1.58365   1.58677   1.59134
  Beta virt. eigenvalues --    1.61252   1.61506   1.62088   1.63226   1.65111
  Beta virt. eigenvalues --    1.65452   1.66593   1.67272   1.67804   1.68436
  Beta virt. eigenvalues --    1.68483   1.68787   1.69549   1.70556   1.71188
  Beta virt. eigenvalues --    1.72196   1.73014   1.73165   1.74602   1.74883
  Beta virt. eigenvalues --    1.75881   1.76691   1.77544   1.77799   1.79205
  Beta virt. eigenvalues --    1.80445   1.80870   1.81630   1.82250   1.82918
  Beta virt. eigenvalues --    1.84849   1.85346   1.86899   1.87013   1.87555
  Beta virt. eigenvalues --    1.88085   1.88146   1.91805   1.92929   1.93187
  Beta virt. eigenvalues --    1.94316   1.95386   1.95729   1.97425   1.97915
  Beta virt. eigenvalues --    1.99752   2.00472   2.00553   2.01538   2.01538
  Beta virt. eigenvalues --    2.02178   2.04509   2.06559   2.07224   2.08301
  Beta virt. eigenvalues --    2.08986   2.10349   2.11635   2.13210   2.13252
  Beta virt. eigenvalues --    2.14916   2.15622   2.20151   2.20321   2.21982
  Beta virt. eigenvalues --    2.23620   2.24378   2.24466   2.26029   2.27909
  Beta virt. eigenvalues --    2.33218   2.34426   2.36597   2.38066   2.42255
  Beta virt. eigenvalues --    2.43279   2.45440   2.48671   2.49268   2.50560
  Beta virt. eigenvalues --    2.58824   2.60050   2.60251   2.63788   2.65197
  Beta virt. eigenvalues --    2.68761   2.69411   2.69454   2.70095   2.72864
  Beta virt. eigenvalues --    2.75255   2.76766   2.77944   2.78274   2.80062
  Beta virt. eigenvalues --    2.85069   2.87615   2.91538   2.92783   3.00660
  Beta virt. eigenvalues --    3.00874   3.01998   3.04249   3.05095   3.05724
  Beta virt. eigenvalues --    3.07206   3.07447   3.07670   3.09607   3.11906
  Beta virt. eigenvalues --    3.14249   3.14498   3.14974   3.15019   3.15813
  Beta virt. eigenvalues --    3.17613   3.19322   3.22985   3.23507   3.23573
  Beta virt. eigenvalues --    3.23680   3.28115   3.28854   3.30758   3.30817
  Beta virt. eigenvalues --    3.31762   3.32476   3.33459   3.34000   3.34992
  Beta virt. eigenvalues --    3.35023   3.35065   3.35745   3.36627   3.38392
  Beta virt. eigenvalues --    3.38718   3.39442   3.39984   3.40650   3.41603
  Beta virt. eigenvalues --    3.43475   3.43982   3.44158   3.44682   3.44881
  Beta virt. eigenvalues --    3.45553   3.46566   3.47057   3.47239   3.47563
  Beta virt. eigenvalues --    3.48602   3.49384   3.49960   3.51710   3.53166
  Beta virt. eigenvalues --    3.53822   3.53853   3.54138   3.55169   3.56244
  Beta virt. eigenvalues --    3.57272   3.57731   3.58157   3.58841   3.59123
  Beta virt. eigenvalues --    3.60180   3.61099   3.63514   3.63761   3.64683
  Beta virt. eigenvalues --    3.66052   3.67135   3.70557   3.70944   3.71076
  Beta virt. eigenvalues --    3.72480   3.73824   3.75364   3.77274   3.78468
  Beta virt. eigenvalues --    3.81601   3.81781   3.83140   3.83520   3.83865
  Beta virt. eigenvalues --    3.85081   3.85384   3.88810   3.88969   3.89845
  Beta virt. eigenvalues --    3.89862   3.92167   3.92909   3.95337   3.95531
  Beta virt. eigenvalues --    3.95612   3.99615   4.00853   4.01629   4.01763
  Beta virt. eigenvalues --    4.01902   4.03164   4.03462   4.04370   4.04595
  Beta virt. eigenvalues --    4.06127   4.06429   4.08145   4.10507   4.14224
  Beta virt. eigenvalues --    4.16384   4.17111   4.17226   4.17527   4.18815
  Beta virt. eigenvalues --    4.21963   4.23549   4.23590   4.25193   4.26616
  Beta virt. eigenvalues --    4.27559   4.28853   4.29034   4.29179   4.30323
  Beta virt. eigenvalues --    4.30760   4.33672   4.34586   4.36228   4.36412
  Beta virt. eigenvalues --    4.37824   4.38233   4.38495   4.40759   4.41704
  Beta virt. eigenvalues --    4.42836   4.44905   4.45399   4.45600   4.47957
  Beta virt. eigenvalues --    4.49063   4.50136   4.50354   4.52001   4.52397
  Beta virt. eigenvalues --    4.54348   4.57768   4.58576   4.58790   4.59715
  Beta virt. eigenvalues --    4.62695   4.63637   4.63855   4.64423   4.66065
  Beta virt. eigenvalues --    4.67777   4.69772   4.70600   4.72646   4.75626
  Beta virt. eigenvalues --    4.76011   4.76366   4.78232   4.82220   4.83515
  Beta virt. eigenvalues --    4.83647   4.84199   4.90297   4.92062   4.92478
  Beta virt. eigenvalues --    4.94972   4.98162   4.98717   5.02047   5.03086
  Beta virt. eigenvalues --    5.03091   5.10665   5.12138   5.13625   5.15009
  Beta virt. eigenvalues --    5.19902   5.21373   5.25066   5.32368   5.37018
  Beta virt. eigenvalues --    5.43225   5.50226   5.60545   5.89065   6.16546
  Beta virt. eigenvalues --    6.25927   6.32634   6.36994   6.48978   6.50378
  Beta virt. eigenvalues --    6.62033   6.70917   6.72374   6.76046   6.78555
  Beta virt. eigenvalues --    6.81951   6.84493   6.85586   6.86753   6.88641
  Beta virt. eigenvalues --    6.89654   6.93824   6.94848   6.94879   6.96963
  Beta virt. eigenvalues --    6.97062   7.01313   7.04260   7.05282   7.08237
  Beta virt. eigenvalues --    7.13268   7.16596   7.32277   7.36248  13.50640
  Beta virt. eigenvalues --   13.65479  13.74657  13.75771  13.82746  13.85126
  Beta virt. eigenvalues --   13.88773  13.92802  13.98461  14.02907  14.25742
  Beta virt. eigenvalues --   14.39747  14.55440  14.60302  14.60382  14.73912
  Beta virt. eigenvalues --   14.76931  14.79870  39.86341  40.84811  41.92579
  Beta virt. eigenvalues --   42.22640  43.76513  43.86447
          Condensed to atoms (all electrons):
              1          2          3          4          5          6
     1  Si  12.880183   0.299472   0.140910   0.270842   0.270842   0.039214
     2  Si   0.299472  12.985430  -0.013159   0.078654   0.078654   0.299472
     3  Si   0.140910  -0.013159  12.977270   0.277304   0.277304   0.140910
     4  Si   0.270842   0.078654   0.277304  12.932722   0.003638   0.270842
     5  Si   0.270842   0.078654   0.277304   0.003638  12.932722   0.270842
     6  Si   0.039214   0.299472   0.140910   0.270842   0.270842  12.880183
 Mulliken atomic charges:
              1
     1  Si   0.098536
     2  Si   0.271476
     3  Si   0.199460
     4  Si   0.165997
     5  Si   0.165997
     6  Si   0.098536
 Sum of Mulliken atomic charges =   1.00000
 Mulliken charges with hydrogens summed into heavy atoms:
              1
     1  Si   0.098536
     2  Si   0.271476
     3  Si   0.199460
     4  Si   0.165997
     5  Si   0.165997
     6  Si   0.098536
 Sum of Mulliken charges with hydrogens summed into heavy atoms =   1.00000
          Atomic-Atomic Spin Densities.
              1          2          3          4          5          6
     1  Si   0.035901   0.002177  -0.020959   0.028289   0.028289  -0.019898
     2  Si   0.002177  -0.004423  -0.000866  -0.004907  -0.004907   0.002177
     3  Si  -0.020959  -0.000866   0.036708   0.020147   0.020147  -0.020959
     4  Si   0.028289  -0.004907   0.020147   0.393252  -0.030602   0.028289
     5  Si   0.028289  -0.004907   0.020147  -0.030602   0.393252   0.028289
     6  Si  -0.019898   0.002177  -0.020959   0.028289   0.028289   0.035901
 Mulliken atomic spin densities:
              1
     1  Si   0.053799
     2  Si  -0.010750
     3  Si   0.034218
     4  Si   0.434467
     5  Si   0.434467
     6  Si   0.053799
 Sum of Mulliken atomic spin densities =   1.00000
 Electronic spatial extent (au):  <R**2>=           1106.1465
 Charge=              1.0000 electrons
 Dipole moment (field-independent basis, Debye):
    X=              0.0000    Y=              0.0000    Z=              0.1414  Tot=              0.1414
 Quadrupole moment (field-independent basis, Debye-Ang):
   XX=            -63.0808   YY=            -66.1023   ZZ=            -65.3420
   XY=              0.0000   XZ=              0.0000   YZ=              0.0000
 Traceless Quadrupole moment (field-independent basis, Debye-Ang):
   XX=              1.7609   YY=             -1.2606   ZZ=             -0.5003
   XY=              0.0000   XZ=              0.0000   YZ=              0.0000
 Octapole moment (field-independent basis, Debye-Ang**2):
  XXX=              0.0000  YYY=              0.0000  ZZZ=              1.4892  XYY=              0.0000
  XXY=              0.0000  XXZ=             -1.4198  XZZ=              0.0000  YZZ=              0.0000
  YYZ=             -0.5310  XYZ=              0.0000
 Hexadecapole moment (field-independent basis, Debye-Ang**3):
 XXXX=           -549.4922 YYYY=           -384.4927 ZZZZ=           -758.6167 XXXY=              0.0000
 XXXZ=              0.0000 YYYX=              0.0000 YYYZ=              0.0000 ZZZX=              0.0000
 ZZZY=              0.0000 XXYY=           -169.5174 XXZZ=           -217.3521 YYZZ=           -194.5174
 XXYZ=              0.0000 YYXZ=              0.0000 ZZXY=              0.0000
 N-N= 5.860073629101D+02 E-N=-7.930592957459D+03  KE= 2.599192134074D+03
 Symmetry A1   KE= 1.508848752107D+03
 Symmetry A2   KE= 7.639180498388D+01
 Symmetry B1   KE= 5.074956127049D+02
 Symmetry B2   KE= 5.064559642781D+02
                          Isotropic Fermi Contact Couplings
        Atom                 a.u.       MegaHertz       Gauss      10(-4) cm-1
     1  Si(29)            -0.02462      21.88486       7.80906       7.30000
     2  Si(29)             0.00199      -1.77137      -0.63207      -0.59087
     3  Si(29)            -0.00591       5.25074       1.87359       1.75146
     4  Si(29)             0.15555    -138.24009     -49.32750     -46.11193
     5  Si(29)             0.15555    -138.24009     -49.32750     -46.11193
     6  Si(29)            -0.02462      21.88486       7.80906       7.30000
 --------------------------------------------------------
       Center         ----  Spin Dipole Couplings  ----
                      3XX-RR        3YY-RR        3ZZ-RR
 --------------------------------------------------------
     1   Atom        0.226540     -0.116390     -0.110150
     2   Atom        0.024669      0.009142     -0.033811
     3   Atom        0.263381     -0.084890     -0.178491
     4   Atom        1.097512     -0.554598     -0.542914
     5   Atom        1.097512     -0.554598     -0.542914
     6   Atom        0.226540     -0.116390     -0.110150
 --------------------------------------------------------
                        XY            XZ            YZ
 --------------------------------------------------------
     1   Atom        0.000000      0.000000     -0.014064
     2   Atom        0.000000      0.000000      0.000000
     3   Atom        0.000000      0.000000      0.000000
     4   Atom        0.000000     -0.080473      0.000000
     5   Atom        0.000000      0.080473      0.000000
     6   Atom        0.000000      0.000000      0.014064
 --------------------------------------------------------


 ---------------------------------------------------------------------------------
              Anisotropic Spin Dipole Couplings in Principal Axis System
 ---------------------------------------------------------------------------------

       Atom             a.u.   MegaHertz   Gauss  10(-4) cm-1        Axes

              Baa    -0.1277    13.544     4.833     4.518  0.0000  0.7799  0.6259
     1 Si(29) Bbb    -0.0989    10.488     3.742     3.498  0.0000 -0.6259  0.7799
              Bcc     0.2265   -24.032    -8.575    -8.016  1.0000  0.0000  0.0000
 
              Baa    -0.0338     3.587     1.280     1.196  0.0000  0.0000  1.0000
     2 Si(29) Bbb     0.0091    -0.970    -0.346    -0.324  0.0000  1.0000  0.0000
              Bcc     0.0247    -2.617    -0.934    -0.873  1.0000  0.0000  0.0000
 
              Baa    -0.1785    18.935     6.756     6.316  0.0000  0.0000  1.0000
     3 Si(29) Bbb    -0.0849     9.005     3.213     3.004  0.0000  1.0000  0.0000
              Bcc     0.2634   -27.940    -9.970    -9.320  1.0000  0.0000  0.0000
 
              Baa    -0.5546    58.834    20.993    19.625  0.0000  1.0000  0.0000
     4 Si(29) Bbb    -0.5469    58.012    20.700    19.351  0.0489  0.0000  0.9988
              Bcc     1.1014  -116.846   -41.694   -38.976  0.9988  0.0000 -0.0489
 
              Baa    -0.5546    58.834    20.993    19.625  0.0000  1.0000  0.0000
     5 Si(29) Bbb    -0.5469    58.012    20.700    19.351 -0.0489  0.0000  0.9988
              Bcc     1.1014  -116.846   -41.694   -38.976  0.9988  0.0000  0.0489
 
              Baa    -0.1277    13.544     4.833     4.518  0.0000  0.7799 -0.6259
     6 Si(29) Bbb    -0.0989    10.488     3.742     3.498  0.0000  0.6259  0.7799
              Bcc     0.2265   -24.032    -8.575    -8.016  1.0000  0.0000  0.0000
 

 ---------------------------------------------------------------------------------

 1\1\GINC-NODE43\SP\UHF\GFHFB2\Si6(1+,2)\TAM\21-Dec-2011\0\\#N Geom=All
 Check Guess=TCheck SCRF=Check HF/GFHFB2 SCF=Tight\\si6-c\\1,2\Si,0,-1.
 4363470002,0.,0.2225746621\Si,0,0.,0.,2.1256206772\Si,0,0.,0.,-1.95213
 94843\Si,0,0.,-1.8008981864,-0.3094764662\Si,0,0.,1.8008981864,-0.3094
 764662\Si,0,1.4363470002,0.,0.2225746621\\Version=AM64L-G09RevA.02\Sta
 te=2-B1\HF=-1733.3136138\S2=0.821283\S2-1=0.\S2A=0.751054\RMSD=3.649e-
 09\Dipole=0.,0.,0.055633\Quadrupole=-0.9372154,1.3091881,-0.3719727,0.
 ,0.,0.\PG=C02V [C2(Si1Si1),SGV(Si2),SGV'(Si2)]\\@


 POCKETA-POCKETA
 BARON VON RICHTOFEN
 SLAUGHTERED THE ALLIES WITH
 HARDLY A CARE.
 KILLED EIGHTY-ONE WITH HIS
 BLOOD-COLORED TRIPLANE, THEN
 UN-AEROBATICALLY
 PLUNGED FROM THE AIR.
   -- TONY HOFFMAN
 Diagonal vibrational polarizability:
        0.0000000       0.0000000       0.0000000

 Temperature=              298.150000 Pressure=                      1.000000
 E(ZPE)=                     0.008060 E(Thermal)=                    0.016273
 E(CCSD(T))=             -1733.709983 E(Empiric)=                   -0.080849
 DE(Plus)=                  -0.008629 DE(2DF)=                      -0.191851
 E(Delta-G3XP)=             -1.883925 DE(HF)=                       -0.039883
 G4(0 K)=                -1735.907060 G4 Energy=                 -1735.898847
 G4 Enthalpy=            -1735.897903 G4 Free Energy=            -1735.941137
 1\1\GINC-NODE43\Mixed\G4\G4\Si6(1+,2)\TAM\21-Dec-2011\0\\# G4 scfcyc=5
 00 scf=xqc\\si6-c\\1,2\Si,0,-1.4363470002,0.,0.2225746621\Si,0,0.,0.,2
 .1256206772\Si,0,0.,0.,-1.9521394843\Si,0,0.,-1.8008981864,-0.30947646
 62\Si,0,0.,1.8008981864,-0.3094764662\Si,0,1.4363470002,0.,0.222574662
 1\\Version=AM64L-G09RevA.02\State=2-B1\MP2/GTBas1=-1733.6578012\MP4/GT
 Bas1=-1733.7285257\CCSD(T)/G3Bas1=-1733.7099835\MP2/GTBas2=-1733.66546
 06\MP4/GTBas2=-1733.7371549\MP2/GTBas3=-1733.8372046\MP4/GTBas3=-1733.
 9203763\HF/GTLargeXP=-1733.2751401\MP2/GTLargeXP=-1735.7287892\HF/GFHF
 B1=-1733.3078314\HF/GFHFB2=-1733.3136138\G4=-1735.9070598\FreqCoord=-2
 .7143024621,0.,0.4206051555,0.,0.,4.0168409423,0.,0.,-3.6890089984,0.,
 -3.4032043654,-0.5848257658,0.,3.4032043654,-0.5848257658,2.7143024621
 ,0.,0.4206051555\PG=C02V [C2(Si1Si1),SGV(Si2),SGV'(Si2)]\NImag=0\\0.10
 850669,0.,0.08546251,0.00161620,0.,0.07887782,-0.01924034,0.,-0.036029
 80,0.04170929,0.,0.00149252,0.,0.,0.00733120,-0.02257090,0.,-0.0461197
 3,0.,0.,0.11416916,-0.00349699,0.,0.02257523,-0.01382071,0.,0.,0.01643
 176,0.,0.00573464,0.,0.,-0.01246653,0.,0.,0.05201807,0.00149851,0.,-0.
 02273929,0.,0.,-0.01864430,0.,0.,0.10138288,-0.02404718,0.03794493,0.0
 0562170,0.00529605,0.,0.,0.00219147,0.,0.,0.05063694,0.02433549,-0.041
 57047,-0.00927867,0.,0.00107514,0.00323655,0.,-0.02551042,0.01416229,0
 .,0.13445808,0.01002558,-0.00948447,-0.00137663,0.,-0.01111068,-0.0016
 4270,0.,0.03044800,-0.01863000,0.,0.00039506,0.03571768,-0.02404718,-0
 .03794493,0.00562170,0.00529605,0.,0.,0.00219147,0.,0.,-0.01003011,0.,
 0.,0.05063694,-0.02433548,-0.04157047,0.00927867,0.,0.00107514,-0.0032
 3655,0.,-0.02551042,-0.01416229,0.,-0.02688186,-0.00076345,0.,0.134458
 08,0.01002558,0.00948446,-0.00137663,0.,0.01111068,-0.00164269,0.,-0.0
 3044800,-0.01863000,0.,0.00076345,-0.01269173,0.,-0.00039506,0.0357176
 8,-0.03767500,0.,0.00059497,-0.01924034,0.,0.02257090,-0.00349699,0.,-
 0.00149851,-0.02404718,-0.02433548,-0.01002558,-0.02404718,0.02433549,
 -0.01002558,0.10850669,0.,-0.00954873,0.,0.,0.00149252,0.,0.,0.0057346
 5,0.,-0.03794493,-0.04157047,-0.00948446,0.03794493,-0.04157047,0.0094
 8447,0.,0.08546251,-0.00059497,0.,-0.00726554,0.03602980,0.,-0.0461197
 3,-0.02257523,0.,-0.02273929,-0.00562170,-0.00927867,-0.00137663,-0.00
 562170,0.00927867,-0.00137663,-0.00161620,0.,0.07887782\\0.00003750,0.
 ,-0.00000589,0.,0.,-0.00004460,0.,0.,0.00006054,0.,0.00002645,-0.00000
 208,0.,-0.00002645,-0.00000208,-0.00003750,0.,-0.00000589\\\@
 Job cpu time:  0 days  5 hours 22 minutes 19.2 seconds.
 File lengths (MBytes):  RWF=    796 Int=      0 D2E=      0 Chk=     29 Scr=      1
 Normal termination of Gaussian 09 at Wed Dec 21 00:36:36 2011.
