 Entering Gaussian System, Link 0=g09
 Initial command:
 /usr/local/chem/g09A2/l1.exe /temp0/tam/Gau-20052.inp -scrdir=/temp0/tam/
 Entering Link 1 = /usr/local/chem/g09A2/l1.exe PID=     20053.
  
 Copyright (c) 1988,1990,1992,1993,1995,1998,2003,2009, Gaussian, Inc.
                  All Rights Reserved.
  
 This is part of the Gaussian(R) 09 program.  It is based on
 the Gaussian(R) 03 system (copyright 2003, Gaussian, Inc.),
 the Gaussian(R) 98 system (copyright 1998, Gaussian, Inc.),
 the Gaussian(R) 94 system (copyright 1995, Gaussian, Inc.),
 the Gaussian 92(TM) system (copyright 1992, Gaussian, Inc.),
 the Gaussian 90(TM) system (copyright 1990, Gaussian, Inc.),
 the Gaussian 88(TM) system (copyright 1988, Gaussian, Inc.),
 the Gaussian 86(TM) system (copyright 1986, Carnegie Mellon
 University), and the Gaussian 82(TM) system (copyright 1983,
 Carnegie Mellon University). Gaussian is a federally registered
 trademark of Gaussian, Inc.
  
 This software contains proprietary and confidential information,
 including trade secrets, belonging to Gaussian, Inc.
  
 This software is provided under written license and may be
 used, copied, transmitted, or stored only in accord with that
 written license.
  
 The following legend is applicable only to US Government
 contracts under FAR:
  
                    RESTRICTED RIGHTS LEGEND
  
 Use, reproduction and disclosure by the US Government is
 subject to restrictions as set forth in subparagraphs (a)
 and (c) of the Commercial Computer Software - Restricted
 Rights clause in FAR 52.227-19.
  
 Gaussian, Inc.
 340 Quinnipiac St., Bldg. 40, Wallingford CT 06492
  
  
 ---------------------------------------------------------------
 Warning -- This program may not be used in any manner that
 competes with the business of Gaussian, Inc. or will provide
 assistance to any competitor of Gaussian, Inc.  The licensee
 of this program is prohibited from giving any competitor of
 Gaussian, Inc. access to this program.  By using this program,
 the user acknowledges that Gaussian, Inc. is engaged in the
 business of creating and licensing software in the field of
 computational chemistry and represents and warrants to the
 licensee that it is not a competitor of Gaussian, Inc. and that
 it will not use this program in any manner prohibited above.
 ---------------------------------------------------------------
  

 Cite this work as:
 Gaussian 09, Revision A.02,
 M. J. Frisch, G. W. Trucks, H. B. Schlegel, G. E. Scuseria, 
 M. A. Robb, J. R. Cheeseman, G. Scalmani, V. Barone, B. Mennucci, 
 G. A. Petersson, H. Nakatsuji, M. Caricato, X. Li, H. P. Hratchian, 
 A. F. Izmaylov, J. Bloino, G. Zheng, J. L. Sonnenberg, M. Hada, 
 M. Ehara, K. Toyota, R. Fukuda, J. Hasegawa, M. Ishida, T. Nakajima, 
 Y. Honda, O. Kitao, H. Nakai, T. Vreven, J. A. Montgomery, Jr., 
 J. E. Peralta, F. Ogliaro, M. Bearpark, J. J. Heyd, E. Brothers, 
 K. N. Kudin, V. N. Staroverov, R. Kobayashi, J. Normand, 
 K. Raghavachari, A. Rendell, J. C. Burant, S. S. Iyengar, J. Tomasi, 
 M. Cossi, N. Rega, J. M. Millam, M. Klene, J. E. Knox, J. B. Cross, 
 V. Bakken, C. Adamo, J. Jaramillo, R. Gomperts, R. E. Stratmann, 
 O. Yazyev, A. J. Austin, R. Cammi, C. Pomelli, J. W. Ochterski, 
 R. L. Martin, K. Morokuma, V. G. Zakrzewski, G. A. Voth, 
 P. Salvador, J. J. Dannenberg, S. Dapprich, A. D. Daniels, 
 O. Farkas, J. B. Foresman, J. V. Ortiz, J. Cioslowski, 
 and D. J. Fox, Gaussian, Inc., Wallingford CT, 2009.
 
 ******************************************
 Gaussian 09:  AM64L-G09RevA.02 11-Jun-2009
                20-Dec-2011 
 ******************************************
 %NprocShared=6
 Will use up to    6 processors via shared memory.
 %mem=18050MB
 %chk=S9L-ne-d-01
 -----------------------
 # G4 scfcyc=500 scf=xqc
 -----------------------
 1/14=-1,18=20,19=15,26=3,38=1/1,3;
 2/9=110,12=2,17=6,18=5,40=1/2;
 3/5=35,7=104,11=2,16=1,25=1,30=1,71=1,74=-5/1,2,3;
 4//1;
 5/5=2,7=500,8=3,13=1,38=5/2,8;
 6/7=2,8=2,9=2,10=2,28=1/1;
 7//1,2,3,16;
 1/14=-1,18=20,19=15/3(2);
 2/9=110/2;
 99//99;
 2/9=110/2;
 3/5=35,7=104,11=2,16=1,25=1,30=1,71=1,74=-5/1,2,3;
 4/5=5,16=3/1;
 5/5=2,7=500,8=3,13=1,38=5/2,8;
 7//1,2,3,16;
 1/14=-1,18=20,19=15/3(-5);
 2/9=110/2;
 6/7=2,8=2,9=2,10=2,19=2,28=1/1;
 99/9=1/99;
 -----
 si7-n
 -----
 Symbolic Z-matrix:
 Charge =  0 Multiplicity = 1
 Si                    0.        2.13424   0. 
 Si                   -2.02979   0.65952   0. 
 Si                   -1.25448  -1.72664   0. 
 Si                    1.25448  -1.72664   0. 
 Si                    2.02979   0.65952   0. 
 Si                    0.        0.       -1.28922 
 Si                    0.        0.        1.28922 
 

 GradGradGradGradGradGradGradGradGradGradGradGradGradGradGradGradGradGrad
 Berny optimization.
 Initialization pass.
                           ----------------------------
                           !    Initial Parameters    !
                           ! (Angstroms and Degrees)  !
 --------------------------                            --------------------------
 ! Name  Definition              Value          Derivative Info.                !
 --------------------------------------------------------------------------------
 ! R1    R(1,2)                  2.509          estimate D2E/DX2                !
 ! R2    R(1,5)                  2.509          estimate D2E/DX2                !
 ! R3    R(1,6)                  2.4934         estimate D2E/DX2                !
 ! R4    R(1,7)                  2.4934         estimate D2E/DX2                !
 ! R5    R(2,3)                  2.509          estimate D2E/DX2                !
 ! R6    R(2,6)                  2.4934         estimate D2E/DX2                !
 ! R7    R(2,7)                  2.4934         estimate D2E/DX2                !
 ! R8    R(3,4)                  2.509          estimate D2E/DX2                !
 ! R9    R(3,6)                  2.4934         estimate D2E/DX2                !
 ! R10   R(3,7)                  2.4934         estimate D2E/DX2                !
 ! R11   R(4,5)                  2.509          estimate D2E/DX2                !
 ! R12   R(4,6)                  2.4934         estimate D2E/DX2                !
 ! R13   R(4,7)                  2.4934         estimate D2E/DX2                !
 ! R14   R(5,6)                  2.4934         estimate D2E/DX2                !
 ! R15   R(5,7)                  2.4934         estimate D2E/DX2                !
 ! R16   R(6,7)                  2.5784         estimate D2E/DX2                !
 ! A1    A(2,1,5)              108.0            estimate D2E/DX2                !
 ! A2    A(1,2,3)              108.0            estimate D2E/DX2                !
 ! A3    A(2,3,4)              108.0            estimate D2E/DX2                !
 ! A4    A(3,4,5)              108.0            estimate D2E/DX2                !
 ! A5    A(1,5,4)              108.0            estimate D2E/DX2                !
 ! A6    A(1,6,3)              108.9892         estimate D2E/DX2                !
 ! A7    A(1,6,4)              108.9892         estimate D2E/DX2                !
 ! A8    A(2,6,4)              108.9892         estimate D2E/DX2                !
 ! A9    A(2,6,5)              108.9892         estimate D2E/DX2                !
 ! A10   A(3,6,5)              108.9892         estimate D2E/DX2                !
 ! A11   A(1,7,3)              108.9892         estimate D2E/DX2                !
 ! A12   A(1,7,4)              108.9892         estimate D2E/DX2                !
 ! A13   A(2,7,4)              108.9892         estimate D2E/DX2                !
 ! A14   A(2,7,5)              108.9892         estimate D2E/DX2                !
 ! A15   A(3,7,5)              108.9892         estimate D2E/DX2                !
 ! D1    D(5,1,2,3)              0.0            estimate D2E/DX2                !
 ! D2    D(2,1,5,4)              0.0            estimate D2E/DX2                !
 ! D3    D(1,2,3,4)              0.0            estimate D2E/DX2                !
 ! D4    D(2,3,4,5)              0.0            estimate D2E/DX2                !
 ! D5    D(3,4,5,1)              0.0            estimate D2E/DX2                !
 --------------------------------------------------------------------------------
 Trust Radius=3.00D-01 FncErr=1.00D-07 GrdErr=1.00D-06
 Number of steps in this run=  46 maximum allowed number of steps= 100.
 GradGradGradGradGradGradGradGradGradGradGradGradGradGradGradGradGradGrad

                          Input orientation:                          
 ---------------------------------------------------------------------
 Center     Atomic      Atomic             Coordinates (Angstroms)
 Number     Number       Type             X           Y           Z
 ---------------------------------------------------------------------
      1         14           0        0.000000    2.134244    0.000000
      2         14           0       -2.029787    0.659518    0.000000
      3         14           0       -1.254477   -1.726640    0.000000
      4         14           0        1.254477   -1.726640    0.000000
      5         14           0        2.029787    0.659518    0.000000
      6         14           0        0.000000    0.000000   -1.289223
      7         14           0        0.000000    0.000000    1.289223
 ---------------------------------------------------------------------
                    Distance matrix (angstroms):
                    1          2          3          4          5
     1  Si   0.000000
     2  Si   2.508955   0.000000
     3  Si   4.059574   2.508955   0.000000
     4  Si   4.059574   4.059574   2.508955   0.000000
     5  Si   2.508955   4.059574   4.059574   2.508955   0.000000
     6  Si   2.493410   2.493410   2.493410   2.493410   2.493410
     7  Si   2.493410   2.493410   2.493410   2.493410   2.493410
                    6          7
     6  Si   0.000000
     7  Si   2.578446   0.000000
 Stoichiometry    Si7
 Framework group  D5H[C5(Si.Si),5C2(Si)]
 Deg. of freedom     2
 Full point group                 D5H     NOp  20
 Largest Abelian subgroup         C2V     NOp   4
 Largest concise Abelian subgroup C2V     NOp   4
                         Standard orientation:                         
 ---------------------------------------------------------------------
 Center     Atomic      Atomic             Coordinates (Angstroms)
 Number     Number       Type             X           Y           Z
 ---------------------------------------------------------------------
      1         14           0        0.000000    2.134244    0.000000
      2         14           0        2.029787    0.659518    0.000000
      3         14           0        1.254477   -1.726640    0.000000
      4         14           0       -1.254477   -1.726640    0.000000
      5         14           0       -2.029787    0.659518    0.000000
      6         14           0        0.000000    0.000000    1.289223
      7         14           0        0.000000    0.000000   -1.289223
 ---------------------------------------------------------------------
 Rotational constants (GHZ):      1.2278764      1.2278764      0.7931565
 Standard basis: GTBas3 (6D, 7F)
 There are    81 symmetry adapted basis functions of A1  symmetry.
 There are    33 symmetry adapted basis functions of A2  symmetry.
 There are    61 symmetry adapted basis functions of B1  symmetry.
 There are    49 symmetry adapted basis functions of B2  symmetry.
 Integral buffers will be    131072 words long.
 Raffenetti 2 integral format.
 Two-electron integral symmetry is turned on.
   224 basis functions,   476 primitive gaussians,   245 cartesian basis functions
    49 alpha electrons       49 beta electrons
       nuclear repulsion energy       790.6396269893 Hartrees.
 NAtoms=    7 NActive=    7 NUniq=    2 SFac= 3.00D+00 NAtFMM=   80 NAOKFM=F Big=F
 One-electron integrals computed using PRISM.
 NBasis=   224 RedAO= T  NBF=    81    33    61    49
 NBsUse=   224 1.00D-06 NBFU=    81    33    61    49
 Harris functional with IExCor=  402 diagonalized for initial guess.
 ExpMin= 7.78D-02 ExpMax= 1.61D+04 ExpMxC= 2.43D+03 IAcc=2 IRadAn=         0 AccDes= 0.00D+00
 HarFok:  IExCor=  402 AccDes= 0.00D+00 IRadAn=         0 IDoV= 1
 ScaDFX=  1.000000  1.000000  1.000000  1.000000
 FoFCou: FMM=F IPFlag=           0 FMFlag=      100000 FMFlg1=           0
         NFxFlg=           0 DoJE=T BraDBF=F KetDBF=T FulRan=T
         Omega=  0.000000  0.000000  1.000000  0.000000  0.000000 ICntrl=     500 IOpCl=  0
         NMat0=    1 NMatS0=    1 NMatT0=    0 NMatD0=    1 NMtDS0=    0 NMtDT0=    0
         I1Cent=           4 NGrid=           0.
 Petite list used in FoFCou.
 Initial guess orbital symmetries:
       Occupied  (A1') (A2") (E1') (E1') (E2') (E2') (A1') (A1')
                 (A2") (E1') (E1') (A1') (E2') (E2') (A1') (A2")
                 (E1") (E1") (E1') (E1') (A1') (E1') (E1') (E2')
                 (E2') (E2') (E2') (E1') (E1') (A2') (E2") (E2")
                 (A2") (E1") (E1") (A1') (E1') (E1') (A2") (E2')
                 (E2') (A1') (E1") (E1") (A1') (E1') (E1') (E2')
                 (E2')
       Virtual   (A2") (E2") (E2") (E1') (E1') (A1') (A2") (E2')
                 (E2') (E1') (E1') (E1") (E1") (A2') (E1') (E1')
                 (E2") (E2") (A1') (E2') (E2') (E1") (E1") (A1')
                 (A1') (E2') (E2') (A2") (E2") (E2") (E1') (E1')
                 (A1') (A2") (E2') (E2') (E1') (E1') (E1") (E1")
                 (E1") (E1") (E1') (E1') (E2") (E2") (A2") (E2')
                 (E2') (A2') (E1') (E1') (A1') (E2') (E2') (A1")
                 (E1") (E1") (E1') (E1') (A2") (E1') (E1') (A1')
                 (E2') (E2') (E2") (E2") (E2') (E2') (E1") (E1")
                 (A2") (A2') (E1') (E1') (A1') (E2") (E2") (E1')
                 (E1') (E2') (E2') (E2') (E2') (A2") (A1') (E1")
                 (E1") (A1') (E2") (E2") (E2') (E2') (A2") (E1')
                 (E1') (E1") (E1") (E2') (E2') (A1') (E1") (E1")
                 (E1') (E1') (A2') (E1') (E1') (E2') (E2') (A1')
                 (E2") (E2") (E1') (E1') (A1") (E2") (E2") (E1")
                 (E1") (E2') (E2') (E2") (E2") (A2") (E2') (E2')
                 (E1') (E1') (A2") (A2') (E2") (E2") (A1') (E1")
                 (E1") (E1') (E1') (E2') (E2') (A2") (E1') (E1')
                 (A1') (E1") (E1") (E2") (E2") (A2') (A1") (E1')
                 (E1') (E2') (E2') (E1') (E1') (A1') (E2") (E2")
                 (E1") (E1") (A1') (A2") (E2') (E2') (E2') (E2')
                 (A1') (E2') (E2') (E1') (E1') (A2") (A1')
 The electronic state of the initial guess is 1-A1'.
 Requested convergence on RMS density matrix=1.00D-08 within 128 cycles.
 Requested convergence on MAX density matrix=1.00D-06.
 Requested convergence on             energy=1.00D-06.
 No special actions if energy rises.
 Keep R1 ints in memory in canonical form, NReq=461775787.
 Integral accuracy reduced to 1.0D-05 until final iterations.
 Initial convergence to 1.0D-05 achieved.  Increase integral accuracy.
 SCF Done:  E(RB3LYP) =  -2026.43935056     A.U. after   11 cycles
             Convg  =    0.5340D-08             -V/T =  2.0035
 QCSCF skips out because SCF is already converged.

 **********************************************************************

            Population analysis using the SCF density.

 **********************************************************************

 Orbital symmetries:
       Occupied  (A1') (A2") (E1') (E1') (E2') (E2') (A1') (A1')
                 (A2") (A1') (E1') (E1') (E2') (E2') (A1') (A2")
                 (E1") (E1") (E1') (E1') (A2") (E2") (E2") (E1")
                 (E1") (E2') (E2') (E1') (E1') (A1') (A2') (E1')
                 (E1') (E2') (E2') (A1') (E1') (E1') (A2") (E2')
                 (E2') (A1') (E1") (E1") (A1') (E1') (E1') (E2')
                 (E2')
       Virtual   (A2") (E2") (E2") (E1') (E1') (A2") (E2') (E2')
                 (A1') (E1') (E1') (E1") (E1") (A2') (E1') (E1')
                 (A1') (E2') (E2') (E2") (E2") (E1") (E1") (A1')
                 (E2') (E2') (A2") (A1') (E2") (E2") (E1') (E1')
                 (A2") (E1') (E1') (A1') (E2') (E2') (E1") (E1")
                 (E1") (E1") (A2') (E1') (E1') (E2") (E2") (E1')
                 (E1') (E2') (E2') (A2") (A1') (E2') (E2') (A1")
                 (E1") (E1") (E1') (E1') (A2") (A1') (E1') (E1')
                 (E2') (E2') (E2") (E2") (E2') (E2') (E1") (E1")
                 (A2") (A2') (E1') (E1') (A1') (E2") (E2") (E1')
                 (E1') (E2') (E2') (E2') (E2') (A2") (A1') (E1")
                 (E1") (A1') (E2') (E2') (E2") (E2") (A2") (E1')
                 (E1') (E1") (E1") (E2') (E2') (A1') (E1") (E1")
                 (E1') (E1') (E1') (E1') (A2') (E2') (E2') (A1')
                 (E2") (E2") (E1') (E1') (A1") (E2") (E2") (E1")
                 (E1") (E2') (E2') (E2") (E2") (A2") (E1') (E1')
                 (E2') (E2') (A2") (A2') (E2") (E2") (A1') (E1")
                 (E1") (E1') (E1') (E2') (E2') (A2") (E1') (E1')
                 (A1') (E1") (E1") (E2") (E2") (A2') (A1") (E1')
                 (E1') (E2') (E2') (A1') (E1') (E1') (E2") (E2")
                 (E1") (E1") (A1') (A2") (E2') (E2') (E2') (E2')
                 (A1') (E2') (E2') (E1') (E1') (A2") (A1')
 The electronic state is 1-A1'.
 Alpha  occ. eigenvalues --  -66.15802 -66.15800 -66.15390 -66.15390 -66.15389
 Alpha  occ. eigenvalues --  -66.15389 -66.15388  -5.30378  -5.30374  -5.29817
 Alpha  occ. eigenvalues --   -5.29815  -5.29815  -5.29810  -5.29810  -3.66341
 Alpha  occ. eigenvalues --   -3.66327  -3.66133  -3.66133  -3.66132  -3.66132
 Alpha  occ. eigenvalues --   -3.65818  -3.65817  -3.65817  -3.65812  -3.65812
 Alpha  occ. eigenvalues --   -3.65511  -3.65511  -3.65504  -3.65504  -3.65502
 Alpha  occ. eigenvalues --   -3.65488  -3.65487  -3.65487  -3.65486  -3.65486
 Alpha  occ. eigenvalues --   -0.68090  -0.53726  -0.53726  -0.46137  -0.38314
 Alpha  occ. eigenvalues --   -0.38314  -0.37257  -0.27970  -0.27970  -0.26897
 Alpha  occ. eigenvalues --   -0.24437  -0.24437  -0.23016  -0.23016
 Alpha virt. eigenvalues --   -0.11462  -0.08527  -0.08527  -0.04223  -0.04223
 Alpha virt. eigenvalues --   -0.03572  -0.02424  -0.02424  -0.02285   0.00601
 Alpha virt. eigenvalues --    0.00601   0.02922   0.02922   0.09948   0.12748
 Alpha virt. eigenvalues --    0.12748   0.13955   0.16154   0.16154   0.16204
 Alpha virt. eigenvalues --    0.16204   0.16920   0.16920   0.17099   0.18910
 Alpha virt. eigenvalues --    0.18910   0.19346   0.19621   0.23843   0.23843
 Alpha virt. eigenvalues --    0.24228   0.24228   0.25637   0.28451   0.28451
 Alpha virt. eigenvalues --    0.28982   0.29073   0.29073   0.30952   0.30952
 Alpha virt. eigenvalues --    0.35199   0.35199   0.36573   0.37602   0.37602
 Alpha virt. eigenvalues --    0.37910   0.37910   0.38321   0.38321   0.39588
 Alpha virt. eigenvalues --    0.39588   0.39957   0.47331   0.49323   0.49323
 Alpha virt. eigenvalues --    0.49930   0.49972   0.49972   0.57038   0.57038
 Alpha virt. eigenvalues --    0.58562   0.61810   0.62393   0.62393   0.63018
 Alpha virt. eigenvalues --    0.63018   0.63747   0.63747   0.65353   0.65353
 Alpha virt. eigenvalues --    0.67683   0.67683   0.70053   0.74339   0.75676
 Alpha virt. eigenvalues --    0.75676   0.80984   0.86534   0.86534   0.86657
 Alpha virt. eigenvalues --    0.86657   0.87364   0.87364   0.90043   0.90043
 Alpha virt. eigenvalues --    0.90132   0.90705   0.96808   0.96808   1.00249
 Alpha virt. eigenvalues --    1.00944   1.00944   1.02707   1.02707   1.03003
 Alpha virt. eigenvalues --    1.07524   1.07524   1.11371   1.11371   1.16799
 Alpha virt. eigenvalues --    1.16799   1.17190   1.18659   1.18659   1.19086
 Alpha virt. eigenvalues --    1.19086   1.22338   1.22338   1.22418   1.25467
 Alpha virt. eigenvalues --    1.25467   1.26007   1.26114   1.26114   1.31925
 Alpha virt. eigenvalues --    1.31925   1.32718   1.35812   1.35812   1.39372
 Alpha virt. eigenvalues --    1.39372   1.40232   1.40232   1.45116   1.45116
 Alpha virt. eigenvalues --    1.45630   1.51185   1.51185   1.51658   1.51658
 Alpha virt. eigenvalues --    1.52305   1.56148   1.70549   1.70549   1.71646
 Alpha virt. eigenvalues --    1.76575   1.76575   1.77125   1.77125   1.79058
 Alpha virt. eigenvalues --    1.79058   1.83335   1.85228   1.85228   1.86044
 Alpha virt. eigenvalues --    1.86785   1.86785   1.93194   1.93194   1.95107
 Alpha virt. eigenvalues --    1.96705   1.98683   1.98683   2.01646   2.01646
 Alpha virt. eigenvalues --    2.04375   2.05128   2.05128   2.09435   2.09435
 Alpha virt. eigenvalues --    2.11006   2.11006   2.12838   2.14442   2.17509
 Alpha virt. eigenvalues --    2.17509   2.26340   2.26340   2.42815   2.78570
 Alpha virt. eigenvalues --    2.78570   2.88670   2.88670   2.96827   3.07541
          Condensed to atoms (all electrons):
              1          2          3          4          5          6
     1  Si  13.578842   0.109012  -0.006507  -0.006507   0.109012   0.106917
     2  Si   0.109012  13.578842   0.109012  -0.006507  -0.006507   0.106917
     3  Si  -0.006507   0.109012  13.578842   0.109012  -0.006507   0.106917
     4  Si  -0.006507  -0.006507   0.109012  13.578842   0.109012   0.106917
     5  Si   0.109012  -0.006507  -0.006507   0.109012  13.578842   0.106917
     6  Si   0.106917   0.106917   0.106917   0.106917   0.106917  13.486004
     7  Si   0.106917   0.106917   0.106917   0.106917   0.106917  -0.014800
              7
     1  Si   0.106917
     2  Si   0.106917
     3  Si   0.106917
     4  Si   0.106917
     5  Si   0.106917
     6  Si  -0.014800
     7  Si  13.486004
 Mulliken atomic charges:
              1
     1  Si   0.002315
     2  Si   0.002315
     3  Si   0.002315
     4  Si   0.002315
     5  Si   0.002315
     6  Si  -0.005787
     7  Si  -0.005787
 Sum of Mulliken atomic charges =   0.00000
 Mulliken charges with hydrogens summed into heavy atoms:
              1
     1  Si   0.002315
     2  Si   0.002315
     3  Si   0.002315
     4  Si   0.002315
     5  Si   0.002315
     6  Si  -0.005787
     7  Si  -0.005787
 Sum of Mulliken charges with hydrogens summed into heavy atoms =   0.00000
 Electronic spatial extent (au):  <R**2>=           1510.9479
 Charge=              0.0000 electrons
 Dipole moment (field-independent basis, Debye):
    X=              0.0000    Y=              0.0000    Z=              0.0000  Tot=              0.0000
 Quadrupole moment (field-independent basis, Debye-Ang):
   XX=            -95.0756   YY=            -95.0756   ZZ=            -87.0892
   XY=              0.0000   XZ=              0.0000   YZ=              0.0000
 Traceless Quadrupole moment (field-independent basis, Debye-Ang):
   XX=             -2.6621   YY=             -2.6621   ZZ=              5.3243
   XY=              0.0000   XZ=              0.0000   YZ=              0.0000
 Octapole moment (field-independent basis, Debye-Ang**2):
  XXX=              0.0000  YYY=              0.0000  ZZZ=              0.0000  XYY=              0.0000
  XXY=              0.0000  XXZ=              0.0000  XZZ=              0.0000  YZZ=              0.0000
  YYZ=              0.0000  XYZ=              0.0000
 Hexadecapole moment (field-independent basis, Debye-Ang**3):
 XXXX=          -1124.6723 YYYY=          -1124.6723 ZZZZ=           -407.7931 XXXY=              0.0000
 XXXZ=              0.0000 YYYX=              0.0000 YYYZ=              0.0000 ZZZX=              0.0000
 ZZZY=              0.0000 XXYY=           -374.8908 XXZZ=           -239.5974 YYZZ=           -239.5974
 XXYZ=              0.0000 YYXZ=              0.0000 ZZXY=              0.0000
 N-N= 7.906396269893D+02 E-N=-6.405252833258D+03  KE= 2.019317671540D+03
 Symmetry A1   KE= 1.030405801541D+03
 Symmetry A2   KE= 7.487774008674D+01
 Symmetry B1   KE= 5.773310597632D+02
 Symmetry B2   KE= 3.367030701486D+02
 Calling FoFJK, ICntrl=      2127 FMM=F ISym2X=1 I1Cent= 0 IOpClX= 0 NMat=1 NMatS=1 NMatT=0.
 ***** Axes restored to original set *****
 -------------------------------------------------------------------
 Center     Atomic                   Forces (Hartrees/Bohr)
 Number     Number              X              Y              Z
 -------------------------------------------------------------------
      1       14           0.000000000   -0.001547010    0.000000000
      2       14           0.001471294   -0.000478052    0.000000000
      3       14           0.000909310    0.001251557    0.000000000
      4       14          -0.000909310    0.001251557    0.000000000
      5       14          -0.001471294   -0.000478052    0.000000000
      6       14           0.000000000    0.000000000    0.003005085
      7       14           0.000000000    0.000000000   -0.003005085
 -------------------------------------------------------------------
 Cartesian Forces:  Max     0.003005085 RMS     0.001195772

 GradGradGradGradGradGradGradGradGradGradGradGradGradGradGradGradGradGrad
 Berny optimization.
 Internal  Forces:  Max     0.001201539 RMS     0.000424449
 Search for a local minimum.
 Step number   1 out of a maximum of   46
 All quantities printed in internal units (Hartrees-Bohrs-Radians)
 Mixed Optimization -- En-DIIS/RFO-DIIS
 Second derivative matrix not updated -- first step.
     Eigenvalues ---    0.05373   0.05373   0.09170   0.09426   0.09426
     Eigenvalues ---    0.09512   0.09512   0.09893   0.09893   0.11613
     Eigenvalues ---    0.11613   0.11886   0.12783   0.12783   0.13466
     Eigenvalues --- 1000.000001000.000001000.000001000.000001000.00000
     Eigenvalues --- 1000.000001000.000001000.000001000.000001000.00000
     Eigenvalues --- 1000.000001000.000001000.000001000.000001000.00000
     Eigenvalues --- 1000.000001000.000001000.000001000.000001000.00000
     Eigenvalues --- 1000.00000
 RFO step:  Lambda=-6.97719462D-05 EMin= 5.37267166D-02
 Linear search not attempted -- first point.
 Iteration  1 RMS(Cart)=  0.00215278 RMS(Int)=  0.00000086
 Iteration  2 RMS(Cart)=  0.00000030 RMS(Int)=  0.00000072
 ClnCor:  largest displacement from symmetrization is 5.88D-13 for atom     3.
 Variable       Old X    -DE/DX   Delta X   Delta X   Delta X     New X
                                 (Linear)    (Quad)   (Total)
    R1        4.74124  -0.00044   0.00000  -0.00511  -0.00511   4.73612
    R2        4.74124  -0.00044   0.00000  -0.00511  -0.00511   4.73612
    R3        4.71186  -0.00063   0.00000  -0.00683  -0.00683   4.70503
    R4        4.71186  -0.00063   0.00000  -0.00683  -0.00683   4.70503
    R5        4.74124  -0.00044   0.00000  -0.00511  -0.00511   4.73612
    R6        4.71186  -0.00063   0.00000  -0.00683  -0.00683   4.70503
    R7        4.71186  -0.00063   0.00000  -0.00683  -0.00683   4.70503
    R8        4.74124  -0.00044   0.00000  -0.00511  -0.00511   4.73612
    R9        4.71186  -0.00063   0.00000  -0.00683  -0.00683   4.70503
   R10        4.71186  -0.00063   0.00000  -0.00683  -0.00683   4.70503
   R11        4.74124  -0.00044   0.00000  -0.00511  -0.00511   4.73612
   R12        4.71186  -0.00063   0.00000  -0.00683  -0.00683   4.70503
   R13        4.71186  -0.00063   0.00000  -0.00683  -0.00683   4.70503
   R14        4.71186  -0.00063   0.00000  -0.00683  -0.00683   4.70503
   R15        4.71186  -0.00063   0.00000  -0.00683  -0.00683   4.70503
   R16        4.87256  -0.00120   0.00000  -0.01203  -0.01203   4.86053
    A1        1.88496   0.00000   0.00000   0.00000   0.00000   1.88496
    A2        1.88496   0.00000   0.00000   0.00000   0.00000   1.88496
    A3        1.88496   0.00000   0.00000   0.00000   0.00000   1.88496
    A4        1.88496   0.00000   0.00000   0.00000   0.00000   1.88496
    A5        1.88496   0.00000   0.00000   0.00000   0.00000   1.88496
    A6        1.90222   0.00012   0.00000   0.00104   0.00104   1.90326
    A7        1.90222   0.00012   0.00000   0.00104   0.00104   1.90326
    A8        1.90222   0.00012   0.00000   0.00104   0.00104   1.90326
    A9        1.90222   0.00012   0.00000   0.00104   0.00104   1.90326
   A10        1.90222   0.00012   0.00000   0.00104   0.00104   1.90326
   A11        1.90222   0.00012   0.00000   0.00104   0.00104   1.90326
   A12        1.90222   0.00012   0.00000   0.00104   0.00104   1.90326
   A13        1.90222   0.00012   0.00000   0.00104   0.00104   1.90326
   A14        1.90222   0.00012   0.00000   0.00104   0.00104   1.90326
   A15        1.90222   0.00012   0.00000   0.00104   0.00104   1.90326
    D1        0.00000   0.00000   0.00000   0.00000   0.00000   0.00000
    D2        0.00000   0.00000   0.00000   0.00000   0.00000   0.00000
    D3        0.00000   0.00000   0.00000   0.00000   0.00000   0.00000
    D4        0.00000   0.00000   0.00000   0.00000   0.00000   0.00000
    D5        0.00000   0.00000   0.00000   0.00000   0.00000   0.00000
         Item               Value     Threshold  Converged?
 Maximum Force            0.001202     0.000450     NO 
 RMS     Force            0.000424     0.000300     NO 
 Maximum Displacement     0.006013     0.001800     NO 
 RMS     Displacement     0.002153     0.001200     NO 
 Predicted change in Energy=-3.491039D-05
 GradGradGradGradGradGradGradGradGradGradGradGradGradGradGradGradGradGrad

                          Input orientation:                          
 ---------------------------------------------------------------------
 Center     Atomic      Atomic             Coordinates (Angstroms)
 Number     Number       Type             X           Y           Z
 ---------------------------------------------------------------------
      1         14           0        0.000000    2.131943    0.000000
      2         14           0       -2.027598    0.658807    0.000000
      3         14           0       -1.253125   -1.724778    0.000000
      4         14           0        1.253125   -1.724778    0.000000
      5         14           0        2.027598    0.658807    0.000000
      6         14           0        0.000000    0.000000   -1.286041
      7         14           0        0.000000    0.000000    1.286041
 ---------------------------------------------------------------------
                    Distance matrix (angstroms):
                    1          2          3          4          5
     1  Si   0.000000
     2  Si   2.506249   0.000000
     3  Si   4.055197   2.506249   0.000000
     4  Si   4.055197   4.055197   2.506249   0.000000
     5  Si   2.506249   4.055197   4.055197   2.506249   0.000000
     6  Si   2.489796   2.489796   2.489796   2.489796   2.489796
     7  Si   2.489796   2.489796   2.489796   2.489796   2.489796
                    6          7
     6  Si   0.000000
     7  Si   2.572082   0.000000
 Stoichiometry    Si7
 Framework group  D5H[C5(Si.Si),5C2(Si)]
 Deg. of freedom     2
 Full point group                 D5H     NOp  20
 Largest Abelian subgroup         C2V     NOp   4
 Largest concise Abelian subgroup C2V     NOp   4
                         Standard orientation:                         
 ---------------------------------------------------------------------
 Center     Atomic      Atomic             Coordinates (Angstroms)
 Number     Number       Type             X           Y           Z
 ---------------------------------------------------------------------
      1         14           0        0.000000    2.131943    0.000000
      2         14           0        2.027598    0.658807    0.000000
      3         14           0        1.253125   -1.724778    0.000000
      4         14           0       -1.253125   -1.724778    0.000000
      5         14           0       -2.027598    0.658807    0.000000
      6         14           0        0.000000    0.000000    1.286041
      7         14           0        0.000000    0.000000   -1.286041
 ---------------------------------------------------------------------
 Rotational constants (GHZ):      1.2313022      1.2313022      0.7948698
 Standard basis: GTBas3 (6D, 7F)
 There are    81 symmetry adapted basis functions of A1  symmetry.
 There are    33 symmetry adapted basis functions of A2  symmetry.
 There are    61 symmetry adapted basis functions of B1  symmetry.
 There are    49 symmetry adapted basis functions of B2  symmetry.
 Integral buffers will be    131072 words long.
 Raffenetti 2 integral format.
 Two-electron integral symmetry is turned on.
   224 basis functions,   476 primitive gaussians,   245 cartesian basis functions
    49 alpha electrons       49 beta electrons
       nuclear repulsion energy       791.7040286901 Hartrees.
 NAtoms=    7 NActive=    7 NUniq=    2 SFac= 3.00D+00 NAtFMM=   80 NAOKFM=F Big=F
 One-electron integrals computed using PRISM.
 NBasis=   224 RedAO= T  NBF=    81    33    61    49
 NBsUse=   224 1.00D-06 NBFU=    81    33    61    49
 Initial guess read from the read-write file.
 B after Tr=     0.000000    0.000000    0.000000
         Rot=    1.000000    0.000000    0.000000    0.000000 Ang=   0.00 deg.
 Initial guess orbital symmetries:
       Occupied  (A1') (A2") (E1') (E1') (E2') (E2') (A1') (A1')
                 (A2") (A1') (E1') (E1') (E2') (E2') (A1') (A2")
                 (E1") (E1") (E1') (E1') (A2") (E2") (E2") (E1")
                 (E1") (E2') (E2') (E1') (E1') (A1') (A2') (E1')
                 (E1') (E2') (E2') (A1') (E1') (E1') (A2") (E2')
                 (E2') (A1') (E1") (E1") (A1') (E1') (E1') (E2')
                 (E2')
       Virtual   (A2") (E2") (E2") (E1') (E1') (A2") (E2') (E2')
                 (A1') (E1') (E1') (E1") (E1") (A2') (E1') (E1')
                 (A1') (E2') (E2') (E2") (E2") (E1") (E1") (A1')
                 (E2') (E2') (A2") (A1') (E2") (E2") (E1') (E1')
                 (A2") (E1') (E1') (A1') (E2') (E2') (E1") (E1")
                 (E1") (E1") (A2') (E1') (E1') (E2") (E2") (E1')
                 (E1') (E2') (E2') (A2") (A1') (E2') (E2') (A1")
                 (E1") (E1") (E1') (E1') (A2") (A1') (E1') (E1')
                 (E2') (E2') (E2") (E2") (E2') (E2') (E1") (E1")
                 (A2") (A2') (E1') (E1') (A1') (E2") (E2") (E1')
                 (E1') (E2') (E2') (E2') (E2') (A2") (A1') (E1")
                 (E1") (A1') (E2') (E2') (E2") (E2") (A2") (E1')
                 (E1') (E1") (E1") (E2') (E2') (A1') (E1") (E1")
                 (E1') (E1') (E1') (E1') (A2') (E2') (E2') (A1')
                 (E2") (E2") (E1') (E1') (A1") (E2") (E2") (E1")
                 (E1") (E2') (E2') (E2") (E2") (A2") (E1') (E1')
                 (E2') (E2') (A2") (A2') (E2") (E2") (A1') (E1")
                 (E1") (E1') (E1') (E2') (E2') (A2") (E1') (E1')
                 (A1') (E1") (E1") (E2") (E2") (A2') (A1") (E1')
                 (E1') (E2') (E2') (A1') (E1') (E1') (E2") (E2")
                 (E1") (E1") (A1') (A2") (E2') (E2') (E2') (E2')
                 (A1') (E2') (E2') (E1') (E1') (A2") (A1')
 Requested convergence on RMS density matrix=1.00D-08 within 128 cycles.
 Requested convergence on MAX density matrix=1.00D-06.
 Requested convergence on             energy=1.00D-06.
 No special actions if energy rises.
 Keep R1 ints in memory in canonical form, NReq=461775787.
 SCF Done:  E(RB3LYP) =  -2026.43940522     A.U. after    7 cycles
             Convg  =    0.6009D-08             -V/T =  2.0035
 QCSCF skips out because SCF is already converged.
 Calling FoFJK, ICntrl=      2127 FMM=F ISym2X=1 I1Cent= 0 IOpClX= 0 NMat=1 NMatS=1 NMatT=0.
 ***** Axes restored to original set *****
 -------------------------------------------------------------------
 Center     Atomic                   Forces (Hartrees/Bohr)
 Number     Number              X              Y              Z
 -------------------------------------------------------------------
      1       14           0.000000000   -0.000799622    0.000000000
      2       14           0.000760485   -0.000247097    0.000000000
      3       14           0.000470006    0.000646908    0.000000000
      4       14          -0.000470006    0.000646908    0.000000000
      5       14          -0.000760485   -0.000247097    0.000000000
      6       14           0.000000000    0.000000000    0.001835404
      7       14           0.000000000    0.000000000   -0.001835404
 -------------------------------------------------------------------
 Cartesian Forces:  Max     0.001835404 RMS     0.000687798

 GradGradGradGradGradGradGradGradGradGradGradGradGradGradGradGradGradGrad
 Berny optimization.
 Using GEDIIS/GDIIS optimizer.
 Internal  Forces:  Max     0.000792470 RMS     0.000243366
 Search for a local minimum.
 Step number   2 out of a maximum of   46
 All quantities printed in internal units (Hartrees-Bohrs-Radians)
 Mixed Optimization -- En-DIIS/RFO-DIIS
 Swaping is turned off.
 Update second derivatives using D2CorX and points    1    2
 DE= -5.47D-05 DEPred=-3.49D-05 R= 1.57D+00
 SS=  1.41D+00  RLast= 2.74D-02 DXNew= 5.0454D-01 8.2307D-02
 Trust test= 1.57D+00 RLast= 2.74D-02 DXMaxT set to 3.00D-01
     Eigenvalues ---    0.04004   0.05368   0.05368   0.09428   0.09428
     Eigenvalues ---    0.09512   0.09512   0.09896   0.09896   0.11621
     Eigenvalues ---    0.11621   0.11842   0.12787   0.12787   0.13481
     Eigenvalues --- 1000.000001000.000001000.000001000.000001000.00000
     Eigenvalues --- 1000.000001000.000001000.000001000.000001000.00000
     Eigenvalues --- 1000.000001000.000001000.000001000.000001000.00000
     Eigenvalues --- 1000.000001000.000001000.000001000.000001000.00000
     Eigenvalues --- 1000.00000
 En-DIIS/RFO-DIIS IScMMF=        0 using points:     2    1
 RFO step:  Lambda=-1.05930083D-05.
 DIIS coeffs:      2.30182     -1.30182
 Iteration  1 RMS(Cart)=  0.00280650 RMS(Int)=  0.00000299
 Iteration  2 RMS(Cart)=  0.00000081 RMS(Int)=  0.00000268
 ClnCor:  largest displacement from symmetrization is 2.06D-12 for atom     5.
 Variable       Old X    -DE/DX   Delta X   Delta X   Delta X     New X
                                  (DIIS)     (GDIIS)  (Total)
    R1        4.73612  -0.00020  -0.00666   0.00087  -0.00579   4.73034
    R2        4.73612  -0.00020  -0.00666   0.00087  -0.00579   4.73034
    R3        4.70503  -0.00035  -0.00889   0.00002  -0.00887   4.69616
    R4        4.70503  -0.00035  -0.00889   0.00002  -0.00887   4.69616
    R5        4.73612  -0.00020  -0.00666   0.00087  -0.00579   4.73034
    R6        4.70503  -0.00035  -0.00889   0.00002  -0.00887   4.69616
    R7        4.70503  -0.00035  -0.00889   0.00002  -0.00887   4.69616
    R8        4.73612  -0.00020  -0.00666   0.00087  -0.00579   4.73034
    R9        4.70503  -0.00035  -0.00889   0.00002  -0.00887   4.69616
   R10        4.70503  -0.00035  -0.00889   0.00002  -0.00887   4.69616
   R11        4.73612  -0.00020  -0.00666   0.00087  -0.00579   4.73034
   R12        4.70503  -0.00035  -0.00889   0.00002  -0.00887   4.69616
   R13        4.70503  -0.00035  -0.00889   0.00002  -0.00887   4.69616
   R14        4.70503  -0.00035  -0.00889   0.00002  -0.00887   4.69616
   R15        4.70503  -0.00035  -0.00889   0.00002  -0.00887   4.69616
   R16        4.86053  -0.00079  -0.01566  -0.00237  -0.01802   4.84251
    A1        1.88496   0.00000   0.00000   0.00000   0.00000   1.88496
    A2        1.88496   0.00000   0.00000   0.00000   0.00000   1.88496
    A3        1.88496   0.00000   0.00000   0.00000   0.00000   1.88496
    A4        1.88496   0.00000   0.00000   0.00000   0.00000   1.88496
    A5        1.88496   0.00000   0.00000   0.00000   0.00000   1.88496
    A6        1.90326   0.00009   0.00136   0.00050   0.00186   1.90513
    A7        1.90326   0.00009   0.00136   0.00050   0.00186   1.90513
    A8        1.90326   0.00009   0.00136   0.00050   0.00186   1.90513
    A9        1.90326   0.00009   0.00136   0.00050   0.00186   1.90513
   A10        1.90326   0.00009   0.00136   0.00050   0.00186   1.90513
   A11        1.90326   0.00009   0.00136   0.00050   0.00186   1.90513
   A12        1.90326   0.00009   0.00136   0.00050   0.00186   1.90513
   A13        1.90326   0.00009   0.00136   0.00050   0.00186   1.90513
   A14        1.90326   0.00009   0.00136   0.00050   0.00186   1.90513
   A15        1.90326   0.00009   0.00136   0.00050   0.00186   1.90513
    D1        0.00000   0.00000   0.00000   0.00000   0.00000   0.00000
    D2        0.00000   0.00000   0.00000   0.00000   0.00000   0.00000
    D3        0.00000   0.00000   0.00000   0.00000   0.00000   0.00000
    D4        0.00000   0.00000   0.00000   0.00000   0.00000   0.00000
    D5        0.00000   0.00000   0.00000   0.00000   0.00000   0.00000
         Item               Value     Threshold  Converged?
 Maximum Force            0.000792     0.000450     NO 
 RMS     Force            0.000243     0.000300     YES
 Maximum Displacement     0.009011     0.001800     NO 
 RMS     Displacement     0.002807     0.001200     NO 
 Predicted change in Energy=-2.637683D-05
 GradGradGradGradGradGradGradGradGradGradGradGradGradGradGradGradGradGrad

                          Input orientation:                          
 ---------------------------------------------------------------------
 Center     Atomic      Atomic             Coordinates (Angstroms)
 Number     Number       Type             X           Y           Z
 ---------------------------------------------------------------------
      1         14           0        0.000000    2.129337    0.000000
      2         14           0       -2.025120    0.658001    0.000000
      3         14           0       -1.251593   -1.722670    0.000000
      4         14           0        1.251593   -1.722670    0.000000
      5         14           0        2.025120    0.658001    0.000000
      6         14           0        0.000000    0.000000   -1.281273
      7         14           0        0.000000    0.000000    1.281273
 ---------------------------------------------------------------------
                    Distance matrix (angstroms):
                    1          2          3          4          5
     1  Si   0.000000
     2  Si   2.503186   0.000000
     3  Si   4.050240   2.503186   0.000000
     4  Si   4.050240   4.050240   2.503186   0.000000
     5  Si   2.503186   4.050240   4.050240   2.503186   0.000000
     6  Si   2.485103   2.485103   2.485103   2.485103   2.485103
     7  Si   2.485103   2.485103   2.485103   2.485103   2.485103
                    6          7
     6  Si   0.000000
     7  Si   2.562546   0.000000
 Stoichiometry    Si7
 Framework group  D5H[C5(Si.Si),5C2(Si)]
 Deg. of freedom     2
 Full point group                 D5H     NOp  20
 Largest Abelian subgroup         C2V     NOp   4
 Largest concise Abelian subgroup C2V     NOp   4
                         Standard orientation:                         
 ---------------------------------------------------------------------
 Center     Atomic      Atomic             Coordinates (Angstroms)
 Number     Number       Type             X           Y           Z
 ---------------------------------------------------------------------
      1         14           0        0.000000    2.129337    0.000000
      2         14           0        2.025120    0.658001    0.000000
      3         14           0        1.251593   -1.722670    0.000000
      4         14           0       -1.251593   -1.722670    0.000000
      5         14           0       -2.025120    0.658001    0.000000
      6         14           0        0.000000    0.000000    1.281273
      7         14           0        0.000000    0.000000   -1.281273
 ---------------------------------------------------------------------
 Rotational constants (GHZ):      1.2357028      1.2357028      0.7968165
 Standard basis: GTBas3 (6D, 7F)
 There are    81 symmetry adapted basis functions of A1  symmetry.
 There are    33 symmetry adapted basis functions of A2  symmetry.
 There are    61 symmetry adapted basis functions of B1  symmetry.
 There are    49 symmetry adapted basis functions of B2  symmetry.
 Integral buffers will be    131072 words long.
 Raffenetti 2 integral format.
 Two-electron integral symmetry is turned on.
   224 basis functions,   476 primitive gaussians,   245 cartesian basis functions
    49 alpha electrons       49 beta electrons
       nuclear repulsion energy       793.0504942503 Hartrees.
 NAtoms=    7 NActive=    7 NUniq=    2 SFac= 3.00D+00 NAtFMM=   80 NAOKFM=F Big=F
 One-electron integrals computed using PRISM.
 NBasis=   224 RedAO= T  NBF=    81    33    61    49
 NBsUse=   224 1.00D-06 NBFU=    81    33    61    49
 Initial guess read from the read-write file.
 B after Tr=     0.000000    0.000000    0.000000
         Rot=    1.000000    0.000000    0.000000    0.000000 Ang=   0.00 deg.
 Initial guess orbital symmetries:
       Occupied  (A1') (A2") (E1') (E1') (E2') (E2') (A1') (A1')
                 (A2") (A1') (E1') (E1') (E2') (E2') (A1') (A2")
                 (E1") (E1") (E1') (E1') (A2") (E2") (E2") (E1")
                 (E1") (E2') (E2') (E1') (E1') (A1') (A2') (E1')
                 (E1') (E2') (E2') (A1') (E1') (E1') (A2") (E2')
                 (E2') (A1') (E1") (E1") (A1') (E1') (E1') (E2')
                 (E2')
       Virtual   (A2") (E2") (E2") (E1') (E1') (A2") (E2') (E2')
                 (A1') (E1') (E1') (E1") (E1") (A2') (E1') (E1')
                 (A1') (E2') (E2') (E2") (E2") (E1") (E1") (A1')
                 (E2') (E2') (A2") (A1') (E2") (E2") (E1') (E1')
                 (A2") (E1') (E1') (A1') (E2') (E2') (E1") (E1")
                 (E1") (E1") (A2') (E1') (E1') (E2") (E2") (E1')
                 (E1') (E2') (E2') (A2") (A1') (E2') (E2') (A1")
                 (E1") (E1") (E1') (E1') (A2") (A1') (E1') (E1')
                 (E2') (E2') (E2") (E2") (E2') (E2') (E1") (E1")
                 (A2") (A2') (E1') (E1') (A1') (E2") (E2") (E1')
                 (E1') (E2') (E2') (E2') (E2') (A2") (A1') (E1")
                 (E1") (A1') (E2') (E2') (E2") (E2") (A2") (E1')
                 (E1') (E1") (E1") (E2') (E2') (A1') (E1") (E1")
                 (E1') (E1') (E1') (E1') (A2') (E2') (E2') (A1')
                 (E2") (E2") (E1') (E1') (A1") (E2") (E2") (E1")
                 (E1") (E2') (E2') (E2") (E2") (A2") (E1') (E1')
                 (E2') (E2') (A2") (A2') (E2") (E2") (A1') (E1")
                 (E1") (E1') (E1') (E2') (E2') (A2") (E1') (E1')
                 (A1') (E1") (E1") (E2") (E2") (A2') (A1") (E1')
                 (E1') (E2') (E2') (A1') (E1') (E1') (E2") (E2")
                 (E1") (E1") (A1') (A2") (E2') (E2') (E2') (E2')
                 (A1') (E2') (E2') (E1') (E1') (A2") (A1')
 Requested convergence on RMS density matrix=1.00D-08 within 128 cycles.
 Requested convergence on MAX density matrix=1.00D-06.
 Requested convergence on             energy=1.00D-06.
 No special actions if energy rises.
 Keep R1 ints in memory in canonical form, NReq=461775787.
 SCF Done:  E(RB3LYP) =  -2026.43943156     A.U. after    7 cycles
             Convg  =    0.8126D-08             -V/T =  2.0035
 QCSCF skips out because SCF is already converged.
 Calling FoFJK, ICntrl=      2127 FMM=F ISym2X=1 I1Cent= 0 IOpClX= 0 NMat=1 NMatS=1 NMatT=0.
 ***** Axes restored to original set *****
 -------------------------------------------------------------------
 Center     Atomic                   Forces (Hartrees/Bohr)
 Number     Number              X              Y              Z
 -------------------------------------------------------------------
      1       14           0.000000000    0.000095892    0.000000000
      2       14          -0.000091199    0.000029632    0.000000000
      3       14          -0.000056364   -0.000077578    0.000000000
      4       14           0.000056364   -0.000077578    0.000000000
      5       14           0.000091199    0.000029632    0.000000000
      6       14           0.000000000    0.000000000    0.000117988
      7       14           0.000000000    0.000000000   -0.000117988
 -------------------------------------------------------------------
 Cartesian Forces:  Max     0.000117988 RMS     0.000059289

 GradGradGradGradGradGradGradGradGradGradGradGradGradGradGradGradGradGrad
 Berny optimization.
 Using GEDIIS/GDIIS optimizer.
 Internal  Forces:  Max     0.000109790 RMS     0.000031462
 Search for a local minimum.
 Step number   3 out of a maximum of   46
 All quantities printed in internal units (Hartrees-Bohrs-Radians)
 Mixed Optimization -- En-DIIS/RFO-DIIS
 Swaping is turned off.
 Update second derivatives using D2CorX and points    1    2    3
 DE= -2.63D-05 DEPred=-2.64D-05 R= 9.99D-01
 SS=  1.41D+00  RLast= 3.62D-02 DXNew= 5.0454D-01 1.0873D-01
 Trust test= 9.99D-01 RLast= 3.62D-02 DXMaxT set to 3.00D-01
     Eigenvalues ---    0.04029   0.05362   0.05362   0.09429   0.09429
     Eigenvalues ---    0.09513   0.09513   0.09900   0.09900   0.11633
     Eigenvalues ---    0.11633   0.11898   0.12789   0.12789   0.13504
     Eigenvalues --- 1000.000001000.000001000.000001000.000001000.00000
     Eigenvalues --- 1000.000001000.000001000.000001000.000001000.00000
     Eigenvalues --- 1000.000001000.000001000.000001000.000001000.00000
     Eigenvalues --- 1000.000001000.000001000.000001000.000001000.00000
     Eigenvalues --- 1000.00000
 En-DIIS/RFO-DIIS IScMMF=        0 using points:     3    2    1
 RFO step:  Lambda=-1.03313556D-07.
 DIIS coeffs:      1.84044     -1.97513      1.13469
 Iteration  1 RMS(Cart)=  0.00034608 RMS(Int)=  0.00000193
 Iteration  2 RMS(Cart)=  0.00000002 RMS(Int)=  0.00000193
 ClnCor:  largest displacement from symmetrization is 3.14D-12 for atom     2.
 Variable       Old X    -DE/DX   Delta X   Delta X   Delta X     New X
                                  (DIIS)     (GDIIS)  (Total)
    R1        4.73034   0.00006   0.00094   0.00000   0.00094   4.73127
    R2        4.73034   0.00006   0.00094   0.00000   0.00094   4.73127
    R3        4.69616   0.00001   0.00030   0.00000   0.00030   4.69646
    R4        4.69616   0.00001   0.00030   0.00000   0.00030   4.69646
    R5        4.73034   0.00006   0.00094   0.00000   0.00094   4.73127
    R6        4.69616   0.00001   0.00030   0.00000   0.00030   4.69646
    R7        4.69616   0.00001   0.00030   0.00000   0.00030   4.69646
    R8        4.73034   0.00006   0.00094   0.00000   0.00094   4.73127
    R9        4.69616   0.00001   0.00030   0.00000   0.00030   4.69646
   R10        4.69616   0.00001   0.00030   0.00000   0.00030   4.69646
   R11        4.73034   0.00006   0.00094   0.00000   0.00094   4.73127
   R12        4.69616   0.00001   0.00030   0.00000   0.00030   4.69646
   R13        4.69616   0.00001   0.00030   0.00000   0.00030   4.69646
   R14        4.69616   0.00001   0.00030   0.00000   0.00030   4.69646
   R15        4.69616   0.00001   0.00030   0.00000   0.00030   4.69646
   R16        4.84251  -0.00011  -0.00150   0.00000  -0.00150   4.84101
    A1        1.88496   0.00000   0.00000   0.00000   0.00000   1.88496
    A2        1.88496   0.00000   0.00000   0.00000   0.00000   1.88496
    A3        1.88496   0.00000   0.00000   0.00000   0.00000   1.88496
    A4        1.88496   0.00000   0.00000   0.00000   0.00000   1.88496
    A5        1.88496   0.00000   0.00000   0.00000   0.00000   1.88496
    A6        1.90513   0.00003   0.00038   0.00000   0.00038   1.90551
    A7        1.90513   0.00003   0.00038   0.00000   0.00038   1.90551
    A8        1.90513   0.00003   0.00038   0.00000   0.00038   1.90551
    A9        1.90513   0.00003   0.00038   0.00000   0.00038   1.90551
   A10        1.90513   0.00003   0.00038   0.00000   0.00038   1.90551
   A11        1.90513   0.00003   0.00038   0.00000   0.00038   1.90551
   A12        1.90513   0.00003   0.00038   0.00000   0.00038   1.90551
   A13        1.90513   0.00003   0.00038   0.00000   0.00038   1.90551
   A14        1.90513   0.00003   0.00038   0.00000   0.00038   1.90551
   A15        1.90513   0.00003   0.00038   0.00000   0.00038   1.90551
    D1        0.00000   0.00000   0.00000   0.00000   0.00000   0.00000
    D2        0.00000   0.00000   0.00000   0.00000   0.00000   0.00000
    D3        0.00000   0.00000   0.00000   0.00000   0.00000   0.00000
    D4        0.00000   0.00000   0.00000   0.00000   0.00000   0.00000
    D5        0.00000   0.00000   0.00000   0.00000   0.00000   0.00000
         Item               Value     Threshold  Converged?
 Maximum Force            0.000110     0.000450     YES
 RMS     Force            0.000031     0.000300     YES
 Maximum Displacement     0.000798     0.001800     YES
 RMS     Displacement     0.000346     0.001200     YES
 Predicted change in Energy=-3.379800D-08
 Optimization completed.
    -- Stationary point found.
                           ----------------------------
                           !   Optimized Parameters   !
                           ! (Angstroms and Degrees)  !
 --------------------------                            --------------------------
 ! Name  Definition              Value          Derivative Info.                !
 --------------------------------------------------------------------------------
 ! R1    R(1,2)                  2.5032         -DE/DX =    0.0001              !
 ! R2    R(1,5)                  2.5032         -DE/DX =    0.0001              !
 ! R3    R(1,6)                  2.4851         -DE/DX =    0.0                 !
 ! R4    R(1,7)                  2.4851         -DE/DX =    0.0                 !
 ! R5    R(2,3)                  2.5032         -DE/DX =    0.0001              !
 ! R6    R(2,6)                  2.4851         -DE/DX =    0.0                 !
 ! R7    R(2,7)                  2.4851         -DE/DX =    0.0                 !
 ! R8    R(3,4)                  2.5032         -DE/DX =    0.0001              !
 ! R9    R(3,6)                  2.4851         -DE/DX =    0.0                 !
 ! R10   R(3,7)                  2.4851         -DE/DX =    0.0                 !
 ! R11   R(4,5)                  2.5032         -DE/DX =    0.0001              !
 ! R12   R(4,6)                  2.4851         -DE/DX =    0.0                 !
 ! R13   R(4,7)                  2.4851         -DE/DX =    0.0                 !
 ! R14   R(5,6)                  2.4851         -DE/DX =    0.0                 !
 ! R15   R(5,7)                  2.4851         -DE/DX =    0.0                 !
 ! R16   R(6,7)                  2.5625         -DE/DX =   -0.0001              !
 ! A1    A(2,1,5)              108.0            -DE/DX =    0.0                 !
 ! A2    A(1,2,3)              108.0            -DE/DX =    0.0                 !
 ! A3    A(2,3,4)              108.0            -DE/DX =    0.0                 !
 ! A4    A(3,4,5)              108.0            -DE/DX =    0.0                 !
 ! A5    A(1,5,4)              108.0            -DE/DX =    0.0                 !
 ! A6    A(1,6,3)              109.1557         -DE/DX =    0.0                 !
 ! A7    A(1,6,4)              109.1557         -DE/DX =    0.0                 !
 ! A8    A(2,6,4)              109.1557         -DE/DX =    0.0                 !
 ! A9    A(2,6,5)              109.1557         -DE/DX =    0.0                 !
 ! A10   A(3,6,5)              109.1557         -DE/DX =    0.0                 !
 ! A11   A(1,7,3)              109.1557         -DE/DX =    0.0                 !
 ! A12   A(1,7,4)              109.1557         -DE/DX =    0.0                 !
 ! A13   A(2,7,4)              109.1557         -DE/DX =    0.0                 !
 ! A14   A(2,7,5)              109.1557         -DE/DX =    0.0                 !
 ! A15   A(3,7,5)              109.1557         -DE/DX =    0.0                 !
 ! D1    D(5,1,2,3)              0.0            -DE/DX =    0.0                 !
 ! D2    D(2,1,5,4)              0.0            -DE/DX =    0.0                 !
 ! D3    D(1,2,3,4)              0.0            -DE/DX =    0.0                 !
 ! D4    D(2,3,4,5)              0.0            -DE/DX =    0.0                 !
 ! D5    D(3,4,5,1)              0.0            -DE/DX =    0.0                 !
 --------------------------------------------------------------------------------
 GradGradGradGradGradGradGradGradGradGradGradGradGradGradGradGradGradGrad

                          Input orientation:                          
 ---------------------------------------------------------------------
 Center     Atomic      Atomic             Coordinates (Angstroms)
 Number     Number       Type             X           Y           Z
 ---------------------------------------------------------------------
      1         14           0        0.000000    2.129337    0.000000
      2         14           0       -2.025120    0.658001    0.000000
      3         14           0       -1.251593   -1.722670    0.000000
      4         14           0        1.251593   -1.722670    0.000000
      5         14           0        2.025120    0.658001    0.000000
      6         14           0        0.000000    0.000000   -1.281273
      7         14           0        0.000000    0.000000    1.281273
 ---------------------------------------------------------------------
                    Distance matrix (angstroms):
                    1          2          3          4          5
     1  Si   0.000000
     2  Si   2.503186   0.000000
     3  Si   4.050240   2.503186   0.000000
     4  Si   4.050240   4.050240   2.503186   0.000000
     5  Si   2.503186   4.050240   4.050240   2.503186   0.000000
     6  Si   2.485103   2.485103   2.485103   2.485103   2.485103
     7  Si   2.485103   2.485103   2.485103   2.485103   2.485103
                    6          7
     6  Si   0.000000
     7  Si   2.562546   0.000000
 Stoichiometry    Si7
 Framework group  D5H[C5(Si.Si),5C2(Si)]
 Deg. of freedom     2
 Full point group                 D5H     NOp  20
 Largest Abelian subgroup         C2V     NOp   4
 Largest concise Abelian subgroup C2V     NOp   4
                         Standard orientation:                         
 ---------------------------------------------------------------------
 Center     Atomic      Atomic             Coordinates (Angstroms)
 Number     Number       Type             X           Y           Z
 ---------------------------------------------------------------------
      1         14           0        0.000000    2.129337    0.000000
      2         14           0        2.025120    0.658001    0.000000
      3         14           0        1.251593   -1.722670    0.000000
      4         14           0       -1.251593   -1.722670    0.000000
      5         14           0       -2.025120    0.658001    0.000000
      6         14           0        0.000000    0.000000    1.281273
      7         14           0        0.000000    0.000000   -1.281273
 ---------------------------------------------------------------------
 Rotational constants (GHZ):      1.2357028      1.2357028      0.7968165

 **********************************************************************

            Population analysis using the SCF density.

 **********************************************************************

 Orbital symmetries:
       Occupied  (A1') (A2") (E1') (E1') (E2') (E2') (A1') (A1')
                 (A2") (A1') (E1') (E1') (E2') (E2') (A1') (A2")
                 (E1") (E1") (E1') (E1') (A2") (E2") (E2") (E1")
                 (E1") (E2') (E2') (E1') (E1') (A1') (E1') (E1')
                 (A2') (E2') (E2') (A1') (E1') (E1') (A2") (E2')
                 (E2') (A1') (E1") (E1") (A1') (E1') (E1') (E2')
                 (E2')
       Virtual   (A2") (E2") (E2") (E1') (E1') (A2") (E2') (E2')
                 (A1') (E1') (E1') (E1") (E1") (A2') (E1') (E1')
                 (A1') (E2') (E2') (E2") (E2") (E1") (E1") (A1')
                 (E2') (E2') (A2") (A1') (E2") (E2") (E1') (E1')
                 (A2") (E1') (E1') (A1') (E2') (E2') (E1") (E1")
                 (E1") (E1") (A2') (E1') (E1') (E2") (E2") (E1')
                 (E1') (E2') (E2') (A2") (A1') (E2') (E2') (A1")
                 (E1") (E1") (E1') (E1') (A2") (A1') (E1') (E1')
                 (E2') (E2') (E2") (E2") (E2') (E2') (E1") (E1")
                 (A2") (A2') (E1') (E1') (A1') (E2") (E2") (E1')
                 (E1') (E2') (E2') (E2') (E2') (A2") (A1') (E1")
                 (E1") (A1') (E2') (E2') (E2") (E2") (A2") (E1')
                 (E1') (E1") (E1") (E2') (E2') (A1') (E1") (E1")
                 (E1') (E1') (E1') (E1') (A2') (E2') (E2') (A1')
                 (E2") (E2") (E1') (E1') (A1") (E2") (E2") (E1")
                 (E1") (E2') (E2') (E2") (E2") (A2") (E1') (E1')
                 (E2') (E2') (A2") (A2') (E2") (E2") (A1') (E1")
                 (E1") (E1') (E1') (E2') (E2') (A2") (E1') (E1')
                 (A1') (E1") (E1") (E2") (E2") (A2') (A1") (E1')
                 (E1') (E2') (E2') (A1') (E1') (E1') (E2") (E2")
                 (E1") (E1") (A2") (A1') (E2') (E2') (E2') (E2')
                 (A1') (E2') (E2') (E1') (E1') (A2") (A1')
 The electronic state is 1-A1'.
 Alpha  occ. eigenvalues --  -66.15747 -66.15745 -66.15366 -66.15366 -66.15365
 Alpha  occ. eigenvalues --  -66.15365 -66.15365  -5.30344  -5.30340  -5.29801
 Alpha  occ. eigenvalues --   -5.29799  -5.29799  -5.29794  -5.29794  -3.66307
 Alpha  occ. eigenvalues --   -3.66290  -3.66099  -3.66099  -3.66099  -3.66099
 Alpha  occ. eigenvalues --   -3.65802  -3.65800  -3.65800  -3.65794  -3.65794
 Alpha  occ. eigenvalues --   -3.65496  -3.65496  -3.65489  -3.65489  -3.65487
 Alpha  occ. eigenvalues --   -3.65472  -3.65472  -3.65471  -3.65471  -3.65471
 Alpha  occ. eigenvalues --   -0.68378  -0.53889  -0.53889  -0.46174  -0.38341
 Alpha  occ. eigenvalues --   -0.38341  -0.37284  -0.28045  -0.28045  -0.26898
 Alpha  occ. eigenvalues --   -0.24499  -0.24499  -0.23025  -0.23025
 Alpha virt. eigenvalues --   -0.11372  -0.08522  -0.08522  -0.04167  -0.04167
 Alpha virt. eigenvalues --   -0.03497  -0.02416  -0.02416  -0.02290   0.00669
 Alpha virt. eigenvalues --    0.00669   0.02989   0.02989   0.10059   0.12673
 Alpha virt. eigenvalues --    0.12673   0.13940   0.16129   0.16129   0.16190
 Alpha virt. eigenvalues --    0.16190   0.16969   0.16969   0.17157   0.18913
 Alpha virt. eigenvalues --    0.18913   0.19425   0.19682   0.23818   0.23818
 Alpha virt. eigenvalues --    0.24325   0.24325   0.25688   0.28505   0.28505
 Alpha virt. eigenvalues --    0.29081   0.29158   0.29158   0.30973   0.30973
 Alpha virt. eigenvalues --    0.35286   0.35286   0.36618   0.37722   0.37722
 Alpha virt. eigenvalues --    0.38001   0.38001   0.38406   0.38406   0.39644
 Alpha virt. eigenvalues --    0.39644   0.40200   0.47481   0.49448   0.49448
 Alpha virt. eigenvalues --    0.50069   0.50106   0.50106   0.57153   0.57153
 Alpha virt. eigenvalues --    0.58838   0.61806   0.62457   0.62457   0.63216
 Alpha virt. eigenvalues --    0.63216   0.63956   0.63956   0.65375   0.65375
 Alpha virt. eigenvalues --    0.67854   0.67854   0.70224   0.74569   0.75901
 Alpha virt. eigenvalues --    0.75901   0.81132   0.86739   0.86739   0.86908
 Alpha virt. eigenvalues --    0.86908   0.87464   0.87464   0.90171   0.90171
 Alpha virt. eigenvalues --    0.90240   0.90918   0.96990   0.96990   1.00450
 Alpha virt. eigenvalues --    1.01085   1.01085   1.02773   1.02773   1.03255
 Alpha virt. eigenvalues --    1.07741   1.07741   1.11732   1.11732   1.17024
 Alpha virt. eigenvalues --    1.17024   1.17647   1.18810   1.18810   1.19302
 Alpha virt. eigenvalues --    1.19302   1.22564   1.22564   1.22573   1.25753
 Alpha virt. eigenvalues --    1.25753   1.26196   1.26367   1.26367   1.32225
 Alpha virt. eigenvalues --    1.32225   1.32940   1.36195   1.36195   1.39746
 Alpha virt. eigenvalues --    1.39746   1.40630   1.40630   1.45468   1.45468
 Alpha virt. eigenvalues --    1.46217   1.51439   1.51439   1.52063   1.52063
 Alpha virt. eigenvalues --    1.52689   1.56401   1.70802   1.70802   1.72482
 Alpha virt. eigenvalues --    1.76235   1.76235   1.76796   1.76796   1.79170
 Alpha virt. eigenvalues --    1.79170   1.83899   1.85535   1.85535   1.86507
 Alpha virt. eigenvalues --    1.86904   1.86904   1.92502   1.92502   1.94936
 Alpha virt. eigenvalues --    1.96898   1.98890   1.98890   2.02082   2.02082
 Alpha virt. eigenvalues --    2.05388   2.05720   2.05720   2.10121   2.10121
 Alpha virt. eigenvalues --    2.11523   2.11523   2.13486   2.13683   2.17816
 Alpha virt. eigenvalues --    2.17816   2.26259   2.26259   2.42993   2.78807
 Alpha virt. eigenvalues --    2.78807   2.88877   2.88877   2.97463   3.08506
          Condensed to atoms (all electrons):
              1          2          3          4          5          6
     1  Si  13.577920   0.108879  -0.006457  -0.006457   0.108879   0.107799
     2  Si   0.108879  13.577920   0.108879  -0.006457  -0.006457   0.107799
     3  Si  -0.006457   0.108879  13.577920   0.108879  -0.006457   0.107799
     4  Si  -0.006457  -0.006457   0.108879  13.577920   0.108879   0.107799
     5  Si   0.108879  -0.006457  -0.006457   0.108879  13.577920   0.107799
     6  Si   0.107799   0.107799   0.107799   0.107799   0.107799  13.481269
     7  Si   0.107799   0.107799   0.107799   0.107799   0.107799  -0.016164
              7
     1  Si   0.107799
     2  Si   0.107799
     3  Si   0.107799
     4  Si   0.107799
     5  Si   0.107799
     6  Si  -0.016164
     7  Si  13.481269
 Mulliken atomic charges:
              1
     1  Si   0.001639
     2  Si   0.001639
     3  Si   0.001639
     4  Si   0.001639
     5  Si   0.001639
     6  Si  -0.004098
     7  Si  -0.004098
 Sum of Mulliken atomic charges =   0.00000
 Mulliken charges with hydrogens summed into heavy atoms:
              1
     1  Si   0.001639
     2  Si   0.001639
     3  Si   0.001639
     4  Si   0.001639
     5  Si   0.001639
     6  Si  -0.004098
     7  Si  -0.004098
 Sum of Mulliken charges with hydrogens summed into heavy atoms =   0.00000
 Electronic spatial extent (au):  <R**2>=           1503.5503
 Charge=              0.0000 electrons
 Dipole moment (field-independent basis, Debye):
    X=              0.0000    Y=              0.0000    Z=              0.0000  Tot=              0.0000
 Quadrupole moment (field-independent basis, Debye-Ang):
   XX=            -94.9918   YY=            -94.9918   ZZ=            -87.0898
   XY=              0.0000   XZ=              0.0000   YZ=              0.0000
 Traceless Quadrupole moment (field-independent basis, Debye-Ang):
   XX=             -2.6340   YY=             -2.6340   ZZ=              5.2680
   XY=              0.0000   XZ=              0.0000   YZ=              0.0000
 Octapole moment (field-independent basis, Debye-Ang**2):
  XXX=              0.0000  YYY=              0.0000  ZZZ=              0.0000  XYY=              0.0000
  XXY=              0.0000  XXZ=              0.0000  XZZ=              0.0000  YZZ=              0.0000
  YYZ=              0.0000  XYZ=              0.0000
 Hexadecapole moment (field-independent basis, Debye-Ang**3):
 XXXX=          -1119.4970 YYYY=          -1119.4970 ZZZZ=           -404.7982 XXXY=              0.0000
 XXXZ=              0.0000 YYYX=              0.0000 YYYZ=              0.0000 ZZZX=              0.0000
 ZZZY=              0.0000 XXYY=           -373.1657 XXZZ=           -238.2450 YYZZ=           -238.2450
 XXYZ=              0.0000 YYXZ=              0.0000 ZZXY=              0.0000
 N-N= 7.930504942503D+02 E-N=-6.410103197643D+03  KE= 2.019357090194D+03
 Symmetry A1   KE= 1.030426802779D+03
 Symmetry A2   KE= 7.488280774248D+01
 Symmetry B1   KE= 5.773416677089D+02
 Symmetry B2   KE= 3.367058119632D+02
 1\1\GINC-NODE43\FOpt\RB3LYP\GTBas3\Si7\TAM\20-Dec-2011\0\\# G4 scfcyc=
 500 scf=xqc\\si7-n\\0,1\Si,-0.000000001,2.1293371137,0.\Si,-2.02511993
 77,0.6580013539,0.\Si,-1.2515929518,-1.7226699123,0.\Si,1.2515929534,-
 1.7226699111,0.\Si,2.0251199371,0.6580013559,0.\Si,0.,0.,-1.2812727655
 \Si,0.,0.,1.2812727655\\Version=AM64L-G09RevA.02\State=1-A1'\HF=-2026.
 4394316\RMSD=8.126e-09\RMSF=5.929e-05\Dipole=0.,0.,0.\Quadrupole=-1.95
 83159,-1.9583159,3.9166317,0.,0.,0.\PG=D05H [C5(Si1.Si1),5C2(Si1)]\\@


 O WAD SOME POWER THE GIFTIE GIE US       
 TO SEE OURSELS AS OTHERS SEE US.....     
 IT WOULD FRAE MONIE A BLUNDER FREE US,   
                     AND FOOLISH NOTION...
 WHAT AIRS IN DRESS AND GAIT WAD LEA'E US,
                     AND EV'N DEVOTION....
                                          
              (ROBERT BURNS 'TO A LOUSE') 
 Job cpu time:  0 days  0 hours  7 minutes 38.4 seconds.
 File lengths (MBytes):  RWF=     26 Int=      0 D2E=      0 Chk=     12 Scr=      1
 Normal termination of Gaussian 09 at Tue Dec 20 19:04:15 2011.
 Link1:  Proceeding to internal job step number  2.
 ----------------------------------------------------------
 #N Geom=AllCheck Guess=TCheck SCRF=Check B3LYP/GTBas3 Freq
 ----------------------------------------------------------
 1/10=4,29=7,30=1,38=1,40=1/1,3;
 2/12=2,40=1/2;
 3/5=35,11=2,14=-4,16=1,25=1,30=1,70=2,71=2,74=-5,116=-2/1,2,3;
 4/5=101/1;
 5/5=2,7=500,8=3,13=1,98=1/2,8;
 8/6=4,10=90,11=11/1;
 11/6=1,8=1,9=11,15=111,16=1/1,2,10;
 10/6=1/2;
 6/7=2,8=2,9=2,10=2,18=1,28=1/1;
 7/8=1,10=1,25=1/1,2,3,16;
 1/10=4,30=1/3;
 99//99;
 -----
 si7-n
 -----
 Redundant internal coordinates taken from checkpoint file:
 S9L-ne-d-01.chk
 Charge =  0 Multiplicity = 1
 Si,0,-0.000000001,2.1293371137,0.
 Si,0,-2.0251199377,0.6580013539,0.
 Si,0,-1.2515929518,-1.7226699123,0.
 Si,0,1.2515929534,-1.7226699111,0.
 Si,0,2.0251199371,0.6580013559,0.
 Si,0,0.,0.,-1.2812727655
 Si,0,0.,0.,1.2812727655
 Recover connectivity data from disk.

 GradGradGradGradGradGradGradGradGradGradGradGradGradGradGradGradGradGrad
 Berny optimization.
 Initialization pass.
                           ----------------------------
                           !    Initial Parameters    !
                           ! (Angstroms and Degrees)  !
 --------------------------                            --------------------------
 ! Name  Definition              Value          Derivative Info.                !
 --------------------------------------------------------------------------------
 ! R1    R(1,2)                  2.5032         calculate D2E/DX2 analytically  !
 ! R2    R(1,5)                  2.5032         calculate D2E/DX2 analytically  !
 ! R3    R(1,6)                  2.4851         calculate D2E/DX2 analytically  !
 ! R4    R(1,7)                  2.4851         calculate D2E/DX2 analytically  !
 ! R5    R(2,3)                  2.5032         calculate D2E/DX2 analytically  !
 ! R6    R(2,6)                  2.4851         calculate D2E/DX2 analytically  !
 ! R7    R(2,7)                  2.4851         calculate D2E/DX2 analytically  !
 ! R8    R(3,4)                  2.5032         calculate D2E/DX2 analytically  !
 ! R9    R(3,6)                  2.4851         calculate D2E/DX2 analytically  !
 ! R10   R(3,7)                  2.4851         calculate D2E/DX2 analytically  !
 ! R11   R(4,5)                  2.5032         calculate D2E/DX2 analytically  !
 ! R12   R(4,6)                  2.4851         calculate D2E/DX2 analytically  !
 ! R13   R(4,7)                  2.4851         calculate D2E/DX2 analytically  !
 ! R14   R(5,6)                  2.4851         calculate D2E/DX2 analytically  !
 ! R15   R(5,7)                  2.4851         calculate D2E/DX2 analytically  !
 ! R16   R(6,7)                  2.5625         calculate D2E/DX2 analytically  !
 ! A1    A(2,1,5)              108.0            calculate D2E/DX2 analytically  !
 ! A2    A(1,2,3)              108.0            calculate D2E/DX2 analytically  !
 ! A3    A(2,3,4)              108.0            calculate D2E/DX2 analytically  !
 ! A4    A(3,4,5)              108.0            calculate D2E/DX2 analytically  !
 ! A5    A(1,5,4)              108.0            calculate D2E/DX2 analytically  !
 ! A6    A(1,6,3)              109.1557         calculate D2E/DX2 analytically  !
 ! A7    A(1,6,4)              109.1557         calculate D2E/DX2 analytically  !
 ! A8    A(2,6,4)              109.1557         calculate D2E/DX2 analytically  !
 ! A9    A(2,6,5)              109.1557         calculate D2E/DX2 analytically  !
 ! A10   A(3,6,5)              109.1557         calculate D2E/DX2 analytically  !
 ! A11   A(1,7,3)              109.1557         calculate D2E/DX2 analytically  !
 ! A12   A(1,7,4)              109.1557         calculate D2E/DX2 analytically  !
 ! A13   A(2,7,4)              109.1557         calculate D2E/DX2 analytically  !
 ! A14   A(2,7,5)              109.1557         calculate D2E/DX2 analytically  !
 ! A15   A(3,7,5)              109.1557         calculate D2E/DX2 analytically  !
 ! D1    D(5,1,2,3)              0.0            calculate D2E/DX2 analytically  !
 ! D2    D(2,1,5,4)              0.0            calculate D2E/DX2 analytically  !
 ! D3    D(1,2,3,4)              0.0            calculate D2E/DX2 analytically  !
 ! D4    D(2,3,4,5)              0.0            calculate D2E/DX2 analytically  !
 ! D5    D(3,4,5,1)              0.0            calculate D2E/DX2 analytically  !
 --------------------------------------------------------------------------------
 Trust Radius=3.00D-01 FncErr=1.00D-07 GrdErr=1.00D-07
 Number of steps in this run=   2 maximum allowed number of steps=   2.
 GradGradGradGradGradGradGradGradGradGradGradGradGradGradGradGradGradGrad

                          Input orientation:                          
 ---------------------------------------------------------------------
 Center     Atomic      Atomic             Coordinates (Angstroms)
 Number     Number       Type             X           Y           Z
 ---------------------------------------------------------------------
      1         14           0        0.000000    2.129337    0.000000
      2         14           0       -2.025120    0.658001    0.000000
      3         14           0       -1.251593   -1.722670    0.000000
      4         14           0        1.251593   -1.722670    0.000000
      5         14           0        2.025120    0.658001    0.000000
      6         14           0        0.000000    0.000000   -1.281273
      7         14           0        0.000000    0.000000    1.281273
 ---------------------------------------------------------------------
                    Distance matrix (angstroms):
                    1          2          3          4          5
     1  Si   0.000000
     2  Si   2.503186   0.000000
     3  Si   4.050240   2.503186   0.000000
     4  Si   4.050240   4.050240   2.503186   0.000000
     5  Si   2.503186   4.050240   4.050240   2.503186   0.000000
     6  Si   2.485103   2.485103   2.485103   2.485103   2.485103
     7  Si   2.485103   2.485103   2.485103   2.485103   2.485103
                    6          7
     6  Si   0.000000
     7  Si   2.562546   0.000000
 Stoichiometry    Si7
 Framework group  D5H[C5(Si.Si),5C2(Si)]
 Deg. of freedom     2
 Full point group                 D5H     NOp  20
 Largest Abelian subgroup         C2V     NOp   4
 Largest concise Abelian subgroup C2V     NOp   4
                         Standard orientation:                         
 ---------------------------------------------------------------------
 Center     Atomic      Atomic             Coordinates (Angstroms)
 Number     Number       Type             X           Y           Z
 ---------------------------------------------------------------------
      1         14           0        0.000000    2.129337    0.000000
      2         14           0        2.025120    0.658001    0.000000
      3         14           0        1.251593   -1.722670    0.000000
      4         14           0       -1.251593   -1.722670    0.000000
      5         14           0       -2.025120    0.658001    0.000000
      6         14           0        0.000000    0.000000    1.281273
      7         14           0        0.000000    0.000000   -1.281273
 ---------------------------------------------------------------------
 Rotational constants (GHZ):      1.2357028      1.2357028      0.7968165
 Standard basis: GTBas3 (6D, 7F)
 There are    81 symmetry adapted basis functions of A1  symmetry.
 There are    33 symmetry adapted basis functions of A2  symmetry.
 There are    61 symmetry adapted basis functions of B1  symmetry.
 There are    49 symmetry adapted basis functions of B2  symmetry.
 Integral buffers will be    131072 words long.
 Raffenetti 2 integral format.
 Two-electron integral symmetry is turned on.
   224 basis functions,   476 primitive gaussians,   245 cartesian basis functions
    49 alpha electrons       49 beta electrons
       nuclear repulsion energy       793.0504942503 Hartrees.
 NAtoms=    7 NActive=    7 NUniq=    2 SFac= 3.00D+00 NAtFMM=   80 NAOKFM=F Big=F
 One-electron integrals computed using PRISM.
 NBasis=   224 RedAO= T  NBF=    81    33    61    49
 NBsUse=   224 1.00D-06 NBFU=    81    33    61    49
 Initial guess read from the checkpoint file:  S9L-ne-d-01.chk
 B after Tr=     0.000000    0.000000    0.000000
         Rot=    1.000000    0.000000    0.000000    0.000000 Ang=   0.00 deg.
 Initial guess orbital symmetries:
       Occupied  (A1') (A2") (E1') (E1') (E2') (E2') (A1') (A1')
                 (A2") (A1') (E1') (E1') (E2') (E2') (A1') (A2")
                 (E1") (E1") (E1') (E1') (A2") (E2") (E2") (E1")
                 (E1") (E2') (E2') (E1') (E1') (A1') (E1') (E1')
                 (A2') (E2') (E2') (A1') (E1') (E1') (A2") (E2')
                 (E2') (A1') (E1") (E1") (A1') (E1') (E1') (E2')
                 (E2')
       Virtual   (A2") (E2") (E2") (E1') (E1') (A2") (E2') (E2')
                 (A1') (E1') (E1') (E1") (E1") (A2') (E1') (E1')
                 (A1') (E2') (E2') (E2") (E2") (E1") (E1") (A1')
                 (E2') (E2') (A2") (A1') (E2") (E2") (E1') (E1')
                 (A2") (E1') (E1') (A1') (E2') (E2') (E1") (E1")
                 (E1") (E1") (A2') (E1') (E1') (E2") (E2") (E1')
                 (E1') (E2') (E2') (A2") (A1') (E2') (E2') (A1")
                 (E1") (E1") (E1') (E1') (A2") (A1') (E1') (E1')
                 (E2') (E2') (E2") (E2") (E2') (E2') (E1") (E1")
                 (A2") (A2') (E1') (E1') (A1') (E2") (E2") (E1')
                 (E1') (E2') (E2') (E2') (E2') (A2") (A1') (E1")
                 (E1") (A1') (E2') (E2') (E2") (E2") (A2") (E1')
                 (E1') (E1") (E1") (E2') (E2') (A1') (E1") (E1")
                 (E1') (E1') (E1') (E1') (A2') (E2') (E2') (A1')
                 (E2") (E2") (E1') (E1') (A1") (E2") (E2") (E1")
                 (E1") (E2') (E2') (E2") (E2") (A2") (E1') (E1')
                 (E2') (E2') (A2") (A2') (E2") (E2") (A1') (E1")
                 (E1") (E1') (E1') (E2') (E2') (A2") (E1') (E1')
                 (A1') (E1") (E1") (E2") (E2") (A2') (A1") (E1')
                 (E1') (E2') (E2') (A1') (E1') (E1') (E2") (E2")
                 (E1") (E1") (A2") (A1') (E2') (E2') (E2') (E2')
                 (A1') (E2') (E2') (E1') (E1') (A2") (A1')
 Requested convergence on RMS density matrix=1.00D-08 within 128 cycles.
 Requested convergence on MAX density matrix=1.00D-06.
 Requested convergence on             energy=1.00D-06.
 No special actions if energy rises.
 Keep R1 ints in memory in canonical form, NReq=461775787.
 SCF Done:  E(RB3LYP) =  -2026.43943156     A.U. after    1 cycles
             Convg  =    0.8473D-09             -V/T =  2.0035
 QCSCF skips out because SCF is already converged.
 Range of M.O.s used for correlation:     1   224
 NBasis=   224 NAE=    49 NBE=    49 NFC=     0 NFV=     0
 NROrb=    224 NOA=    49 NOB=    49 NVA=   175 NVB=   175

 **** Warning!!: The largest alpha MO coefficient is  0.13620606D+02

 Symmetrizing basis deriv contribution to polar:
 IMax=3 JMax=2 DiffMx= 0.00D+00
 G2DrvN: will do     8 centers at a time, making    1 passes doing MaxLOS=3.
 Calling FoFCou, ICntrl=  3107 FMM=F I1Cent=   0 AccDes= 0.00D+00.
 FoFDir/FoFCou used for L=0 through L=3.
 End of G2Drv Frequency-dependent properties file   721 does not exist.
[...]
                 (E1') (E1") (E1") (E1") (E1") (A1') (E2") (E2")
                 (E2') (E2') (E2") (E2") (A2') (A1') (A2") (A1')
                 (E1') (E1') (A2") (E1") (E1") (E2') (E2') (E1')
                 (E1') (E2') (E2') (E1') (E1') (E2") (E2") (E2')
                 (E2') (A2') (A1") (E1') (E1') (E2') (E2') (E1")
                 (E1") (A1') (E2") (E2") (E1') (E1') (E1") (E1")
                 (A2') (E2") (E2") (E2") (E2") (E2') (E2') (A2")
                 (E1') (E1') (E2') (E2') (E1") (E1") (E1') (E1')
                 (A1') (E2') (E2') (A2") (A1') (E2") (E2") (A1')
                 (E1") (E1") (E1') (E1') (E2') (E2') (A2") (A1")
                 (E1') (E1') (E2") (E2") (A1') (E1") (E1") (E2')
                 (E2') (A1') (E2') (E2') (E1') (E1') (E1") (E1")
                 (E1') (E1') (A2') (E2") (E2") (A2") (E2') (E2')
                 (E1") (E1") (A2") (E2") (E2") (A1') (A2") (E2')
                 (E2') (E1') (E1') (E1') (E1') (A2') (E2') (E2')
                 (A1') (E1") (E1") (E1') (E1') (A1') (E1') (E1')
                 (E2') (E2') (A1') (A2")
 The electronic state is 1-A1'.
 Alpha  occ. eigenvalues --  -68.80752 -68.80752 -68.80752 -68.80752 -68.80752
 Alpha  occ. eigenvalues --  -68.80466 -68.80466  -6.15232  -6.15217  -6.15199
 Alpha  occ. eigenvalues --   -6.15199  -6.15197  -6.15189  -6.15189  -4.25642
 Alpha  occ. eigenvalues --   -4.25612  -4.25514  -4.25514  -4.25510  -4.25510
 Alpha  occ. eigenvalues --   -4.25338  -4.25334  -4.25334  -4.25333  -4.25333
 Alpha  occ. eigenvalues --   -4.25317  -4.25317  -4.25315  -4.25311  -4.25311
 Alpha  occ. eigenvalues --   -4.25287  -4.25287  -4.25280  -4.25280  -4.25273
 Alpha  occ. eigenvalues --   -0.90289  -0.71321  -0.71321  -0.60740  -0.50217
 Alpha  occ. eigenvalues --   -0.50217  -0.48805  -0.35078  -0.35078  -0.33768
 Alpha  occ. eigenvalues --   -0.32490  -0.32490  -0.29641  -0.29641
 Alpha virt. eigenvalues --   -0.01277   0.01950   0.01993   0.01993   0.02330
 Alpha virt. eigenvalues --    0.03021   0.03021   0.03952   0.03952   0.04123
 Alpha virt. eigenvalues --    0.05040   0.05040   0.05518   0.05518   0.06720
 Alpha virt. eigenvalues --    0.06966   0.06966   0.07259   0.07259   0.07829
 Alpha virt. eigenvalues --    0.07829   0.07894   0.08467   0.09083   0.09083
 Alpha virt. eigenvalues --    0.09166   0.09166   0.09467   0.09467   0.10796
 Alpha virt. eigenvalues --    0.10796   0.11102   0.12770   0.14473   0.14473
 Alpha virt. eigenvalues --    0.14800   0.14800   0.14872   0.15212   0.15212
 Alpha virt. eigenvalues --    0.16652   0.20929   0.20929   0.22503   0.22503
 Alpha virt. eigenvalues --    0.22606   0.23071   0.23282   0.23282   0.23510
 Alpha virt. eigenvalues --    0.23510   0.24654   0.25282   0.25282   0.25735
 Alpha virt. eigenvalues --    0.25735   0.27408   0.27429   0.27429   0.29570
 Alpha virt. eigenvalues --    0.29570   0.31666   0.32013   0.32013   0.33518
 Alpha virt. eigenvalues --    0.34553   0.35040   0.35040   0.36090   0.40957
 Alpha virt. eigenvalues --    0.40957   0.41283   0.41283   0.41803   0.41803
 Alpha virt. eigenvalues --    0.42468   0.42468   0.43203   0.43203   0.43628
 Alpha virt. eigenvalues --    0.46590   0.47582   0.47582   0.48363   0.48363
 Alpha virt. eigenvalues --    0.51061   0.51061   0.53094   0.53979   0.53979
 Alpha virt. eigenvalues --    0.54303   0.55103   0.56591   0.56591   0.57098
 Alpha virt. eigenvalues --    0.57098   0.57706   0.59916   0.60117   0.60117
 Alpha virt. eigenvalues --    0.61008   0.61008   0.62236   0.62236   0.65414
 Alpha virt. eigenvalues --    0.65414   0.66868   0.66868   0.67533   0.69115
 Alpha virt. eigenvalues --    0.71941   0.71941   0.72764   0.72764   0.76742
 Alpha virt. eigenvalues --    0.76742   0.76845   0.77761   0.77761   0.78591
 Alpha virt. eigenvalues --    0.78591   0.80247   0.80247   0.80483   0.80483
 Alpha virt. eigenvalues --    0.82901   0.82901   0.83789   0.83789   0.85205
 Alpha virt. eigenvalues --    0.85905   0.86833   0.87069   0.87069   0.88299
 Alpha virt. eigenvalues --    0.88299   0.90003   0.90499   0.90499   0.90854
 Alpha virt. eigenvalues --    0.91900   0.91900   0.93049   0.93049   0.93584
 Alpha virt. eigenvalues --    0.94519   0.94519   0.94863   0.94863   0.95811
 Alpha virt. eigenvalues --    0.95811   0.96353   0.96925   0.96925   0.97547
 Alpha virt. eigenvalues --    0.97547   0.97706   0.98225   0.98225   0.99180
 Alpha virt. eigenvalues --    0.99180   1.00216   1.00438   1.00438   1.02453
 Alpha virt. eigenvalues --    1.02453   1.03908   1.03908   1.08503   1.08515
 Alpha virt. eigenvalues --    1.08515   1.08869   1.08869   1.09065   1.10519
 Alpha virt. eigenvalues --    1.10519   1.10646   1.10993   1.10993   1.12925
 Alpha virt. eigenvalues --    1.12925   1.14542   1.16708   1.16708   1.22759
 Alpha virt. eigenvalues --    1.22759   1.24575   1.26669   1.27231   1.32489
 Alpha virt. eigenvalues --    1.32489   1.33760   1.33760   1.35257   1.35257
 Alpha virt. eigenvalues --    1.36336   1.36336   1.36442   1.36442   1.42641
 Alpha virt. eigenvalues --    1.44466   1.44648   1.44648   1.44873   1.44873
 Alpha virt. eigenvalues --    1.48498   1.48498   1.49053   1.49053   1.51205
 Alpha virt. eigenvalues --    1.51205   1.52466   1.52466   1.54181   1.56261
 Alpha virt. eigenvalues --    1.56261   1.56704   1.57349   1.57349   1.57565
 Alpha virt. eigenvalues --    1.58690   1.58690   1.63039   1.63496   1.63496
 Alpha virt. eigenvalues --    1.63940   1.68048   1.68048   1.68430   1.68430
 Alpha virt. eigenvalues --    1.68526   1.69442   1.69442   1.70265   1.71728
 Alpha virt. eigenvalues --    1.71728   1.72003   1.72003   1.72964   1.72964
 Alpha virt. eigenvalues --    1.76839   1.76839   1.78099   1.78099   1.80614
 Alpha virt. eigenvalues --    1.81064   1.81064   1.82077   1.82077   1.85550
 Alpha virt. eigenvalues --    1.86102   1.86102   1.86262   1.86755   1.86755
 Alpha virt. eigenvalues --    1.87306   1.87306   1.87735   1.87735   1.89154
 Alpha virt. eigenvalues --    1.90009   1.90009   1.93113   1.93113   1.95437
 Alpha virt. eigenvalues --    1.95437   1.95883   1.95883   1.96285   1.96285
 Alpha virt. eigenvalues --    1.97817   1.97817   1.97932   2.00319   2.02316
 Alpha virt. eigenvalues --    2.03682   2.03756   2.05513   2.05513   2.06008
 Alpha virt. eigenvalues --    2.06008   2.06263   2.06419   2.06419   2.06813
 Alpha virt. eigenvalues --    2.06813   2.11454   2.12865   2.12865   2.13798
 Alpha virt. eigenvalues --    2.13798   2.14171   2.14171   2.14893   2.14893
 Alpha virt. eigenvalues --    2.19812   2.19812   2.20587   2.20587   2.22210
 Alpha virt. eigenvalues --    2.24127   2.24127   2.26550   2.26550   2.30407
 Alpha virt. eigenvalues --    2.31325   2.31913   2.31913   2.32229   2.33274
 Alpha virt. eigenvalues --    2.33274   2.34636   2.34636   2.34906   2.34906
 Alpha virt. eigenvalues --    2.39003   2.39003   2.40668   2.40668   2.43391
 Alpha virt. eigenvalues --    2.43391   2.45416   2.45416   2.46891   2.46891
 Alpha virt. eigenvalues --    2.48322   2.48322   2.48456   2.49567   2.49567
 Alpha virt. eigenvalues --    2.50636   2.68804   2.68804   2.71596   2.71596
 Alpha virt. eigenvalues --    2.73872   2.75639   2.81999   2.81999   2.84259
 Alpha virt. eigenvalues --    2.84259   2.84537   2.84537   2.84563   2.84890
 Alpha virt. eigenvalues --    2.85521   2.85521   2.88397   2.88397   2.97174
 Alpha virt. eigenvalues --    2.99452   2.99452   3.08982   3.08982   3.12745
 Alpha virt. eigenvalues --    3.15517   3.15517   3.16374   3.17080   3.19558
 Alpha virt. eigenvalues --    3.19558   3.23876   3.27412   3.27412   3.28554
 Alpha virt. eigenvalues --    3.28554   3.28850   3.28850   3.29702   3.29702
 Alpha virt. eigenvalues --    3.33304   3.34803   3.35210   3.35210   3.35948
 Alpha virt. eigenvalues --    3.35948   3.38737   3.38737   3.39543   3.39543
 Alpha virt. eigenvalues --    3.41102   3.41102   3.42009   3.42009   3.42141
 Alpha virt. eigenvalues --    3.43880   3.43880   3.45511   3.46294   3.47984
 Alpha virt. eigenvalues --    3.47984   3.51490   3.51490   3.52404   3.52404
 Alpha virt. eigenvalues --    3.53136   3.53136   3.53384   3.53384   3.54427
 Alpha virt. eigenvalues --    3.55984   3.56676   3.56676   3.56973   3.56973
 Alpha virt. eigenvalues --    3.59010   3.59010   3.59118   3.61805   3.61805
 Alpha virt. eigenvalues --    3.61941   3.63226   3.65292   3.65292   3.65621
 Alpha virt. eigenvalues --    3.65621   3.66768   3.66768   3.67426   3.67426
 Alpha virt. eigenvalues --    3.67986   3.69324   3.69324   3.69828   3.69828
 Alpha virt. eigenvalues --    3.71660   3.71660   3.71723   3.71723   3.73641
 Alpha virt. eigenvalues --    3.73641   3.73690   3.78894   3.80823   3.80823
 Alpha virt. eigenvalues --    3.81391   3.81391   3.85053   3.85333   3.85333
 Alpha virt. eigenvalues --    3.86348   3.86348   3.87788   3.87788   3.89484
 Alpha virt. eigenvalues --    3.90951   3.90951   3.95474   3.96411   3.96411
 Alpha virt. eigenvalues --    4.00325   4.05242   4.05242   4.07082   4.07082
 Alpha virt. eigenvalues --    4.08417   4.08996   4.08996   4.10823   4.10823
 Alpha virt. eigenvalues --    4.10985   4.10985   4.15078   4.15078   4.16034
 Alpha virt. eigenvalues --    4.16034   4.17696   4.17696   4.19782   4.20688
 Alpha virt. eigenvalues --    4.23549   4.24210   4.24210   4.24582   4.27117
 Alpha virt. eigenvalues --    4.27117   4.28886   4.28886   4.31766   4.31766
 Alpha virt. eigenvalues --    4.31784   4.31784   4.33355   4.36231   4.36231
 Alpha virt. eigenvalues --    4.38371   4.38371   4.38831   4.38831   4.40812
 Alpha virt. eigenvalues --    4.41547   4.41547   4.45658   4.45658   4.45741
 Alpha virt. eigenvalues --    4.45741   4.47657   4.48141   4.48141   4.48249
 Alpha virt. eigenvalues --    4.48249   4.48588   4.48588   4.49695   4.49695
 Alpha virt. eigenvalues --    4.51048   4.51048   4.51786   4.51945   4.52185
 Alpha virt. eigenvalues --    4.52877   4.54462   4.54462   4.58101   4.58101
 Alpha virt. eigenvalues --    4.60376   4.60376   4.61722   4.64135   4.64135
 Alpha virt. eigenvalues --    4.64977   4.64977   4.72032   4.72032   4.73677
 Alpha virt. eigenvalues --    4.74960   4.75566   4.77500   4.79276   4.79276
 Alpha virt. eigenvalues --    4.80603   4.80743   4.80743   4.81956   4.81956
 Alpha virt. eigenvalues --    4.83814   4.83814   4.86841   4.86841   4.88733
 Alpha virt. eigenvalues --    4.88733   4.89289   4.89289   4.90890   4.90890
 Alpha virt. eigenvalues --    4.94555   4.98103   5.00584   5.00584   5.02567
 Alpha virt. eigenvalues --    5.02567   5.07637   5.07637   5.11072   5.12616
 Alpha virt. eigenvalues --    5.12616   5.18476   5.18476   5.23385   5.23385
 Alpha virt. eigenvalues --    5.29196   5.30952   5.30952   5.32302   5.32302
 Alpha virt. eigenvalues --    5.34556   5.34556   5.36397   5.38194   5.38194
 Alpha virt. eigenvalues --    5.38706   5.38706   5.43007   5.43007   5.46767
 Alpha virt. eigenvalues --    5.46767   5.60474   5.68313   5.68313   5.82069
 Alpha virt. eigenvalues --    5.86400   6.46562   6.46562   6.59046   6.74269
 Alpha virt. eigenvalues --    6.74269   6.74905   6.74905   6.89256   6.89256
 Alpha virt. eigenvalues --    6.90787   6.91956   6.93180   6.93180   6.96801
 Alpha virt. eigenvalues --    6.96801   6.98654   7.00411   7.00411   7.03796
 Alpha virt. eigenvalues --    7.03796   7.11140   7.14296   7.14296   7.15001
 Alpha virt. eigenvalues --    7.15001   7.33161   7.33161   7.35307   7.35307
 Alpha virt. eigenvalues --    7.38473   7.58443   7.58443   7.59459   7.74230
 Alpha virt. eigenvalues --    7.74230  13.93160  13.93160  14.00470  14.07292
 Alpha virt. eigenvalues --   14.07292  14.21950  14.25617  14.26111  14.26111
 Alpha virt. eigenvalues --   14.29710  14.29710  14.38406  14.38406  14.40265
 Alpha virt. eigenvalues --   14.55202  14.55202  14.60665  14.63049  14.63049
 Alpha virt. eigenvalues --   14.65264  14.65264  41.05935  41.17395  41.17395
 Alpha virt. eigenvalues --   41.51647  41.51647  44.48049  44.67144
          Condensed to atoms (all electrons):
              1          2          3          4          5          6
     1  Si  13.192076   0.205875  -0.011651  -0.011651   0.205875   0.204965
     2  Si   0.205875  13.192076   0.205875  -0.011651  -0.011651   0.204965
     3  Si  -0.011651   0.205875  13.192076   0.205875  -0.011651   0.204965
     4  Si  -0.011651  -0.011651   0.205875  13.192076   0.205875   0.204965
     5  Si   0.205875  -0.011651  -0.011651   0.205875  13.192076   0.204965
     6  Si   0.204965   0.204965   0.204965   0.204965   0.204965  12.987372
     7  Si   0.204965   0.204965   0.204965   0.204965   0.204965   0.011664
              7
     1  Si   0.204965
     2  Si   0.204965
     3  Si   0.204965
     4  Si   0.204965
     5  Si   0.204965
     6  Si   0.011664
     7  Si  12.987372
 Mulliken atomic charges:
              1
     1  Si   0.009545
     2  Si   0.009545
     3  Si   0.009545
     4  Si   0.009545
     5  Si   0.009545
     6  Si  -0.023862
     7  Si  -0.023862
 Sum of Mulliken atomic charges =   0.00000
 Mulliken charges with hydrogens summed into heavy atoms:
              1
     1  Si   0.009545
     2  Si   0.009545
     3  Si   0.009545
     4  Si   0.009545
     5  Si   0.009545
     6  Si  -0.023862
     7  Si  -0.023862
 Sum of Mulliken charges with hydrogens summed into heavy atoms =   0.00000
 Electronic spatial extent (au):  <R**2>=           1510.7941
 Charge=              0.0000 electrons
 Dipole moment (field-independent basis, Debye):
    X=              0.0000    Y=              0.0000    Z=              0.0000  Tot=              0.0000
 Quadrupole moment (field-independent basis, Debye-Ang):
   XX=            -98.8332   YY=            -98.8332   ZZ=            -89.1502
   XY=              0.0000   XZ=              0.0000   YZ=              0.0000
 Traceless Quadrupole moment (field-independent basis, Debye-Ang):
   XX=             -3.2277   YY=             -3.2277   ZZ=              6.4554
   XY=              0.0000   XZ=              0.0000   YZ=              0.0000
 Octapole moment (field-independent basis, Debye-Ang**2):
  XXX=              0.0000  YYY=              0.0000  ZZZ=              0.0000  XYY=              0.0000
  XXY=              0.0000  XXZ=              0.0000  XZZ=              0.0000  YZZ=              0.0000
  YYZ=              0.0000  XYZ=              0.0000
 Hexadecapole moment (field-independent basis, Debye-Ang**3):
 XXXX=          -1179.8238 YYYY=          -1179.8238 ZZZZ=           -422.3248 XXXY=              0.0000
 XXXZ=              0.0000 YYYX=              0.0000 YYYZ=              0.0000 ZZZX=              0.0000
 ZZZY=              0.0000 XXYY=           -393.2746 XXZZ=           -246.4467 YYZZ=           -246.4467
 XXYZ=              0.0000 YYXZ=              0.0000 ZZXY=              0.0000
 N-N= 7.930504942503D+02 E-N=-6.412104110314D+03  KE= 2.022483156311D+03
 Symmetry A1   KE= 1.031750207760D+03
 Symmetry A2   KE= 7.506964583326D+01
 Symmetry B1   KE= 5.783499903206D+02
 Symmetry B2   KE= 3.373133123976D+02
 1\1\GINC-NODE43\SP\RHF\GFHFB2\Si7\TAM\20-Dec-2011\0\\#N Geom=AllCheck 
 Guess=TCheck SCRF=Check HF/GFHFB2 SCF=Tight\\si7-n\\0,1\Si,0,-0.000000
 001,2.1293371137,0.\Si,0,-2.0251199377,0.6580013539,0.\Si,0,-1.2515929
 518,-1.7226699123,0.\Si,0,1.2515929534,-1.7226699111,0.\Si,0,2.0251199
 371,0.6580013559,0.\Si,0,0.,0.,-1.2812727655\Si,0,0.,0.,1.2812727655\\
 Version=AM64L-G09RevA.02\State=1-A1'\HF=-2022.5116074\RMSD=3.307e-09\D
 ipole=0.,0.,0.\Quadrupole=-2.3997104,-2.3997104,4.7994208,0.,0.,0.\PG=
 D05H [C5(Si1.Si1),5C2(Si1)]\\@


 WHEN YOU REACH FOR THE STARS, YOU MAY NOT QUITE GET ONE,
 BUT YOU WON'T COME UP WITH A HANDFUL OF MUD, EITHER.

                                         -- LEO BURNETT (AD AGENCY HEAD)
 Diagonal vibrational polarizability:
        0.0000000       0.0000000       0.0000000

 Temperature=              298.150000 Pressure=                      1.000000
 E(ZPE)=                     0.009978 E(Thermal)=                    0.019416
 E(CCSD(T))=             -2023.007739 E(Empiric)=                   -0.097258
 DE(Plus)=                  -0.010115 DE(2DF)=                      -0.238997
 E(Delta-G3XP)=             -2.200823 DE(HF)=                       -0.046042
 G4(0 K)=                -2025.590996 G4 Energy=                 -2025.581557
 G4 Enthalpy=            -2025.580613 G4 Free Energy=            -2025.623608
 1\1\GINC-NODE43\Mixed\G4\G4\Si7\TAM\20-Dec-2011\0\\# G4 scfcyc=500 scf
 =xqc\\si7-n\\0,1\Si,0,-0.000000001,2.1293371137,0.\Si,0,-2.0251199377,
 0.6580013539,0.\Si,0,-1.2515929518,-1.7226699123,0.\Si,0,1.2515929534,
 -1.7226699111,0.\Si,0,2.0251199371,0.6580013559,0.\Si,0,0.,0.,-1.28127
 27655\Si,0,0.,0.,1.2812727655\\Version=AM64L-G09RevA.02\State=1-A1'\MP
 2/GTBas1=-2022.9560687\MP4/GTBas1=-2023.0390278\CCSD(T)/G3Bas1=-2023.0
 077388\MP2/GTBas2=-2022.9648234\MP4/GTBas2=-2023.0491428\MP2/GTBas3=-2
 023.1760646\MP4/GTBas3=-2023.2780243\HF/GTLargeXP=-2022.4672407\MP2/GT
 LargeXP=-2025.385642\HF/GFHFB1=-2022.5047306\HF/GFHFB2=-2022.5116074\G
 4=-2025.5909957\FreqCoord=-0.000000002,4.0238639895,0.,-3.8269220685,1
 .2434423539,0.,-2.3651679087,-3.2553743517,0.,2.3651679118,-3.25537434
 94,0.,3.8269220673,1.2434423577,0.,0.,0.,-2.4212546283,0.,0.,2.4212546
 283\PG=D05H [C5(Si1.Si1),5C2(Si1)]\NImag=0\\0.05011903,0.,0.11996152,0
 .,0.,0.02403904,-0.02521338,-0.01184366,0.,0.11329215,-0.01506477,-0.0
 1647030,0.,-0.02052619,0.05678839,0.,0.,-0.00292818,0.,0.,0.02403904,-
 0.00096147,-0.00106105,0.,-0.00939700,0.00992572,0.,0.07424902,-0.0064
 3095,-0.01127333,0.,0.00670461,-0.03228668,0.,0.03321208,0.09583153,0.
 ,0.,-0.00179333,0.,0.,-0.00292818,0.,0.,0.02403904,-0.00096147,0.00106
 105,0.,-0.00808679,0.00874611,0.,-0.03498844,0.00161055,0.,0.07424902,
 0.00643095,-0.01127333,0.,0.00337621,-0.00414801,0.,-0.00161055,-0.006
 69524,0.,-0.03321208,0.09583153,0.,0.,-0.00179333,0.,0.,-0.00179333,0.
 ,0.,-0.00292818,0.,0.,0.02403904,-0.02521338,0.01184366,0.,-0.01249048
 ,-0.00268495,0.,-0.00808679,-0.00337621,0.,-0.00939700,-0.00670461,0.,
 0.11329215,0.01506477,-0.01647030,0.,0.00268495,0.00025568,0.,-0.00874
 611,-0.00414801,0.,-0.00992572,-0.03228668,0.,0.02052619,0.05678839,0.
 ,0.,-0.00292818,0.,0.,-0.00179333,0.,0.,-0.00179333,0.,0.,-0.00292818,
 0.,0.,0.02403904,0.00111527,0.,0.,-0.02905243,0.00980234,0.01980323,-0
 .01040753,-0.01586022,0.01223914,-0.01040753,0.01586022,-0.01223914,-0
 .02905243,-0.00980234,-0.01980323,0.08193589,0.,-0.03223707,-0.0208225
 9,0.00980225,-0.00206952,-0.00643446,-0.01586035,-0.02071428,0.0168457
 6,0.01586035,-0.02071428,0.01684576,-0.00980225,-0.00206952,-0.0064344
 6,0.,0.08193605,0.,-0.00861430,-0.00729800,0.00819282,-0.00266203,-0.0
 0729793,0.00506314,0.00696908,-0.00729799,-0.00506314,0.00696908,-0.00
 729799,-0.00819282,-0.00266203,-0.00729793,0.,0.00000020,0.10276106,0.
 00111527,0.,0.,-0.02905243,0.00980234,-0.01980323,-0.01040753,-0.01586
 022,-0.01223914,-0.01040753,0.01586022,0.01223914,-0.02905243,-0.00980
 234,0.01980323,-0.00413110,0.,0.,0.08193589,0.,-0.03223707,0.02082259,
 0.00980225,-0.00206952,0.00643446,-0.01586035,-0.02071428,-0.01684576,
 0.01586035,-0.02071428,-0.01684576,-0.00980225,-0.00206952,0.00643446,
 0.,-0.00413120,0.00000024,0.,0.08193605,0.,0.00861430,-0.00729800,-0.0
 0819282,0.00266203,-0.00729793,-0.00506314,-0.00696907,-0.00729799,0.0
 0506314,-0.00696907,-0.00729799,0.00819282,0.00266203,-0.00729793,0.,-
 0.00000024,-0.06627141,0.,-0.00000020,0.10276106\\0.,-0.00009593,0.,0.
 00009123,-0.00002964,0.,0.00005639,0.00007761,0.,-0.00005639,0.0000776
 1,0.,-0.00009123,-0.00002964,0.,0.,0.,-0.00011799,0.,0.,0.00011799\\\@
 Job cpu time:  0 days  1 hours  8 minutes 22.0 seconds.
 File lengths (MBytes):  RWF=   1283 Int=      0 D2E=      0 Chk=     26 Scr=      1
 Normal termination of Gaussian 09 at Tue Dec 20 19:36:21 2011.
