 Entering Gaussian System, Link 0=g09
 Initial command:
 /usr/local/chem/g09A2/l1.exe /temp0/tam/Gau-19758.inp -scrdir=/temp0/tam/
 Entering Link 1 = /usr/local/chem/g09A2/l1.exe PID=     19760.
  
 Copyright (c) 1988,1990,1992,1993,1995,1998,2003,2009, Gaussian, Inc.
                  All Rights Reserved.
  
 This is part of the Gaussian(R) 09 program.  It is based on
 the Gaussian(R) 03 system (copyright 2003, Gaussian, Inc.),
 the Gaussian(R) 98 system (copyright 1998, Gaussian, Inc.),
 the Gaussian(R) 94 system (copyright 1995, Gaussian, Inc.),
 the Gaussian 92(TM) system (copyright 1992, Gaussian, Inc.),
 the Gaussian 90(TM) system (copyright 1990, Gaussian, Inc.),
 the Gaussian 88(TM) system (copyright 1988, Gaussian, Inc.),
 the Gaussian 86(TM) system (copyright 1986, Carnegie Mellon
 University), and the Gaussian 82(TM) system (copyright 1983,
 Carnegie Mellon University). Gaussian is a federally registered
 trademark of Gaussian, Inc.
  
 This software contains proprietary and confidential information,
 including trade secrets, belonging to Gaussian, Inc.
  
 This software is provided under written license and may be
 used, copied, transmitted, or stored only in accord with that
 written license.
  
 The following legend is applicable only to US Government
 contracts under FAR:
  
                    RESTRICTED RIGHTS LEGEND
  
 Use, reproduction and disclosure by the US Government is
 subject to restrictions as set forth in subparagraphs (a)
 and (c) of the Commercial Computer Software - Restricted
 Rights clause in FAR 52.227-19.
  
 Gaussian, Inc.
 340 Quinnipiac St., Bldg. 40, Wallingford CT 06492
  
  
 ---------------------------------------------------------------
 Warning -- This program may not be used in any manner that
 competes with the business of Gaussian, Inc. or will provide
 assistance to any competitor of Gaussian, Inc.  The licensee
 of this program is prohibited from giving any competitor of
 Gaussian, Inc. access to this program.  By using this program,
 the user acknowledges that Gaussian, Inc. is engaged in the
 business of creating and licensing software in the field of
 computational chemistry and represents and warrants to the
 licensee that it is not a competitor of Gaussian, Inc. and that
 it will not use this program in any manner prohibited above.
 ---------------------------------------------------------------
  

 Cite this work as:
 Gaussian 09, Revision A.02,
 M. J. Frisch, G. W. Trucks, H. B. Schlegel, G. E. Scuseria, 
 M. A. Robb, J. R. Cheeseman, G. Scalmani, V. Barone, B. Mennucci, 
 G. A. Petersson, H. Nakatsuji, M. Caricato, X. Li, H. P. Hratchian, 
 A. F. Izmaylov, J. Bloino, G. Zheng, J. L. Sonnenberg, M. Hada, 
 M. Ehara, K. Toyota, R. Fukuda, J. Hasegawa, M. Ishida, T. Nakajima, 
 Y. Honda, O. Kitao, H. Nakai, T. Vreven, J. A. Montgomery, Jr., 
 J. E. Peralta, F. Ogliaro, M. Bearpark, J. J. Heyd, E. Brothers, 
 K. N. Kudin, V. N. Staroverov, R. Kobayashi, J. Normand, 
 K. Raghavachari, A. Rendell, J. C. Burant, S. S. Iyengar, J. Tomasi, 
 M. Cossi, N. Rega, J. M. Millam, M. Klene, J. E. Knox, J. B. Cross, 
 V. Bakken, C. Adamo, J. Jaramillo, R. Gomperts, R. E. Stratmann, 
 O. Yazyev, A. J. Austin, R. Cammi, C. Pomelli, J. W. Ochterski, 
 R. L. Martin, K. Morokuma, V. G. Zakrzewski, G. A. Voth, 
 P. Salvador, J. J. Dannenberg, S. Dapprich, A. D. Daniels, 
 O. Farkas, J. B. Foresman, J. V. Ortiz, J. Cioslowski, 
 and D. J. Fox, Gaussian, Inc., Wallingford CT, 2009.
 
 ******************************************
 Gaussian 09:  AM64L-G09RevA.02 11-Jun-2009
                21-Jan-2013 
 ******************************************
 %NprocShared=12
 Will use up to   12 processors via shared memory.
 %mem=70990MB
 %chk=S9L-ne-d-01
 -----------------------
 # G4 scfcyc=500 scf=xqc
 -----------------------
 1/14=-1,18=20,19=15,26=3,38=1/1,3;
 2/9=110,12=2,17=6,18=5,40=1/2;
 3/5=35,7=104,11=2,16=1,25=1,30=1,71=1,74=-5/1,2,3;
 4//1;
 5/5=2,7=500,8=3,13=1,38=5/2,8;
 6/7=2,8=2,9=2,10=2,28=1/1;
 7//1,2,3,16;
 1/14=-1,18=20,19=15/3(2);
 2/9=110/2;
 99//99;
 2/9=110/2;
 3/5=35,7=104,11=2,16=1,25=1,30=1,71=1,74=-5/1,2,3;
 4/5=5,16=3/1;
 5/5=2,7=500,8=3,13=1,38=5/2,8;
 7//1,2,3,16;
 1/14=-1,18=20,19=15/3(-5);
 2/9=110/2;
 6/7=2,8=2,9=2,10=2,19=2,28=1/1;
 99/9=1/99;
 ------
 si13-n
 ------
 Symbolic Z-matrix:
 Charge =  0 Multiplicity = 1
 Si                   -1.75446   0.        1.57086 
 Si                   -3.57389   0.       -0.07937 
 Si                   -1.56546   1.22208  -0.72184 
 Si                    0.        1.61296   1.44345 
 Si                    1.56546   1.22208  -0.72184 
 Si                    3.57389   0.       -0.07937 
 Si                    1.56546  -1.22208  -0.72184 
 Si                    0.        0.       -2.28623 
 Si                   -1.56546  -1.22208  -0.72184 
 Si                    0.       -1.61296   1.44345 
 Si                    1.75446   0.        1.57086 
 Si                    0.        3.09166  -0.34806 
 Si                    0.       -3.09166  -0.34806 
 

 GradGradGradGradGradGradGradGradGradGradGradGradGradGradGradGradGradGrad
 Berny optimization.
 Initialization pass.
                           ----------------------------
                           !    Initial Parameters    !
                           ! (Angstroms and Degrees)  !
 --------------------------                            --------------------------
 ! Name  Definition              Value          Derivative Info.                !
 --------------------------------------------------------------------------------
 ! R1    R(1,2)                  2.4563         estimate D2E/DX2                !
 ! R2    R(1,3)                  2.6049         estimate D2E/DX2                !
 ! R3    R(1,4)                  2.3866         estimate D2E/DX2                !
 ! R4    R(1,9)                  2.6049         estimate D2E/DX2                !
 ! R5    R(1,10)                 2.3866         estimate D2E/DX2                !
 ! R6    R(2,3)                  2.4372         estimate D2E/DX2                !
 ! R7    R(2,9)                  2.4372         estimate D2E/DX2                !
 ! R8    R(3,4)                  2.7004         estimate D2E/DX2                !
 ! R9    R(3,8)                  2.5281         estimate D2E/DX2                !
 ! R10   R(3,9)                  2.4442         estimate D2E/DX2                !
 ! R11   R(3,12)                 2.4669         estimate D2E/DX2                !
 ! R12   R(4,5)                  2.7004         estimate D2E/DX2                !
 ! R13   R(4,11)                 2.3866         estimate D2E/DX2                !
 ! R14   R(4,12)                 2.3229         estimate D2E/DX2                !
 ! R15   R(5,6)                  2.4372         estimate D2E/DX2                !
 ! R16   R(5,7)                  2.4442         estimate D2E/DX2                !
 ! R17   R(5,8)                  2.5281         estimate D2E/DX2                !
 ! R18   R(5,11)                 2.6049         estimate D2E/DX2                !
 ! R19   R(5,12)                 2.4669         estimate D2E/DX2                !
 ! R20   R(6,7)                  2.4372         estimate D2E/DX2                !
 ! R21   R(6,11)                 2.4563         estimate D2E/DX2                !
 ! R22   R(7,8)                  2.5281         estimate D2E/DX2                !
 ! R23   R(7,10)                 2.7004         estimate D2E/DX2                !
 ! R24   R(7,11)                 2.6049         estimate D2E/DX2                !
 ! R25   R(7,13)                 2.4669         estimate D2E/DX2                !
 ! R26   R(8,9)                  2.5281         estimate D2E/DX2                !
 ! R27   R(9,10)                 2.7004         estimate D2E/DX2                !
 ! R28   R(9,13)                 2.4669         estimate D2E/DX2                !
 ! R29   R(10,11)                2.3866         estimate D2E/DX2                !
 ! R30   R(10,13)                2.3229         estimate D2E/DX2                !
 ! A1    A(2,1,4)              120.5738         estimate D2E/DX2                !
 ! A2    A(2,1,10)             120.5738         estimate D2E/DX2                !
 ! A3    A(3,1,10)             102.5176         estimate D2E/DX2                !
 ! A4    A(4,1,9)              102.5176         estimate D2E/DX2                !
 ! A5    A(4,1,10)              85.0373         estimate D2E/DX2                !
 ! A6    A(1,3,8)              111.2705         estimate D2E/DX2                !
 ! A7    A(1,3,12)             105.5591         estimate D2E/DX2                !
 ! A8    A(2,3,4)              109.8121         estimate D2E/DX2                !
 ! A9    A(2,3,8)              115.5314         estimate D2E/DX2                !
 ! A10   A(2,3,12)             149.6557         estimate D2E/DX2                !
 ! A11   A(4,3,8)              101.9572         estimate D2E/DX2                !
 ! A12   A(4,3,9)               98.3228         estimate D2E/DX2                !
 ! A13   A(8,3,12)              93.8509         estimate D2E/DX2                !
 ! A14   A(9,3,12)             139.2758         estimate D2E/DX2                !
 ! A15   A(1,4,5)              111.7862         estimate D2E/DX2                !
 ! A16   A(1,4,11)              94.635          estimate D2E/DX2                !
 ! A17   A(1,4,12)             118.1238         estimate D2E/DX2                !
 ! A18   A(3,4,5)               70.862          estimate D2E/DX2                !
 ! A19   A(3,4,11)             111.7862         estimate D2E/DX2                !
 ! A20   A(11,4,12)            118.1238         estimate D2E/DX2                !
 ! A21   A(4,5,6)              109.8121         estimate D2E/DX2                !
 ! A22   A(4,5,7)               98.3228         estimate D2E/DX2                !
 ! A23   A(4,5,8)              101.9572         estimate D2E/DX2                !
 ! A24   A(6,5,8)              115.5314         estimate D2E/DX2                !
 ! A25   A(6,5,12)             149.6557         estimate D2E/DX2                !
 ! A26   A(7,5,12)             139.2758         estimate D2E/DX2                !
 ! A27   A(8,5,11)             111.2705         estimate D2E/DX2                !
 ! A28   A(8,5,12)              93.8509         estimate D2E/DX2                !
 ! A29   A(11,5,12)            105.5591         estimate D2E/DX2                !
 ! A30   A(5,7,10)              98.3228         estimate D2E/DX2                !
 ! A31   A(5,7,13)             139.2758         estimate D2E/DX2                !
 ! A32   A(6,7,8)              115.5314         estimate D2E/DX2                !
 ! A33   A(6,7,10)             109.8121         estimate D2E/DX2                !
 ! A34   A(6,7,13)             149.6557         estimate D2E/DX2                !
 ! A35   A(8,7,10)             101.9572         estimate D2E/DX2                !
 ! A36   A(8,7,11)             111.2705         estimate D2E/DX2                !
 ! A37   A(8,7,13)              93.8509         estimate D2E/DX2                !
 ! A38   A(11,7,13)            105.5591         estimate D2E/DX2                !
 ! A39   A(3,8,5)               76.5175         estimate D2E/DX2                !
 ! A40   A(3,8,7)              103.5439         estimate D2E/DX2                !
 ! A41   A(5,8,9)              103.5439         estimate D2E/DX2                !
 ! A42   A(7,8,9)               76.5175         estimate D2E/DX2                !
 ! A43   A(1,9,8)              111.2705         estimate D2E/DX2                !
 ! A44   A(1,9,13)             105.5591         estimate D2E/DX2                !
 ! A45   A(2,9,8)              115.5314         estimate D2E/DX2                !
 ! A46   A(2,9,10)             109.8121         estimate D2E/DX2                !
 ! A47   A(2,9,13)             149.6557         estimate D2E/DX2                !
 ! A48   A(3,9,10)              98.3228         estimate D2E/DX2                !
 ! A49   A(3,9,13)             139.2758         estimate D2E/DX2                !
 ! A50   A(8,9,10)             101.9572         estimate D2E/DX2                !
 ! A51   A(8,9,13)              93.8509         estimate D2E/DX2                !
 ! A52   A(1,10,7)             111.7862         estimate D2E/DX2                !
 ! A53   A(1,10,11)             94.635          estimate D2E/DX2                !
 ! A54   A(1,10,13)            118.1238         estimate D2E/DX2                !
 ! A55   A(7,10,9)              70.862          estimate D2E/DX2                !
 ! A56   A(9,10,11)            111.7862         estimate D2E/DX2                !
 ! A57   A(11,10,13)           118.1238         estimate D2E/DX2                !
 ! A58   A(4,11,6)             120.5738         estimate D2E/DX2                !
 ! A59   A(4,11,7)             102.5176         estimate D2E/DX2                !
 ! A60   A(4,11,10)             85.0373         estimate D2E/DX2                !
 ! A61   A(5,11,10)            102.5176         estimate D2E/DX2                !
 ! A62   A(6,11,10)            120.5738         estimate D2E/DX2                !
 ! A63   A(3,12,5)              78.7777         estimate D2E/DX2                !
 ! A64   A(7,13,9)              78.7777         estimate D2E/DX2                !
 ! D1    D(10,1,3,8)            10.8219         estimate D2E/DX2                !
 ! D2    D(10,1,3,12)          -89.7345         estimate D2E/DX2                !
 ! D3    D(2,1,4,5)            -68.1087         estimate D2E/DX2                !
 ! D4    D(2,1,4,11)          -128.9325         estimate D2E/DX2                !
 ! D5    D(2,1,4,12)            -3.5123         estimate D2E/DX2                !
 ! D6    D(9,1,4,5)             -8.6658         estimate D2E/DX2                !
 ! D7    D(9,1,4,11)           -69.4896         estimate D2E/DX2                !
 ! D8    D(9,1,4,12)            55.9306         estimate D2E/DX2                !
 ! D9    D(10,1,4,5)            54.6911         estimate D2E/DX2                !
 ! D10   D(10,1,4,11)           -6.1328         estimate D2E/DX2                !
 ! D11   D(10,1,4,12)          119.2874         estimate D2E/DX2                !
 ! D12   D(4,1,9,8)            -10.8219         estimate D2E/DX2                !
 ! D13   D(4,1,9,13)            89.7345         estimate D2E/DX2                !
 ! D14   D(2,1,10,7)            68.1087         estimate D2E/DX2                !
 ! D15   D(2,1,10,11)          128.9325         estimate D2E/DX2                !
 ! D16   D(2,1,10,13)            3.5123         estimate D2E/DX2                !
 ! D17   D(3,1,10,7)             8.6658         estimate D2E/DX2                !
 ! D18   D(3,1,10,11)           69.4896         estimate D2E/DX2                !
 ! D19   D(3,1,10,13)          -55.9306         estimate D2E/DX2                !
 ! D20   D(4,1,10,7)           -54.6911         estimate D2E/DX2                !
 ! D21   D(4,1,10,11)            6.1328         estimate D2E/DX2                !
 ! D22   D(4,1,10,13)         -119.2874         estimate D2E/DX2                !
 ! D23   D(2,3,4,5)            144.9515         estimate D2E/DX2                !
 ! D24   D(2,3,4,11)            98.3618         estimate D2E/DX2                !
 ! D25   D(8,3,4,5)             21.9557         estimate D2E/DX2                !
 ! D26   D(8,3,4,11)           -24.634          estimate D2E/DX2                !
 ! D27   D(9,3,4,5)             84.0257         estimate D2E/DX2                !
 ! D28   D(9,3,4,11)            37.436          estimate D2E/DX2                !
 ! D29   D(1,3,8,5)            -78.0048         estimate D2E/DX2                !
 ! D30   D(1,3,8,7)            -26.4072         estimate D2E/DX2                !
 ! D31   D(2,3,8,5)           -141.848          estimate D2E/DX2                !
 ! D32   D(2,3,8,7)            -90.2504         estimate D2E/DX2                !
 ! D33   D(4,3,8,5)            -22.8289         estimate D2E/DX2                !
 ! D34   D(4,3,8,7)             28.7687         estimate D2E/DX2                !
 ! D35   D(12,3,8,5)            30.3377         estimate D2E/DX2                !
 ! D36   D(12,3,8,7)            81.9353         estimate D2E/DX2                !
 ! D37   D(4,3,9,10)             0.0            estimate D2E/DX2                !
 ! D38   D(4,3,9,13)           -40.7051         estimate D2E/DX2                !
 ! D39   D(12,3,9,10)           40.7051         estimate D2E/DX2                !
 ! D40   D(12,3,9,13)            0.0            estimate D2E/DX2                !
 ! D41   D(1,3,12,5)            82.463          estimate D2E/DX2                !
 ! D42   D(2,3,12,5)           135.0696         estimate D2E/DX2                !
 ! D43   D(8,3,12,5)           -30.8757         estimate D2E/DX2                !
 ! D44   D(9,3,12,5)            17.4872         estimate D2E/DX2                !
 ! D45   D(1,4,5,6)            -98.3618         estimate D2E/DX2                !
 ! D46   D(1,4,5,7)            -37.436          estimate D2E/DX2                !
 ! D47   D(1,4,5,8)             24.634          estimate D2E/DX2                !
 ! D48   D(3,4,5,6)           -144.9515         estimate D2E/DX2                !
 ! D49   D(3,4,5,7)            -84.0257         estimate D2E/DX2                !
 ! D50   D(3,4,5,8)            -21.9557         estimate D2E/DX2                !
 ! D51   D(1,4,11,6)           128.9325         estimate D2E/DX2                !
 ! D52   D(1,4,11,7)            69.4896         estimate D2E/DX2                !
 ! D53   D(1,4,11,10)            6.1328         estimate D2E/DX2                !
 ! D54   D(3,4,11,6)            68.1087         estimate D2E/DX2                !
 ! D55   D(3,4,11,7)             8.6658         estimate D2E/DX2                !
 ! D56   D(3,4,11,10)          -54.6911         estimate D2E/DX2                !
 ! D57   D(12,4,11,6)            3.5123         estimate D2E/DX2                !
 ! D58   D(12,4,11,7)          -55.9306         estimate D2E/DX2                !
 ! D59   D(12,4,11,10)        -119.2874         estimate D2E/DX2                !
 ! D60   D(4,5,7,10)             0.0            estimate D2E/DX2                !
 ! D61   D(4,5,7,13)            40.7051         estimate D2E/DX2                !
 ! D62   D(12,5,7,10)          -40.7051         estimate D2E/DX2                !
 ! D63   D(12,5,7,13)            0.0            estimate D2E/DX2                !
 ! D64   D(4,5,8,3)             22.8289         estimate D2E/DX2                !
 ! D65   D(4,5,8,9)            -28.7687         estimate D2E/DX2                !
 ! D66   D(6,5,8,3)            141.848          estimate D2E/DX2                !
 ! D67   D(6,5,8,9)             90.2504         estimate D2E/DX2                !
 ! D68   D(11,5,8,3)            78.0048         estimate D2E/DX2                !
 ! D69   D(11,5,8,9)            26.4072         estimate D2E/DX2                !
 ! D70   D(12,5,8,3)           -30.3377         estimate D2E/DX2                !
 ! D71   D(12,5,8,9)           -81.9353         estimate D2E/DX2                !
 ! D72   D(8,5,11,10)          -10.8219         estimate D2E/DX2                !
 ! D73   D(12,5,11,10)          89.7345         estimate D2E/DX2                !
 ! D74   D(6,5,12,3)          -135.0696         estimate D2E/DX2                !
 ! D75   D(7,5,12,3)           -17.4872         estimate D2E/DX2                !
 ! D76   D(8,5,12,3)            30.8757         estimate D2E/DX2                !
 ! D77   D(11,5,12,3)          -82.463          estimate D2E/DX2                !
 ! D78   D(6,7,8,3)            -90.2504         estimate D2E/DX2                !
 ! D79   D(6,7,8,9)           -141.848          estimate D2E/DX2                !
 ! D80   D(10,7,8,3)            28.7687         estimate D2E/DX2                !
 ! D81   D(10,7,8,9)           -22.8289         estimate D2E/DX2                !
 ! D82   D(11,7,8,3)           -26.4072         estimate D2E/DX2                !
 ! D83   D(11,7,8,9)           -78.0048         estimate D2E/DX2                !
 ! D84   D(13,7,8,3)            81.9353         estimate D2E/DX2                !
 ! D85   D(13,7,8,9)            30.3377         estimate D2E/DX2                !
 ! D86   D(5,7,10,1)            37.436          estimate D2E/DX2                !
 ! D87   D(5,7,10,9)            84.0257         estimate D2E/DX2                !
 ! D88   D(6,7,10,1)            98.3618         estimate D2E/DX2                !
 ! D89   D(6,7,10,9)           144.9515         estimate D2E/DX2                !
 ! D90   D(8,7,10,1)           -24.634          estimate D2E/DX2                !
 ! D91   D(8,7,10,9)            21.9557         estimate D2E/DX2                !
 ! D92   D(8,7,11,4)            10.8219         estimate D2E/DX2                !
 ! D93   D(13,7,11,4)          -89.7345         estimate D2E/DX2                !
 ! D94   D(5,7,13,9)            17.4872         estimate D2E/DX2                !
 ! D95   D(6,7,13,9)           135.0696         estimate D2E/DX2                !
 ! D96   D(8,7,13,9)           -30.8757         estimate D2E/DX2                !
 ! D97   D(11,7,13,9)           82.463          estimate D2E/DX2                !
 ! D98   D(5,8,9,1)             26.4072         estimate D2E/DX2                !
 ! D99   D(5,8,9,2)             90.2504         estimate D2E/DX2                !
 ! D100  D(5,8,9,10)           -28.7687         estimate D2E/DX2                !
 ! D101  D(5,8,9,13)           -81.9353         estimate D2E/DX2                !
 ! D102  D(7,8,9,1)             78.0048         estimate D2E/DX2                !
 ! D103  D(7,8,9,2)            141.848          estimate D2E/DX2                !
 ! D104  D(7,8,9,10)            22.8289         estimate D2E/DX2                !
 ! D105  D(7,8,9,13)           -30.3377         estimate D2E/DX2                !
 ! D106  D(2,9,10,7)          -144.9515         estimate D2E/DX2                !
 ! D107  D(2,9,10,11)          -98.3618         estimate D2E/DX2                !
 ! D108  D(3,9,10,7)           -84.0257         estimate D2E/DX2                !
 ! D109  D(3,9,10,11)          -37.436          estimate D2E/DX2                !
 ! D110  D(8,9,10,7)           -21.9557         estimate D2E/DX2                !
 ! D111  D(8,9,10,11)           24.634          estimate D2E/DX2                !
 ! D112  D(1,9,13,7)           -82.463          estimate D2E/DX2                !
 ! D113  D(2,9,13,7)          -135.0696         estimate D2E/DX2                !
 ! D114  D(3,9,13,7)           -17.4872         estimate D2E/DX2                !
 ! D115  D(8,9,13,7)            30.8757         estimate D2E/DX2                !
 ! D116  D(1,10,11,4)           -6.1328         estimate D2E/DX2                !
 ! D117  D(1,10,11,5)          -69.4896         estimate D2E/DX2                !
 ! D118  D(1,10,11,6)         -128.9325         estimate D2E/DX2                !
 ! D119  D(9,10,11,4)           54.6911         estimate D2E/DX2                !
 ! D120  D(9,10,11,5)           -8.6658         estimate D2E/DX2                !
 ! D121  D(9,10,11,6)          -68.1087         estimate D2E/DX2                !
 ! D122  D(13,10,11,4)         119.2874         estimate D2E/DX2                !
 ! D123  D(13,10,11,5)          55.9306         estimate D2E/DX2                !
 ! D124  D(13,10,11,6)          -3.5123         estimate D2E/DX2                !
 --------------------------------------------------------------------------------
 Trust Radius=3.00D-01 FncErr=1.00D-07 GrdErr=1.00D-06
 Number of steps in this run= 100 maximum allowed number of steps= 100.
 GradGradGradGradGradGradGradGradGradGradGradGradGradGradGradGradGradGrad

                          Input orientation:                          
 ---------------------------------------------------------------------
 Center     Atomic      Atomic             Coordinates (Angstroms)
 Number     Number       Type             X           Y           Z
 ---------------------------------------------------------------------
      1         14           0       -1.754465    0.000000    1.570856
      2         14           0       -3.573891    0.000000   -0.079374
      3         14           0       -1.565458    1.222083   -0.721840
      4         14           0        0.000000    1.612959    1.443453
      5         14           0        1.565458    1.222083   -0.721840
      6         14           0        3.573891    0.000000   -0.079374
      7         14           0        1.565458   -1.222083   -0.721840
      8         14           0        0.000000    0.000000   -2.286234
      9         14           0       -1.565458   -1.222083   -0.721840
     10         14           0        0.000000   -1.612959    1.443453
     11         14           0        1.754465    0.000000    1.570856
     12         14           0        0.000000    3.091660   -0.348063
     13         14           0        0.000000   -3.091660   -0.348063
 ---------------------------------------------------------------------
                    Distance matrix (angstroms):
                    1          2          3          4          5
     1  Si   0.000000
     2  Si   2.456333   0.000000
     3  Si   2.604931   2.437223   0.000000
     4  Si   2.386633   4.206345   2.700358   0.000000
     5  Si   4.215665   5.321575   3.130916   2.700358   0.000000
     6  Si   5.578049   7.147782   5.321575   4.206345   2.437223
     7  Si   4.215665   5.321575   3.971975   3.895718   2.444167
     8  Si   4.237368   4.200349   2.528137   4.063521   2.528137
     9  Si   2.604931   2.437223   2.444167   3.895718   3.971975
    10  Si   2.386633   4.206345   3.895718   3.225918   3.895718
    11  Si   3.508930   5.578049   4.215665   2.386633   2.604931
    12  Si   4.039648   4.733207   2.466918   2.322948   2.466918
    13  Si   4.039648   4.733207   4.604210   5.034180   4.604210
                    6          7          8          9         10
     6  Si   0.000000
     7  Si   2.437223   0.000000
     8  Si   4.200349   2.528137   0.000000
     9  Si   5.321575   3.130916   2.528137   0.000000
    10  Si   4.206345   2.700358   4.063521   2.700358   0.000000
    11  Si   2.456333   2.604931   4.237368   4.215665   2.386633
    12  Si   4.733207   4.604210   3.648955   4.604210   5.034180
    13  Si   4.733207   2.466918   3.648955   2.466918   2.322948
                   11         12         13
    11  Si   0.000000
    12  Si   4.039648   0.000000
    13  Si   4.039648   6.183320   0.000000
 Stoichiometry    Si13
 Framework group  C2V[C2(Si),SGV(Si4),SGV'(Si4),X(Si4)]
 Deg. of freedom    11
 Full point group                 C2V     NOp   4
 Largest Abelian subgroup         C2V     NOp   4
 Largest concise Abelian subgroup C2V     NOp   4
                         Standard orientation:                         
 ---------------------------------------------------------------------
 Center     Atomic      Atomic             Coordinates (Angstroms)
 Number     Number       Type             X           Y           Z
 ---------------------------------------------------------------------
      1         14           0        0.000000    1.754465   -1.570844
      2         14           0        0.000000    3.573891    0.079385
      3         14           0       -1.222083    1.565458    0.721852
      4         14           0       -1.612959    0.000000   -1.443441
      5         14           0       -1.222083   -1.565458    0.721852
      6         14           0        0.000000   -3.573891    0.079385
      7         14           0        1.222083   -1.565458    0.721852
      8         14           0        0.000000    0.000000    2.286246
      9         14           0        1.222083    1.565458    0.721852
     10         14           0        1.612959    0.000000   -1.443441
     11         14           0        0.000000   -1.754465   -1.570844
     12         14           0       -3.091660    0.000000    0.348075
     13         14           0        3.091660    0.000000    0.348075
 ---------------------------------------------------------------------
 Rotational constants (GHZ):      0.3846526      0.3105266      0.2515957
 Standard basis: GTBas3 (6D, 7F)
 There are   135 symmetry adapted basis functions of A1  symmetry.
 There are    75 symmetry adapted basis functions of A2  symmetry.
 There are   103 symmetry adapted basis functions of B1  symmetry.
 There are   103 symmetry adapted basis functions of B2  symmetry.
 Integral buffers will be    131072 words long.
 Raffenetti 2 integral format.
 Two-electron integral symmetry is turned on.
   416 basis functions,   884 primitive gaussians,   455 cartesian basis functions
    91 alpha electrons       91 beta electrons
       nuclear repulsion energy      2405.9234557665 Hartrees.
 NAtoms=   13 NActive=   13 NUniq=    6 SFac= 3.00D+00 NAtFMM=   80 NAOKFM=F Big=F
 One-electron integrals computed using PRISM.
 NBasis=   416 RedAO= T  NBF=   135    75   103   103
 NBsUse=   416 1.00D-06 NBFU=   135    75   103   103
 Harris functional with IExCor=  402 diagonalized for initial guess.
 ExpMin= 7.78D-02 ExpMax= 1.61D+04 ExpMxC= 2.43D+03 IAcc=2 IRadAn=         0 AccDes= 0.00D+00
 HarFok:  IExCor=  402 AccDes= 0.00D+00 IRadAn=         0 IDoV= 1
 ScaDFX=  1.000000  1.000000  1.000000  1.000000
 FoFCou: FMM=F IPFlag=           0 FMFlag=      100000 FMFlg1=           0
         NFxFlg=           0 DoJE=T BraDBF=F KetDBF=T FulRan=T
         Omega=  0.000000  0.000000  1.000000  0.000000  0.000000 ICntrl=     500 IOpCl=  0
         NMat0=    1 NMatS0=    1 NMatT0=    0 NMatD0=    1 NMtDS0=    0 NMtDT0=    0
         I1Cent=           4 NGrid=           0.
 Petite list used in FoFCou.
 Initial guess orbital symmetries:
       Occupied  (B2) (B1) (A2) (A1) (A1) (B1) (A1) (B2) (B1) (A1)
                 (A1) (B2) (A1) (B2) (A1) (B1) (A2) (B1) (A1) (B2)
                 (A1) (A1) (B1) (A1) (B2) (A1) (A1) (B2) (B1) (A2)
                 (A1) (A2) (B1) (B2) (A1) (B2) (B1) (A2) (A1) (B1)
                 (B2) (A2) (A1) (B1) (A1) (B2) (B1) (A2) (A1) (B2)
                 (B1) (A1) (A1) (B2) (B1) (A2) (B2) (B1) (A1) (A1)
                 (B2) (B2) (A1) (A2) (B1) (A1) (B2) (B1) (A1) (A1)
                 (A1) (B2) (A2) (B1) (B2) (B1) (A1) (A1) (B2) (A1)
                 (B1) (A2) (B2) (A1) (B1) (A2) (B2) (A1) (A1) (B1)
                 (B2)
       Virtual   (A2) (A1) (B1) (A1) (B2) (A2) (B1) (A1) (B2) (A1)
                 (B1) (A1) (B2) (B1) (A1) (B2) (A2) (A1) (B1) (A2)
                 (B2) (B2) (B1) (B1) (A2) (A1) (A1) (B2) (A2) (A1)
                 (B2) (B1) (A1) (B2) (A2) (A1) (B1) (A1) (B2) (A1)
                 (B1) (A1) (A2) (B1) (B2) (A1) (B1) (A1) (B1) (B2)
                 (A2) (A1) (A1) (A2) (B2) (B1) (A1) (B2) (A1) (B1)
                 (B2) (B1) (B2) (B1) (A1) (A2) (A1) (B2) (A2) (B2)
                 (B1) (A2) (A1) (A2) (B1) (B2) (B1) (A1) (A1) (A2)
                 (B2) (B1) (A1) (B2) (A2) (B2) (A1) (A2) (B1) (B2)
                 (B1) (A2) (A1) (B2) (A1) (A2) (B1) (B2) (A1) (A1)
                 (B1) (A1) (B1) (B2) (A1) (B2) (B1) (A2) (A1) (A1)
                 (B1) (A2) (A1) (B2) (B1) (A2) (B2) (A1) (B2) (B1)
                 (A1) (A2) (A1) (B2) (B1) (B2) (B1) (A2) (A1) (B1)
                 (A2) (B2) (A1) (B1) (A1) (A2) (B1) (B2) (A1) (A2)
                 (B2) (B1) (A1) (B2) (A1) (B1) (A1) (A1) (A2) (A1)
                 (B2) (A2) (A1) (B1) (A2) (B2) (B2) (A1) (B1) (B2)
                 (A2) (B1) (B1) (B2) (A1) (A1) (A2) (B2) (B1) (A1)
                 (B2) (A2) (B1) (A1) (B2) (B2) (A1) (A1) (B1) (A1)
                 (B1) (B1) (B2) (A2) (A2) (B2) (B1) (A1) (B2) (B1)
                 (A2) (A1) (A2) (A1) (A1) (B1) (B2) (A2) (B1) (A1)
                 (A1) (A2) (B2) (A1) (B2) (B1) (B2) (B1) (A2) (A1)
                 (B2) (A2) (B1) (A1) (B2) (A1) (B2) (B1) (B1) (B2)
                 (B1) (A1) (A2) (A1) (A1) (A2) (B2) (B1) (B1) (A2)
                 (B2) (A1) (A2) (B2) (B1) (B1) (A1) (A1) (A2) (A2)
                 (A1) (A2) (B1) (B2) (A1) (B1) (B2) (A2) (B1) (A1)
                 (A2) (B2) (A1) (A1) (B1) (B2) (B2) (B1) (A2) (A1)
                 (A1) (B2) (A1) (A2) (B1) (B2) (B2) (A1) (A2) (B1)
                 (B1) (A1) (B2) (A1) (A2) (B1) (A2) (B2) (B1) (A1)
                 (B1) (B2) (A1) (A2) (B2) (A1) (B1) (B2) (A2) (A1)
                 (A1) (B2) (B1) (A2) (B2) (B1) (A1) (B1) (A2) (A1)
                 (B2) (B1) (A1) (B2) (B1) (A2) (B2) (B1) (A1) (A2)
                 (A1) (A1) (A2) (B2) (A1) (B1) (A1) (A1) (A2) (B2)
                 (B1) (A1) (B2) (B1) (A1)
 The electronic state of the initial guess is 1-A1.
 Requested convergence on RMS density matrix=1.00D-08 within 128 cycles.
 Requested convergence on MAX density matrix=1.00D-06.
 Requested convergence on             energy=1.00D-06.
 No special actions if energy rises.
 Keep R1 ints in memory in canonical form, NReq=5429208340.
 Integral accuracy reduced to 1.0D-05 until final iterations.
 EnCoef did     4 forward-backward iterations
 Initial convergence to 1.0D-05 achieved.  Increase integral accuracy.
 SCF Done:  E(RB3LYP) =  -3763.40630696     A.U. after   17 cycles
             Convg  =    0.8316D-08             -V/T =  2.0036
 QCSCF skips out because SCF is already converged.

 **********************************************************************

            Population analysis using the SCF density.

 **********************************************************************

 Orbital symmetries:
       Occupied  (B2) (B1) (A2) (A1) (B1) (A1) (A1) (B1) (A1) (B2)
                 (A1) (B2) (A1) (B2) (A1) (B1) (A2) (B1) (A1) (A1)
                 (B1) (B2) (A1) (A1) (B2) (A1) (B2) (A1) (B1) (A2)
                 (A1) (B2) (A2) (B1) (A1) (B2) (B1) (A2) (B1) (A1)
                 (A2) (B2) (A1) (B1) (B1) (A1) (B2) (A2) (A1) (B1)
                 (A1) (B2) (B1) (A2) (A1) (B2) (B1) (B2) (A1) (A2)
                 (B1) (B2) (A1) (B2) (A1) (A1) (B2) (B1) (A1) (A1)
                 (A1) (B2) (A2) (B1) (B2) (B1) (A1) (A1) (B2) (A1)
                 (B1) (A2) (A1) (B2) (B1) (A1) (A2) (A1) (B2) (B1)
                 (B2)
       Virtual   (A1) (B1) (A2) (A1) (B2) (B1) (A2) (A1) (B2) (A1)
                 (B1) (A1) (B2) (B1) (A1) (B2) (B1) (A2) (A1) (B2)
                 (A2) (B1) (B2) (B1) (A2) (A1) (A1) (B2) (A2) (A1)
                 (B2) (A1) (B1) (B2) (A2) (A1) (B1) (A1) (A1) (B1)
                 (B2) (A1) (B2) (B1) (A1) (A2) (B1) (A2) (B2) (A1)
                 (B1) (A1) (A2) (A1) (B2) (B1) (A1) (B2) (B1) (B1)
                 (A1) (B2) (A2) (B1) (B2) (A1) (A1) (B2) (A2) (A2)
                 (B2) (B1) (B2) (A1) (B1) (B1) (A2) (A1) (A1) (B2)
                 (A2) (B1) (A1) (A2) (B2) (A2) (A1) (B2) (B1) (B2)
                 (B1) (A1) (A2) (B2) (A1) (A2) (B1) (B2) (A1) (B1)
                 (A1) (B2) (A1) (B1) (B1) (A1) (B2) (A2) (A1) (A1)
                 (B1) (A2) (A1) (B2) (B1) (A1) (A2) (B2) (B2) (A1)
                 (B1) (A2) (A1) (B1) (B2) (B1) (B2) (A2) (B1) (A1)
                 (A2) (B2) (A1) (A1) (B1) (B1) (A2) (B2) (A1) (A2)
                 (B2) (B1) (A1) (B2) (A1) (B1) (A1) (A1) (A1) (A2)
                 (A1) (B2) (A2) (B1) (B2) (A2) (B2) (B1) (A1) (B2)
                 (A2) (B1) (B2) (B1) (A1) (A1) (A2) (A1) (B1) (B2)
                 (B2) (A1) (A2) (B1) (B2) (A1) (B1) (A1) (B2) (A1)
                 (B1) (B2) (A2) (B1) (A2) (B2) (B1) (A1) (B2) (A2)
                 (B1) (A1) (B1) (A2) (A1) (A1) (B2) (A2) (A1) (B1)
                 (A1) (A2) (B2) (A1) (B2) (B1) (B2) (B1) (A2) (A1)
                 (B2) (B1) (A2) (A1) (B2) (A1) (B2) (B1) (B1) (B2)
                 (B1) (A1) (A2) (A1) (A1) (A2) (B2) (B1) (B1) (B2)
                 (A2) (A1) (B1) (A2) (B2) (B1) (A1) (A1) (A2) (A2)
                 (A1) (A2) (B1) (B2) (B2) (A1) (B1) (A2) (B1) (A1)
                 (A1) (A2) (B2) (A1) (B1) (B2) (B2) (B1) (A2) (A1)
                 (A1) (A2) (B2) (A1) (B2) (B1) (A1) (B2) (A2) (B1)
                 (B1) (A1) (A2) (A1) (B2) (A2) (B1) (B1) (B2) (A1)
                 (A1) (B2) (B1) (A2) (B2) (B1) (A1) (A1) (B2) (A2)
                 (A1) (B2) (B1) (A2) (B1) (B2) (A1) (B1) (A2) (A1)
                 (B2) (A1) (B1) (B2) (B1) (A2) (B2) (B1) (A1) (A2)
                 (A1) (A1) (A2) (B2) (A1) (B1) (A1) (A1) (A2) (B2)
                 (B1) (A1) (B2) (B1) (A1)
 The electronic state is 1-A1.
 Alpha  occ. eigenvalues --  -66.16458 -66.16458 -66.16456 -66.16456 -66.15841
 Alpha  occ. eigenvalues --  -66.15840 -66.15411 -66.15411 -66.14947 -66.14947
 Alpha  occ. eigenvalues --  -66.14750 -66.14643 -66.14643  -5.30861  -5.30861
 Alpha  occ. eigenvalues --   -5.30856  -5.30855  -5.30200  -5.30199  -5.29920
 Alpha  occ. eigenvalues --   -5.29920  -5.29483  -5.29483  -5.29204  -5.28991
 Alpha  occ. eigenvalues --   -5.28991  -3.66821  -3.66821  -3.66819  -3.66819
 Alpha  occ. eigenvalues --   -3.66761  -3.66759  -3.66736  -3.66735  -3.66531
 Alpha  occ. eigenvalues --   -3.66530  -3.66524  -3.66523  -3.66100  -3.66098
 Alpha  occ. eigenvalues --   -3.66038  -3.66037  -3.65932  -3.65932  -3.65857
 Alpha  occ. eigenvalues --   -3.65857  -3.65751  -3.65751  -3.65583  -3.65582
 Alpha  occ. eigenvalues --   -3.65436  -3.65436  -3.65334  -3.65333  -3.65170
 Alpha  occ. eigenvalues --   -3.65168  -3.65074  -3.65024  -3.64904  -3.64833
 Alpha  occ. eigenvalues --   -3.64833  -3.64817  -3.64817  -3.64697  -3.64697
 Alpha  occ. eigenvalues --   -0.67944  -0.61985  -0.59653  -0.56272  -0.53868
 Alpha  occ. eigenvalues --   -0.47872  -0.45519  -0.44632  -0.43244  -0.41919
 Alpha  occ. eigenvalues --   -0.38164  -0.36867  -0.33132  -0.30958  -0.30067
 Alpha  occ. eigenvalues --   -0.28846  -0.28161  -0.27969  -0.27456  -0.25168
 Alpha  occ. eigenvalues --   -0.24295  -0.23457  -0.23273  -0.22957  -0.20893
 Alpha  occ. eigenvalues --   -0.19944
 Alpha virt. eigenvalues --   -0.11571  -0.11193  -0.10998  -0.08950  -0.06206
 Alpha virt. eigenvalues --   -0.06145  -0.06071  -0.05679  -0.04847  -0.04304
 Alpha virt. eigenvalues --   -0.04120  -0.02734  -0.02567  -0.01661   0.00746
 Alpha virt. eigenvalues --    0.00912   0.02342   0.02345   0.03281   0.03988
 Alpha virt. eigenvalues --    0.04445   0.05578   0.05923   0.06963   0.08072
 Alpha virt. eigenvalues --    0.09611   0.10867   0.11477   0.12134   0.12409
 Alpha virt. eigenvalues --    0.13304   0.13411   0.14283   0.14567   0.14706
 Alpha virt. eigenvalues --    0.14805   0.16384   0.16479   0.17556   0.17602
 Alpha virt. eigenvalues --    0.17969   0.18877   0.20078   0.20281   0.20652
 Alpha virt. eigenvalues --    0.22061   0.22103   0.22963   0.23112   0.23465
 Alpha virt. eigenvalues --    0.23959   0.24503   0.24866   0.25033   0.25753
 Alpha virt. eigenvalues --    0.26122   0.26414   0.26915   0.27788   0.28147
 Alpha virt. eigenvalues --    0.28787   0.28945   0.29322   0.29764   0.29995
 Alpha virt. eigenvalues --    0.30201   0.30477   0.31509   0.31734   0.32478
 Alpha virt. eigenvalues --    0.33153   0.33587   0.34038   0.34222   0.34449
 Alpha virt. eigenvalues --    0.35292   0.35495   0.36874   0.37697   0.39972
 Alpha virt. eigenvalues --    0.40364   0.40449   0.42837   0.43093   0.43660
 Alpha virt. eigenvalues --    0.43713   0.44028   0.44879   0.45651   0.47521
 Alpha virt. eigenvalues --    0.47541   0.47775   0.48070   0.48436   0.48712
 Alpha virt. eigenvalues --    0.49048   0.49558   0.50005   0.50673   0.51044
 Alpha virt. eigenvalues --    0.52293   0.52984   0.53775   0.53855   0.54587
 Alpha virt. eigenvalues --    0.55275   0.55316   0.55781   0.57040   0.57548
 Alpha virt. eigenvalues --    0.58882   0.59647   0.59661   0.60618   0.62157
 Alpha virt. eigenvalues --    0.63525   0.63532   0.64354   0.64599   0.65065
 Alpha virt. eigenvalues --    0.65607   0.65720   0.67259   0.67745   0.67857
 Alpha virt. eigenvalues --    0.69328   0.69660   0.69947   0.70179   0.70750
 Alpha virt. eigenvalues --    0.71467   0.71581   0.72814   0.74677   0.75680
 Alpha virt. eigenvalues --    0.76390   0.76559   0.76653   0.76707   0.79271
 Alpha virt. eigenvalues --    0.79569   0.80260   0.82722   0.84596   0.85389
 Alpha virt. eigenvalues --    0.86158   0.87575   0.88529   0.89701   0.90504
 Alpha virt. eigenvalues --    0.91947   0.92324   0.92788   0.93265   0.96191
 Alpha virt. eigenvalues --    0.96353   0.97108   0.98220   0.98491   0.99321
 Alpha virt. eigenvalues --    1.00500   1.00933   1.01091   1.01293   1.03480
 Alpha virt. eigenvalues --    1.04942   1.05516   1.05830   1.05843   1.06195
 Alpha virt. eigenvalues --    1.07126   1.07637   1.08170   1.08999   1.10009
 Alpha virt. eigenvalues --    1.10812   1.11948   1.12720   1.12822   1.13907
 Alpha virt. eigenvalues --    1.14818   1.15840   1.16153   1.16557   1.17600
 Alpha virt. eigenvalues --    1.18947   1.19857   1.20183   1.22321   1.22686
 Alpha virt. eigenvalues --    1.22782   1.23307   1.24958   1.25045   1.25170
 Alpha virt. eigenvalues --    1.26164   1.27879   1.29249   1.29397   1.29458
 Alpha virt. eigenvalues --    1.30489   1.30959   1.31609   1.32062   1.32619
 Alpha virt. eigenvalues --    1.33541   1.36247   1.36290   1.37328   1.37548
 Alpha virt. eigenvalues --    1.38147   1.38947   1.39210   1.40732   1.41418
 Alpha virt. eigenvalues --    1.42519   1.44294   1.44503   1.45151   1.46357
 Alpha virt. eigenvalues --    1.47429   1.47466   1.48185   1.48296   1.48973
 Alpha virt. eigenvalues --    1.49441   1.49930   1.51365   1.52209   1.52396
 Alpha virt. eigenvalues --    1.52491   1.54996   1.55858   1.55886   1.56074
 Alpha virt. eigenvalues --    1.57498   1.58735   1.60391   1.61448   1.62740
 Alpha virt. eigenvalues --    1.63467   1.65493   1.70042   1.70473   1.73773
 Alpha virt. eigenvalues --    1.74437   1.75213   1.77236   1.77580   1.79549
 Alpha virt. eigenvalues --    1.80383   1.80474   1.81391   1.82801   1.83403
 Alpha virt. eigenvalues --    1.83870   1.85408   1.86007   1.86055   1.86708
 Alpha virt. eigenvalues --    1.87937   1.88437   1.88893   1.89305   1.89810
 Alpha virt. eigenvalues --    1.90307   1.92172   1.92204   1.92358   1.92948
 Alpha virt. eigenvalues --    1.93570   1.94738   1.96207   1.96535   1.96651
 Alpha virt. eigenvalues --    1.98303   1.98832   1.99120   2.00026   2.00562
 Alpha virt. eigenvalues --    2.01256   2.01867   2.02313   2.02819   2.02959
 Alpha virt. eigenvalues --    2.07058   2.07161   2.09099   2.09161   2.09795
 Alpha virt. eigenvalues --    2.10754   2.12071   2.12474   2.15607   2.15619
 Alpha virt. eigenvalues --    2.16864   2.19209   2.20462   2.21337   2.21541
 Alpha virt. eigenvalues --    2.23870   2.24461   2.24503   2.25797   2.25819
 Alpha virt. eigenvalues --    2.28599   2.29406   2.34250   2.36695   2.39752
 Alpha virt. eigenvalues --    2.43416   2.53077   2.63769   2.75150   2.85276
 Alpha virt. eigenvalues --    2.86225   2.93898   3.00493   3.06606   3.13049
 Alpha virt. eigenvalues --    3.26810   3.32030   3.42595   3.47643   3.96252
          Condensed to atoms (all electrons):
              1          2          3          4          5          6
     1  Si  13.492691   0.149341   0.022027   0.202752   0.003585   0.002867
     2  Si   0.149341  13.662783   0.181424  -0.011859   0.004317  -0.000345
     3  Si   0.022027   0.181424  13.366173  -0.013641  -0.002150   0.004317
     4  Si   0.202752  -0.011859  -0.013641  13.423996  -0.013641  -0.011859
     5  Si   0.003585   0.004317  -0.002150  -0.013641  13.366173   0.181424
     6  Si   0.002867  -0.000345   0.004317  -0.011859   0.181424  13.662783
     7  Si   0.003585   0.004317  -0.016931   0.007717   0.075952   0.181424
     8  Si   0.003948  -0.022388   0.088671   0.006606   0.088671  -0.022388
     9  Si   0.022027   0.181424   0.075952   0.007717  -0.016931   0.004317
    10  Si   0.202752  -0.011859   0.007717  -0.053580   0.007717  -0.011859
    11  Si  -0.046312   0.002867   0.003585   0.202752   0.022027   0.149341
    12  Si  -0.017977  -0.013771   0.164274   0.217412   0.164274  -0.013771
    13  Si  -0.017977  -0.013771  -0.001780   0.001881  -0.001780  -0.013771
              7          8          9         10         11         12
     1  Si   0.003585   0.003948   0.022027   0.202752  -0.046312  -0.017977
     2  Si   0.004317  -0.022388   0.181424  -0.011859   0.002867  -0.013771
     3  Si  -0.016931   0.088671   0.075952   0.007717   0.003585   0.164274
     4  Si   0.007717   0.006606   0.007717  -0.053580   0.202752   0.217412
     5  Si   0.075952   0.088671  -0.016931   0.007717   0.022027   0.164274
     6  Si   0.181424  -0.022388   0.004317  -0.011859   0.149341  -0.013771
     7  Si  13.366173   0.088671  -0.002150  -0.013641   0.022027  -0.001780
     8  Si   0.088671  13.796533   0.088671   0.006606   0.003948  -0.023014
     9  Si  -0.002150   0.088671  13.366173  -0.013641   0.003585  -0.001780
    10  Si  -0.013641   0.006606  -0.013641  13.423996   0.202752   0.001881
    11  Si   0.022027   0.003948   0.003585   0.202752  13.492691  -0.017977
    12  Si  -0.001780  -0.023014  -0.001780   0.001881  -0.017977  13.640879
    13  Si   0.164274  -0.023014   0.164274   0.217412  -0.017977  -0.000735
             13
     1  Si  -0.017977
     2  Si  -0.013771
     3  Si  -0.001780
     4  Si   0.001881
     5  Si  -0.001780
     6  Si  -0.013771
     7  Si   0.164274
     8  Si  -0.023014
     9  Si   0.164274
    10  Si   0.217412
    11  Si  -0.017977
    12  Si  -0.000735
    13  Si  13.640879
 Mulliken atomic charges:
              1
     1  Si  -0.023310
     2  Si  -0.112483
     3  Si   0.120361
     4  Si   0.033746
     5  Si   0.120361
     6  Si  -0.112483
     7  Si   0.120361
     8  Si  -0.081521
     9  Si   0.120361
    10  Si   0.033746
    11  Si  -0.023310
    12  Si  -0.097915
    13  Si  -0.097915
 Sum of Mulliken atomic charges =   0.00000
 Mulliken charges with hydrogens summed into heavy atoms:
              1
     1  Si  -0.023310
     2  Si  -0.112483
     3  Si   0.120361
     4  Si   0.033746
     5  Si   0.120361
     6  Si  -0.112483
     7  Si   0.120361
     8  Si  -0.081521
     9  Si   0.120361
    10  Si   0.033746
    11  Si  -0.023310
    12  Si  -0.097915
    13  Si  -0.097915
 Sum of Mulliken charges with hydrogens summed into heavy atoms =   0.00000
 Electronic spatial extent (au):  <R**2>=           4803.8356
 Charge=              0.0000 electrons
 Dipole moment (field-independent basis, Debye):
    X=              0.0000    Y=              0.0000    Z=             -0.8096  Tot=              0.8096
 Quadrupole moment (field-independent basis, Debye-Ang):
   XX=           -166.6025   YY=           -176.3038   ZZ=           -169.4972
   XY=              0.0000   XZ=              0.0000   YZ=              0.0000
 Traceless Quadrupole moment (field-independent basis, Debye-Ang):
   XX=              4.1987   YY=             -5.5027   ZZ=              1.3040
   XY=              0.0000   XZ=              0.0000   YZ=              0.0000
 Octapole moment (field-independent basis, Debye-Ang**2):
  XXX=              0.0000  YYY=              0.0000  ZZZ=            -15.5529  XYY=              0.0000
  XXY=              0.0000  XXZ=             -7.3957  XZZ=              0.0000  YZZ=              0.0000
  YYZ=              2.8811  XYZ=              0.0000
 Hexadecapole moment (field-independent basis, Debye-Ang**3):
 XXXX=          -2714.2819 YYYY=          -3855.7140 ZZZZ=          -1645.2117 XXXY=              0.0000
 XXXZ=              0.0000 YYYX=              0.0000 YYYZ=              0.0000 ZZZX=              0.0000
 ZZZY=              0.0000 XXYY=          -1005.1366 XXZZ=           -721.2985 YYZZ=           -858.8655
 XXYZ=              0.0000 YYXZ=              0.0000 ZZXY=              0.0000
 N-N= 2.405923455767D+03 E-N=-1.377011688580D+04  KE= 3.749935186662D+03
 Symmetry A1   KE= 1.580099097828D+03
 Symmetry A2   KE= 3.879170010369D+02
 Symmetry B1   KE= 8.897268003977D+02
 Symmetry B2   KE= 8.921922874001D+02
 Calling FoFJK, ICntrl=      2127 FMM=F ISym2X=1 I1Cent= 0 IOpClX= 0 NMat=1 NMatS=1 NMatT=0.
 ***** Axes restored to original set *****
 -------------------------------------------------------------------
 Center     Atomic                   Forces (Hartrees/Bohr)
 Number     Number              X              Y              Z
 -------------------------------------------------------------------
      1       14          -0.000294348    0.000000000   -0.001508630
      2       14           0.001883191    0.000000000    0.000170397
      3       14           0.000606952   -0.001226601    0.000991242
      4       14           0.000000000   -0.000137598   -0.002058270
      5       14          -0.000606952   -0.001226601    0.000991242
      6       14          -0.001883191    0.000000000    0.000170397
      7       14          -0.000606952    0.001226601    0.000991242
      8       14           0.000000000    0.000000000    0.002549350
      9       14           0.000606952    0.001226601    0.000991242
     10       14           0.000000000    0.000137598   -0.002058270
     11       14           0.000294348    0.000000000   -0.001508630
     12       14           0.000000000   -0.001757691    0.000139343
     13       14           0.000000000    0.001757691    0.000139343
 -------------------------------------------------------------------
 Cartesian Forces:  Max     0.002549350 RMS     0.001068499

 GradGradGradGradGradGradGradGradGradGradGradGradGradGradGradGradGradGrad
 Berny optimization.
 Internal  Forces:  Max     0.000906740 RMS     0.000276374
 Search for a local minimum.
 Step number   1 out of a maximum of  100
 All quantities printed in internal units (Hartrees-Bohrs-Radians)
 Mixed Optimization -- En-DIIS/RFO-DIIS
 Second derivative matrix not updated -- first step.
     Eigenvalues ---    0.02698   0.03266   0.03996   0.04498   0.04848
     Eigenvalues ---    0.05060   0.06321   0.06518   0.06759   0.07250
     Eigenvalues ---    0.07293   0.07365   0.07985   0.07985   0.08036
     Eigenvalues ---    0.08223   0.08413   0.08688   0.09562   0.09608
     Eigenvalues ---    0.09669   0.10011   0.10308   0.10772   0.11100
     Eigenvalues ---    0.11176   0.11378   0.11642   0.11746   0.12342
     Eigenvalues ---    0.13080   0.13969   0.178731000.000001000.00000
     Eigenvalues --- 1000.000001000.000001000.000001000.000001000.00000
     Eigenvalues --- 1000.000001000.000001000.000001000.000001000.00000
     Eigenvalues --- 1000.000001000.000001000.000001000.000001000.00000
     Eigenvalues --- 1000.000001000.000001000.000001000.000001000.00000
     Eigenvalues --- 1000.000001000.000001000.000001000.000001000.00000
     Eigenvalues --- 1000.000001000.000001000.000001000.000001000.00000
     Eigenvalues --- 1000.000001000.000001000.000001000.000001000.00000
     Eigenvalues --- 1000.000001000.000001000.000001000.000001000.00000
     Eigenvalues --- 1000.000001000.000001000.000001000.000001000.00000
     Eigenvalues --- 1000.000001000.000001000.000001000.000001000.00000
     Eigenvalues --- 1000.000001000.000001000.000001000.000001000.00000
     Eigenvalues --- 1000.000001000.000001000.000001000.000001000.00000
     Eigenvalues --- 1000.000001000.000001000.000001000.000001000.00000
     Eigenvalues --- 1000.000001000.000001000.000001000.000001000.00000
     Eigenvalues --- 1000.000001000.000001000.000001000.000001000.00000
     Eigenvalues --- 1000.000001000.000001000.000001000.000001000.00000
     Eigenvalues --- 1000.000001000.000001000.000001000.000001000.00000
     Eigenvalues --- 1000.000001000.000001000.000001000.000001000.00000
     Eigenvalues --- 1000.000001000.000001000.000001000.000001000.00000
     Eigenvalues --- 1000.000001000.000001000.000001000.000001000.00000
     Eigenvalues --- 1000.000001000.000001000.000001000.000001000.00000
     Eigenvalues --- 1000.000001000.000001000.000001000.000001000.00000
     Eigenvalues --- 1000.000001000.000001000.000001000.000001000.00000
     Eigenvalues --- 1000.000001000.000001000.000001000.000001000.00000
     Eigenvalues --- 1000.000001000.000001000.000001000.000001000.00000
     Eigenvalues --- 1000.000001000.000001000.000001000.000001000.00000
     Eigenvalues --- 1000.000001000.000001000.000001000.000001000.00000
     Eigenvalues --- 1000.000001000.000001000.000001000.000001000.00000
     Eigenvalues --- 1000.000001000.000001000.000001000.000001000.00000
     Eigenvalues --- 1000.000001000.000001000.000001000.000001000.00000
     Eigenvalues --- 1000.000001000.000001000.000001000.000001000.00000
     Eigenvalues --- 1000.000001000.000001000.000001000.000001000.00000
     Eigenvalues --- 1000.000001000.000001000.000001000.000001000.00000
     Eigenvalues --- 1000.000001000.000001000.000001000.000001000.00000
     Eigenvalues --- 1000.000001000.000001000.000001000.000001000.00000
     Eigenvalues --- 1000.000001000.000001000.000001000.000001000.00000
     Eigenvalues --- 1000.000001000.000001000.00000
 RFO step:  Lambda=-1.80322087D-04 EMin= 2.69799512D-02
 Linear search not attempted -- first point.
 Iteration  1 RMS(Cart)=  0.00200192 RMS(Int)=  0.00000159
 Iteration  2 RMS(Cart)=  0.00000103 RMS(Int)=  0.00000083
 Iteration  3 RMS(Cart)=  0.00000000 RMS(Int)=  0.00000083
 ClnCor:  largest displacement from symmetrization is 9.52D-11 for atom    10.
 Variable       Old X    -DE/DX   Delta X   Delta X   Delta X     New X
                                 (Linear)    (Quad)   (Total)
    R1        4.64180  -0.00086   0.00000  -0.00962  -0.00962   4.63217
    R2        4.92261  -0.00067   0.00000  -0.00788  -0.00788   4.91473
    R3        4.51008  -0.00027   0.00000  -0.00318  -0.00318   4.50690
    R4        4.92261  -0.00067   0.00000  -0.00788  -0.00788   4.91473
    R5        4.51008  -0.00027   0.00000  -0.00318  -0.00318   4.50690
    R6        4.60568  -0.00072   0.00000  -0.00655  -0.00655   4.59914
    R7        4.60568  -0.00072   0.00000  -0.00655  -0.00655   4.59914
    R8        5.10294  -0.00075   0.00000  -0.01047  -0.01047   5.09247
    R9        4.77749  -0.00091   0.00000  -0.00983  -0.00983   4.76765
   R10        4.61881  -0.00082   0.00000  -0.00816  -0.00816   4.61064
   R11        4.66180  -0.00075   0.00000  -0.00778  -0.00778   4.65402
   R12        5.10294  -0.00075   0.00000  -0.01047  -0.01047   5.09247
   R13        4.51008  -0.00027   0.00000  -0.00318  -0.00318   4.50690
   R14        4.38974  -0.00076   0.00000  -0.00642  -0.00642   4.38332
   R15        4.60568  -0.00072   0.00000  -0.00655  -0.00655   4.59914
   R16        4.61881  -0.00082   0.00000  -0.00816  -0.00816   4.61064
   R17        4.77749  -0.00091   0.00000  -0.00983  -0.00983   4.76765
   R18        4.92261  -0.00067   0.00000  -0.00788  -0.00788   4.91473
   R19        4.66180  -0.00075   0.00000  -0.00778  -0.00778   4.65402
   R20        4.60568  -0.00072   0.00000  -0.00655  -0.00655   4.59914
   R21        4.64180  -0.00086   0.00000  -0.00962  -0.00962   4.63217
   R22        4.77749  -0.00091   0.00000  -0.00983  -0.00983   4.76765
   R23        5.10294  -0.00075   0.00000  -0.01047  -0.01047   5.09247
   R24        4.92261  -0.00067   0.00000  -0.00788  -0.00788   4.91473
   R25        4.66180  -0.00075   0.00000  -0.00778  -0.00778   4.65402
   R26        4.77749  -0.00091   0.00000  -0.00983  -0.00983   4.76765
   R27        5.10294  -0.00075   0.00000  -0.01047  -0.01047   5.09247
   R28        4.66180  -0.00075   0.00000  -0.00778  -0.00778   4.65402
   R29        4.51008  -0.00027   0.00000  -0.00318  -0.00318   4.50690
   R30        4.38974  -0.00076   0.00000  -0.00642  -0.00642   4.38332
    A1        2.10441  -0.00004   0.00000  -0.00064  -0.00064   2.10377
    A2        2.10441  -0.00004   0.00000  -0.00064  -0.00064   2.10377
    A3        1.78927  -0.00011   0.00000  -0.00113  -0.00113   1.78814
    A4        1.78927  -0.00011   0.00000  -0.00113  -0.00113   1.78814
    A5        1.48418  -0.00010   0.00000  -0.00006  -0.00006   1.48412
    A6        1.94204  -0.00001   0.00000  -0.00011  -0.00011   1.94193
    A7        1.84235   0.00006   0.00000   0.00162   0.00162   1.84398
    A8        1.91658   0.00005   0.00000   0.00050   0.00050   1.91709
    A9        2.01640   0.00005   0.00000   0.00040   0.00040   2.01680
   A10        2.61198   0.00006   0.00000   0.00077   0.00077   2.61276
   A11        1.77949  -0.00011   0.00000  -0.00068  -0.00068   1.77881
   A12        1.71606   0.00003   0.00000   0.00066   0.00066   1.71672
   A13        1.63801  -0.00012   0.00000  -0.00103  -0.00103   1.63698
   A14        2.43082  -0.00004   0.00000   0.00027   0.00027   2.43109
   A15        1.95104   0.00007   0.00000   0.00040   0.00040   1.95144
   A16        1.65169   0.00009   0.00000  -0.00010  -0.00010   1.65159
   A17        2.06165  -0.00003   0.00000   0.00019   0.00019   2.06184
   A18        1.23678   0.00008   0.00000   0.00081   0.00081   1.23758
   A19        1.95104   0.00007   0.00000   0.00040   0.00040   1.95144
   A20        2.06165  -0.00003   0.00000   0.00019   0.00019   2.06184
   A21        1.91658   0.00005   0.00000   0.00050   0.00050   1.91709
   A22        1.71606   0.00003   0.00000   0.00066   0.00066   1.71672
   A23        1.77949  -0.00011   0.00000  -0.00068  -0.00068   1.77881
   A24        2.01640   0.00005   0.00000   0.00040   0.00040   2.01680
   A25        2.61198   0.00006   0.00000   0.00077   0.00077   2.61276
   A26        2.43082  -0.00004   0.00000   0.00027   0.00027   2.43109
   A27        1.94204  -0.00001   0.00000  -0.00011  -0.00011   1.94193
   A28        1.63801  -0.00012   0.00000  -0.00103  -0.00103   1.63698
   A29        1.84235   0.00006   0.00000   0.00162   0.00162   1.84398
   A30        1.71606   0.00003   0.00000   0.00066   0.00066   1.71672
   A31        2.43082  -0.00004   0.00000   0.00027   0.00027   2.43109
   A32        2.01640   0.00005   0.00000   0.00040   0.00040   2.01680
   A33        1.91658   0.00005   0.00000   0.00050   0.00050   1.91709
   A34        2.61198   0.00006   0.00000   0.00077   0.00077   2.61276
   A35        1.77949  -0.00011   0.00000  -0.00068  -0.00068   1.77881
   A36        1.94204  -0.00001   0.00000  -0.00011  -0.00011   1.94193
   A37        1.63801  -0.00012   0.00000  -0.00103  -0.00103   1.63698
   A38        1.84235   0.00006   0.00000   0.00162   0.00162   1.84398
   A39        1.33548   0.00016   0.00000   0.00090   0.00091   1.33639
   A40        1.80718   0.00017   0.00000   0.00118   0.00119   1.80837
   A41        1.80718   0.00017   0.00000   0.00118   0.00119   1.80837
   A42        1.33548   0.00016   0.00000   0.00090   0.00091   1.33639
   A43        1.94204  -0.00001   0.00000  -0.00011  -0.00011   1.94193
   A44        1.84235   0.00006   0.00000   0.00162   0.00162   1.84398
   A45        2.01640   0.00005   0.00000   0.00040   0.00040   2.01680
   A46        1.91658   0.00005   0.00000   0.00050   0.00050   1.91709
   A47        2.61198   0.00006   0.00000   0.00077   0.00077   2.61276
   A48        1.71606   0.00003   0.00000   0.00066   0.00066   1.71672
   A49        2.43082  -0.00004   0.00000   0.00027   0.00027   2.43109
   A50        1.77949  -0.00011   0.00000  -0.00068  -0.00068   1.77881
   A51        1.63801  -0.00012   0.00000  -0.00103  -0.00103   1.63698
   A52        1.95104   0.00007   0.00000   0.00040   0.00040   1.95144
   A53        1.65169   0.00009   0.00000  -0.00010  -0.00010   1.65159
   A54        2.06165  -0.00003   0.00000   0.00019   0.00019   2.06184
   A55        1.23678   0.00008   0.00000   0.00081   0.00081   1.23758
   A56        1.95104   0.00007   0.00000   0.00040   0.00040   1.95144
   A57        2.06165  -0.00003   0.00000   0.00019   0.00019   2.06184
   A58        2.10441  -0.00004   0.00000  -0.00064  -0.00064   2.10377
   A59        1.78927  -0.00011   0.00000  -0.00113  -0.00113   1.78814
   A60        1.48418  -0.00010   0.00000  -0.00006  -0.00006   1.48412
   A61        1.78927  -0.00011   0.00000  -0.00113  -0.00113   1.78814
   A62        2.10441  -0.00004   0.00000  -0.00064  -0.00064   2.10377
   A63        1.37493   0.00012   0.00000   0.00030   0.00030   1.37523
   A64        1.37493   0.00012   0.00000   0.00030   0.00030   1.37523
    D1        0.18888  -0.00003   0.00000  -0.00052  -0.00052   0.18836
    D2       -1.56616   0.00008   0.00000  -0.00004  -0.00004  -1.56620
    D3       -1.18872   0.00003   0.00000  -0.00073  -0.00073  -1.18945
    D4       -2.25030   0.00003   0.00000  -0.00055  -0.00055  -2.25085
    D5       -0.06130   0.00004   0.00000  -0.00029  -0.00030  -0.06160
    D6       -0.15125  -0.00003   0.00000  -0.00080  -0.00080  -0.15205
    D7       -1.21282  -0.00003   0.00000  -0.00062  -0.00062  -1.21345
    D8        0.97617  -0.00002   0.00000  -0.00037  -0.00037   0.97580
    D9        0.95454  -0.00009   0.00000  -0.00171  -0.00171   0.95283
   D10       -0.10704  -0.00009   0.00000  -0.00153  -0.00153  -0.10856
   D11        2.08196  -0.00008   0.00000  -0.00127  -0.00127   2.08069
   D12       -0.18888   0.00003   0.00000   0.00052   0.00052  -0.18836
   D13        1.56616  -0.00008   0.00000   0.00004   0.00004   1.56620
   D14        1.18872  -0.00003   0.00000   0.00073   0.00073   1.18945
   D15        2.25030  -0.00003   0.00000   0.00055   0.00055   2.25085
   D16        0.06130  -0.00004   0.00000   0.00029   0.00030   0.06160
   D17        0.15125   0.00003   0.00000   0.00080   0.00080   0.15205
   D18        1.21282   0.00003   0.00000   0.00062   0.00062   1.21345
   D19       -0.97617   0.00002   0.00000   0.00037   0.00037  -0.97580
   D20       -0.95454   0.00009   0.00000   0.00171   0.00171  -0.95283
   D21        0.10704   0.00009   0.00000   0.00153   0.00153   0.10856
   D22       -2.08196   0.00008   0.00000   0.00127   0.00127  -2.08069
   D23        2.52988  -0.00001   0.00000  -0.00016  -0.00016   2.52972
   D24        1.71674   0.00001   0.00000  -0.00041  -0.00041   1.71633
   D25        0.38320  -0.00003   0.00000  -0.00048  -0.00048   0.38272
   D26       -0.42994   0.00000   0.00000  -0.00074  -0.00074  -0.43068
   D27        1.46653  -0.00003   0.00000  -0.00057  -0.00057   1.46595
   D28        0.65338  -0.00001   0.00000  -0.00083  -0.00083   0.65255
   D29       -1.36144  -0.00004   0.00000  -0.00054  -0.00054  -1.36198
   D30       -0.46089  -0.00003   0.00000  -0.00031  -0.00031  -0.46121
   D31       -2.47571   0.00001   0.00000   0.00011   0.00011  -2.47561
   D32       -1.57517   0.00002   0.00000   0.00034   0.00034  -1.57483
   D33       -0.39844   0.00001   0.00000   0.00047   0.00047  -0.39797
   D34        0.50211   0.00002   0.00000   0.00070   0.00070   0.50281
   D35        0.52949  -0.00003   0.00000   0.00076   0.00076   0.53025
   D36        1.43004  -0.00002   0.00000   0.00099   0.00099   1.43103
   D37        0.00000   0.00000   0.00000   0.00000   0.00000   0.00000
   D38       -0.71044  -0.00006   0.00000  -0.00161  -0.00161  -0.71205
   D39        0.71044   0.00006   0.00000   0.00161   0.00161   0.71205
   D40        0.00000   0.00000   0.00000   0.00000   0.00000   0.00000
   D41        1.43925  -0.00001   0.00000  -0.00078  -0.00078   1.43847
   D42        2.35741  -0.00005   0.00000   0.00027   0.00027   2.35768
   D43       -0.53888   0.00004   0.00000  -0.00064  -0.00064  -0.53952
   D44        0.30521  -0.00012   0.00000  -0.00272  -0.00272   0.30249
   D45       -1.71674  -0.00001   0.00000   0.00041   0.00041  -1.71633
   D46       -0.65338   0.00001   0.00000   0.00083   0.00083  -0.65255
   D47        0.42994   0.00000   0.00000   0.00074   0.00074   0.43068
   D48       -2.52988   0.00001   0.00000   0.00016   0.00016  -2.52972
   D49       -1.46653   0.00003   0.00000   0.00057   0.00057  -1.46595
   D50       -0.38320   0.00003   0.00000   0.00048   0.00048  -0.38272
   D51        2.25030  -0.00003   0.00000   0.00055   0.00055   2.25085
   D52        1.21282   0.00003   0.00000   0.00062   0.00062   1.21345
   D53        0.10704   0.00009   0.00000   0.00153   0.00153   0.10856
   D54        1.18872  -0.00003   0.00000   0.00073   0.00073   1.18945
   D55        0.15125   0.00003   0.00000   0.00080   0.00080   0.15205
   D56       -0.95454   0.00009   0.00000   0.00171   0.00171  -0.95283
   D57        0.06130  -0.00004   0.00000   0.00029   0.00030   0.06160
   D58       -0.97617   0.00002   0.00000   0.00037   0.00037  -0.97580
   D59       -2.08196   0.00008   0.00000   0.00127   0.00127  -2.08069
   D60        0.00000   0.00000   0.00000   0.00000   0.00000   0.00000
   D61        0.71044   0.00006   0.00000   0.00161   0.00161   0.71205
   D62       -0.71044  -0.00006   0.00000  -0.00161  -0.00161  -0.71205
   D63        0.00000   0.00000   0.00000   0.00000   0.00000   0.00000
   D64        0.39844  -0.00001   0.00000  -0.00047  -0.00047   0.39797
   D65       -0.50211  -0.00002   0.00000  -0.00070  -0.00070  -0.50281
   D66        2.47571  -0.00001   0.00000  -0.00011  -0.00011   2.47561
   D67        1.57517  -0.00002   0.00000  -0.00034  -0.00034   1.57483
   D68        1.36144   0.00004   0.00000   0.00054   0.00054   1.36198
   D69        0.46089   0.00003   0.00000   0.00031   0.00031   0.46121
   D70       -0.52949   0.00003   0.00000  -0.00076  -0.00076  -0.53025
   D71       -1.43004   0.00002   0.00000  -0.00099  -0.00099  -1.43103
   D72       -0.18888   0.00003   0.00000   0.00052   0.00052  -0.18836
   D73        1.56616  -0.00008   0.00000   0.00004   0.00004   1.56620
   D74       -2.35741   0.00005   0.00000  -0.00027  -0.00027  -2.35768
   D75       -0.30521   0.00012   0.00000   0.00272   0.00272  -0.30249
   D76        0.53888  -0.00004   0.00000   0.00064   0.00064   0.53952
   D77       -1.43925   0.00001   0.00000   0.00078   0.00078  -1.43847
   D78       -1.57517   0.00002   0.00000   0.00034   0.00034  -1.57483
   D79       -2.47571   0.00001   0.00000   0.00011   0.00011  -2.47561
   D80        0.50211   0.00002   0.00000   0.00070   0.00070   0.50281
   D81       -0.39844   0.00001   0.00000   0.00047   0.00047  -0.39797
   D82       -0.46089  -0.00003   0.00000  -0.00031  -0.00031  -0.46121
   D83       -1.36144  -0.00004   0.00000  -0.00054  -0.00054  -1.36198
   D84        1.43004  -0.00002   0.00000   0.00099   0.00099   1.43103
   D85        0.52949  -0.00003   0.00000   0.00076   0.00076   0.53025
   D86        0.65338  -0.00001   0.00000  -0.00083  -0.00083   0.65255
   D87        1.46653  -0.00003   0.00000  -0.00057  -0.00057   1.46595
   D88        1.71674   0.00001   0.00000  -0.00041  -0.00041   1.71633
   D89        2.52988  -0.00001   0.00000  -0.00016  -0.00016   2.52972
   D90       -0.42994   0.00000   0.00000  -0.00074  -0.00074  -0.43068
   D91        0.38320  -0.00003   0.00000  -0.00048  -0.00048   0.38272
   D92        0.18888  -0.00003   0.00000  -0.00052  -0.00052   0.18836
   D93       -1.56616   0.00008   0.00000  -0.00004  -0.00004  -1.56620
   D94        0.30521  -0.00012   0.00000  -0.00272  -0.00272   0.30249
   D95        2.35741  -0.00005   0.00000   0.00027   0.00027   2.35768
   D96       -0.53888   0.00004   0.00000  -0.00064  -0.00064  -0.53952
   D97        1.43925  -0.00001   0.00000  -0.00078  -0.00078   1.43847
   D98        0.46089   0.00003   0.00000   0.00031   0.00031   0.46121
   D99        1.57517  -0.00002   0.00000  -0.00034  -0.00034   1.57483
   D100      -0.50211  -0.00002   0.00000  -0.00070  -0.00070  -0.50281
   D101      -1.43004   0.00002   0.00000  -0.00099  -0.00099  -1.43103
   D102       1.36144   0.00004   0.00000   0.00054   0.00054   1.36198
   D103       2.47571  -0.00001   0.00000  -0.00011  -0.00011   2.47561
   D104       0.39844  -0.00001   0.00000  -0.00047  -0.00047   0.39797
   D105      -0.52949   0.00003   0.00000  -0.00076  -0.00076  -0.53025
   D106      -2.52988   0.00001   0.00000   0.00016   0.00016  -2.52972
   D107      -1.71674  -0.00001   0.00000   0.00041   0.00041  -1.71633
   D108      -1.46653   0.00003   0.00000   0.00057   0.00057  -1.46595
   D109      -0.65338   0.00001   0.00000   0.00083   0.00083  -0.65255
   D110      -0.38320   0.00003   0.00000   0.00048   0.00048  -0.38272
   D111       0.42994   0.00000   0.00000   0.00074   0.00074   0.43068
   D112      -1.43925   0.00001   0.00000   0.00078   0.00078  -1.43847
   D113      -2.35741   0.00005   0.00000  -0.00027  -0.00027  -2.35768
   D114      -0.30521   0.00012   0.00000   0.00272   0.00272  -0.30249
   D115       0.53888  -0.00004   0.00000   0.00064   0.00064   0.53952
   D116      -0.10704  -0.00009   0.00000  -0.00153  -0.00153  -0.10856
   D117      -1.21282  -0.00003   0.00000  -0.00062  -0.00062  -1.21345
   D118      -2.25030   0.00003   0.00000  -0.00055  -0.00055  -2.25085
   D119       0.95454  -0.00009   0.00000  -0.00171  -0.00171   0.95283
   D120      -0.15125  -0.00003   0.00000  -0.00080  -0.00080  -0.15205
   D121      -1.18872   0.00003   0.00000  -0.00073  -0.00073  -1.18945
   D122       2.08196  -0.00008   0.00000  -0.00127  -0.00127   2.08069
   D123       0.97617  -0.00002   0.00000  -0.00037  -0.00037   0.97580
   D124      -0.06130   0.00004   0.00000  -0.00029  -0.00030  -0.06160
         Item               Value     Threshold  Converged?
 Maximum Force            0.000907     0.000450     NO 
 RMS     Force            0.000276     0.000300     YES
 Maximum Displacement     0.011554     0.001800     NO 
 RMS     Displacement     0.002002     0.001200     NO 
 Predicted change in Energy=-9.034416D-05
 GradGradGradGradGradGradGradGradGradGradGradGradGradGradGradGradGradGrad

                          Input orientation:                          
 ---------------------------------------------------------------------
 Center     Atomic      Atomic             Coordinates (Angstroms)
 Number     Number       Type             X           Y           Z
 ---------------------------------------------------------------------
      1         14           0       -1.753145    0.000000    1.568904
      2         14           0       -3.568767    0.000000   -0.077940
      3         14           0       -1.563132    1.219923   -0.720121
      4         14           0        0.000000    1.611764    1.439771
      5         14           0        1.563132    1.219923   -0.720121
      6         14           0        3.568767    0.000000   -0.077940
      7         14           0        1.563132   -1.219923   -0.720121
      8         14           0        0.000000    0.000000   -2.280120
      9         14           0       -1.563132   -1.219923   -0.720121
     10         14           0        0.000000   -1.611764    1.439771
     11         14           0        1.753145    0.000000    1.568904
     12         14           0        0.000000    3.086813   -0.350355
     13         14           0        0.000000   -3.086813   -0.350355
 ---------------------------------------------------------------------
                    Distance matrix (angstroms):
                    1          2          3          4          5
     1  Si   0.000000
     2  Si   2.451241   0.000000
     3  Si   2.600761   2.433759   0.000000
     4  Si   2.384948   4.199682   2.694820   0.000000
     5  Si   4.210172   5.313850   3.126264   2.694820   0.000000
     6  Si   5.570893   7.137534   5.313850   4.199682   2.433759
     7  Si   4.210172   5.313850   3.965650   3.889341   2.439847
     8  Si   4.229481   4.193530   2.522933   4.054056   2.522933
     9  Si   2.600761   2.433759   2.439847   3.889341   3.965650
    10  Si   2.384948   4.199682   3.889341   3.223529   3.889341
    11  Si   3.506290   5.570893   4.210172   2.384948   2.600761
    12  Si   4.035528   4.726386   2.462800   2.319551   2.462800
    13  Si   4.035528   4.726386   4.596530   5.028039   4.596530
                    6          7          8          9         10
     6  Si   0.000000
     7  Si   2.433759   0.000000
     8  Si   4.193530   2.522933   0.000000
     9  Si   5.313850   3.126264   2.522933   0.000000
    10  Si   4.199682   2.694820   4.054056   2.694820   0.000000
    11  Si   2.451241   2.600761   4.229481   4.210172   2.384948
    12  Si   4.726386   4.596530   3.640385   4.596530   5.028039
    13  Si   4.726386   2.462800   3.640385   2.462800   2.319551
                   11         12         13
    11  Si   0.000000
    12  Si   4.035528   0.000000
    13  Si   4.035528   6.173625   0.000000
 Stoichiometry    Si13
 Framework group  C2V[C2(Si),SGV(Si4),SGV'(Si4),X(Si4)]
 Deg. of freedom    11
 Full point group                 C2V     NOp   4
 Largest Abelian subgroup         C2V     NOp   4
 Largest concise Abelian subgroup C2V     NOp   4
                         Standard orientation:                         
 ---------------------------------------------------------------------
 Center     Atomic      Atomic             Coordinates (Angstroms)
 Number     Number       Type             X           Y           Z
 ---------------------------------------------------------------------
      1         14           0        0.000000    1.753145   -1.568893
      2         14           0        0.000000    3.568767    0.077952
      3         14           0       -1.219923    1.563132    0.720133
      4         14           0       -1.611764    0.000000   -1.439759
      5         14           0       -1.219923   -1.563132    0.720133
      6         14           0        0.000000   -3.568767    0.077952
      7         14           0        1.219923   -1.563132    0.720133
      8         14           0        0.000000    0.000000    2.280132
      9         14           0        1.219923    1.563132    0.720133
     10         14           0        1.611764    0.000000   -1.439759
     11         14           0        0.000000   -1.753145   -1.568893
     12         14           0       -3.086813    0.000000    0.350367
     13         14           0        3.086813    0.000000    0.350367
 ---------------------------------------------------------------------
 Rotational constants (GHZ):      0.3859450      0.3114911      0.2522994
 Standard basis: GTBas3 (6D, 7F)
 There are   135 symmetry adapted basis functions of A1  symmetry.
 There are    75 symmetry adapted basis functions of A2  symmetry.
 There are   103 symmetry adapted basis functions of B1  symmetry.
 There are   103 symmetry adapted basis functions of B2  symmetry.
 Integral buffers will be    131072 words long.
 Raffenetti 2 integral format.
 Two-electron integral symmetry is turned on.
   416 basis functions,   884 primitive gaussians,   455 cartesian basis functions
    91 alpha electrons       91 beta electrons
       nuclear repulsion energy      2409.6883518355 Hartrees.
 NAtoms=   13 NActive=   13 NUniq=    6 SFac= 3.00D+00 NAtFMM=   80 NAOKFM=F Big=F
 One-electron integrals computed using PRISM.
 NBasis=   416 RedAO= T  NBF=   135    75   103   103
 NBsUse=   416 1.00D-06 NBFU=   135    75   103   103
 Initial guess read from the read-write file.
 B after Tr=     0.000000    0.000000    0.000000
         Rot=    1.000000    0.000000    0.000000    0.000000 Ang=   0.00 deg.
 Initial guess orbital symmetries:
       Occupied  (B2) (B1) (A2) (A1) (B1) (A1) (A1) (B1) (A1) (B2)
                 (A1) (B2) (A1) (B2) (A1) (B1) (A2) (B1) (A1) (A1)
                 (B1) (B2) (A1) (A1) (B2) (A1) (B2) (A1) (B1) (A2)
                 (A1) (B2) (A2) (B1) (A1) (B2) (B1) (A2) (B1) (A1)
                 (A2) (B2) (A1) (B1) (B1) (A1) (B2) (A2) (A1) (B1)
                 (A1) (B2) (B1) (A2) (A1) (B2) (B1) (B2) (A1) (A2)
                 (B1) (B2) (A1) (B2) (A1) (A1) (B2) (B1) (A1) (A1)
                 (A1) (B2) (A2) (B1) (B2) (B1) (A1) (A1) (B2) (A1)
                 (B1) (A2) (A1) (B2) (B1) (A1) (A2) (A1) (B2) (B1)
                 (B2)
       Virtual   (A1) (B1) (A2) (A1) (B2) (B1) (A2) (A1) (B2) (A1)
                 (B1) (A1) (B2) (B1) (A1) (B2) (B1) (A2) (A1) (B2)
                 (A2) (B1) (B2) (B1) (A2) (A1) (A1) (B2) (A2) (A1)
                 (B2) (A1) (B1) (B2) (A2) (A1) (B1) (A1) (A1) (B1)
                 (B2) (A1) (B2) (B1) (A1) (A2) (B1) (A2) (B2) (A1)
                 (B1) (A1) (A2) (A1) (B2) (B1) (A1) (B2) (B1) (B1)
                 (A1) (B2) (A2) (B1) (B2) (A1) (A1) (B2) (A2) (A2)
                 (B2) (B1) (B2) (A1) (B1) (B1) (A2) (A1) (A1) (B2)
                 (A2) (B1) (A1) (A2) (B2) (A2) (A1) (B2) (B1) (B2)
                 (B1) (A1) (A2) (B2) (A1) (A2) (B1) (B2) (A1) (B1)
                 (A1) (B2) (A1) (B1) (B1) (A1) (B2) (A2) (A1) (A1)
                 (B1) (A2) (A1) (B2) (B1) (A1) (A2) (B2) (B2) (A1)
                 (B1) (A2) (A1) (B1) (B2) (B1) (B2) (A2) (B1) (A1)
                 (A2) (B2) (A1) (A1) (B1) (B1) (A2) (B2) (A1) (A2)
                 (B2) (B1) (A1) (B2) (A1) (B1) (A1) (A1) (A1) (A2)
                 (A1) (B2) (A2) (B1) (B2) (A2) (B2) (B1) (A1) (B2)
                 (A2) (B1) (B2) (B1) (A1) (A1) (A2) (A1) (B1) (B2)
                 (B2) (A1) (A2) (B1) (B2) (A1) (B1) (A1) (B2) (A1)
                 (B1) (B2) (A2) (B1) (A2) (B2) (B1) (A1) (B2) (A2)
                 (B1) (A1) (B1) (A2) (A1) (A1) (B2) (A2) (A1) (B1)
                 (A1) (A2) (B2) (A1) (B2) (B1) (B2) (B1) (A2) (A1)
                 (B2) (B1) (A2) (A1) (B2) (A1) (B2) (B1) (B1) (B2)
                 (B1) (A1) (A2) (A1) (A1) (A2) (B2) (B1) (B1) (B2)
                 (A2) (A1) (B1) (A2) (B2) (B1) (A1) (A1) (A2) (A2)
                 (A1) (A2) (B1) (B2) (B2) (A1) (B1) (A2) (B1) (A1)
                 (A1) (A2) (B2) (A1) (B1) (B2) (B2) (B1) (A2) (A1)
                 (A1) (A2) (B2) (A1) (B2) (B1) (A1) (B2) (A2) (B1)
                 (B1) (A1) (A2) (A1) (B2) (A2) (B1) (B1) (B2) (A1)
                 (A1) (B2) (B1) (A2) (B2) (B1) (A1) (A1) (B2) (A2)
                 (A1) (B2) (B1) (A2) (B1) (B2) (A1) (B1) (A2) (A1)
                 (B2) (A1) (B1) (B2) (B1) (A2) (B2) (B1) (A1) (A2)
                 (A1) (A1) (A2) (B2) (A1) (B1) (A1) (A1) (A2) (B2)
                 (B1) (A1) (B2) (B1) (A1)
 Requested convergence on RMS density matrix=1.00D-08 within 128 cycles.
 Requested convergence on MAX density matrix=1.00D-06.
 Requested convergence on             energy=1.00D-06.
 No special actions if energy rises.
 Keep R1 ints in memory in canonical form, NReq=5429208340.
 SCF Done:  E(RB3LYP) =  -3763.40644557     A.U. after   10 cycles
             Convg  =    0.6117D-08             -V/T =  2.0036
 QCSCF skips out because SCF is already converged.
 Calling FoFJK, ICntrl=      2127 FMM=F ISym2X=1 I1Cent= 0 IOpClX= 0 NMat=1 NMatS=1 NMatT=0.
 ***** Axes restored to original set *****
 -------------------------------------------------------------------
 Center     Atomic                   Forces (Hartrees/Bohr)
 Number     Number              X              Y              Z
 -------------------------------------------------------------------
      1       14          -0.000245674    0.000000000   -0.000819363
      2       14           0.000832095    0.000000000   -0.000054611
      3       14           0.000304104   -0.000714195    0.000789849
      4       14           0.000000000   -0.000084778   -0.001275113
      5       14          -0.000304104   -0.000714195    0.000789849
      6       14          -0.000832095    0.000000000   -0.000054611
      7       14          -0.000304104    0.000714195    0.000789849
      8       14           0.000000000    0.000000000    0.001393895
      9       14           0.000304104    0.000714195    0.000789849
     10       14           0.000000000    0.000084778   -0.001275113
     11       14           0.000245674    0.000000000   -0.000819363
     12       14           0.000000000   -0.000732418   -0.000127557
     13       14           0.000000000    0.000732418   -0.000127557
 -------------------------------------------------------------------
 Cartesian Forces:  Max     0.001393895 RMS     0.000600734

 GradGradGradGradGradGradGradGradGradGradGradGradGradGradGradGradGradGrad
 Berny optimization.
 Using GEDIIS/GDIIS optimizer.
 Internal  Forces:  Max     0.000475777 RMS     0.000149119
 Search for a local minimum.
[...]
 Alpha virt. eigenvalues --    5.09400   5.10967   5.10985   5.12280   5.14282
 Alpha virt. eigenvalues --    5.14591   5.16296   5.16600   5.17718   5.18128
 Alpha virt. eigenvalues --    5.18659   5.18748   5.20253   5.20567   5.22244
 Alpha virt. eigenvalues --    5.22358   5.22744   5.24220   5.24633   5.25129
 Alpha virt. eigenvalues --    5.25731   5.26220   5.26544   5.27129   5.27818
 Alpha virt. eigenvalues --    5.28012   5.28927   5.29922   5.31777   5.32095
 Alpha virt. eigenvalues --    5.33976   5.34239   5.35367   5.35440   5.36915
 Alpha virt. eigenvalues --    5.38457   5.38620   5.41693   5.43471   5.44677
 Alpha virt. eigenvalues --    5.45658   5.46497   5.48929   5.51947   5.53164
 Alpha virt. eigenvalues --    5.53373   5.53572   5.53593   5.55979   5.57959
 Alpha virt. eigenvalues --    5.58062   5.59184   5.60196   5.63236   5.63933
 Alpha virt. eigenvalues --    5.64090   5.66678   5.67388   5.70972   5.71270
 Alpha virt. eigenvalues --    5.78618   5.90232   5.91956   5.93143   5.93149
 Alpha virt. eigenvalues --    5.99964   6.02551   6.08718   6.13373   6.57597
 Alpha virt. eigenvalues --    6.64174   6.66543   6.67280   6.70264   6.74225
 Alpha virt. eigenvalues --    6.75822   6.76242   6.78644   6.80386   6.80655
 Alpha virt. eigenvalues --    6.86464   6.87321   6.87575   6.88206   6.90109
 Alpha virt. eigenvalues --    6.92735   6.93440   6.93583   6.95068   6.96373
 Alpha virt. eigenvalues --    6.98854   7.02565   7.04488   7.05589   7.05935
 Alpha virt. eigenvalues --    7.06371   7.08520   7.08872   7.09097   7.11210
 Alpha virt. eigenvalues --    7.11343   7.15662   7.16079   7.17493   7.18632
 Alpha virt. eigenvalues --    7.19901   7.20516   7.20712   7.22311   7.23661
 Alpha virt. eigenvalues --    7.24931   7.28689   7.30063   7.33025   7.33461
 Alpha virt. eigenvalues --    7.35903   7.37714   7.37731   7.38701   7.39705
 Alpha virt. eigenvalues --    7.40637   7.40758   7.46425   7.47210   7.62188
 Alpha virt. eigenvalues --    7.64037   7.64085   7.72886   7.74906   7.74931
 Alpha virt. eigenvalues --    7.76942   7.78635   7.92754   8.05438  13.89158
 Alpha virt. eigenvalues --   14.05361  14.06591  14.09229  14.10440  14.12033
 Alpha virt. eigenvalues --   14.12672  14.16624  14.18567  14.20274  14.23901
 Alpha virt. eigenvalues --   14.23904  14.29345  14.30169  14.30369  14.32969
 Alpha virt. eigenvalues --   14.36945  14.37673  14.45173  14.45766  14.48835
 Alpha virt. eigenvalues --   14.49158  14.52774  14.58289  14.63261  14.63665
 Alpha virt. eigenvalues --   14.72272  14.75002  14.75937  14.90311  14.93975
 Alpha virt. eigenvalues --   14.97618  15.01412  15.01532  15.08009  15.09199
 Alpha virt. eigenvalues --   15.22715  15.24102  15.29527  41.18394  41.45668
 Alpha virt. eigenvalues --   42.22548  42.81278  42.99213  43.69424  43.96644
 Alpha virt. eigenvalues --   43.99555  45.41048  45.42341  45.75827  46.28266
 Alpha virt. eigenvalues --   46.80272
          Condensed to atoms (all electrons):
              1          2          3          4          5          6
     1  Si  12.949400   0.225864   0.121958   0.382624  -0.007166   0.000487
     2  Si   0.225864  13.320902   0.293766  -0.008824  -0.000605  -0.000213
     3  Si   0.121958   0.293766  12.706049   0.079955  -0.011851  -0.000605
     4  Si   0.382624  -0.008824   0.079955  12.686720   0.079955  -0.008824
     5  Si  -0.007166  -0.000605  -0.011851   0.079955  12.706049   0.293766
     6  Si   0.000487  -0.000213  -0.000605  -0.008824   0.293766  13.320902
     7  Si  -0.007166  -0.000605  -0.031068  -0.012312   0.201465   0.293766
     8  Si   0.009447  -0.011561   0.216921   0.008946   0.216921  -0.011561
     9  Si   0.121958   0.293766   0.201465  -0.012312  -0.031068  -0.000605
    10  Si   0.382624  -0.008824  -0.012312  -0.035293  -0.012312  -0.008824
    11  Si  -0.007069   0.000487  -0.007166   0.382624   0.121958   0.225864
    12  Si  -0.012097  -0.016224   0.260108   0.374378   0.260108  -0.016224
    13  Si  -0.012097  -0.016224  -0.003456  -0.002667  -0.003456  -0.016224
              7          8          9         10         11         12
     1  Si  -0.007166   0.009447   0.121958   0.382624  -0.007069  -0.012097
     2  Si  -0.000605  -0.011561   0.293766  -0.008824   0.000487  -0.016224
     3  Si  -0.031068   0.216921   0.201465  -0.012312  -0.007166   0.260108
     4  Si  -0.012312   0.008946  -0.012312  -0.035293   0.382624   0.374378
     5  Si   0.201465   0.216921  -0.031068  -0.012312   0.121958   0.260108
     6  Si   0.293766  -0.011561  -0.000605  -0.008824   0.225864  -0.016224
     7  Si  12.706049   0.216921  -0.011851   0.079955   0.121958  -0.003456
     8  Si   0.216921  13.406049   0.216921   0.008946   0.009447  -0.005508
     9  Si  -0.011851   0.216921  12.706049   0.079955  -0.007166  -0.003456
    10  Si   0.079955   0.008946   0.079955  12.686720   0.382624  -0.002667
    11  Si   0.121958   0.009447  -0.007166   0.382624  12.949400  -0.012097
    12  Si  -0.003456  -0.005508  -0.003456  -0.002667  -0.012097  13.276329
    13  Si   0.260108  -0.005508   0.260108   0.374378  -0.012097  -0.000359
             13
     1  Si  -0.012097
     2  Si  -0.016224
     3  Si  -0.003456
     4  Si  -0.002667
     5  Si  -0.003456
     6  Si  -0.016224
     7  Si   0.260108
     8  Si  -0.005508
     9  Si   0.260108
    10  Si   0.374378
    11  Si  -0.012097
    12  Si  -0.000359
    13  Si  13.276329
 Mulliken atomic charges:
              1
     1  Si  -0.148768
     2  Si  -0.071706
     3  Si   0.186236
     4  Si   0.085028
     5  Si   0.186236
     6  Si  -0.071706
     7  Si   0.186236
     8  Si  -0.276383
     9  Si   0.186236
    10  Si   0.085028
    11  Si  -0.148768
    12  Si  -0.098835
    13  Si  -0.098835
 Sum of Mulliken atomic charges =   0.00000
 Mulliken charges with hydrogens summed into heavy atoms:
              1
     1  Si  -0.148768
     2  Si  -0.071706
     3  Si   0.186236
     4  Si   0.085028
     5  Si   0.186236
     6  Si  -0.071706
     7  Si   0.186236
     8  Si  -0.276383
     9  Si   0.186236
    10  Si   0.085028
    11  Si  -0.148768
    12  Si  -0.098835
    13  Si  -0.098835
 Sum of Mulliken charges with hydrogens summed into heavy atoms =   0.00000
 Electronic spatial extent (au):  <R**2>=           4792.8345
 Charge=              0.0000 electrons
 Dipole moment (field-independent basis, Debye):
    X=              0.0000    Y=              0.0000    Z=             -1.3398  Tot=              1.3398
 Quadrupole moment (field-independent basis, Debye-Ang):
   XX=           -172.4551   YY=           -184.7385   ZZ=           -174.5528
   XY=              0.0000   XZ=              0.0000   YZ=              0.0000
 Traceless Quadrupole moment (field-independent basis, Debye-Ang):
   XX=              4.7937   YY=             -7.4897   ZZ=              2.6960
   XY=              0.0000   XZ=              0.0000   YZ=              0.0000
 Octapole moment (field-independent basis, Debye-Ang**2):
  XXX=              0.0000  YYY=              0.0000  ZZZ=            -23.6987  XYY=              0.0000
  XXY=              0.0000  XXZ=            -11.5324  XZZ=              0.0000  YZZ=              0.0000
  YYZ=              3.4507  XYZ=              0.0000
 Hexadecapole moment (field-independent basis, Debye-Ang**3):
 XXXX=          -2862.1999 YYYY=          -4115.9250 ZZZZ=          -1715.1407 XXXY=              0.0000
 XXXZ=              0.0000 YYYX=              0.0000 YYYZ=              0.0000 ZZZX=              0.0000
 ZZZY=              0.0000 XXYY=          -1021.9593 XXZZ=           -743.6049 YYZZ=           -877.7363
 XXYZ=              0.0000 YYXZ=              0.0000 ZZXY=              0.0000
 N-N= 2.413718928145D+03 E-N=-1.378968160101D+04  KE= 3.756012854273D+03
 Symmetry A1   KE= 1.582321925739D+03
 Symmetry A2   KE= 3.888278826620D+02
 Symmetry B1   KE= 8.912678974862D+02
 Symmetry B2   KE= 8.935951483863D+02
 1\1\GINC-NODE78\SP\RHF\GFHFB2\Si13\TAM\21-Jan-2013\0\\#N Geom=AllCheck
  Guess=TCheck SCRF=Check HF/GFHFB2 SCF=Tight\\si13-n\\0,1\Si,0,-1.7529
 889311,0.,1.5681929465\Si,0,-3.5673368053,0.,-0.0771061679\Si,0,-1.562
 3319002,1.2161779644,-0.711298094\Si,0,0.,1.6134270055,1.4303131215\Si
 ,0,1.5623319002,1.2161779644,-0.711298094\Si,0,3.5673368053,0.,-0.0771
 061679\Si,0,1.5623319002,-1.2161779644,-0.711298094\Si,0,0.,0.,-2.2692
 579269\Si,0,-1.5623319002,-1.2161779644,-0.711298094\Si,0,0.,-1.613427
 0055,1.4303131215\Si,0,1.7529889311,0.,1.5681929465\Si,0,0.,3.08338734
 88,-0.3640980049\Si,0,0.,-3.0833873488,-0.3640980049\\Version=AM64L-G0
 9RevA.02\State=1-A1\HF=-3756.0987828\RMSD=3.432e-09\Dipole=0.,0.,0.527
 1087\Quadrupole=-5.5684186,3.5639824,2.0044363,0.,0.,0.\PG=C02V [C2(Si
 1),SGV(Si4),SGV'(Si4),X(Si4)]\\@


 EVERYTHING'S GOT A MORAL, IF ONLY YOU CAN FIND IT.

                                    -- LEWIS CARROL, ALICE IN WONDERLAND
 Diagonal vibrational polarizability:
        0.0000000       0.0000000       0.0000000

 Temperature=              298.150000 Pressure=                      1.000000
 E(ZPE)=                     0.020665 E(Thermal)=                    0.039008
 E(CCSD(T))=             -3757.051342 E(Empiric)=                   -0.180622
 DE(Plus)=                  -0.033951 DE(2DF)=                      -0.455039
 E(Delta-G3XP)=             -4.078547 DE(HF)=                       -0.086183
 G4(0 K)=                -3761.865017 G4 Energy=                 -3761.846674
 G4 Enthalpy=            -3761.845730 G4 Free Energy=            -3761.909081
 1\1\GINC-NODE78\Mixed\G4\G4\Si13\TAM\21-Jan-2013\0\\# G4 scfcyc=500 sc
 f=xqc\\si13-n\\0,1\Si,0,-1.7529889311,0.,1.5681929465\Si,0,-3.56733680
 53,0.,-0.0771061679\Si,0,-1.5623319002,1.2161779644,-0.711298094\Si,0,
 0.,1.6134270055,1.4303131215\Si,0,1.5623319002,1.2161779644,-0.7112980
 94\Si,0,3.5673368053,0.,-0.0771061679\Si,0,1.5623319002,-1.2161779644,
 -0.711298094\Si,0,0.,0.,-2.2692579269\Si,0,-1.5623319002,-1.2161779644
 ,-0.711298094\Si,0,0.,-1.6134270055,1.4303131215\Si,0,1.7529889311,0.,
 1.5681929465\Si,0,0.,3.0833873488,-0.3640980049\Si,0,0.,-3.0833873488,
 -0.3640980049\\Version=AM64L-G09RevA.02\State=1-A1\MP2/GTBas1=-3756.96
 04245\MP4/GTBas1=-3757.1280108\CCSD(T)/G3Bas1=-3757.0513416\MP2/GTBas2
 =-3756.9909767\MP4/GTBas2=-3757.1619616\MP2/GTBas3=-3757.3728416\MP4/G
 TBas3=-3757.5830494\HF/GTLargeXP=-3756.0158405\MP2/GTLargeXP=-3761.481
 9404\HF/GFHFB1=-3756.0854847\HF/GFHFB2=-3756.0987828\G4=-3761.8650172\
 FreqCoord=-3.3126689937,0.,2.9634551924,-6.7412895858,0.,-0.1457095405
 ,-2.9523794201,2.2982432816,-1.3441585966,0.,3.0489351758,2.702900084,
 2.9523794201,2.2982432816,-1.3441585966,6.7412895858,0.,-0.1457095405,
 2.9523794201,-2.2982432816,-1.3441585966,0.,0.,-4.2882760067,-2.952379
 4201,-2.2982432816,-1.3441585966,0.,-3.0489351758,2.702900084,3.312668
 9937,0.,2.9634551924,0.,5.8267576508,-0.6880455149,0.,-5.8267576508,-0
 .6880455149\PG=C02V [C2(Si1),SGV(Si4),SGV'(Si4),X(Si4)]\NImag=0\\0.116
 13748,0.,0.08467579,0.01700810,0.,0.06401258,-0.03244243,0.,-0.0279099
 2,0.12820559,0.,-0.00855146,0.,0.,0.03702366,-0.03111739,0.,-0.0176105
 2,0.00298063,0.,0.03766459,-0.00208298,0.00402505,0.00486930,-0.044085
 20,-0.02639942,0.01384897,0.09755065,0.00171281,-0.00487996,0.00746615
 ,-0.02062730,-0.01430452,0.00071103,0.03064475,0.11190754,0.00183672,0
 .00753113,-0.01530122,0.01327161,0.00389407,-0.00803754,-0.01169916,0.
 00428537,0.04176557,-0.03127274,-0.03157961,-0.00122481,-0.00335280,-0
 .00077057,-0.00031033,-0.00391594,-0.00030352,-0.00534101,0.09116116,-
 0.02509674,-0.02542019,0.00337949,0.00225750,0.00071919,-0.00262965,-0
 .00424366,-0.00268801,-0.00158059,0.,0.12068166,-0.00164886,0.00610886
 ,0.00023288,0.00223805,-0.00099704,0.00004231,-0.00452133,-0.00509445,
 -0.01410253,0.,-0.04031809,0.08119036,-0.00098128,-0.00403043,0.001948
 36,-0.00231217,0.00029470,-0.00190835,-0.00851775,0.00110175,-0.000149
 98,-0.00391594,0.00424366,0.00452133,0.09755065,-0.00017033,-0.0017435
 9,-0.00164170,0.00266721,-0.00185849,0.00141965,-0.00110175,0.00729778
 ,0.00139109,0.00030352,-0.00268801,-0.00509445,-0.03064475,0.11190754,
 0.00287663,0.00208607,-0.00215885,-0.00213763,0.00017142,-0.00114669,0
 .00014998,0.00139109,0.00387150,0.00534101,-0.00158059,-0.01410253,0.0
 1169916,0.00428537,0.04176557,-0.00005672,0.,-0.00119575,-0.00343094,0
 .,0.00034239,-0.00231217,-0.00266721,0.00213763,-0.00335280,-0.0022575
 0,-0.00223805,-0.04408520,0.02062730,-0.01327161,0.12820559,0.,-0.0015
 2616,0.,0.,0.00156212,0.,-0.00029470,-0.00185849,0.00017142,0.00077057
 ,0.00071919,-0.00099704,0.02639942,-0.01430452,0.00389407,0.,0.0370236
 6,-0.00119066,0.,-0.00073395,-0.00034239,0.,0.00292623,0.00190835,0.00
 141965,-0.00114669,0.00031033,-0.00262965,0.00004231,-0.01384897,0.000
 71103,-0.00803754,-0.00298063,0.,0.03766459,-0.00098128,0.00403043,0.0
 0194836,-0.00231217,-0.00029470,-0.00190835,-0.00049428,0.00063265,0.0
 0084106,0.00046461,0.00083568,0.00172016,0.00106145,0.00372654,0.00179
 185,-0.04408520,-0.02639942,-0.01384897,0.09755065,0.00017033,-0.00174
 359,0.00164170,-0.00266721,-0.00185849,-0.00141965,0.00063265,-0.00876
 585,-0.00182701,0.00395438,-0.00291357,-0.00131889,-0.00372654,-0.0477
 7389,-0.00592876,-0.02062730,-0.01430452,-0.00071103,0.03064475,0.1119
 0754,0.00287663,-0.00208607,-0.00215885,-0.00213763,-0.00017142,-0.001
 14669,-0.00084106,0.00182701,0.00294388,0.00283474,-0.00390487,-0.0018
 1779,0.00179185,0.00592876,0.00804413,-0.01327161,-0.00389407,-0.00803
 754,0.01169916,-0.00428537,0.04176557,-0.00410876,0.,0.00610052,0.0011
 8117,0.,0.00337960,-0.01166332,0.00941612,0.00655230,0.00168442,0.,0.,
 -0.01166332,-0.00941612,-0.00655230,0.00118117,0.,-0.00337960,-0.01166
 332,0.00941612,-0.00655230,0.04901867,0.,0.00109230,0.,0.,-0.00101691,
 0.,0.00850475,-0.00563579,-0.00789391,0.,-0.00532478,-0.00367079,-0.00
 850475,-0.00563579,-0.00789391,0.,-0.00101691,0.,0.00850475,-0.0056357
 9,0.00789391,0.,0.03586588,-0.00019443,0.,-0.00654250,-0.00237867,0.,0
 .00103344,0.00995362,-0.00754161,-0.01646757,0.,0.00057137,-0.00462141
 ,-0.00995362,-0.00754161,-0.01646757,0.00237867,0.,0.00103344,-0.00995
 362,0.00754161,-0.01646757,0.,0.,0.09028750,-0.00208298,-0.00402505,0.
 00486930,-0.04408520,0.02639942,0.01384897,0.00106145,-0.00372654,-0.0
 0179185,0.00046461,-0.00083568,-0.00172016,-0.00049428,-0.00063265,-0.
 00084106,-0.00231217,0.00029470,0.00190835,-0.00851775,0.00110175,0.00
 014998,-0.01166332,-0.00850475,0.00995362,0.09755065,-0.00171281,-0.00
 487996,-0.00746615,0.02062730,-0.01430452,-0.00071103,0.00372654,-0.04
 777389,-0.00592876,-0.00395438,-0.00291357,-0.00131889,-0.00063265,-0.
 00876585,-0.00182701,0.00266721,-0.00185849,-0.00141965,-0.00110175,0.
 00729778,-0.00139109,-0.00941612,-0.00563579,0.00754161,-0.03064475,0.
 11190754,0.00183672,-0.00753113,-0.01530122,0.01327161,-0.00389407,-0.
 00803754,-0.00179185,0.00592876,0.00804413,-0.00283474,-0.00390487,-0.
 00181779,0.00084106,0.00182701,0.00294388,0.00213763,-0.00017142,-0.00
 114669,-0.00014998,-0.00139109,0.00387150,0.00655230,0.00789391,-0.016
 46757,-0.01169916,-0.00428537,0.04176557,-0.03127274,0.03157961,-0.001
 22481,-0.00335280,0.00077057,-0.00031033,0.00046461,0.00395438,-0.0028
 3474,-0.00462194,0.,0.,0.00046461,-0.00395438,0.00283474,-0.00335280,-
 0.00077057,0.00031033,-0.00391594,-0.00030352,0.00534101,0.00168442,0.
 ,0.,-0.00391594,0.00030352,-0.00534101,0.09116116,0.02509674,-0.025420
 19,-0.00337949,-0.00225750,0.00071919,0.00262965,0.00083568,-0.0029135
 7,0.00390487,0.,-0.01606817,0.00301551,-0.00083568,-0.00291357,0.00390
 487,0.00225750,0.00071919,0.00262965,-0.00424366,-0.00268801,0.0015805
 9,0.,-0.00532478,-0.00057137,0.00424366,-0.00268801,0.00158059,0.,0.12
 068166,-0.00164886,-0.00610886,0.00023288,0.00223805,0.00099704,0.0000
 4231,-0.00172016,0.00131889,-0.00181779,0.,-0.00301551,0.00048048,0.00
 172016,0.00131889,-0.00181779,-0.00223805,0.00099704,0.00004231,0.0045
 2133,0.00509445,-0.01410253,0.,0.00367079,-0.00462141,-0.00452133,0.00
 509445,-0.01410253,0.,0.04031809,0.08119036,-0.01319885,0.,-0.00408119
 ,-0.00005672,0.,0.00119066,-0.00098128,0.00017033,-0.00287663,-0.03127
 274,0.02509674,0.00164886,-0.00208298,-0.00171281,-0.00183672,-0.03244
 243,0.,0.03111739,-0.00208298,0.00171281,-0.00183672,-0.00410876,0.,0.
 00019443,-0.00098128,-0.00017033,-0.00287663,-0.03127274,-0.02509674,0
 .00164886,0.11613748,0.,-0.00455242,0.,0.,-0.00152616,0.,0.00403043,-0
 .00174359,0.00208607,0.03157961,-0.02542019,0.00610886,-0.00402505,-0.
 00487996,0.00753113,0.,-0.00855146,0.,0.00402505,-0.00487996,-0.007531
 13,0.,0.00109230,0.,-0.00403043,-0.00174359,-0.00208607,-0.03157961,-0
 .02542019,-0.00610886,0.,0.08467579,0.00408119,0.,0.00355760,0.0011957
 5,0.,-0.00073395,-0.00194836,-0.00164170,-0.00215885,0.00122481,0.0033
 7949,0.00023288,-0.00486930,0.00746615,-0.01530122,0.02790992,0.,-0.01
 761052,-0.00486930,-0.00746615,-0.01530122,-0.00610052,0.,-0.00654250,
 -0.00194836,0.00164170,-0.00215885,0.00122481,-0.00337949,0.00023288,-
 0.01700810,0.,0.06401258,0.00117163,-0.00308042,-0.00055372,0.00302184
 ,-0.00148592,-0.00001823,-0.02271333,-0.02452484,-0.00062751,-0.008447
 10,0.,0.,-0.02271333,0.02452484,0.00062751,0.00302184,0.00148592,0.000
 01823,-0.00231047,0.00421664,-0.00068155,0.00006048,0.,0.,-0.00231047,
 -0.00421664,0.00068155,-0.00362281,0.,0.,0.00117163,0.00308042,0.00055
 372,0.05419088,0.00092532,-0.00352528,0.00088678,0.00069769,0.00169820
 ,-0.00000511,-0.01894133,-0.02719254,-0.00642384,0.,-0.03960875,0.0429
 1491,0.01894133,-0.02719254,-0.00642384,-0.00069769,0.00169820,-0.0000
 0511,-0.00141898,-0.00144911,-0.00039010,0.,-0.00141197,0.00164007,0.0
 0141898,-0.00144911,-0.00039010,0.,0.00092519,-0.00066148,-0.00092532,
 -0.00352528,0.00088678,0.,0.10600097,0.00264211,0.00319539,-0.00411442
 ,-0.00014473,0.00010267,-0.00249797,-0.00583519,-0.00936395,0.00402349
 ,0.,0.05215231,-0.04434129,0.00583519,-0.00936395,0.00402349,0.0001447
 3,0.00010267,-0.00249797,0.00237312,0.00070624,-0.00161639,0.,-0.00414
 708,-0.00207815,-0.00237312,0.00070624,-0.00161639,0.,-0.00008117,-0.0
 0141789,-0.00264211,0.00319539,-0.00411442,0.,-0.03461685,0.05655180,0
 .00117163,0.00308042,-0.00055372,0.00302184,0.00148592,-0.00001823,-0.
 00231047,0.00421664,0.00068155,-0.00362281,0.,0.,-0.00231047,-0.004216
 64,-0.00068155,0.00302184,-0.00148592,0.00001823,-0.02271333,-0.024524
 84,0.00062751,0.00006048,0.,0.,-0.02271333,0.02452484,-0.00062751,-0.0
 0844710,0.,0.,0.00117163,-0.00308042,0.00055372,-0.00052080,0.,0.,0.05
 419088,-0.00092532,-0.00352528,-0.00088678,-0.00069769,0.00169820,0.00
 000511,-0.00141898,-0.00144911,0.00039010,0.,0.00092519,0.00066148,0.0
 0141898,-0.00144911,0.00039010,0.00069769,0.00169820,0.00000511,-0.018
 94133,-0.02719254,0.00642384,0.,-0.00141197,-0.00164007,0.01894133,-0.
 02719254,0.00642384,0.,-0.03960875,-0.04291491,0.00092532,-0.00352528,
 -0.00088678,0.,-0.00496796,-0.00258791,0.,0.10600097,0.00264211,-0.003
 19539,-0.00411442,-0.00014473,-0.00010267,-0.00249797,-0.00237312,-0.0
 0070624,-0.00161639,0.,0.00008117,-0.00141789,0.00237312,-0.00070624,-
 0.00161639,0.00014473,-0.00010267,-0.00249797,0.00583519,0.00936395,0.
 00402349,0.,0.00414708,-0.00207815,-0.00583519,0.00936395,0.00402349,0
 .,-0.05215231,-0.04434129,-0.00264211,-0.00319539,-0.00411442,0.,0.002
 58791,-0.00030388,0.,0.03461685,0.05655180\\-0.00000701,0.,0.00007987,
 -0.00006623,0.,-0.00001682,-0.00002521,0.00004206,-0.00002099,0.,-0.00
 000991,0.00003603,0.00002521,0.00004206,-0.00002099,0.00006623,0.,-0.0
 0001682,0.00002521,-0.00004206,-0.00002099,0.,0.,-0.00010625,-0.000025
 21,-0.00004206,-0.00002099,0.,0.00000991,0.00003603,0.00000701,0.,0.00
 007987,0.,0.00007384,-0.00000397,0.,-0.00007384,-0.00000397\\\@
 Job cpu time:  1 days  9 hours  0 minutes 33.9 seconds.
 File lengths (MBytes):  RWF=  12596 Int=      0 D2E=      0 Chk=     81 Scr=      1
 Normal termination of Gaussian 09 at Mon Jan 21 11:05:08 2013.
