 Entering Gaussian System, Link 0=g09
 Initial command:
 /usr/local/chem/g09A2/l1.exe /temp0/tam/Gau-20818.inp -scrdir=/temp0/tam/
 Entering Link 1 = /usr/local/chem/g09A2/l1.exe PID=     20819.
  
 Copyright (c) 1988,1990,1992,1993,1995,1998,2003,2009, Gaussian, Inc.
                  All Rights Reserved.
  
 This is part of the Gaussian(R) 09 program.  It is based on
 the Gaussian(R) 03 system (copyright 2003, Gaussian, Inc.),
 the Gaussian(R) 98 system (copyright 1998, Gaussian, Inc.),
 the Gaussian(R) 94 system (copyright 1995, Gaussian, Inc.),
 the Gaussian 92(TM) system (copyright 1992, Gaussian, Inc.),
 the Gaussian 90(TM) system (copyright 1990, Gaussian, Inc.),
 the Gaussian 88(TM) system (copyright 1988, Gaussian, Inc.),
 the Gaussian 86(TM) system (copyright 1986, Carnegie Mellon
 University), and the Gaussian 82(TM) system (copyright 1983,
 Carnegie Mellon University). Gaussian is a federally registered
 trademark of Gaussian, Inc.
  
 This software contains proprietary and confidential information,
 including trade secrets, belonging to Gaussian, Inc.
  
 This software is provided under written license and may be
 used, copied, transmitted, or stored only in accord with that
 written license.
  
 The following legend is applicable only to US Government
 contracts under FAR:
  
                    RESTRICTED RIGHTS LEGEND
  
 Use, reproduction and disclosure by the US Government is
 subject to restrictions as set forth in subparagraphs (a)
 and (c) of the Commercial Computer Software - Restricted
 Rights clause in FAR 52.227-19.
  
 Gaussian, Inc.
 340 Quinnipiac St., Bldg. 40, Wallingford CT 06492
  
  
 ---------------------------------------------------------------
 Warning -- This program may not be used in any manner that
 competes with the business of Gaussian, Inc. or will provide
 assistance to any competitor of Gaussian, Inc.  The licensee
 of this program is prohibited from giving any competitor of
 Gaussian, Inc. access to this program.  By using this program,
 the user acknowledges that Gaussian, Inc. is engaged in the
 business of creating and licensing software in the field of
 computational chemistry and represents and warrants to the
 licensee that it is not a competitor of Gaussian, Inc. and that
 it will not use this program in any manner prohibited above.
 ---------------------------------------------------------------
  

 Cite this work as:
 Gaussian 09, Revision A.02,
 M. J. Frisch, G. W. Trucks, H. B. Schlegel, G. E. Scuseria, 
 M. A. Robb, J. R. Cheeseman, G. Scalmani, V. Barone, B. Mennucci, 
 G. A. Petersson, H. Nakatsuji, M. Caricato, X. Li, H. P. Hratchian, 
 A. F. Izmaylov, J. Bloino, G. Zheng, J. L. Sonnenberg, M. Hada, 
 M. Ehara, K. Toyota, R. Fukuda, J. Hasegawa, M. Ishida, T. Nakajima, 
 Y. Honda, O. Kitao, H. Nakai, T. Vreven, J. A. Montgomery, Jr., 
 J. E. Peralta, F. Ogliaro, M. Bearpark, J. J. Heyd, E. Brothers, 
 K. N. Kudin, V. N. Staroverov, R. Kobayashi, J. Normand, 
 K. Raghavachari, A. Rendell, J. C. Burant, S. S. Iyengar, J. Tomasi, 
 M. Cossi, N. Rega, J. M. Millam, M. Klene, J. E. Knox, J. B. Cross, 
 V. Bakken, C. Adamo, J. Jaramillo, R. Gomperts, R. E. Stratmann, 
 O. Yazyev, A. J. Austin, R. Cammi, C. Pomelli, J. W. Ochterski, 
 R. L. Martin, K. Morokuma, V. G. Zakrzewski, G. A. Voth, 
 P. Salvador, J. J. Dannenberg, S. Dapprich, A. D. Daniels, 
 O. Farkas, J. B. Foresman, J. V. Ortiz, J. Cioslowski, 
 and D. J. Fox, Gaussian, Inc., Wallingford CT, 2009.
 
 ******************************************
 Gaussian 09:  AM64L-G09RevA.02 11-Jun-2009
                20-Dec-2011 
 ******************************************
 %NprocShared=6
 Will use up to    6 processors via shared memory.
 %mem=18050MB
 %chk=S9L-ne-d-01
 -----------------------
 # G4 scfcyc=500 scf=xqc
 -----------------------
 1/14=-1,18=20,19=15,26=3,38=1/1,3;
 2/9=110,12=2,17=6,18=5,40=1/2;
 3/5=35,7=104,11=2,16=1,25=1,30=1,71=1,74=-5/1,2,3;
 4//1;
 5/5=2,7=500,8=3,13=1,38=5/2,8;
 6/7=2,8=2,9=2,10=2,28=1/1;
 7//1,2,3,16;
 1/14=-1,18=20,19=15/3(2);
 2/9=110/2;
 99//99;
 2/9=110/2;
 3/5=35,7=104,11=2,16=1,25=1,30=1,71=1,74=-5/1,2,3;
 4/5=5,16=3/1;
 5/5=2,7=500,8=3,13=1,38=5/2,8;
 7//1,2,3,16;
 1/14=-1,18=20,19=15/3(-5);
 2/9=110/2;
 6/7=2,8=2,9=2,10=2,19=2,28=1/1;
 99/9=1/99;
 -----
 si7-c
 -----
 Symbolic Z-matrix:
 Charge =  1 Multiplicity = 2
 Si                    0.        2.06093   0.76439 
 Si                    0.        0.        1.95341 
 Si                    0.       -2.06093   0.76439 
 Si                    0.       -1.44522  -1.62285 
 Si                    0.        1.44522  -1.62285 
 Si                   -1.32721   0.       -0.11824 
 Si                    1.32721   0.       -0.11824 
 

 GradGradGradGradGradGradGradGradGradGradGradGradGradGradGradGradGradGrad
 Berny optimization.
 Initialization pass.
                           ----------------------------
                           !    Initial Parameters    !
                           ! (Angstroms and Degrees)  !
 --------------------------                            --------------------------
 ! Name  Definition              Value          Derivative Info.                !
 --------------------------------------------------------------------------------
 ! R1    R(1,2)                  2.3793         estimate D2E/DX2                !
 ! R2    R(1,5)                  2.4654         estimate D2E/DX2                !
 ! R3    R(1,6)                  2.6054         estimate D2E/DX2                !
 ! R4    R(1,7)                  2.6054         estimate D2E/DX2                !
 ! R5    R(2,3)                  2.3793         estimate D2E/DX2                !
 ! R6    R(2,6)                  2.4603         estimate D2E/DX2                !
 ! R7    R(2,7)                  2.4603         estimate D2E/DX2                !
 ! R8    R(3,4)                  2.4654         estimate D2E/DX2                !
 ! R9    R(3,6)                  2.6054         estimate D2E/DX2                !
 ! R10   R(3,7)                  2.6054         estimate D2E/DX2                !
 ! R11   R(4,5)                  2.8904         estimate D2E/DX2                !
 ! R12   R(4,6)                  2.4726         estimate D2E/DX2                !
 ! R13   R(4,7)                  2.4726         estimate D2E/DX2                !
 ! R14   R(5,6)                  2.4726         estimate D2E/DX2                !
 ! R15   R(5,7)                  2.4726         estimate D2E/DX2                !
 ! R16   R(6,7)                  2.6544         estimate D2E/DX2                !
 ! A1    A(2,1,5)              105.5197         estimate D2E/DX2                !
 ! A2    A(1,2,3)              120.0358         estimate D2E/DX2                !
 ! A3    A(2,3,4)              105.5197         estimate D2E/DX2                !
 ! A4    A(3,4,5)              104.4625         estimate D2E/DX2                !
 ! A5    A(1,5,4)              104.4625         estimate D2E/DX2                !
 ! A6    A(1,6,3)              104.5643         estimate D2E/DX2                !
 ! A7    A(1,6,4)              113.2696         estimate D2E/DX2                !
 ! A8    A(2,6,4)              102.8748         estimate D2E/DX2                !
 ! A9    A(2,6,5)              102.8748         estimate D2E/DX2                !
 ! A10   A(3,6,5)              113.2696         estimate D2E/DX2                !
 ! A11   A(1,7,3)              104.5643         estimate D2E/DX2                !
 ! A12   A(1,7,4)              113.2696         estimate D2E/DX2                !
 ! A13   A(2,7,4)              102.8748         estimate D2E/DX2                !
 ! A14   A(2,7,5)              102.8748         estimate D2E/DX2                !
 ! A15   A(3,7,5)              113.2696         estimate D2E/DX2                !
 ! D1    D(5,1,2,3)              0.0            estimate D2E/DX2                !
 ! D2    D(2,1,5,4)              0.0            estimate D2E/DX2                !
 ! D3    D(1,2,3,4)              0.0            estimate D2E/DX2                !
 ! D4    D(2,3,4,5)              0.0            estimate D2E/DX2                !
 ! D5    D(3,4,5,1)              0.0            estimate D2E/DX2                !
 --------------------------------------------------------------------------------
 Trust Radius=3.00D-01 FncErr=1.00D-07 GrdErr=1.00D-06
 Number of steps in this run=  46 maximum allowed number of steps= 100.
 GradGradGradGradGradGradGradGradGradGradGradGradGradGradGradGradGradGrad

                          Input orientation:                          
 ---------------------------------------------------------------------
 Center     Atomic      Atomic             Coordinates (Angstroms)
 Number     Number       Type             X           Y           Z
 ---------------------------------------------------------------------
      1         14           0        0.000000    2.060932    0.764385
      2         14           0        0.000000    0.000000    1.953407
      3         14           0        0.000000   -2.060932    0.764385
      4         14           0        0.000000   -1.445220   -1.622849
      5         14           0        0.000000    1.445220   -1.622849
      6         14           0       -1.327207    0.000000   -0.118240
      7         14           0        1.327207    0.000000   -0.118240
 ---------------------------------------------------------------------
                    Distance matrix (angstroms):
                    1          2          3          4          5
     1  Si   0.000000
     2  Si   2.379331   0.000000
     3  Si   4.121864   2.379331   0.000000
     4  Si   4.241696   3.857236   2.465357   0.000000
     5  Si   2.465357   3.857236   4.241696   2.890440   0.000000
     6  Si   2.605369   2.460325   2.605369   2.472648   2.472648
     7  Si   2.605369   2.460325   2.605369   2.472648   2.472648
                    6          7
     6  Si   0.000000
     7  Si   2.654414   0.000000
 Stoichiometry    Si7(1+,2)
 Framework group  C2V[C2(Si),SGV(Si4),SGV'(Si2)]
 Deg. of freedom     6
 Full point group                 C2V     NOp   4
 Largest Abelian subgroup         C2V     NOp   4
 Largest concise Abelian subgroup C2V     NOp   4
                         Standard orientation:                         
 ---------------------------------------------------------------------
 Center     Atomic      Atomic             Coordinates (Angstroms)
 Number     Number       Type             X           Y           Z
 ---------------------------------------------------------------------
      1         14           0        0.000000    2.060932    0.764385
      2         14           0        0.000000    0.000000    1.953407
      3         14           0        0.000000   -2.060932    0.764385
      4         14           0        0.000000   -1.445220   -1.622849
      5         14           0        0.000000    1.445220   -1.622849
      6         14           0       -1.327207    0.000000   -0.118240
      7         14           0        1.327207    0.000000   -0.118240
 ---------------------------------------------------------------------
 Rotational constants (GHZ):      1.3087521      1.1154033      0.7870462
 Standard basis: GTBas3 (6D, 7F)
 There are    81 symmetry adapted basis functions of A1  symmetry.
 There are    33 symmetry adapted basis functions of A2  symmetry.
 There are    49 symmetry adapted basis functions of B1  symmetry.
 There are    61 symmetry adapted basis functions of B2  symmetry.
 Integral buffers will be    131072 words long.
 Raffenetti 2 integral format.
 Two-electron integral symmetry is turned on.
   224 basis functions,   476 primitive gaussians,   245 cartesian basis functions
    49 alpha electrons       48 beta electrons
       nuclear repulsion energy       785.4648927717 Hartrees.
 NAtoms=    7 NActive=    7 NUniq=    4 SFac= 2.30D+00 NAtFMM=   80 NAOKFM=F Big=F
 One-electron integrals computed using PRISM.
 NBasis=   224 RedAO= T  NBF=    81    33    49    61
 NBsUse=   224 1.00D-06 NBFU=    81    33    49    61
 Harris functional with IExCor=  402 diagonalized for initial guess.
 ExpMin= 7.78D-02 ExpMax= 1.61D+04 ExpMxC= 2.43D+03 IAcc=2 IRadAn=         0 AccDes= 0.00D+00
 HarFok:  IExCor=  402 AccDes= 0.00D+00 IRadAn=         0 IDoV= 1
 ScaDFX=  1.000000  1.000000  1.000000  1.000000
 FoFCou: FMM=F IPFlag=           0 FMFlag=      100000 FMFlg1=           0
         NFxFlg=           0 DoJE=T BraDBF=F KetDBF=T FulRan=T
         Omega=  0.000000  0.000000  1.000000  0.000000  0.000000 ICntrl=     500 IOpCl=  0
         NMat0=    1 NMatS0=    1 NMatT0=    0 NMatD0=    1 NMtDS0=    0 NMtDT0=    0
         I1Cent=           4 NGrid=           0.
 Petite list used in FoFCou.
 Initial guess orbital symmetries:
 Alpha Orbitals:
       Occupied  (A1) (B1) (A1) (B2) (A1) (B2) (A1) (A1) (B1) (A1)
                 (B2) (A1) (B2) (A1) (A1) (B1) (B1) (A1) (A2) (B2)
                 (A1) (B2) (B1) (A1) (B2) (A1) (B2) (B1) (A2) (B2)
                 (A1) (B2) (A1) (A2) (B1) (A1) (B2) (A1) (B1) (B2)
                 (A1) (A1) (A2) (B1) (A1) (B2) (A1) (B2) (A1)
       Virtual   (B1) (A2) (B1) (B2) (A1) (B1) (A1) (B2) (A1) (B2)
                 (A1) (A2) (B1) (B2) (B2) (A1) (B1) (A2) (A1) (B2)
                 (A2) (A1) (B1) (A1) (B2) (A1) (B1) (A1) (A2) (B2)
                 (A1) (B1) (B2) (B1) (A1) (A1) (B2) (A1) (A2) (A2)
                 (B1) (B1) (A1) (B2) (A2) (B1) (B2) (A1) (B2) (B1)
                 (A1) (B2) (A1) (A2) (B2) (A1) (B1) (A2) (B2) (A1)
                 (B2) (B1) (B1) (B2) (A1) (A2) (A1) (A1) (B2) (A2)
                 (A1) (B1) (B1) (B2) (A1) (B2) (A1) (A2) (B2) (A1)
                 (B2) (B1) (A1) (B1) (A1) (A1) (B2) (A2) (B1) (A1)
                 (B2) (A2) (B1) (A1) (B1) (B2) (A1) (A2) (A1) (B1)
                 (A2) (B2) (A1) (B2) (B2) (A1) (A1) (B1) (B2) (B1)
                 (A2) (A1) (B2) (A2) (A1) (B2) (A2) (B1) (A1) (B2)
                 (A2) (B1) (A1) (B1) (A2) (B2) (B1) (B2) (A1) (A1)
                 (B1) (B2) (B1) (A1) (A2) (A1) (B2) (A2) (B1) (A1)
                 (A1) (B1) (B2) (B2) (A2) (B1) (A1) (A1) (A2) (B2)
                 (B1) (A1) (A1) (A2) (B2) (B2) (B2) (A1) (A2) (B1)
                 (B1) (A2) (A1) (A1) (B2) (B1) (A1) (B2) (A1) (B2)
                 (A1) (B2) (A1) (B1) (A1)
 Beta  Orbitals:
       Occupied  (A1) (B1) (A1) (B2) (A1) (B2) (A1) (A1) (B1) (A1)
                 (B2) (A1) (B2) (A1) (A1) (B1) (B1) (A1) (A2) (B2)
                 (A1) (B2) (B1) (A1) (B2) (A1) (B2) (B1) (A2) (B2)
                 (A1) (B2) (A1) (A2) (B1) (A1) (B2) (A1) (B1) (B2)
                 (A1) (A1) (A2) (B1) (A1) (B2) (A1) (B2)
       Virtual   (A1) (B1) (A2) (B1) (B2) (A1) (B1) (A1) (B2) (A1)
                 (B2) (A1) (A2) (B1) (B2) (B2) (A1) (B1) (A2) (A1)
                 (B2) (A2) (A1) (B1) (A1) (B2) (A1) (B1) (A1) (A2)
                 (B2) (A1) (B1) (B2) (B1) (A1) (A1) (B2) (A1) (A2)
                 (A2) (B1) (B1) (A1) (B2) (A2) (B1) (B2) (A1) (B2)
                 (B1) (A1) (B2) (A1) (A2) (B2) (A1) (B1) (A2) (B2)
                 (A1) (B2) (B1) (B1) (B2) (A1) (A2) (A1) (A1) (B2)
                 (A2) (A1) (B1) (B1) (B2) (A1) (B2) (A1) (A2) (B2)
                 (A1) (B2) (B1) (A1) (B1) (A1) (A1) (B2) (A2) (B1)
                 (A1) (B2) (A2) (B1) (A1) (B1) (B2) (A1) (A2) (A1)
                 (B1) (A2) (B2) (A1) (B2) (B2) (A1) (A1) (B1) (B2)
                 (B1) (A2) (A1) (B2) (A2) (A1) (B2) (A2) (B1) (A1)
                 (B2) (A2) (B1) (A1) (B1) (A2) (B2) (B1) (B2) (A1)
                 (A1) (B1) (B2) (B1) (A1) (A2) (A1) (B2) (A2) (B1)
                 (A1) (A1) (B1) (B2) (B2) (A2) (B1) (A1) (A1) (A2)
                 (B2) (B1) (A1) (A1) (A2) (B2) (B2) (B2) (A1) (A2)
                 (B1) (B1) (A2) (A1) (A1) (B2) (B1) (A1) (B2) (A1)
                 (B2) (A1) (B2) (A1) (B1) (A1)
 The electronic state of the initial guess is 2-A1.
 Initial guess <Sx>= 0.0000 <Sy>= 0.0000 <Sz>= 0.5000 <S**2>= 0.7500 S= 0.5000
 Requested convergence on RMS density matrix=1.00D-08 within 128 cycles.
 Requested convergence on MAX density matrix=1.00D-06.
 Requested convergence on             energy=1.00D-06.
 No special actions if energy rises.
 Keep R1 and R2 ints in memory in canonical form, NReq=915849190.
 Integral accuracy reduced to 1.0D-05 until final iterations.
 Initial convergence to 1.0D-05 achieved.  Increase integral accuracy.
 SCF Done:  E(UB3LYP) =  -2026.15719545     A.U. after   18 cycles
             Convg  =    0.7122D-08             -V/T =  2.0035
 <Sx>= 0.0000 <Sy>= 0.0000 <Sz>= 0.5000 <S**2>= 0.7617 S= 0.5059
 <L.S>= 0.000000000000E+00
 Annihilation of the first spin contaminant:
 S**2 before annihilation     0.7617,   after     0.7501
 QCSCF skips out because SCF is already converged.

 **********************************************************************

            Population analysis using the SCF density.

 **********************************************************************

 Orbital symmetries:
 Alpha Orbitals:
       Occupied  (A1) (B2) (A1) (B2) (A1) (A1) (B1) (A1) (B2) (A1)
                 (A1) (B2) (A1) (B1) (A1) (B1) (B1) (A2) (B2) (A2)
                 (B1) (A1) (B2) (A1) (B2) (A1) (B2) (A1) (B2) (A1)
                 (B1) (A2) (B2) (B1) (A1) (A1) (B2) (A1) (B1) (B2)
                 (A1) (A1) (A2) (B1) (A1) (B2) (A1) (B2) (A1)
       Virtual   (B1) (A2) (B1) (B2) (A1) (B1) (A1) (B2) (A1) (B2)
                 (A1) (A2) (B1) (B2) (B2) (A1) (B1) (A2) (A1) (B2)
                 (A1) (A2) (A1) (B1) (A1) (B2) (A1) (B1) (A2) (B2)
                 (A1) (B1) (B2) (B1) (A1) (A1) (B2) (A1) (A2) (B1)
                 (A2) (B1) (A1) (B2) (B2) (A2) (B1) (A1) (B2) (B1)
                 (A1) (B2) (A1) (A2) (B2) (A1) (B1) (A2) (B2) (B1)
                 (B2) (A1) (B1) (B2) (A1) (A2) (A1) (A1) (B2) (A1)
                 (A2) (B1) (B1) (B2) (A1) (B2) (A1) (A2) (B2) (A1)
                 (B2) (B1) (A1) (A1) (B1) (A1) (B2) (A2) (B1) (B2)
                 (A1) (A2) (B1) (A1) (B1) (B2) (A1) (A1) (A2) (B1)
                 (A2) (B2) (A1) (B2) (B2) (A1) (A1) (B1) (B2) (A2)
                 (B1) (A1) (B2) (A2) (A1) (B2) (A2) (B1) (A1) (B2)
                 (A2) (A1) (B1) (B1) (A2) (B1) (B2) (B2) (A1) (B1)
                 (A1) (B2) (B1) (A1) (A2) (A1) (B2) (A2) (B1) (A1)
                 (A1) (B2) (B1) (B2) (A2) (B1) (A1) (A2) (A1) (B1)
                 (B2) (A2) (A1) (B2) (A1) (B2) (B2) (A2) (B1) (A1)
                 (B1) (A2) (A1) (A1) (B2) (B1) (A1) (B2) (A1) (B2)
                 (A1) (B2) (A1) (B1) (A1)
 Beta  Orbitals:
       Occupied  (B2) (A1) (A1) (B2) (A1) (A1) (B1) (A1) (B2) (A1)
                 (A1) (B2) (A1) (B1) (B1) (B1) (A2) (A2) (B1) (B2)
                 (A1) (B2) (A1) (B2) (A1) (A1) (B2) (A1) (B2) (A1)
                 (B1) (A2) (B2) (B1) (A1) (A1) (B2) (A1) (B1) (B2)
                 (A1) (A1) (A2) (B1) (A1) (B2) (A1) (B2)
       Virtual   (A1) (B1) (A2) (B1) (B2) (A1) (B1) (A1) (B2) (A1)
                 (B2) (A2) (A1) (B1) (B2) (B2) (A1) (B1) (A1) (A2)
                 (B2) (A2) (A1) (B1) (A1) (B2) (A1) (B1) (A1) (A2)
                 (B2) (A1) (B1) (B2) (B1) (A1) (A1) (B2) (A1) (A2)
                 (B1) (A2) (B1) (A1) (B2) (B2) (A2) (B1) (A1) (B2)
                 (B1) (A1) (B2) (A1) (A2) (B2) (A1) (B1) (A2) (B2)
                 (B1) (B2) (A1) (B1) (B2) (A1) (A2) (A1) (B2) (A1)
                 (A1) (A2) (B1) (B1) (B2) (A1) (B2) (A1) (A2) (B2)
                 (A1) (B2) (B1) (A1) (A1) (B1) (A1) (B2) (A2) (B1)
                 (B2) (A1) (A2) (B1) (A1) (B1) (B2) (A1) (A1) (A2)
                 (B1) (A2) (B2) (A1) (B2) (B2) (A1) (A1) (B1) (B2)
                 (A2) (B1) (A1) (B2) (A2) (A1) (B2) (A2) (B1) (A1)
                 (B2) (A2) (A1) (B1) (B1) (A2) (B1) (B2) (B2) (A1)
                 (B1) (A1) (B2) (A1) (B1) (A2) (A1) (B2) (A2) (B1)
                 (A1) (A1) (B2) (B1) (A2) (B2) (B1) (A1) (A2) (A1)
                 (B2) (B1) (A2) (A1) (B2) (A1) (B2) (B2) (A2) (B1)
                 (A1) (A2) (B1) (A1) (A1) (B2) (B1) (A1) (B2) (A1)
                 (B2) (A1) (B2) (A1) (B1) (A1)
 The electronic state is 2-A1.
 Alpha  occ. eigenvalues --  -66.33327 -66.33215 -66.33215 -66.33173 -66.33172
 Alpha  occ. eigenvalues --  -66.32318 -66.32316  -5.47832  -5.47564  -5.47564
 Alpha  occ. eigenvalues --   -5.47456  -5.47455  -5.46852  -5.46850  -3.83807
 Alpha  occ. eigenvalues --   -3.83755  -3.83572  -3.83569  -3.83435  -3.83349
 Alpha  occ. eigenvalues --   -3.83348  -3.83321  -3.83320  -3.83285  -3.83283
 Alpha  occ. eigenvalues --   -3.83217  -3.83212  -3.83111  -3.83111  -3.82801
 Alpha  occ. eigenvalues --   -3.82793  -3.82609  -3.82607  -3.82605  -3.82604
 Alpha  occ. eigenvalues --   -0.84447  -0.71482  -0.70026  -0.62500  -0.56787
 Alpha  occ. eigenvalues --   -0.55648  -0.53052  -0.44508  -0.44222  -0.42763
 Alpha  occ. eigenvalues --   -0.41338  -0.40966  -0.40943  -0.39145
 Alpha virt. eigenvalues --   -0.27885  -0.25784  -0.23648  -0.23304  -0.20309
 Alpha virt. eigenvalues --   -0.18906  -0.18731  -0.18500  -0.15857  -0.15518
 Alpha virt. eigenvalues --   -0.14161  -0.13503  -0.12685  -0.06289  -0.02020
 Alpha virt. eigenvalues --   -0.01583  -0.00885  -0.00022  -0.00012   0.00287
 Alpha virt. eigenvalues --    0.01360   0.01461   0.01945   0.02363   0.04232
 Alpha virt. eigenvalues --    0.04593   0.05100   0.05258   0.07539   0.08198
 Alpha virt. eigenvalues --    0.09273   0.09973   0.10857   0.11255   0.12536
 Alpha virt. eigenvalues --    0.13534   0.14557   0.15798   0.16143   0.16807
 Alpha virt. eigenvalues --    0.17055   0.19360   0.19937   0.20105   0.21494
 Alpha virt. eigenvalues --    0.21634   0.22294   0.23212   0.23838   0.24036
 Alpha virt. eigenvalues --    0.24498   0.25012   0.30631   0.31196   0.31832
 Alpha virt. eigenvalues --    0.33369   0.33977   0.35356   0.39900   0.41343
 Alpha virt. eigenvalues --    0.41800   0.41935   0.44481   0.45549   0.46548
 Alpha virt. eigenvalues --    0.48492   0.49207   0.49772   0.49957   0.51047
 Alpha virt. eigenvalues --    0.51784   0.53405   0.54304   0.57993   0.58347
 Alpha virt. eigenvalues --    0.59744   0.64087   0.66974   0.67624   0.68889
 Alpha virt. eigenvalues --    0.69341   0.70599   0.72527   0.74478   0.74560
 Alpha virt. eigenvalues --    0.76231   0.76590   0.79754   0.80235   0.81846
 Alpha virt. eigenvalues --    0.82906   0.84166   0.84444   0.87458   0.90061
 Alpha virt. eigenvalues --    0.90642   0.92273   0.92773   0.93616   0.93954
 Alpha virt. eigenvalues --    0.97978   0.98471   0.98708   1.01145   1.03296
 Alpha virt. eigenvalues --    1.04485   1.05405   1.06233   1.07064   1.07679
 Alpha virt. eigenvalues --    1.08583   1.08679   1.10068   1.12756   1.13746
 Alpha virt. eigenvalues --    1.15133   1.17067   1.18503   1.19498   1.20674
 Alpha virt. eigenvalues --    1.21890   1.24898   1.25195   1.26677   1.28769
 Alpha virt. eigenvalues --    1.29774   1.30357   1.33606   1.35751   1.36063
 Alpha virt. eigenvalues --    1.38089   1.39814   1.51743   1.51790   1.55872
 Alpha virt. eigenvalues --    1.56906   1.59133   1.60200   1.60398   1.61552
 Alpha virt. eigenvalues --    1.63073   1.64735   1.65131   1.67255   1.67264
 Alpha virt. eigenvalues --    1.69874   1.72662   1.77156   1.77614   1.78510
 Alpha virt. eigenvalues --    1.78518   1.81047   1.81538   1.82308   1.82458
 Alpha virt. eigenvalues --    1.87883   1.89095   1.90494   1.90846   1.91123
 Alpha virt. eigenvalues --    1.94133   1.94248   1.95235   1.97786   2.02057
 Alpha virt. eigenvalues --    2.02332   2.07150   2.08547   2.26889   2.59800
 Alpha virt. eigenvalues --    2.63353   2.66373   2.75270   2.77628   2.90220
  Beta  occ. eigenvalues --  -66.33176 -66.33175 -66.33116 -66.33102 -66.33102
  Beta  occ. eigenvalues --  -66.32318 -66.32316  -5.47562  -5.47514  -5.47512
  Beta  occ. eigenvalues --   -5.47380  -5.47379  -5.46853  -5.46851  -3.83577
  Beta  occ. eigenvalues --   -3.83542  -3.83539  -3.83311  -3.83310  -3.83301
  Beta  occ. eigenvalues --   -3.83248  -3.83232  -3.83223  -3.83156  -3.83156
  Beta  occ. eigenvalues --   -3.83126  -3.83123  -3.82973  -3.82972  -3.82807
  Beta  occ. eigenvalues --   -3.82800  -3.82620  -3.82618  -3.82586  -3.82584
  Beta  occ. eigenvalues --   -0.84044  -0.70947  -0.69116  -0.62440  -0.56147
  Beta  occ. eigenvalues --   -0.55209  -0.50669  -0.44413  -0.43975  -0.42599
  Beta  occ. eigenvalues --   -0.41115  -0.40467  -0.40072
  Beta virt. eigenvalues --   -0.32534  -0.27730  -0.25607  -0.23110  -0.22753
  Beta virt. eigenvalues --   -0.19767  -0.18595  -0.18140  -0.17844  -0.15442
  Beta virt. eigenvalues --   -0.14997  -0.13416  -0.12998  -0.12263  -0.05471
  Beta virt. eigenvalues --   -0.01896  -0.01255  -0.00062   0.00020   0.00237
  Beta virt. eigenvalues --    0.00776   0.01528   0.01752   0.02632   0.02666
  Beta virt. eigenvalues --    0.04790   0.04818   0.05313   0.05688   0.07587
  Beta virt. eigenvalues --    0.08420   0.10008   0.10134   0.11059   0.11417
  Beta virt. eigenvalues --    0.12822   0.13946   0.14803   0.16000   0.16348
  Beta virt. eigenvalues --    0.16978   0.17266   0.19537   0.20549   0.20884
  Beta virt. eigenvalues --    0.21704   0.22010   0.22375   0.23632   0.24088
  Beta virt. eigenvalues --    0.25204   0.25342   0.25471   0.30715   0.31374
  Beta virt. eigenvalues --    0.32512   0.34194   0.34339   0.35750   0.40324
  Beta virt. eigenvalues --    0.41521   0.42120   0.42140   0.44996   0.46003
  Beta virt. eigenvalues --    0.46746   0.48587   0.49795   0.50121   0.50663
  Beta virt. eigenvalues --    0.51493   0.51951   0.53944   0.54514   0.58279
  Beta virt. eigenvalues --    0.58760   0.60096   0.64195   0.67517   0.67840
  Beta virt. eigenvalues --    0.69265   0.69582   0.70797   0.73104   0.74663
  Beta virt. eigenvalues --    0.75107   0.77168   0.77573   0.80243   0.80348
  Beta virt. eigenvalues --    0.82139   0.83517   0.84351   0.84562   0.87986
  Beta virt. eigenvalues --    0.90793   0.90902   0.92940   0.93049   0.93843
  Beta virt. eigenvalues --    0.94090   0.98540   0.98851   0.99007   1.01488
  Beta virt. eigenvalues --    1.03756   1.04713   1.05754   1.06870   1.07309
  Beta virt. eigenvalues --    1.07972   1.08867   1.09366   1.10474   1.12901
  Beta virt. eigenvalues --    1.14409   1.16029   1.17288   1.18617   1.20037
  Beta virt. eigenvalues --    1.20883   1.22286   1.25498   1.25674   1.26679
  Beta virt. eigenvalues --    1.28896   1.30105   1.30502   1.33856   1.36320
  Beta virt. eigenvalues --    1.36360   1.38536   1.40613   1.51948   1.51978
  Beta virt. eigenvalues --    1.56058   1.57185   1.59380   1.60444   1.60734
  Beta virt. eigenvalues --    1.61752   1.63375   1.65011   1.65270   1.67320
  Beta virt. eigenvalues --    1.67464   1.70211   1.72916   1.77263   1.77689
  Beta virt. eigenvalues --    1.78715   1.79079   1.81274   1.81895   1.82520
  Beta virt. eigenvalues --    1.82791   1.88259   1.89564   1.90566   1.90989
  Beta virt. eigenvalues --    1.91184   1.94335   1.94397   1.95389   1.98145
  Beta virt. eigenvalues --    2.02309   2.02445   2.07666   2.08883   2.27143
  Beta virt. eigenvalues --    2.60076   2.63896   2.66538   2.75760   2.77655
  Beta virt. eigenvalues --    2.90444
          Condensed to atoms (all electrons):
              1          2          3          4          5          6
     1  Si  13.417757   0.168020   0.000772  -0.000870   0.104545   0.063702
     2  Si   0.168020  13.337780   0.168020   0.004633   0.004633   0.087076
     3  Si   0.000772   0.168020  13.417757   0.104545  -0.000870   0.063702
     4  Si  -0.000870   0.004633   0.104545  13.499511   0.026552   0.091726
     5  Si   0.104545   0.004633  -0.000870   0.026552  13.499511   0.091726
     6  Si   0.063702   0.087076   0.063702   0.091726   0.091726  13.515247
     7  Si   0.063702   0.087076   0.063702   0.091726   0.091726   0.022749
              7
     1  Si   0.063702
     2  Si   0.087076
     3  Si   0.063702
     4  Si   0.091726
     5  Si   0.091726
     6  Si   0.022749
     7  Si  13.515247
 Mulliken atomic charges:
              1
     1  Si   0.182371
     2  Si   0.142762
     3  Si   0.182371
     4  Si   0.182176
     5  Si   0.182176
     6  Si   0.064072
     7  Si   0.064072
 Sum of Mulliken atomic charges =   1.00000
 Mulliken charges with hydrogens summed into heavy atoms:
              1
     1  Si   0.182371
     2  Si   0.142762
     3  Si   0.182371
     4  Si   0.182176
     5  Si   0.182176
     6  Si   0.064072
     7  Si   0.064072
 Sum of Mulliken charges with hydrogens summed into heavy atoms =   1.00000
          Atomic-Atomic Spin Densities.
              1          2          3          4          5          6
     1  Si   0.091383  -0.040499   0.003969  -0.000534   0.018835   0.000157
     2  Si  -0.040499   0.521085  -0.040499  -0.003505  -0.003505   0.005890
     3  Si   0.003969  -0.040499   0.091383   0.018835  -0.000534   0.000157
     4  Si  -0.000534  -0.003505   0.018835   0.161170   0.029552  -0.000425
     5  Si   0.018835  -0.003505  -0.000534   0.029552   0.161170  -0.000425
     6  Si   0.000157   0.005890   0.000157  -0.000425  -0.000425  -0.004572
     7  Si   0.000157   0.005890   0.000157  -0.000425  -0.000425  -0.001346
              7
     1  Si   0.000157
     2  Si   0.005890
     3  Si   0.000157
     4  Si  -0.000425
     5  Si  -0.000425
     6  Si  -0.001346
     7  Si  -0.004572
 Mulliken atomic spin densities:
              1
     1  Si   0.073468
     2  Si   0.444857
     3  Si   0.073468
     4  Si   0.204668
     5  Si   0.204668
     6  Si  -0.000565
     7  Si  -0.000565
 Sum of Mulliken atomic spin densities =   1.00000
 Electronic spatial extent (au):  <R**2>=           1490.4954
 Charge=              1.0000 electrons
 Dipole moment (field-independent basis, Debye):
    X=              0.0000    Y=              0.0000    Z=              0.5543  Tot=              0.5543
 Quadrupole moment (field-independent basis, Debye-Ang):
   XX=            -78.8486   YY=            -72.3758   ZZ=            -73.2509
   XY=              0.0000   XZ=              0.0000   YZ=              0.0000
 Traceless Quadrupole moment (field-independent basis, Debye-Ang):
   XX=             -4.0235   YY=              2.4493   ZZ=              1.5742
   XY=              0.0000   XZ=              0.0000   YZ=              0.0000
 Octapole moment (field-independent basis, Debye-Ang**2):
  XXX=              0.0000  YYY=              0.0000  ZZZ=              6.7344  XYY=              0.0000
  XXY=              0.0000  XXZ=              0.7004  XZZ=              0.0000  YZZ=              0.0000
  YYZ=              1.5916  XYZ=              0.0000
 Hexadecapole moment (field-independent basis, Debye-Ang**3):
 XXXX=           -377.9952 YYYY=          -1014.4944 ZZZZ=           -840.1451 XXXY=              0.0000
 XXXZ=              0.0000 YYYX=              0.0000 YYYZ=              0.0000 ZZZX=              0.0000
 ZZZY=              0.0000 XXYY=           -233.3695 XXZZ=           -207.6853 YYZZ=           -310.8605
 XXYZ=              0.0000 YYXZ=              0.0000 ZZXY=              0.0000
 N-N= 7.854648927717D+02 E-N=-9.555756191069D+03  KE= 3.027956865988D+03
 Symmetry A1   KE= 1.543711551582D+03
 Symmetry A2   KE= 1.123558893955D+02
 Symmetry B1   KE= 5.052667360950D+02
 Symmetry B2   KE= 8.666226889158D+02
                          Isotropic Fermi Contact Couplings
        Atom                 a.u.       MegaHertz       Gauss      10(-4) cm-1
     1  Si(29)             0.09113     -80.98635     -28.89794     -27.01414
     2  Si(29)             0.51809    -460.44319    -164.29757    -153.58732
     3  Si(29)             0.09113     -80.98635     -28.89794     -27.01414
     4  Si(29)            -0.00575       5.11159       1.82394       1.70504
     5  Si(29)            -0.00575       5.11159       1.82394       1.70504
     6  Si(29)            -0.00895       7.95670       2.83915       2.65407
     7  Si(29)            -0.00895       7.95670       2.83915       2.65407
 --------------------------------------------------------
       Center         ----  Spin Dipole Couplings  ----
                      3XX-RR        3YY-RR        3ZZ-RR
 --------------------------------------------------------
     1   Atom       -0.082484     -0.065651      0.148134
     2   Atom       -0.347052     -0.446376      0.793428
     3   Atom       -0.082484     -0.065651      0.148134
     4   Atom       -0.215109     -0.176428      0.391537
     5   Atom       -0.215109     -0.176428      0.391537
     6   Atom       -0.019817     -0.034430      0.054247
     7   Atom       -0.019817     -0.034430      0.054247
 --------------------------------------------------------
                        XY            XZ            YZ
 --------------------------------------------------------
     1   Atom        0.000000      0.000000      0.005738
     2   Atom        0.000000      0.000000      0.000000
     3   Atom        0.000000      0.000000     -0.005738
     4   Atom        0.000000      0.000000     -0.213676
     5   Atom        0.000000      0.000000      0.213676
     6   Atom        0.000000     -0.009630      0.000000
     7   Atom        0.000000      0.009630      0.000000
 --------------------------------------------------------


 ---------------------------------------------------------------------------------
              Anisotropic Spin Dipole Couplings in Principal Axis System
 ---------------------------------------------------------------------------------

       Atom             a.u.   MegaHertz   Gauss  10(-4) cm-1        Axes

              Baa    -0.0825     8.750     3.122     2.919  1.0000  0.0000  0.0000
     1 Si(29) Bbb    -0.0658     6.981     2.491     2.329  0.0000  0.9996 -0.0268
              Bcc     0.1483   -15.731    -5.613    -5.247  0.0000  0.0268  0.9996
 
              Baa    -0.4464    47.353    16.897    15.795  0.0000  1.0000  0.0000
     2 Si(29) Bbb    -0.3471    36.817    13.137    12.281  1.0000  0.0000  0.0000
              Bcc     0.7934   -84.170   -30.034   -28.076  0.0000  0.0000  1.0000
 
              Baa    -0.0825     8.750     3.122     2.919  1.0000  0.0000  0.0000
     3 Si(29) Bbb    -0.0658     6.981     2.491     2.329  0.0000  0.9996  0.0268
              Bcc     0.1483   -15.731    -5.613    -5.247  0.0000 -0.0268  0.9996
 
              Baa    -0.2478    26.292     9.382     8.770  0.0000  0.9484  0.3170
     4 Si(29) Bbb    -0.2151    22.820     8.143     7.612  1.0000  0.0000  0.0000
              Bcc     0.4629   -49.111   -17.524   -16.382  0.0000 -0.3170  0.9484
 
              Baa    -0.2478    26.292     9.382     8.770  0.0000  0.9484 -0.3170
     5 Si(29) Bbb    -0.2151    22.820     8.143     7.612  1.0000  0.0000  0.0000
              Bcc     0.4629   -49.111   -17.524   -16.382  0.0000  0.3170  0.9484
 
              Baa    -0.0344     3.652     1.303     1.218  0.0000  1.0000  0.0000
     6 Si(29) Bbb    -0.0210     2.233     0.797     0.745  0.9919  0.0000  0.1269
              Bcc     0.0555    -5.885    -2.100    -1.963 -0.1269  0.0000  0.9919
 
              Baa    -0.0344     3.652     1.303     1.218  0.0000  1.0000  0.0000
     7 Si(29) Bbb    -0.0210     2.233     0.797     0.745  0.9919  0.0000 -0.1269
              Bcc     0.0555    -5.885    -2.100    -1.963  0.1269  0.0000  0.9919
 

 ---------------------------------------------------------------------------------

 Calling FoFJK, ICntrl=      2127 FMM=F ISym2X=1 I1Cent= 0 IOpClX= 1 NMat=1 NMatS=1 NMatT=0.
 ***** Axes restored to original set *****
 -------------------------------------------------------------------
 Center     Atomic                   Forces (Hartrees/Bohr)
 Number     Number              X              Y              Z
 -------------------------------------------------------------------
      1       14           0.000000000   -0.001097064   -0.000710631
      2       14           0.000000000    0.000000000   -0.001178316
      3       14           0.000000000    0.001097064   -0.000710631
      4       14           0.000000000    0.000950401    0.000972212
      5       14           0.000000000   -0.000950401    0.000972212
      6       14           0.001508375    0.000000000    0.000327577
      7       14          -0.001508375    0.000000000    0.000327577
 -------------------------------------------------------------------
 Cartesian Forces:  Max     0.001508375 RMS     0.000794848

 GradGradGradGradGradGradGradGradGradGradGradGradGradGradGradGradGradGrad
 Berny optimization.
 Internal  Forces:  Max     0.000630496 RMS     0.000300605
 Search for a local minimum.
 Step number   1 out of a maximum of   46
 All quantities printed in internal units (Hartrees-Bohrs-Radians)
 Mixed Optimization -- En-DIIS/RFO-DIIS
 Second derivative matrix not updated -- first step.
     Eigenvalues ---    0.04242   0.05804   0.06158   0.08375   0.08870
     Eigenvalues ---    0.08959   0.09940   0.10093   0.11070   0.11195
     Eigenvalues ---    0.12541   0.12803   0.13053   0.13183   0.13797
     Eigenvalues --- 1000.000001000.000001000.000001000.000001000.00000
     Eigenvalues --- 1000.000001000.000001000.000001000.000001000.00000
     Eigenvalues --- 1000.000001000.000001000.000001000.000001000.00000
     Eigenvalues --- 1000.000001000.000001000.000001000.000001000.00000
     Eigenvalues --- 1000.00000
 RFO step:  Lambda=-3.90064803D-05 EMin= 4.24247724D-02
 Linear search not attempted -- first point.
 Iteration  1 RMS(Cart)=  0.00200829 RMS(Int)=  0.00000097
 Iteration  2 RMS(Cart)=  0.00000046 RMS(Int)=  0.00000059
 ClnCor:  largest displacement from symmetrization is 5.70D-13 for atom     3.
 Variable       Old X    -DE/DX   Delta X   Delta X   Delta X     New X
                                 (Linear)    (Quad)   (Total)
    R1        4.49628  -0.00029   0.00000  -0.00295  -0.00295   4.49333
    R2        4.65885  -0.00053   0.00000  -0.00482  -0.00482   4.65403
    R3        4.92343  -0.00046   0.00000  -0.00599  -0.00599   4.91745
    R4        4.92343  -0.00046   0.00000  -0.00599  -0.00599   4.91745
    R5        4.49628  -0.00029   0.00000  -0.00295  -0.00295   4.49333
    R6        4.64934  -0.00053   0.00000  -0.00553  -0.00553   4.64381
    R7        4.64934  -0.00053   0.00000  -0.00553  -0.00553   4.64381
    R8        4.65885  -0.00053   0.00000  -0.00482  -0.00482   4.65403
    R9        4.92343  -0.00046   0.00000  -0.00599  -0.00599   4.91745
   R10        4.92343  -0.00046   0.00000  -0.00599  -0.00599   4.91745
   R11        5.46214  -0.00063   0.00000  -0.01080  -0.01080   5.45134
   R12        4.67263  -0.00037   0.00000  -0.00433  -0.00433   4.66830
   R13        4.67263  -0.00037   0.00000  -0.00433  -0.00433   4.66830
   R14        4.67263  -0.00037   0.00000  -0.00433  -0.00433   4.66830
   R15        4.67263  -0.00037   0.00000  -0.00433  -0.00433   4.66830
   R16        5.01612  -0.00037   0.00000  -0.00467  -0.00467   5.01144
    A1        1.84167  -0.00002   0.00000  -0.00014  -0.00014   1.84152
    A2        2.09502  -0.00003   0.00000  -0.00100  -0.00101   2.09401
    A3        1.84167  -0.00002   0.00000  -0.00014  -0.00014   1.84152
    A4        1.82321   0.00004   0.00000   0.00065   0.00065   1.82386
    A5        1.82321   0.00004   0.00000   0.00065   0.00065   1.82386
    A6        1.82499   0.00005   0.00000   0.00070   0.00070   1.82569
    A7        1.97693  -0.00004   0.00000  -0.00073  -0.00073   1.97619
    A8        1.79550  -0.00001   0.00000   0.00038   0.00038   1.79589
    A9        1.79550  -0.00001   0.00000   0.00038   0.00038   1.79589
   A10        1.97693  -0.00004   0.00000  -0.00073  -0.00073   1.97619
   A11        1.82499   0.00005   0.00000   0.00070   0.00070   1.82569
   A12        1.97693  -0.00004   0.00000  -0.00073  -0.00073   1.97619
   A13        1.79550  -0.00001   0.00000   0.00038   0.00038   1.79589
   A14        1.79550  -0.00001   0.00000   0.00038   0.00038   1.79589
   A15        1.97693  -0.00004   0.00000  -0.00073  -0.00073   1.97619
    D1        0.00000   0.00000   0.00000   0.00000   0.00000   0.00000
    D2        0.00000   0.00000   0.00000   0.00000   0.00000   0.00000
    D3        0.00000   0.00000   0.00000   0.00000   0.00000   0.00000
    D4        0.00000   0.00000   0.00000   0.00000   0.00000   0.00000
    D5        0.00000   0.00000   0.00000   0.00000   0.00000   0.00000
         Item               Value     Threshold  Converged?
 Maximum Force            0.000630     0.000450     NO 
 RMS     Force            0.000301     0.000300     NO 
 Maximum Displacement     0.005400     0.001800     NO 
 RMS     Displacement     0.002008     0.001200     NO 
 Predicted change in Energy=-1.951168D-05
 GradGradGradGradGradGradGradGradGradGradGradGradGradGradGradGradGradGrad

                          Input orientation:                          
 ---------------------------------------------------------------------
 Center     Atomic      Atomic             Coordinates (Angstroms)
 Number     Number       Type             X           Y           Z
 ---------------------------------------------------------------------
      1         14           0        0.000000    2.058981    0.762690
      2         14           0        0.000000    0.000000    1.951967
      3         14           0        0.000000   -2.058981    0.762690
      4         14           0        0.000000   -1.442363   -1.621676
      5         14           0        0.000000    1.442363   -1.621676
      6         14           0       -1.325971    0.000000   -0.116997
      7         14           0        1.325971    0.000000   -0.116997
 ---------------------------------------------------------------------
                    Distance matrix (angstroms):
                    1          2          3          4          5
     1  Si   0.000000
     2  Si   2.377768   0.000000
     3  Si   4.117962   2.377768   0.000000
     4  Si   4.236107   3.853742   2.462807   0.000000
     5  Si   2.462807   3.853742   4.236107   2.884725   0.000000
     6  Si   2.602201   2.457399   2.602201   2.470357   2.470357
     7  Si   2.602201   2.457399   2.602201   2.470357   2.470357
                    6          7
     6  Si   0.000000
     7  Si   2.651941   0.000000
 Stoichiometry    Si7(1+,2)
 Framework group  C2V[C2(Si),SGV(Si4),SGV'(Si2)]
 Deg. of freedom     6
 Full point group                 C2V     NOp   4
 Largest Abelian subgroup         C2V     NOp   4
 Largest concise Abelian subgroup C2V     NOp   4
                         Standard orientation:                         
 ---------------------------------------------------------------------
 Center     Atomic      Atomic             Coordinates (Angstroms)
 Number     Number       Type             X           Y           Z
 ---------------------------------------------------------------------
      1         14           0        0.000000    2.058981    0.762690
      2         14           0        0.000000    0.000000    1.951967
      3         14           0        0.000000   -2.058981    0.762690
      4         14           0        0.000000   -1.442363   -1.621676
      5         14           0        0.000000    1.442363   -1.621676
      6         14           0       -1.325971    0.000000   -0.116997
      7         14           0        1.325971    0.000000   -0.116997
 ---------------------------------------------------------------------
 Rotational constants (GHZ):      1.3111805      1.1181054      0.7888189
 Standard basis: GTBas3 (6D, 7F)
 There are    81 symmetry adapted basis functions of A1  symmetry.
 There are    33 symmetry adapted basis functions of A2  symmetry.
 There are    49 symmetry adapted basis functions of B1  symmetry.
 There are    61 symmetry adapted basis functions of B2  symmetry.
 Integral buffers will be    131072 words long.
 Raffenetti 2 integral format.
 Two-electron integral symmetry is turned on.
   224 basis functions,   476 primitive gaussians,   245 cartesian basis functions
    49 alpha electrons       48 beta electrons
       nuclear repulsion energy       786.3037923678 Hartrees.
 NAtoms=    7 NActive=    7 NUniq=    4 SFac= 2.30D+00 NAtFMM=   80 NAOKFM=F Big=F
 One-electron integrals computed using PRISM.
 NBasis=   224 RedAO= T  NBF=    81    33    49    61
 NBsUse=   224 1.00D-06 NBFU=    81    33    49    61
 Initial guess read from the read-write file.
 B after Tr=     0.000000    0.000000    0.000000
         Rot=    1.000000    0.000000    0.000000    0.000000 Ang=   0.00 deg.
 Initial guess orbital symmetries:
 Alpha Orbitals:
       Occupied  (A1) (B2) (A1) (B2) (A1) (A1) (B1) (A1) (B2) (A1)
                 (A1) (B2) (A1) (B1) (A1) (B1) (B1) (A2) (B2) (A2)
                 (B1) (A1) (B2) (A1) (B2) (A1) (B2) (A1) (B2) (A1)
                 (B1) (A2) (B2) (B1) (A1) (A1) (B2) (A1) (B1) (B2)
                 (A1) (A1) (A2) (B1) (A1) (B2) (A1) (B2) (A1)
       Virtual   (B1) (A2) (B1) (B2) (A1) (B1) (A1) (B2) (A1) (B2)
                 (A1) (A2) (B1) (B2) (B2) (A1) (B1) (A2) (A1) (B2)
                 (A1) (A2) (A1) (B1) (A1) (B2) (A1) (B1) (A2) (B2)
                 (A1) (B1) (B2) (B1) (A1) (A1) (B2) (A1) (A2) (B1)
                 (A2) (B1) (A1) (B2) (B2) (A2) (B1) (A1) (B2) (B1)
                 (A1) (B2) (A1) (A2) (B2) (A1) (B1) (A2) (B2) (B1)
                 (B2) (A1) (B1) (B2) (A1) (A2) (A1) (A1) (B2) (A1)
                 (A2) (B1) (B1) (B2) (A1) (B2) (A1) (A2) (B2) (A1)
                 (B2) (B1) (A1) (A1) (B1) (A1) (B2) (A2) (B1) (B2)
                 (A1) (A2) (B1) (A1) (B1) (B2) (A1) (A1) (A2) (B1)
                 (A2) (B2) (A1) (B2) (B2) (A1) (A1) (B1) (B2) (A2)
                 (B1) (A1) (B2) (A2) (A1) (B2) (A2) (B1) (A1) (B2)
                 (A2) (A1) (B1) (B1) (A2) (B1) (B2) (B2) (A1) (B1)
                 (A1) (B2) (B1) (A1) (A2) (A1) (B2) (A2) (B1) (A1)
                 (A1) (B2) (B1) (B2) (A2) (B1) (A1) (A2) (A1) (B1)
                 (B2) (A2) (A1) (B2) (A1) (B2) (B2) (A2) (B1) (A1)
                 (B1) (A2) (A1) (A1) (B2) (B1) (A1) (B2) (A1) (B2)
                 (A1) (B2) (A1) (B1) (A1)
 Beta  Orbitals:
       Occupied  (B2) (A1) (A1) (B2) (A1) (A1) (B1) (A1) (B2) (A1)
                 (A1) (B2) (A1) (B1) (B1) (B1) (A2) (A2) (B1) (B2)
                 (A1) (B2) (A1) (B2) (A1) (A1) (B2) (A1) (B2) (A1)
                 (B1) (A2) (B2) (B1) (A1) (A1) (B2) (A1) (B1) (B2)
                 (A1) (A1) (A2) (B1) (A1) (B2) (A1) (B2)
       Virtual   (A1) (B1) (A2) (B1) (B2) (A1) (B1) (A1) (B2) (A1)
                 (B2) (A2) (A1) (B1) (B2) (B2) (A1) (B1) (A1) (A2)
                 (B2) (A2) (A1) (B1) (A1) (B2) (A1) (B1) (A1) (A2)
                 (B2) (A1) (B1) (B2) (B1) (A1) (A1) (B2) (A1) (A2)
                 (B1) (A2) (B1) (A1) (B2) (B2) (A2) (B1) (A1) (B2)
                 (B1) (A1) (B2) (A1) (A2) (B2) (A1) (B1) (A2) (B2)
                 (B1) (B2) (A1) (B1) (B2) (A1) (A2) (A1) (B2) (A1)
                 (A1) (A2) (B1) (B1) (B2) (A1) (B2) (A1) (A2) (B2)
                 (A1) (B2) (B1) (A1) (A1) (B1) (A1) (B2) (A2) (B1)
                 (B2) (A1) (A2) (B1) (A1) (B1) (B2) (A1) (A1) (A2)
                 (B1) (A2) (B2) (A1) (B2) (B2) (A1) (A1) (B1) (B2)
                 (A2) (B1) (A1) (B2) (A2) (A1) (B2) (A2) (B1) (A1)
                 (B2) (A2) (A1) (B1) (B1) (A2) (B1) (B2) (B2) (A1)
                 (B1) (A1) (B2) (A1) (B1) (A2) (A1) (B2) (A2) (B1)
                 (A1) (A1) (B2) (B1) (A2) (B2) (B1) (A1) (A2) (A1)
                 (B2) (B1) (A2) (A1) (B2) (A1) (B2) (B2) (A2) (B1)
                 (A1) (A2) (B1) (A1) (A1) (B2) (B1) (A1) (B2) (A1)
                 (B2) (A1) (B2) (A1) (B1) (A1)
 Initial guess <Sx>= 0.0000 <Sy>= 0.0000 <Sz>= 0.5000 <S**2>= 0.7617 S= 0.5059
 Requested convergence on RMS density matrix=1.00D-08 within 128 cycles.
 Requested convergence on MAX density matrix=1.00D-06.
 Requested convergence on             energy=1.00D-06.
 No special actions if energy rises.
 Keep R1 and R2 ints in memory in canonical form, NReq=915849190.
 SCF Done:  E(UB3LYP) =  -2026.15722630     A.U. after   11 cycles
             Convg  =    0.8401D-08             -V/T =  2.0035
 <Sx>= 0.0000 <Sy>= 0.0000 <Sz>= 0.5000 <S**2>= 0.7617 S= 0.5058
 <L.S>= 0.000000000000E+00
 Annihilation of the first spin contaminant:
 S**2 before annihilation     0.7617,   after     0.7501
 QCSCF skips out because SCF is already converged.
 Calling FoFJK, ICntrl=      2127 FMM=F ISym2X=1 I1Cent= 0 IOpClX= 1 NMat=1 NMatS=1 NMatT=0.
 ***** Axes restored to original set *****
 -------------------------------------------------------------------
 Center     Atomic                   Forces (Hartrees/Bohr)
 Number     Number              X              Y              Z
 -------------------------------------------------------------------
      1       14           0.000000000   -0.000574088   -0.000436715
      2       14           0.000000000    0.000000000   -0.000541749
      3       14           0.000000000    0.000574088   -0.000436715
      4       14           0.000000000    0.000589358    0.000414317
      5       14           0.000000000   -0.000589358    0.000414317
      6       14           0.000982488    0.000000000    0.000293272
      7       14          -0.000982488    0.000000000    0.000293272
 -------------------------------------------------------------------
 Cartesian Forces:  Max     0.000982488 RMS     0.000461605

 GradGradGradGradGradGradGradGradGradGradGradGradGradGradGradGradGradGrad
 Berny optimization.
 Using GEDIIS/GDIIS optimizer.
 Internal  Forces:  Max     0.000448673 RMS     0.000174824
 Search for a local minimum.
 Step number   2 out of a maximum of   46
 All quantities printed in internal units (Hartrees-Bohrs-Radians)
 Mixed Optimization -- En-DIIS/RFO-DIIS
 Swaping is turned off.
 Update second derivatives using D2CorX and points    1    2
 DE= -3.09D-05 DEPred=-1.95D-05 R= 1.58D+00
 SS=  1.41D+00  RLast= 2.21D-02 DXNew= 5.0454D-01 6.6232D-02
 Trust test= 1.58D+00 RLast= 2.21D-02 DXMaxT set to 3.00D-01
     Eigenvalues ---    0.02933   0.04247   0.05798   0.07416   0.08375
     Eigenvalues ---    0.08958   0.10016   0.10095   0.11073   0.11281
     Eigenvalues ---    0.12548   0.12748   0.13058   0.13185   0.14372
     Eigenvalues --- 1000.000001000.000001000.000001000.000001000.00000
     Eigenvalues --- 1000.000001000.000001000.000001000.000001000.00000
     Eigenvalues --- 1000.000001000.000001000.000001000.000001000.00000
     Eigenvalues --- 1000.000001000.000001000.000001000.000001000.00000
     Eigenvalues --- 1000.00000
 En-DIIS/RFO-DIIS IScMMF=        0 using points:     2    1
 RFO step:  Lambda=-6.19809620D-06.
 DIIS coeffs:      2.38913     -1.38913
 Iteration  1 RMS(Cart)=  0.00328646 RMS(Int)=  0.00000519
 Iteration  2 RMS(Cart)=  0.00000244 RMS(Int)=  0.00000327
 Iteration  3 RMS(Cart)=  0.00000000 RMS(Int)=  0.00000327
 ClnCor:  largest displacement from symmetrization is 1.51D-12 for atom     5.
 Variable       Old X    -DE/DX   Delta X   Delta X   Delta X     New X
                                  (DIIS)     (GDIIS)  (Total)
    R1        4.49333  -0.00006  -0.00410   0.00141  -0.00269   4.49064
    R2        4.65403  -0.00024  -0.00670   0.00135  -0.00535   4.64868
    R3        4.91745  -0.00030  -0.00832  -0.00144  -0.00975   4.90769
    R4        4.91745  -0.00030  -0.00832  -0.00144  -0.00975   4.90769
    R5        4.49333  -0.00006  -0.00410   0.00141  -0.00269   4.49064
    R6        4.64381  -0.00031  -0.00768  -0.00081  -0.00849   4.63532
    R7        4.64381  -0.00031  -0.00768  -0.00081  -0.00849   4.63532
    R8        4.65403  -0.00024  -0.00670   0.00135  -0.00535   4.64868
    R9        4.91745  -0.00030  -0.00832  -0.00144  -0.00975   4.90769
   R10        4.91745  -0.00030  -0.00832  -0.00144  -0.00975   4.90769
   R11        5.45134  -0.00045  -0.01500  -0.00401  -0.01901   5.43233
   R12        4.66830  -0.00016  -0.00601   0.00057  -0.00544   4.66286
   R13        4.66830  -0.00016  -0.00601   0.00057  -0.00544   4.66286
   R14        4.66830  -0.00016  -0.00601   0.00057  -0.00544   4.66286
   R15        4.66830  -0.00016  -0.00601   0.00057  -0.00544   4.66286
   R16        5.01144  -0.00031  -0.00649  -0.00209  -0.00859   5.00285
    A1        1.84152   0.00000  -0.00020   0.00010  -0.00010   1.84142
    A2        2.09401  -0.00007  -0.00140  -0.00099  -0.00239   2.09162
    A3        1.84152   0.00000  -0.00020   0.00010  -0.00010   1.84142
    A4        1.82386   0.00003   0.00090   0.00039   0.00129   1.82515
    A5        1.82386   0.00003   0.00090   0.00039   0.00129   1.82515
    A6        1.82569   0.00007   0.00097   0.00083   0.00179   1.82748
    A7        1.97619  -0.00002  -0.00102  -0.00013  -0.00116   1.97504
    A8        1.79589   0.00004   0.00053   0.00092   0.00145   1.79734
    A9        1.79589   0.00004   0.00053   0.00092   0.00145   1.79734
   A10        1.97619  -0.00002  -0.00102  -0.00013  -0.00116   1.97504
   A11        1.82569   0.00007   0.00097   0.00083   0.00179   1.82748
   A12        1.97619  -0.00002  -0.00102  -0.00013  -0.00116   1.97504
   A13        1.79589   0.00004   0.00053   0.00092   0.00145   1.79734
   A14        1.79589   0.00004   0.00053   0.00092   0.00145   1.79734
   A15        1.97619  -0.00002  -0.00102  -0.00013  -0.00116   1.97504
    D1        0.00000   0.00000   0.00000   0.00000   0.00000   0.00000
    D2        0.00000   0.00000   0.00000   0.00000   0.00000   0.00000
    D3        0.00000   0.00000   0.00000   0.00000   0.00000   0.00000
    D4        0.00000   0.00000   0.00000   0.00000   0.00000   0.00000
    D5        0.00000   0.00000   0.00000   0.00000   0.00000   0.00000
         Item               Value     Threshold  Converged?
 Maximum Force            0.000449     0.000450     YES
 RMS     Force            0.000175     0.000300     YES
 Maximum Displacement     0.009507     0.001800     NO 
 RMS     Displacement     0.003287     0.001200     NO 
 Predicted change in Energy=-1.769224D-05
 GradGradGradGradGradGradGradGradGradGradGradGradGradGradGradGradGradGrad

                          Input orientation:                          
 ---------------------------------------------------------------------
 Center     Atomic      Atomic             Coordinates (Angstroms)
 Number     Number       Type             X           Y           Z
 ---------------------------------------------------------------------
      1         14           0        0.000000    2.056322    0.759822
      2         14           0        0.000000    0.000000    1.950848
      3         14           0        0.000000   -2.056322    0.759822
      4         14           0        0.000000   -1.437332   -1.621006
      5         14           0        0.000000    1.437332   -1.621006
      6         14           0       -1.323697    0.000000   -0.114239
      7         14           0        1.323697    0.000000   -0.114239
 ---------------------------------------------------------------------
                    Distance matrix (angstroms):
                    1          2          3          4          5
     1  Si   0.000000
     2  Si   2.376342   0.000000
     3  Si   4.112644   2.376342   0.000000
     4  Si   4.227760   3.850203   2.459978   0.000000
     5  Si   2.459978   3.850203   4.227760   2.874663   0.000000
     6  Si   2.597040   2.452908   2.597040   2.467477   2.467477
     7  Si   2.597040   2.452908   2.597040   2.467477   2.467477
                    6          7
     6  Si   0.000000
     7  Si   2.647395   0.000000
 Stoichiometry    Si7(1+,2)
 Framework group  C2V[C2(Si),SGV(Si4),SGV'(Si2)]
 Deg. of freedom     6
 Full point group                 C2V     NOp   4
 Largest Abelian subgroup         C2V     NOp   4
 Largest concise Abelian subgroup C2V     NOp   4
                         Standard orientation:                         
 ---------------------------------------------------------------------
 Center     Atomic      Atomic             Coordinates (Angstroms)
 Number     Number       Type             X           Y           Z
 ---------------------------------------------------------------------
      1         14           0        0.000000    2.056322    0.759822
      2         14           0        0.000000    0.000000    1.950848
      3         14           0        0.000000   -2.056322    0.759822
      4         14           0        0.000000   -1.437332   -1.621006
      5         14           0        0.000000    1.437332   -1.621006
      6         14           0       -1.323697    0.000000   -0.114239
      7         14           0        1.323697    0.000000   -0.114239
 ---------------------------------------------------------------------
 Rotational constants (GHZ):      1.3141150      1.1224759      0.7912229
 Standard basis: GTBas3 (6D, 7F)
 There are    81 symmetry adapted basis functions of A1  symmetry.
 There are    33 symmetry adapted basis functions of A2  symmetry.
 There are    49 symmetry adapted basis functions of B1  symmetry.
 There are    61 symmetry adapted basis functions of B2  symmetry.
 Integral buffers will be    131072 words long.
 Raffenetti 2 integral format.
 Two-electron integral symmetry is turned on.
   224 basis functions,   476 primitive gaussians,   245 cartesian basis functions
    49 alpha electrons       48 beta electrons
       nuclear repulsion energy       787.4921285236 Hartrees.
 NAtoms=    7 NActive=    7 NUniq=    4 SFac= 2.30D+00 NAtFMM=   80 NAOKFM=F Big=F
 One-electron integrals computed using PRISM.
 NBasis=   224 RedAO= T  NBF=    81    33    49    61
 NBsUse=   224 1.00D-06 NBFU=    81    33    49    61
 Initial guess read from the read-write file.
 B after Tr=     0.000000    0.000000    0.000000
         Rot=    1.000000    0.000000    0.000000    0.000000 Ang=   0.00 deg.
 Initial guess orbital symmetries:
 Alpha Orbitals:
       Occupied  (A1) (B2) (A1) (B2) (A1) (A1) (B1) (A1) (B2) (A1)
                 (A1) (B2) (A1) (B1) (A1) (B1) (B1) (A2) (B2) (A2)
                 (B1) (A1) (B2) (A1) (B2) (A1) (B2) (A1) (B2) (A1)
                 (B1) (A2) (B2) (B1) (A1) (A1) (B2) (A1) (B1) (B2)
                 (A1) (A1) (A2) (B1) (A1) (B2) (A1) (B2) (A1)
       Virtual   (B1) (A2) (B1) (B2) (A1) (B1) (A1) (B2) (A1) (B2)
                 (A1) (A2) (B1) (B2) (B2) (A1) (B1) (A1) (A2) (B2)
                 (A1) (A2) (A1) (B1) (A1) (B2) (A1) (B1) (A2) (B2)
                 (A1) (B1) (B2) (B1) (A1) (A1) (B2) (A1) (A2) (B1)
                 (A2) (B1) (A1) (B2) (B2) (A2) (B1) (A1) (B2) (B1)
                 (A1) (B2) (A1) (A2) (B2) (A1) (B1) (A2) (B2) (B1)
                 (B2) (A1) (B1) (B2) (A1) (A2) (A1) (A1) (B2) (A1)
                 (A2) (B1) (B1) (B2) (A1) (B2) (A1) (A2) (B2) (A1)
                 (B2) (B1) (A1) (A1) (B1) (A1) (B2) (A2) (B1) (B2)
                 (A1) (A2) (B1) (A1) (B1) (B2) (A1) (A1) (A2) (B1)
                 (A2) (B2) (A1) (B2) (B2) (A1) (A1) (B1) (B2) (A2)
                 (B1) (A1) (B2) (A2) (A1) (B2) (A2) (B1) (A1) (B2)
                 (A2) (A1) (B1) (B1) (A2) (B1) (B2) (B2) (A1) (B1)
                 (A1) (B2) (B1) (A1) (A2) (A1) (B2) (A2) (B1) (A1)
                 (A1) (B2) (B1) (A2) (B2) (B1) (A1) (A2) (A1) (B1)
                 (B2) (A2) (A1) (B2) (A1) (B2) (B2) (A2) (B1) (A1)
                 (B1) (A2) (A1) (A1) (B1) (B2) (A1) (B2) (A1) (B2)
                 (A1) (B2) (A1) (B1) (A1)
 Beta  Orbitals:
       Occupied  (B2) (A1) (A1) (B2) (A1) (A1) (B1) (A1) (B2) (A1)
                 (A1) (B2) (A1) (B1) (B1) (B1) (A2) (B2) (A2) (B1)
                 (A1) (B2) (A1) (A1) (B2) (A1) (B2) (A1) (B2) (A1)
                 (B1) (A2) (B2) (B1) (A1) (A1) (B2) (A1) (B1) (B2)
                 (A1) (A1) (A2) (B1) (A1) (B2) (A1) (B2)
       Virtual   (A1) (B1) (A2) (B1) (B2) (A1) (B1) (A1) (B2) (A1)
                 (B2) (A2) (A1) (B1) (B2) (B2) (A1) (B1) (A1) (A2)
                 (B2) (A2) (A1) (B1) (A1) (B2) (A1) (B1) (A1) (A2)
                 (B2) (A1) (B1) (B2) (B1) (A1) (A1) (B2) (A1) (A2)
                 (B1) (A2) (B1) (A1) (B2) (B2) (A2) (B1) (A1) (B2)
                 (B1) (A1) (B2) (A1) (A2) (B2) (A1) (B1) (A2) (B2)
                 (B1) (B2) (A1) (B1) (B2) (A1) (A2) (A1) (B2) (A1)
                 (A1) (A2) (B1) (B1) (B2) (A1) (B2) (A1) (A2) (B2)
                 (A1) (B2) (B1) (A1) (A1) (B1) (A1) (B2) (A2) (B1)
                 (B2) (A1) (A2) (B1) (A1) (B1) (B2) (A1) (A1) (A2)
                 (B1) (A2) (B2) (A1) (B2) (B2) (A1) (A1) (B1) (B2)
                 (A2) (B1) (A1) (B2) (A2) (A1) (B2) (A2) (B1) (A1)
                 (B2) (A2) (A1) (B1) (B1) (A2) (B1) (B2) (B2) (A1)
                 (B1) (A1) (B2) (B1) (A1) (A2) (A1) (B2) (A2) (B1)
                 (A1) (A1) (B2) (B1) (A2) (B2) (B1) (A1) (A2) (A1)
                 (B2) (B1) (A2) (A1) (B2) (A1) (B2) (B2) (A2) (B1)
                 (A1) (A2) (B1) (A1) (A1) (B1) (B2) (A1) (B2) (A1)
                 (B2) (A1) (B2) (A1) (B1) (A1)
 Initial guess <Sx>= 0.0000 <Sy>= 0.0000 <Sz>= 0.5000 <S**2>= 0.7617 S= 0.5058
 Requested convergence on RMS density matrix=1.00D-08 within 128 cycles.
 Requested convergence on MAX density matrix=1.00D-06.
 Requested convergence on             energy=1.00D-06.
 No special actions if energy rises.
 Keep R1 and R2 ints in memory in canonical form, NReq=915849190.
 SCF Done:  E(UB3LYP) =  -2026.15724512     A.U. after   12 cycles
             Convg  =    0.3702D-08             -V/T =  2.0035
 <Sx>= 0.0000 <Sy>= 0.0000 <Sz>= 0.5000 <S**2>= 0.7616 S= 0.5058
 <L.S>= 0.000000000000E+00
 Annihilation of the first spin contaminant:
 S**2 before annihilation     0.7616,   after     0.7501
 QCSCF skips out because SCF is already converged.
 Calling FoFJK, ICntrl=      2127 FMM=F ISym2X=1 I1Cent= 0 IOpClX= 1 NMat=1 NMatS=1 NMatT=0.
 ***** Axes restored to original set *****
 -------------------------------------------------------------------
 Center     Atomic                   Forces (Hartrees/Bohr)
 Number     Number              X              Y              Z
 -------------------------------------------------------------------
      1       14           0.000000000    0.000120129   -0.000021391
      2       14           0.000000000    0.000000000    0.000212226
      3       14           0.000000000   -0.000120129   -0.000021391
      4       14           0.000000000    0.000077042   -0.000260407
      5       14           0.000000000   -0.000077042   -0.000260407
      6       14           0.000110741    0.000000000    0.000175685
      7       14          -0.000110741    0.000000000    0.000175685
 -------------------------------------------------------------------
 Cartesian Forces:  Max     0.000260407 RMS     0.000121218

 GradGradGradGradGradGradGradGradGradGradGradGradGradGradGradGradGradGrad
 Berny optimization.
 Using GEDIIS/GDIIS optimizer.
 Internal  Forces:  Max     0.000168447 RMS     0.000075144
 Search for a local minimum.
 Step number   3 out of a maximum of   46
 All quantities printed in internal units (Hartrees-Bohrs-Radians)
 Mixed Optimization -- En-DIIS/RFO-DIIS
 Swaping is turned off.
 Update second derivatives using D2CorX and points    1    2    3
 DE= -1.88D-05 DEPred=-1.77D-05 R= 1.06D+00
 SS=  1.41D+00  RLast= 3.43D-02 DXNew= 5.0454D-01 1.0302D-01
 Trust test= 1.06D+00 RLast= 3.43D-02 DXMaxT set to 3.00D-01
     Eigenvalues ---    0.02542   0.04258   0.05787   0.07643   0.08374
     Eigenvalues ---    0.08956   0.10099   0.10145   0.11079   0.11457
     Eigenvalues ---    0.12558   0.12741   0.13068   0.13189   0.15267
     Eigenvalues --- 1000.000001000.000001000.000001000.000001000.00000
     Eigenvalues --- 1000.000001000.000001000.000001000.000001000.00000
     Eigenvalues --- 1000.000001000.000001000.000001000.000001000.00000
     Eigenvalues --- 1000.000001000.000001000.000001000.000001000.00000
     Eigenvalues --- 1000.00000
 En-DIIS/RFO-DIIS IScMMF=        0 using points:     3    2    1
 RFO step:  Lambda=-5.93885219D-07.
 DIIS coeffs:      2.82851     -4.41224      2.58374
 Iteration  1 RMS(Cart)=  0.00174595 RMS(Int)=  0.00000363
 Iteration  2 RMS(Cart)=  0.00000139 RMS(Int)=  0.00000252
 Iteration  3 RMS(Cart)=  0.00000000 RMS(Int)=  0.00000252
 ClnCor:  largest displacement from symmetrization is 3.85D-12 for atom     3.
 Variable       Old X    -DE/DX   Delta X   Delta X   Delta X     New X
                                  (DIIS)     (GDIIS)  (Total)
    R1        4.49064   0.00017   0.00270  -0.00001   0.00269   4.49333
    R2        4.64868   0.00012   0.00268   0.00031   0.00299   4.65167
    R3        4.90769  -0.00004  -0.00237   0.00005  -0.00232   4.90538
    R4        4.90769  -0.00004  -0.00237   0.00005  -0.00232   4.90538
    R5        4.49064   0.00017   0.00270  -0.00001   0.00269   4.49333
    R6        4.63532  -0.00001  -0.00123  -0.00026  -0.00149   4.63383
    R7        4.63532  -0.00001  -0.00123  -0.00026  -0.00149   4.63383
    R8        4.64868   0.00012   0.00268   0.00031   0.00299   4.65167
    R9        4.90769  -0.00004  -0.00237   0.00005  -0.00232   4.90538
   R10        4.90769  -0.00004  -0.00237   0.00005  -0.00232   4.90538
   R11        5.43233  -0.00015  -0.00686  -0.00138  -0.00825   5.42408
   R12        4.66286   0.00010   0.00123   0.00018   0.00141   4.66427
   R13        4.66286   0.00010   0.00123   0.00018   0.00141   4.66427
   R14        4.66286   0.00010   0.00123   0.00018   0.00141   4.66427
   R15        4.66286   0.00010   0.00123   0.00018   0.00141   4.66427
   R16        5.00285  -0.00011  -0.00363   0.00075  -0.00288   4.99997
    A1        1.84142   0.00001   0.00020  -0.00016   0.00004   1.84146
    A2        2.09162  -0.00007  -0.00178   0.00003  -0.00174   2.08988
    A3        1.84142   0.00001   0.00020  -0.00016   0.00004   1.84146
    A4        1.82515   0.00002   0.00069   0.00014   0.00083   1.82599
    A5        1.82515   0.00002   0.00069   0.00014   0.00083   1.82599
    A6        1.82748   0.00007   0.00148  -0.00001   0.00147   1.82895
    A7        1.97504   0.00000  -0.00022  -0.00025  -0.00047   1.97457
    A8        1.79734   0.00007   0.00167  -0.00005   0.00162   1.79896
    A9        1.79734   0.00007   0.00167  -0.00005   0.00162   1.79896
   A10        1.97504   0.00000  -0.00022  -0.00025  -0.00047   1.97457
   A11        1.82748   0.00007   0.00148  -0.00001   0.00147   1.82895
   A12        1.97504   0.00000  -0.00022  -0.00025  -0.00047   1.97457
   A13        1.79734   0.00007   0.00167  -0.00005   0.00162   1.79896
   A14        1.79734   0.00007   0.00167  -0.00005   0.00162   1.79896
   A15        1.97504   0.00000  -0.00022  -0.00025  -0.00047   1.97457
    D1        0.00000   0.00000   0.00000   0.00000   0.00000   0.00000
    D2        0.00000   0.00000   0.00000   0.00000   0.00000   0.00000
    D3        0.00000   0.00000   0.00000   0.00000   0.00000   0.00000
    D4        0.00000   0.00000   0.00000   0.00000   0.00000   0.00000
    D5        0.00000   0.00000   0.00000   0.00000   0.00000   0.00000
         Item               Value     Threshold  Converged?
 Maximum Force            0.000168     0.000450     YES
 RMS     Force            0.000075     0.000300     YES
 Maximum Displacement     0.004125     0.001800     NO 
 RMS     Displacement     0.001746     0.001200     NO 
 Predicted change in Energy=-1.782037D-06
 GradGradGradGradGradGradGradGradGradGradGradGradGradGradGradGradGradGrad

                          Input orientation:                          
 ---------------------------------------------------------------------
 Center     Atomic      Atomic             Coordinates (Angstroms)
 Number     Number       Type             X           Y           Z
 ---------------------------------------------------------------------
      1         14           0        0.000000    2.056517    0.758909
      2         14           0        0.000000    0.000000    1.952440
      3         14           0        0.000000   -2.056517    0.758909
      4         14           0        0.000000   -1.435149   -1.622931
      5         14           0        0.000000    1.435149   -1.622931
      6         14           0       -1.322936    0.000000   -0.112198
      7         14           0        1.322936    0.000000   -0.112198
 ---------------------------------------------------------------------
                    Distance matrix (angstroms):
                    1          2          3          4          5
     1  Si   0.000000
     2  Si   2.377767   0.000000
     3  Si   4.113034   2.377767   0.000000
     4  Si   4.226688   3.852653   2.461557   0.000000
     5  Si   2.461557   3.852653   4.226688   2.870297   0.000000
     6  Si   2.595814   2.452120   2.595814   2.468223   2.468223
     7  Si   2.595814   2.452120   2.595814   2.468223   2.468223
                    6          7
     6  Si   0.000000
     7  Si   2.645871   0.000000
 Stoichiometry    Si7(1+,2)
 Framework group  C2V[C2(Si),SGV(Si4),SGV'(Si2)]
 Deg. of freedom     6
 Full point group                 C2V     NOp   4
 Largest Abelian subgroup         C2V     NOp   4
 Largest concise Abelian subgroup C2V     NOp   4
                         Standard orientation:                         
 ---------------------------------------------------------------------
 Center     Atomic      Atomic             Coordinates (Angstroms)
 Number     Number       Type             X           Y           Z
 ---------------------------------------------------------------------
      1         14           0        0.000000    2.056517    0.758909
      2         14           0        0.000000    0.000000    1.952440
      3         14           0        0.000000   -2.056517    0.758909
      4         14           0        0.000000   -1.435149   -1.622931
      5         14           0        0.000000    1.435149   -1.622931
      6         14           0       -1.322936    0.000000   -0.112198
      7         14           0        1.322936    0.000000   -0.112198
 ---------------------------------------------------------------------
 Rotational constants (GHZ):      1.3130661      1.1235211      0.7910818
 Standard basis: GTBas3 (6D, 7F)
 There are    81 symmetry adapted basis functions of A1  symmetry.
 There are    33 symmetry adapted basis functions of A2  symmetry.
 There are    49 symmetry adapted basis functions of B1  symmetry.
 There are    61 symmetry adapted basis functions of B2  symmetry.
 Integral buffers will be    131072 words long.
 Raffenetti 2 integral format.
 Two-electron integral symmetry is turned on.
   224 basis functions,   476 primitive gaussians,   245 cartesian basis functions
    49 alpha electrons       48 beta electrons
       nuclear repulsion energy       787.4907966527 Hartrees.
 NAtoms=    7 NActive=    7 NUniq=    4 SFac= 2.30D+00 NAtFMM=   80 NAOKFM=F Big=F
 One-electron integrals computed using PRISM.
 NBasis=   224 RedAO= T  NBF=    81    33    49    61
 NBsUse=   224 1.00D-06 NBFU=    81    33    49    61
 Initial guess read from the read-write file.
 B after Tr=     0.000000    0.000000    0.000000
         Rot=    1.000000    0.000000    0.000000    0.000000 Ang=   0.00 deg.
 Initial guess orbital symmetries:
 Alpha Orbitals:
       Occupied  (A1) (B2) (A1) (B2) (A1) (A1) (B1) (A1) (B2) (A1)
                 (A1) (B2) (A1) (B1) (A1) (B1) (B1) (A2) (B2) (A2)
                 (B1) (A1) (B2) (A1) (B2) (A1) (B2) (A1) (B2) (A1)
                 (B1) (A2) (B2) (B1) (A1) (A1) (B2) (A1) (B1) (B2)
                 (A1) (A1) (A2) (B1) (A1) (B2) (A1) (B2) (A1)
       Virtual   (B1) (A2) (B1) (B2) (A1) (B1) (A1) (B2) (A1) (B2)
                 (A1) (A2) (B1) (B2) (B2) (A1) (B1) (A1) (A2) (B2)
                 (A1) (A2) (A1) (B1) (A1) (B2) (A1) (B1) (A2) (B2)
                 (A1) (B1) (B2) (B1) (A1) (A1) (B2) (A1) (A2) (B1)
                 (A2) (B1) (A1) (B2) (B2) (A2) (B1) (A1) (B2) (B1)
                 (A1) (B2) (A1) (A2) (B2) (A1) (B1) (A2) (B2) (B1)
                 (B2) (A1) (B1) (B2) (A1) (A2) (A1) (A1) (B2) (A1)
                 (A2) (B1) (B1) (B2) (A1) (B2) (A1) (A2) (B2) (A1)
                 (B2) (B1) (A1) (B1) (A1) (A1) (B2) (A2) (B1) (B2)
                 (A1) (A2) (B1) (A1) (B1) (B2) (A1) (A1) (A2) (B1)
                 (A2) (B2) (A1) (B2) (B2) (A1) (A1) (B1) (B2) (A2)
                 (B1) (A1) (B2) (A2) (A1) (B2) (A2) (B1) (A1) (B2)
                 (A2) (A1) (B1) (B1) (A2) (B1) (B2) (B2) (A1) (B1)
                 (A1) (B2) (B1) (A1) (A2) (A1) (B2) (B1) (A2) (A1)
                 (A1) (B2) (B1) (A2) (B2) (B1) (A1) (A2) (A1) (B1)
                 (B2) (A2) (A1) (B2) (A1) (B2) (B2) (A2) (B1) (A1)
                 (B1) (A2) (A1) (A1) (B1) (B2) (A1) (B2) (A1) (B2)
                 (A1) (B2) (A1) (B1) (A1)
 Beta  Orbitals:
       Occupied  (B2) (A1) (A1) (B2) (A1) (A1) (B1) (A1) (B2) (A1)
                 (A1) (B2) (A1) (B1) (B1) (B1) (A2) (B2) (A2) (B1)
                 (A1) (A1) (B2) (A1) (B2) (A1) (B2) (A1) (B2) (A1)
                 (B1) (A2) (B2) (B1) (A1) (A1) (B2) (A1) (B1) (B2)
                 (A1) (A1) (A2) (B1) (A1) (B2) (A1) (B2)
       Virtual   (A1) (B1) (A2) (B1) (B2) (A1) (B1) (A1) (B2) (A1)
                 (B2) (A2) (A1) (B1) (B2) (B2) (A1) (B1) (A1) (A2)
                 (B2) (A2) (A1) (B1) (A1) (B2) (A1) (B1) (A1) (A2)
                 (B2) (A1) (B1) (B2) (B1) (A1) (A1) (B2) (A1) (A2)
                 (B1) (A2) (B1) (A1) (B2) (B2) (A2) (B1) (A1) (B2)
                 (B1) (A1) (B2) (A1) (A2) (B2) (A1) (B1) (A2) (B2)
                 (B1) (B2) (A1) (B1) (B2) (A1) (A2) (A1) (B2) (A1)
                 (A1) (A2) (B1) (B1) (B2) (A1) (B2) (A1) (A2) (B2)
                 (A1) (B2) (B1) (A1) (A1) (B1) (A1) (B2) (A2) (B1)
                 (B2) (A1) (A2) (B1) (A1) (B1) (B2) (A1) (A1) (A2)
                 (B1) (A2) (B2) (A1) (B2) (B2) (A1) (A1) (B1) (B2)
                 (A2) (B1) (A1) (B2) (A2) (A1) (B2) (A2) (B1) (A1)
                 (B2) (A2) (A1) (B1) (B1) (A2) (B1) (B2) (B2) (B1)
                 (A1) (A1) (B2) (B1) (A1) (A2) (A1) (B2) (A2) (B1)
                 (A1) (A1) (B2) (B1) (A2) (B2) (B1) (A1) (A2) (A1)
                 (B2) (B1) (A2) (A1) (B2) (A1) (B2) (B2) (A2) (B1)
                 (A1) (A2) (B1) (A1) (A1) (B1) (B2) (A1) (B2) (A1)
                 (B2) (A1) (B2) (A1) (B1) (A1)
 Initial guess <Sx>= 0.0000 <Sy>= 0.0000 <Sz>= 0.5000 <S**2>= 0.7616 S= 0.5058
 Requested convergence on RMS density matrix=1.00D-08 within 128 cycles.
 Requested convergence on MAX density matrix=1.00D-06.
 Requested convergence on             energy=1.00D-06.
 No special actions if energy rises.
 Keep R1 and R2 ints in memory in canonical form, NReq=915849190.
 SCF Done:  E(UB3LYP) =  -2026.15724796     A.U. after   11 cycles
             Convg  =    0.7317D-08             -V/T =  2.0035
 <Sx>= 0.0000 <Sy>= 0.0000 <Sz>= 0.5000 <S**2>= 0.7616 S= 0.5058
 <L.S>= 0.000000000000E+00
 Annihilation of the first spin contaminant:
 S**2 before annihilation     0.7616,   after     0.7501
 QCSCF skips out because SCF is already converged.
 Calling FoFJK, ICntrl=      2127 FMM=F ISym2X=1 I1Cent= 0 IOpClX= 1 NMat=1 NMatS=1 NMatT=0.
 ***** Axes restored to original set *****
 -------------------------------------------------------------------
 Center     Atomic                   Forces (Hartrees/Bohr)
 Number     Number              X              Y              Z
 -------------------------------------------------------------------
      1       14           0.000000000    0.000032722    0.000013426
      2       14           0.000000000    0.000000000   -0.000051375
      3       14           0.000000000   -0.000032722    0.000013426
      4       14           0.000000000    0.000070382   -0.000024258
      5       14           0.000000000   -0.000070382   -0.000024258
      6       14          -0.000063848    0.000000000    0.000036520
      7       14           0.000063848    0.000000000    0.000036520
 -------------------------------------------------------------------
 Cartesian Forces:  Max     0.000070382 RMS     0.000035887

 GradGradGradGradGradGradGradGradGradGradGradGradGradGradGradGradGradGrad
 Berny optimization.
 Using GEDIIS/GDIIS optimizer.
 Internal  Forces:  Max     0.000073808 RMS     0.000018460
 Search for a local minimum.
 Step number   4 out of a maximum of   46
 All quantities printed in internal units (Hartrees-Bohrs-Radians)
 Mixed Optimization -- En-DIIS/RFO-DIIS
 Swaping is turned off.
 Update second derivatives using D2CorX and points    1    2    3    4
 DE= -2.84D-06 DEPred=-1.78D-06 R= 1.59D+00
 SS=  1.41D+00  RLast= 1.28D-02 DXNew= 5.0454D-01 3.8266D-02
 Trust test= 1.59D+00 RLast= 1.28D-02 DXMaxT set to 3.00D-01
     Eigenvalues ---    0.01876   0.04268   0.05663   0.05782   0.08372
     Eigenvalues ---    0.08582   0.08953   0.10101   0.10983   0.11082
     Eigenvalues ---    0.12197   0.12557   0.12917   0.13072   0.13189
     Eigenvalues --- 1000.000001000.000001000.000001000.000001000.00000
     Eigenvalues --- 1000.000001000.000001000.000001000.000001000.00000
     Eigenvalues --- 1000.000001000.000001000.000001000.000001000.00000
     Eigenvalues --- 1000.000001000.000001000.000001000.000001000.00000
     Eigenvalues --- 1000.00000
 En-DIIS/RFO-DIIS IScMMF=        0 using points:     4    3    2    1
 RFO step:  Lambda=-5.33336769D-08.
 DIIS coeffs:      1.15450     -0.14181      0.00000     -0.01270
 Iteration  1 RMS(Cart)=  0.00043616 RMS(Int)=  0.00000046
 Iteration  2 RMS(Cart)=  0.00000008 RMS(Int)=  0.00000043
 ClnCor:  largest displacement from symmetrization is 1.30D-12 for atom     5.
 Variable       Old X    -DE/DX   Delta X   Delta X   Delta X     New X
                                  (DIIS)     (GDIIS)  (Total)
    R1        4.49333   0.00001   0.00034   0.00002   0.00037   4.49370
    R2        4.65167   0.00001   0.00033   0.00020   0.00054   4.65220
    R3        4.90538   0.00001  -0.00056   0.00012  -0.00044   4.90494
    R4        4.90538   0.00001  -0.00056   0.00012  -0.00044   4.90494
    R5        4.49333   0.00001   0.00034   0.00002   0.00037   4.49370
    R6        4.63383  -0.00003  -0.00041  -0.00022  -0.00063   4.63320
    R7        4.63383  -0.00003  -0.00041  -0.00022  -0.00063   4.63320
    R8        4.65167   0.00001   0.00033   0.00020   0.00054   4.65220
    R9        4.90538   0.00001  -0.00056   0.00012  -0.00044   4.90494
   R10        4.90538   0.00001  -0.00056   0.00012  -0.00044   4.90494
   R11        5.42408  -0.00007  -0.00165  -0.00108  -0.00274   5.42134
   R12        4.66427   0.00001   0.00009   0.00009   0.00018   4.66445
   R13        4.66427   0.00001   0.00009   0.00009   0.00018   4.66445
   R14        4.66427   0.00001   0.00009   0.00009   0.00018   4.66445
   R15        4.66427   0.00001   0.00009   0.00009   0.00018   4.66445
   R16        4.99997   0.00004  -0.00061   0.00062   0.00001   4.99998
    A1        1.84146  -0.00001   0.00000  -0.00017  -0.00016   1.84130
    A2        2.08988   0.00001  -0.00031   0.00007  -0.00024   2.08964
    A3        1.84146  -0.00001   0.00000  -0.00017  -0.00016   1.84130
    A4        1.82599   0.00001   0.00015   0.00013   0.00028   1.82627
    A5        1.82599   0.00001   0.00015   0.00013   0.00028   1.82627
    A6        1.82895   0.00000   0.00026   0.00000   0.00026   1.82921
    A7        1.97457  -0.00001  -0.00010  -0.00020  -0.00029   1.97427
    A8        1.79896   0.00000   0.00027  -0.00006   0.00022   1.79917
    A9        1.79896   0.00000   0.00027  -0.00006   0.00022   1.79917
   A10        1.97457  -0.00001  -0.00010  -0.00020  -0.00029   1.97427
   A11        1.82895   0.00000   0.00026   0.00000   0.00026   1.82921
   A12        1.97457  -0.00001  -0.00010  -0.00020  -0.00029   1.97427
   A13        1.79896   0.00000   0.00027  -0.00006   0.00022   1.79917
   A14        1.79896   0.00000   0.00027  -0.00006   0.00022   1.79917
   A15        1.97457  -0.00001  -0.00010  -0.00020  -0.00029   1.97427
    D1        0.00000   0.00000   0.00000   0.00000   0.00000   0.00000
    D2        0.00000   0.00000   0.00000   0.00000   0.00000   0.00000
[...]
  Beta virt. eigenvalues --    1.29776   1.31158   1.32334   1.32584   1.34336
  Beta virt. eigenvalues --    1.34805   1.35124   1.36026   1.36449   1.37379
  Beta virt. eigenvalues --    1.37776   1.38719   1.40641   1.41031   1.41656
  Beta virt. eigenvalues --    1.42654   1.42836   1.43858   1.46882   1.48073
  Beta virt. eigenvalues --    1.48150   1.48418   1.49633   1.50755   1.51223
  Beta virt. eigenvalues --    1.51593   1.51784   1.52307   1.52337   1.53813
  Beta virt. eigenvalues --    1.53931   1.55824   1.57481   1.57576   1.58444
  Beta virt. eigenvalues --    1.58450   1.61991   1.62344   1.62982   1.63030
  Beta virt. eigenvalues --    1.63699   1.64741   1.65403   1.66467   1.66643
  Beta virt. eigenvalues --    1.67271   1.68071   1.68072   1.68748   1.69440
  Beta virt. eigenvalues --    1.70213   1.72138   1.72301   1.72575   1.72739
  Beta virt. eigenvalues --    1.73867   1.74206   1.74394   1.74923   1.75946
  Beta virt. eigenvalues --    1.76167   1.78082   1.78591   1.79929   1.80786
  Beta virt. eigenvalues --    1.82130   1.82207   1.83132   1.85070   1.85077
  Beta virt. eigenvalues --    1.85652   1.85954   1.87562   1.87873   1.88548
  Beta virt. eigenvalues --    1.88809   1.89560   1.90952   1.91769   1.92698
  Beta virt. eigenvalues --    1.93459   1.93956   1.94457   1.95305   1.96977
  Beta virt. eigenvalues --    1.97293   1.97301   1.98442   1.98511   1.98843
  Beta virt. eigenvalues --    1.99396   2.00814   2.00981   2.04203   2.04262
  Beta virt. eigenvalues --    2.04856   2.06726   2.06961   2.07416   2.08275
  Beta virt. eigenvalues --    2.09830   2.11905   2.13648   2.13666   2.14111
  Beta virt. eigenvalues --    2.16028   2.16435   2.18879   2.20204   2.20479
  Beta virt. eigenvalues --    2.20658   2.22099   2.23512   2.23826   2.25496
  Beta virt. eigenvalues --    2.26287   2.28066   2.29235   2.31396   2.31419
  Beta virt. eigenvalues --    2.31886   2.32085   2.35008   2.35065   2.36237
  Beta virt. eigenvalues --    2.36964   2.38328   2.45758   2.51360   2.53522
  Beta virt. eigenvalues --    2.55243   2.55665   2.56408   2.59672   2.60076
  Beta virt. eigenvalues --    2.66173   2.66944   2.66953   2.68158   2.70172
  Beta virt. eigenvalues --    2.70686   2.71904   2.72385   2.73497   2.74034
  Beta virt. eigenvalues --    2.74838   2.81893   2.83434   2.89169   2.92404
  Beta virt. eigenvalues --    2.93100   2.94787   2.95553   2.98152   3.02316
  Beta virt. eigenvalues --    3.05829   3.06343   3.06894   3.07117   3.07300
  Beta virt. eigenvalues --    3.07805   3.10825   3.11358   3.12184   3.12590
  Beta virt. eigenvalues --    3.13407   3.15112   3.15436   3.15732   3.16780
  Beta virt. eigenvalues --    3.17691   3.19029   3.19969   3.20671   3.20958
  Beta virt. eigenvalues --    3.21231   3.22239   3.24006   3.24090   3.24775
  Beta virt. eigenvalues --    3.26404   3.27131   3.29030   3.29884   3.30389
  Beta virt. eigenvalues --    3.30541   3.32444   3.32890   3.33133   3.33200
  Beta virt. eigenvalues --    3.34859   3.36449   3.37409   3.37723   3.38391
  Beta virt. eigenvalues --    3.38880   3.39597   3.39710   3.40565   3.40598
  Beta virt. eigenvalues --    3.41636   3.42617   3.43213   3.43274   3.43719
  Beta virt. eigenvalues --    3.44218   3.45503   3.46160   3.46288   3.46414
  Beta virt. eigenvalues --    3.46994   3.47433   3.47661   3.47939   3.48979
  Beta virt. eigenvalues --    3.49532   3.52465   3.53041   3.53432   3.53641
  Beta virt. eigenvalues --    3.54744   3.55081   3.56817   3.56957   3.56996
  Beta virt. eigenvalues --    3.59017   3.59197   3.59898   3.62799   3.63044
  Beta virt. eigenvalues --    3.64476   3.64482   3.65136   3.66502   3.66771
  Beta virt. eigenvalues --    3.68042   3.68057   3.68891   3.69905   3.73587
  Beta virt. eigenvalues --    3.74671   3.74784   3.75759   3.78970   3.79113
  Beta virt. eigenvalues --    3.82770   3.83125   3.85822   3.86040   3.86137
  Beta virt. eigenvalues --    3.87824   3.87977   3.89555   3.89778   3.90772
  Beta virt. eigenvalues --    3.91263   3.93015   3.93463   3.93657   3.94902
  Beta virt. eigenvalues --    3.95834   3.96959   3.98613   3.99290   4.01204
  Beta virt. eigenvalues --    4.01711   4.03862   4.04209   4.08027   4.08589
  Beta virt. eigenvalues --    4.08703   4.09642   4.09812   4.10104   4.12857
  Beta virt. eigenvalues --    4.13725   4.14678   4.15731   4.16007   4.16365
  Beta virt. eigenvalues --    4.16661   4.17602   4.17822   4.18516   4.19769
  Beta virt. eigenvalues --    4.21747   4.22216   4.23209   4.23389   4.24300
  Beta virt. eigenvalues --    4.24497   4.25386   4.26451   4.27551   4.27960
  Beta virt. eigenvalues --    4.28011   4.30123   4.32080   4.32701   4.32919
  Beta virt. eigenvalues --    4.34226   4.35272   4.35574   4.35759   4.37124
  Beta virt. eigenvalues --    4.38125   4.39243   4.39321   4.41759   4.42691
  Beta virt. eigenvalues --    4.43028   4.43224   4.45021   4.45545   4.46244
  Beta virt. eigenvalues --    4.48137   4.48421   4.51331   4.52798   4.53943
  Beta virt. eigenvalues --    4.55470   4.55785   4.56973   4.57721   4.58547
  Beta virt. eigenvalues --    4.60057   4.61902   4.62586   4.62715   4.64010
  Beta virt. eigenvalues --    4.64911   4.64926   4.67857   4.68659   4.69695
  Beta virt. eigenvalues --    4.71664   4.71986   4.74228   4.74821   4.75392
  Beta virt. eigenvalues --    4.76234   4.77370   4.78016   4.78232   4.81286
  Beta virt. eigenvalues --    4.83596   4.84876   4.84958   4.86623   4.87295
  Beta virt. eigenvalues --    4.92085   4.94721   4.99228   4.99995   5.00426
  Beta virt. eigenvalues --    5.00698   5.01448   5.03406   5.05342   5.10513
  Beta virt. eigenvalues --    5.12871   5.13550   5.15068   5.18075   5.20351
  Beta virt. eigenvalues --    5.22900   5.23538   5.23776   5.28157   5.31433
  Beta virt. eigenvalues --    5.31702   5.41502   5.42595   5.44723   5.52398
  Beta virt. eigenvalues --    5.62927   5.75929   6.25897   6.30798   6.37041
  Beta virt. eigenvalues --    6.44581   6.55178   6.55353   6.60575   6.65454
  Beta virt. eigenvalues --    6.69535   6.75145   6.75930   6.77217   6.77553
  Beta virt. eigenvalues --    6.80632   6.81071   6.82141   6.82378   6.85543
  Beta virt. eigenvalues --    6.85825   6.90012   6.90493   6.91004   6.96623
  Beta virt. eigenvalues --    6.99262   7.02858   7.07168   7.13879   7.16966
  Beta virt. eigenvalues --    7.17539   7.18062   7.31237   7.34890   7.42984
  Beta virt. eigenvalues --    7.44618   7.55231  13.64517  13.65184  13.81067
  Beta virt. eigenvalues --   13.85059  13.86985  13.88497  13.94298  13.99854
  Beta virt. eigenvalues --   14.06977  14.07163  14.10219  14.13917  14.28722
  Beta virt. eigenvalues --   14.28727  14.38730  14.44571  14.47300  14.48405
  Beta virt. eigenvalues --   14.51405  14.62205  14.78258  40.56264  40.96932
  Beta virt. eigenvalues --   41.09228  41.64634  42.21548  44.08933  44.32094
          Condensed to atoms (all electrons):
              1          2          3          4          5          6
     1  Si  12.984662   0.327692  -0.010673  -0.007882   0.237543   0.149535
     2  Si   0.327692  12.772172   0.327692  -0.012317  -0.012317   0.228482
     3  Si  -0.010673   0.327692  12.984662   0.237543  -0.007882   0.149535
     4  Si  -0.007882  -0.012317   0.237543  13.065093   0.081095   0.230389
     5  Si   0.237543  -0.012317  -0.007882   0.081095  13.065093   0.230389
     6  Si   0.149535   0.228482   0.149535   0.230389   0.230389  12.895482
     7  Si   0.149535   0.228482   0.149535   0.230389   0.230389   0.031523
              7
     1  Si   0.149535
     2  Si   0.228482
     3  Si   0.149535
     4  Si   0.230389
     5  Si   0.230389
     6  Si   0.031523
     7  Si  12.895482
 Mulliken atomic charges:
              1
     1  Si   0.169589
     2  Si   0.140113
     3  Si   0.169589
     4  Si   0.175690
     5  Si   0.175690
     6  Si   0.084665
     7  Si   0.084665
 Sum of Mulliken atomic charges =   1.00000
 Mulliken charges with hydrogens summed into heavy atoms:
              1
     1  Si   0.169589
     2  Si   0.140113
     3  Si   0.169589
     4  Si   0.175690
     5  Si   0.175690
     6  Si   0.084665
     7  Si   0.084665
 Sum of Mulliken charges with hydrogens summed into heavy atoms =   1.00000
          Atomic-Atomic Spin Densities.
              1          2          3          4          5          6
     1  Si   0.108936  -0.049365  -0.001864   0.000181   0.055617  -0.002185
     2  Si  -0.049365   0.572983  -0.049365  -0.006816  -0.006816   0.022669
     3  Si  -0.001864  -0.049365   0.108936   0.055617   0.000181  -0.002185
     4  Si   0.000181  -0.006816   0.055617   0.157300   0.010771  -0.007516
     5  Si   0.055617  -0.006816   0.000181   0.010771   0.157300  -0.007516
     6  Si  -0.002185   0.022669  -0.002185  -0.007516  -0.007516  -0.061297
     7  Si  -0.002185   0.022669  -0.002185  -0.007516  -0.007516  -0.006105
              7
     1  Si  -0.002185
     2  Si   0.022669
     3  Si  -0.002185
     4  Si  -0.007516
     5  Si  -0.007516
     6  Si  -0.006105
     7  Si  -0.061297
 Mulliken atomic spin densities:
              1
     1  Si   0.109134
     2  Si   0.505960
     3  Si   0.109134
     4  Si   0.202021
     5  Si   0.202021
     6  Si  -0.064135
     7  Si  -0.064135
 Sum of Mulliken atomic spin densities =   1.00000
 Electronic spatial extent (au):  <R**2>=           1488.7817
 Charge=              1.0000 electrons
 Dipole moment (field-independent basis, Debye):
    X=              0.0000    Y=              0.0000    Z=              1.0133  Tot=              1.0133
 Quadrupole moment (field-independent basis, Debye-Ang):
   XX=            -80.4668   YY=            -75.5098   ZZ=            -75.5893
   XY=              0.0000   XZ=              0.0000   YZ=              0.0000
 Traceless Quadrupole moment (field-independent basis, Debye-Ang):
   XX=             -3.2782   YY=              1.6789   ZZ=              1.5993
   XY=              0.0000   XZ=              0.0000   YZ=              0.0000
 Octapole moment (field-independent basis, Debye-Ang**2):
  XXX=              0.0000  YYY=              0.0000  ZZZ=             11.8082  XYY=              0.0000
  XXY=              0.0000  XXZ=              1.4294  XZZ=              0.0000  YZZ=              0.0000
  YYZ=              2.3280  XYZ=              0.0000
 Hexadecapole moment (field-independent basis, Debye-Ang**3):
 XXXX=           -386.7567 YYYY=          -1050.3049 ZZZZ=           -867.5486 XXXY=              0.0000
 XXXZ=              0.0000 YYYX=              0.0000 YYYZ=              0.0000 ZZZX=              0.0000
 ZZZY=              0.0000 XXYY=           -237.0413 XXZZ=           -211.3355 YYZZ=           -325.9002
 XXYZ=              0.0000 YYXZ=              0.0000 ZZXY=              0.0000
 N-N= 7.874907966527D+02 E-N=-9.565438961531D+03  KE= 3.032622775307D+03
 Symmetry A1   KE= 1.545736651100D+03
 Symmetry A2   KE= 1.126135203923D+02
 Symmetry B1   KE= 5.061668851859D+02
 Symmetry B2   KE= 8.681057186286D+02
                          Isotropic Fermi Contact Couplings
        Atom                 a.u.       MegaHertz       Gauss      10(-4) cm-1
     1  Si(29)             0.08017     -71.24853     -25.42325     -23.76595
     2  Si(29)             0.73058    -649.28614    -231.68143    -216.57854
     3  Si(29)             0.08017     -71.24853     -25.42325     -23.76595
     4  Si(29)            -0.03613      32.11375      11.45898      10.71199
     5  Si(29)            -0.03613      32.11375      11.45898      10.71199
     6  Si(29)            -0.02821      25.06817       8.94495       8.36184
     7  Si(29)            -0.02821      25.06817       8.94495       8.36184
 --------------------------------------------------------
       Center         ----  Spin Dipole Couplings  ----
                      3XX-RR        3YY-RR        3ZZ-RR
 --------------------------------------------------------
     1   Atom       -0.129060     -0.042012      0.171072
     2   Atom       -0.345135     -0.727016      1.072151
     3   Atom       -0.129060     -0.042012      0.171072
     4   Atom       -0.229686     -0.305008      0.534694
     5   Atom       -0.229686     -0.305008      0.534694
     6   Atom        0.026148     -0.071323      0.045175
     7   Atom        0.026148     -0.071323      0.045175
 --------------------------------------------------------
                        XY            XZ            YZ
 --------------------------------------------------------
     1   Atom        0.000000      0.000000      0.143602
     2   Atom        0.000000      0.000000      0.000000
     3   Atom        0.000000      0.000000     -0.143602
     4   Atom        0.000000      0.000000     -0.366520
     5   Atom        0.000000      0.000000      0.366520
     6   Atom        0.000000     -0.016241      0.000000
     7   Atom        0.000000      0.016241      0.000000
 --------------------------------------------------------


 ---------------------------------------------------------------------------------
              Anisotropic Spin Dipole Couplings in Principal Axis System
 ---------------------------------------------------------------------------------

       Atom             a.u.   MegaHertz   Gauss  10(-4) cm-1        Axes

              Baa    -0.1291    13.691     4.885     4.567  1.0000  0.0000  0.0000
     1 Si(29) Bbb    -0.1143    12.123     4.326     4.044  0.0000  0.8933 -0.4495
              Bcc     0.2433   -25.814    -9.211    -8.611  0.0000  0.4495  0.8933
 
              Baa    -0.7270    77.125    27.520    25.726  0.0000  1.0000  0.0000
     2 Si(29) Bbb    -0.3451    36.613    13.065    12.213  1.0000  0.0000  0.0000
              Bcc     1.0722  -113.738   -40.585   -37.939  0.0000  0.0000  1.0000
 
              Baa    -0.1291    13.691     4.885     4.567  1.0000  0.0000  0.0000
     3 Si(29) Bbb    -0.1143    12.123     4.326     4.044  0.0000  0.8933  0.4495
              Bcc     0.2433   -25.814    -9.211    -8.611  0.0000 -0.4495  0.8933
 
              Baa    -0.4425    46.940    16.749    15.658  0.0000  0.9363  0.3512
     4 Si(29) Bbb    -0.2297    24.366     8.694     8.128  1.0000  0.0000  0.0000
              Bcc     0.6722   -71.306   -25.444   -23.785  0.0000 -0.3512  0.9363
 
              Baa    -0.4425    46.940    16.749    15.658  0.0000  0.9363 -0.3512
     5 Si(29) Bbb    -0.2297    24.366     8.694     8.128  1.0000  0.0000  0.0000
              Bcc     0.6722   -71.306   -25.444   -23.785  0.0000  0.3512  0.9363
 
              Baa    -0.0713     7.566     2.700     2.524  0.0000  1.0000  0.0000
     6 Si(29) Bbb     0.0168    -1.786    -0.637    -0.596  0.8676  0.0000  0.4973
              Bcc     0.0545    -5.780    -2.062    -1.928 -0.4973  0.0000  0.8676
 
              Baa    -0.0713     7.566     2.700     2.524  0.0000  1.0000  0.0000
     7 Si(29) Bbb     0.0168    -1.786    -0.637    -0.596  0.8676  0.0000 -0.4973
              Bcc     0.0545    -5.780    -2.062    -1.928  0.4973  0.0000  0.8676
 

 ---------------------------------------------------------------------------------

 1\1\GINC-NODE43\SP\UHF\GFHFB2\Si7(1+,2)\TAM\20-Dec-2011\0\\#N Geom=All
 Check Guess=TCheck SCRF=Check HF/GFHFB2 SCF=Tight\\si7-c\\1,2\Si,0,0.,
 2.0565168692,0.7589093894\Si,0,0.,0.,1.9524402534\Si,0,0.,-2.056516869
 2,0.7589093894\Si,0,0.,-1.4351485717,-1.6229313683\Si,0,0.,1.435148571
 7,-1.6229313683\Si,0,-1.3229357414,0.,-0.1121981578\Si,0,1.3229357414,
 0.,-0.1121981578\\Version=AM64L-G09RevA.02\State=2-A1\HF=-2022.2574287
 \S2=0.865616\S2-1=0.\S2A=0.761266\RMSD=8.425e-09\Dipole=0.,0.,0.398680
 8\Quadrupole=-2.4372364,1.2481897,1.1890467,0.,0.,0.\PG=C02V [C2(Si1),
 SGV(Si4),SGV'(Si2)]\\@


 GOD DOES NOT PLAY WITH DICE.
               -- A. EINSTEIN
 Diagonal vibrational polarizability:
        0.0000000       0.0000000       0.0000000

 Temperature=              298.150000 Pressure=                      1.000000
 E(ZPE)=                     0.009418 E(Thermal)=                    0.019236
 E(CCSD(T))=             -2022.727783 E(Empiric)=                   -0.095105
 DE(Plus)=                  -0.010107 DE(2DF)=                      -0.228405
 E(Delta-G3XP)=             -2.197835 DE(HF)=                       -0.046275
 G4(0 K)=                -2025.296093 G4 Energy=                 -2025.286275
 G4 Enthalpy=            -2025.285331 G4 Free Energy=            -2025.331690
 1\1\GINC-NODE43\Mixed\G4\G4\Si7(1+,2)\TAM\20-Dec-2011\0\\# G4 scfcyc=5
 00 scf=xqc\\si7-c\\1,2\Si,0,0.,2.0565168692,0.7589093894\Si,0,0.,0.,1.
 9524402534\Si,0,0.,-2.0565168692,0.7589093894\Si,0,0.,-1.4351485717,-1
 .6229313683\Si,0,0.,1.4351485717,-1.6229313683\Si,0,-1.3229357414,0.,-
 0.1121981578\Si,0,1.3229357414,0.,-0.1121981578\\Version=AM64L-G09RevA
 .02\State=2-A1\MP2/GTBas1=-2022.6668916\MP4/GTBas1=-2022.7523841\CCSD(
 T)/G3Bas1=-2022.7277834\MP2/GTBas2=-2022.6757745\MP4/GTBas2=-2022.7624
 912\MP2/GTBas3=-2022.8787718\MP4/GTBas3=-2022.9807889\HF/GTLargeXP=-20
 22.2128342\MP2/GTLargeXP=-2025.0854901\HF/GFHFB1=-2022.2505311\HF/GFHF
 B2=-2022.2574287\G4=-2025.2960933\FreqCoord=0.,3.8862536704,1.43413090
 55,0.,0.,3.6895773698,0.,-3.8862536704,1.4341309055,0.,-2.7120377605,-
 3.0668958185,0.,2.7120377605,-3.0668958185,-2.4999862427,0.,-0.2120237
 908,2.4999862427,0.,-0.2120237908\PG=C02V [C2(Si1),SGV(Si4),SGV'(Si2)]
 \NImag=0\\0.01374842,0.,0.08776484,0.,-0.00115334,0.06599068,-0.000367
 93,0.,0.,0.02954096,0.,-0.04374694,0.02843671,0.,0.09729975,0.,0.02292
 169,-0.01884504,0.,0.,0.12378061,-0.00347155,0.,0.,-0.00036793,0.,0.,0
 .01374842,0.,-0.00997814,-0.00339953,0.,-0.04374694,-0.02292169,0.,0.0
 8776484,0.,0.00339953,0.00420113,0.,-0.02843671,-0.01884504,0.,0.00115
 334,0.06599068,-0.00437010,0.,0.,-0.00159146,0.,0.,0.00029028,0.,0.,0.
 02217747,0.,-0.00504677,-0.00113243,0.,-0.00251196,0.00045270,0.,0.004
 07767,0.00630037,0.,0.04764523,0.,-0.00392544,-0.00038744,0.,-0.005175
 64,-0.01195041,0.,0.01176342,-0.04287779,0.,0.03117317,0.09078130,0.00
 029028,0.,0.,-0.00159146,0.,0.,-0.00437010,0.,0.,0.00191265,0.,0.,0.02
 217747,0.,0.00407767,-0.00630037,0.,-0.00251196,-0.00045270,0.,-0.0050
 4677,0.00113243,0.,-0.01210790,-0.00019798,0.,0.04764523,0.,-0.0117634
 2,-0.04287779,0.,0.00517564,-0.01195041,0.,0.00392544,-0.00038744,0.,0
 .00019798,-0.00531927,0.,-0.03117317,0.09078130,-0.00291456,0.00121183
 ,-0.00204374,-0.01281109,0.,-0.01479782,-0.00291456,-0.00121183,-0.002
 04374,-0.00920942,0.00989760,0.01035198,-0.00920942,-0.00989760,0.0103
 5199,0.09212633,-0.01582820,-0.01653533,-0.00822552,0.,-0.00239097,0.,
 0.01582821,-0.01653533,0.00822552,0.01458197,-0.01602813,-0.01681877,-
 0.01458198,-0.01602813,0.01681877,0.,0.07413523,-0.00538776,-0.0047395
 1,-0.00404076,-0.02442293,0.,-0.03109485,-0.00538776,0.00473951,-0.004
 04076,0.01635826,-0.01849590,-0.01512319,0.01635826,0.01849590,-0.0151
 2319,0.00033163,0.,0.07597706,-0.00291456,-0.00121183,0.00204374,-0.01
 281109,0.,0.01479782,-0.00291456,0.00121183,0.00204374,-0.00920942,-0.
 00989760,-0.01035199,-0.00920942,0.00989760,-0.01035198,-0.05506727,0.
 ,0.00215030,0.09212633,0.01582821,-0.01653533,-0.00822552,0.,-0.002390
 97,0.,-0.01582820,-0.01653533,0.00822552,-0.01458198,-0.01602813,-0.01
 681877,0.01458197,-0.01602813,0.01681877,0.,-0.00661733,0.,0.,0.074135
 23,0.00538776,-0.00473951,-0.00404076,0.02442293,0.,-0.03109485,0.0053
 8776,0.00473951,-0.00404076,-0.01635826,-0.01849590,-0.01512319,-0.016
 35826,0.01849590,-0.01512319,-0.00215030,0.,-0.00655429,-0.00033163,0.
 ,0.07597706\\0.,-0.00003274,-0.00001344,0.,0.,0.00005137,0.,0.00003274
 ,-0.00001344,0.,-0.00007037,0.00002427,0.,0.00007037,0.00002427,0.0000
 6384,0.,-0.00003652,-0.00006384,0.,-0.00003652\\\@
 Job cpu time:  0 days  7 hours 42 minutes  4.8 seconds.
 File lengths (MBytes):  RWF=   1352 Int=      0 D2E=      0 Chk=     29 Scr=      1
 Normal termination of Gaussian 09 at Tue Dec 20 22:04:18 2011.
