 Entering Gaussian System, Link 0=g09
 Initial command:
 /usr/local/chem/g09A2/l1.exe /temp0/tam/Gau-8403.inp -scrdir=/temp0/tam/
 Entering Link 1 = /usr/local/chem/g09A2/l1.exe PID=      8404.
  
 Copyright (c) 1988,1990,1992,1993,1995,1998,2003,2009, Gaussian, Inc.
                  All Rights Reserved.
  
 This is part of the Gaussian(R) 09 program.  It is based on
 the Gaussian(R) 03 system (copyright 2003, Gaussian, Inc.),
 the Gaussian(R) 98 system (copyright 1998, Gaussian, Inc.),
 the Gaussian(R) 94 system (copyright 1995, Gaussian, Inc.),
 the Gaussian 92(TM) system (copyright 1992, Gaussian, Inc.),
 the Gaussian 90(TM) system (copyright 1990, Gaussian, Inc.),
 the Gaussian 88(TM) system (copyright 1988, Gaussian, Inc.),
 the Gaussian 86(TM) system (copyright 1986, Carnegie Mellon
 University), and the Gaussian 82(TM) system (copyright 1983,
 Carnegie Mellon University). Gaussian is a federally registered
 trademark of Gaussian, Inc.
  
 This software contains proprietary and confidential information,
 including trade secrets, belonging to Gaussian, Inc.
  
 This software is provided under written license and may be
 used, copied, transmitted, or stored only in accord with that
 written license.
  
 The following legend is applicable only to US Government
 contracts under FAR:
  
                    RESTRICTED RIGHTS LEGEND
  
 Use, reproduction and disclosure by the US Government is
 subject to restrictions as set forth in subparagraphs (a)
 and (c) of the Commercial Computer Software - Restricted
 Rights clause in FAR 52.227-19.
  
 Gaussian, Inc.
 340 Quinnipiac St., Bldg. 40, Wallingford CT 06492
  
  
 ---------------------------------------------------------------
 Warning -- This program may not be used in any manner that
 competes with the business of Gaussian, Inc. or will provide
 assistance to any competitor of Gaussian, Inc.  The licensee
 of this program is prohibited from giving any competitor of
 Gaussian, Inc. access to this program.  By using this program,
 the user acknowledges that Gaussian, Inc. is engaged in the
 business of creating and licensing software in the field of
 computational chemistry and represents and warrants to the
 licensee that it is not a competitor of Gaussian, Inc. and that
 it will not use this program in any manner prohibited above.
 ---------------------------------------------------------------
  

 Cite this work as:
 Gaussian 09, Revision A.02,
 M. J. Frisch, G. W. Trucks, H. B. Schlegel, G. E. Scuseria, 
 M. A. Robb, J. R. Cheeseman, G. Scalmani, V. Barone, B. Mennucci, 
 G. A. Petersson, H. Nakatsuji, M. Caricato, X. Li, H. P. Hratchian, 
 A. F. Izmaylov, J. Bloino, G. Zheng, J. L. Sonnenberg, M. Hada, 
 M. Ehara, K. Toyota, R. Fukuda, J. Hasegawa, M. Ishida, T. Nakajima, 
 Y. Honda, O. Kitao, H. Nakai, T. Vreven, J. A. Montgomery, Jr., 
 J. E. Peralta, F. Ogliaro, M. Bearpark, J. J. Heyd, E. Brothers, 
 K. N. Kudin, V. N. Staroverov, R. Kobayashi, J. Normand, 
 K. Raghavachari, A. Rendell, J. C. Burant, S. S. Iyengar, J. Tomasi, 
 M. Cossi, N. Rega, J. M. Millam, M. Klene, J. E. Knox, J. B. Cross, 
 V. Bakken, C. Adamo, J. Jaramillo, R. Gomperts, R. E. Stratmann, 
 O. Yazyev, A. J. Austin, R. Cammi, C. Pomelli, J. W. Ochterski, 
 R. L. Martin, K. Morokuma, V. G. Zakrzewski, G. A. Voth, 
 P. Salvador, J. J. Dannenberg, S. Dapprich, A. D. Daniels, 
 O. Farkas, J. B. Foresman, J. V. Ortiz, J. Cioslowski, 
 and D. J. Fox, Gaussian, Inc., Wallingford CT, 2009.
 
 ******************************************
 Gaussian 09:  AM64L-G09RevA.02 11-Jun-2009
                 4-Jan-2012 
 ******************************************
 %NprocShared=6
 Will use up to    6 processors via shared memory.
 %mem=18050MB
 %chk=S9L-ne-d-01
 -----------------------
 # G4 scfcyc=500 scf=xqc
 -----------------------
 1/14=-1,18=20,19=15,26=3,38=1/1,3;
 2/9=110,12=2,17=6,18=5,40=1/2;
 3/5=35,7=104,11=2,16=1,25=1,30=1,71=1,74=-5/1,2,3;
 4//1;
 5/5=2,7=500,8=3,13=1,38=5/2,8;
 6/7=2,8=2,9=2,10=2,28=1/1;
 7//1,2,3,16;
 1/14=-1,18=20,19=15/3(2);
 2/9=110/2;
 99//99;
 2/9=110/2;
 3/5=35,7=104,11=2,16=1,25=1,30=1,71=1,74=-5/1,2,3;
 4/5=5,16=3/1;
 5/5=2,7=500,8=3,13=1,38=5/2,8;
 7//1,2,3,16;
 1/14=-1,18=20,19=15/3(-5);
 2/9=110/2;
 6/7=2,8=2,9=2,10=2,19=2,28=1/1;
 99/9=1/99;
 ----
 s3-c
 ----
 Symbolic Z-matrix:
 Charge =  1 Multiplicity = 2
 Si                    0.        1.26221  -0.61727 
 Si                    0.       -1.26221  -0.61727 
 Si                    0.        0.        1.23454 
 

 GradGradGradGradGradGradGradGradGradGradGradGradGradGradGradGradGradGrad
 Berny optimization.
 Initialization pass.
                           ----------------------------
                           !    Initial Parameters    !
                           ! (Angstroms and Degrees)  !
 --------------------------                            --------------------------
 ! Name  Definition              Value          Derivative Info.                !
 --------------------------------------------------------------------------------
 ! R1    R(1,2)                  2.5244         estimate D2E/DX2                !
 ! R2    R(1,3)                  2.2411         estimate D2E/DX2                !
 ! R3    R(2,3)                  2.2411         estimate D2E/DX2                !
 --------------------------------------------------------------------------------
 Trust Radius=3.00D-01 FncErr=1.00D-07 GrdErr=1.00D-06
 Number of steps in this run=  20 maximum allowed number of steps= 100.
 GradGradGradGradGradGradGradGradGradGradGradGradGradGradGradGradGradGrad

                          Input orientation:                          
 ---------------------------------------------------------------------
 Center     Atomic      Atomic             Coordinates (Angstroms)
 Number     Number       Type             X           Y           Z
 ---------------------------------------------------------------------
      1         14           0        0.000000    1.262207   -0.617271
      2         14           0        0.000000   -1.262207   -0.617271
      3         14           0        0.000000    0.000000    1.234542
 ---------------------------------------------------------------------
                    Distance matrix (angstroms):
                    1          2          3
     1  Si   0.000000
     2  Si   2.524414   0.000000
     3  Si   2.241066   2.241066   0.000000
 Stoichiometry    Si3(1+,2)
 Framework group  C2V[C2(Si),SGV(Si2)]
 Deg. of freedom     2
 Full point group                 C2V     NOp   4
 Largest Abelian subgroup         C2V     NOp   4
 Largest concise Abelian subgroup C2      NOp   2
                         Standard orientation:                         
 ---------------------------------------------------------------------
 Center     Atomic      Atomic             Coordinates (Angstroms)
 Number     Number       Type             X           Y           Z
 ---------------------------------------------------------------------
      1         14           0        0.000000    1.262207   -0.617271
      2         14           0        0.000000   -1.262207   -0.617271
      3         14           0        0.000000    0.000000    1.234542
 ---------------------------------------------------------------------
 Rotational constants (GHZ):      7.9015841      5.6692551      3.3009083
 Standard basis: GTBas3 (6D, 7F)
 There are    37 symmetry adapted basis functions of A1  symmetry.
 There are    13 symmetry adapted basis functions of A2  symmetry.
 There are    17 symmetry adapted basis functions of B1  symmetry.
 There are    29 symmetry adapted basis functions of B2  symmetry.
 Integral buffers will be    131072 words long.
 Raffenetti 2 integral format.
 Two-electron integral symmetry is turned on.
    96 basis functions,   204 primitive gaussians,   105 cartesian basis functions
    21 alpha electrons       20 beta electrons
       nuclear repulsion energy       133.6482131226 Hartrees.
 NAtoms=    3 NActive=    3 NUniq=    2 SFac= 1.69D+00 NAtFMM=   80 NAOKFM=F Big=F
 One-electron integrals computed using PRISM.
 NBasis=    96 RedAO= T  NBF=    37    13    17    29
 NBsUse=    96 1.00D-06 NBFU=    37    13    17    29
 Harris functional with IExCor=  402 diagonalized for initial guess.
 ExpMin= 7.78D-02 ExpMax= 1.61D+04 ExpMxC= 2.43D+03 IAcc=2 IRadAn=         0 AccDes= 0.00D+00
 HarFok:  IExCor=  402 AccDes= 0.00D+00 IRadAn=         0 IDoV= 1
 ScaDFX=  1.000000  1.000000  1.000000  1.000000
 FoFCou: FMM=F IPFlag=           0 FMFlag=      100000 FMFlg1=           0
         NFxFlg=           0 DoJE=T BraDBF=F KetDBF=T FulRan=T
         Omega=  0.000000  0.000000  1.000000  0.000000  0.000000 ICntrl=     500 IOpCl=  0
         NMat0=    1 NMatS0=    1 NMatT0=    0 NMatD0=    1 NMtDS0=    0 NMtDT0=    0
         I1Cent=           4 NGrid=           0.
 Petite list used in FoFCou.
 Initial guess orbital symmetries:
 Alpha Orbitals:
       Occupied  (A1) (B2) (A1) (A1) (A1) (B2) (A1) (B2) (B1) (B2)
                 (A1) (B2) (A1) (A2) (B1) (A1) (B2) (A1) (B1) (A1)
                 (B2)
       Virtual   (A1) (A2) (B1) (B2) (B2) (A1) (A1) (B1) (A1) (B2)
                 (A1) (A2) (A1) (B2) (B1) (A1) (A2) (B1) (B1) (B2)
                 (B2) (A1) (B2) (A1) (A2) (B2) (A1) (A2) (B1) (A1)
                 (B2) (A1) (B2) (A1) (B1) (A1) (B2) (B1) (B2) (A1)
                 (A1) (B1) (A2) (A1) (B2) (A2) (A1) (B2) (B1) (B2)
                 (A2) (A1) (B2) (B1) (A1) (A2) (B2) (B1) (A1) (A2)
                 (B1) (B2) (A1) (B2) (A1) (B2) (A2) (B1) (A2) (A1)
                 (A1) (B2) (A1) (B2) (A1)
 Beta  Orbitals:
       Occupied  (A1) (B2) (A1) (A1) (A1) (B2) (A1) (B2) (B1) (B2)
                 (A1) (B2) (A1) (A2) (B1) (A1) (B2) (A1) (B1) (A1)
       Virtual   (B2) (A1) (A2) (B1) (B2) (B2) (A1) (A1) (B1) (A1)
                 (B2) (A1) (A2) (A1) (B2) (B1) (A1) (A2) (B1) (B1)
                 (B2) (B2) (A1) (B2) (A1) (A2) (B2) (A1) (A2) (B1)
                 (A1) (B2) (A1) (B2) (A1) (B1) (A1) (B2) (B1) (B2)
                 (A1) (A1) (B1) (A2) (A1) (B2) (A2) (A1) (B2) (B1)
                 (B2) (A2) (A1) (B2) (B1) (A1) (A2) (B2) (B1) (A1)
                 (A2) (B1) (B2) (A1) (B2) (A1) (B2) (A2) (B1) (A2)
                 (A1) (A1) (B2) (A1) (B2) (A1)
 The electronic state of the initial guess is 2-B2.
 Initial guess <Sx>= 0.0000 <Sy>= 0.0000 <Sz>= 0.5000 <S**2>= 0.7500 S= 0.5000
 Requested convergence on RMS density matrix=1.00D-08 within 128 cycles.
 Requested convergence on MAX density matrix=1.00D-06.
 Requested convergence on             energy=1.00D-06.
 No special actions if energy rises.
 Keep R1 and R2 ints in memory in canonical form, NReq=32990917.
 Integral accuracy reduced to 1.0D-05 until final iterations.
 Initial convergence to 1.0D-05 achieved.  Increase integral accuracy.
 SCF Done:  E(UB3LYP) =  -868.080605189     A.U. after   23 cycles
             Convg  =    0.2285D-08             -V/T =  2.0034
 <Sx>= 0.0000 <Sy>= 0.0000 <Sz>= 0.5000 <S**2>= 1.1031 S= 0.6632
 <L.S>= 0.000000000000E+00
 Annihilation of the first spin contaminant:
 S**2 before annihilation     1.1031,   after     0.7644
 QCSCF skips out because SCF is already converged.

 **********************************************************************

            Population analysis using the SCF density.

 **********************************************************************

 Orbital symmetries:
 Alpha Orbitals:
       Occupied  (B2) (A1) (A1) (A1) (B2) (A1) (B2) (A1) (A2) (B1)
                 (A1) (B2) (B2) (A1) (B1) (A1) (B2) (A1) (A1) (B1)
                 (B2)
       Virtual   (A1) (A2) (B1) (B2) (B2) (A1) (A1) (A1) (B1) (A1)
                 (B2) (A2) (A1) (B2) (B1) (A1) (B1) (A2) (B1) (B2)
                 (B2) (A1) (B2) (A1) (A2) (B2) (A1) (A2) (B1) (A1)
                 (B2) (A1) (B2) (A1) (B1) (B2) (A1) (B1) (B2) (A1)
                 (A1) (B1) (A2) (A1) (B2) (A2) (A1) (B2) (B1) (B2)
                 (A2) (A1) (B2) (B1) (A2) (A1) (B2) (B1) (A1) (A2)
                 (B1) (B2) (A1) (B2) (B2) (A1) (A2) (B1) (A2) (A1)
                 (A1) (B2) (A1) (B2) (A1)
 Beta  Orbitals:
       Occupied  (B2) (A1) (A1) (A1) (B2) (A1) (A1) (B2) (A2) (B1)
                 (A1) (B2) (B1) (A1) (B2) (A1) (B2) (A1) (A1) (B1)
       Virtual   (B2) (A1) (A2) (B1) (B2) (B2) (A1) (A1) (A1) (B1)
                 (A1) (B2) (A1) (B1) (A2) (B2) (A1) (A2) (B1) (B1)
                 (B2) (B2) (A1) (B2) (A1) (A2) (B2) (A1) (A2) (B1)
                 (A1) (B2) (A1) (B2) (A1) (B1) (A1) (B1) (B2) (B2)
                 (A1) (A1) (B1) (A2) (A1) (B2) (A2) (A1) (B2) (B1)
                 (B2) (A2) (A1) (B2) (B1) (A2) (A1) (B2) (B1) (A1)
                 (A2) (B1) (B2) (A1) (B2) (B2) (A1) (A2) (B1) (A2)
                 (A1) (A1) (B2) (A1) (B2) (A1)
 The electronic state is 2-B2.
 Alpha  occ. eigenvalues --  -66.39472 -66.39472 -66.38090  -5.53848  -5.53845
 Alpha  occ. eigenvalues --   -5.52782  -3.89883  -3.89882  -3.89664  -3.89664
 Alpha  occ. eigenvalues --   -3.89387  -3.89373  -3.88748  -3.88658  -3.88520
 Alpha  occ. eigenvalues --   -0.80876  -0.62978  -0.60391  -0.45816  -0.45275
 Alpha  occ. eigenvalues --   -0.44844
 Alpha virt. eigenvalues --   -0.36317  -0.29208  -0.27315  -0.20338  -0.18308
 Alpha virt. eigenvalues --   -0.15698  -0.09154  -0.04838  -0.03665  -0.00728
 Alpha virt. eigenvalues --   -0.00526   0.00533   0.02266   0.02983   0.03531
 Alpha virt. eigenvalues --    0.03886   0.07623   0.08245   0.09637   0.10724
 Alpha virt. eigenvalues --    0.12727   0.13392   0.16291   0.17888   0.21100
 Alpha virt. eigenvalues --    0.25383   0.27776   0.28602   0.31149   0.31266
 Alpha virt. eigenvalues --    0.44661   0.52185   0.53479   0.55291   0.58781
 Alpha virt. eigenvalues --    0.68327   0.68553   0.70667   0.72241   0.72740
 Alpha virt. eigenvalues --    0.73511   0.74905   0.74906   0.76603   0.82141
 Alpha virt. eigenvalues --    0.84609   0.87861   0.92620   0.94027   0.99372
 Alpha virt. eigenvalues --    1.02593   1.05020   1.07721   1.08709   1.15041
 Alpha virt. eigenvalues --    1.15388   1.19266   1.39820   1.40156   1.42806
 Alpha virt. eigenvalues --    1.46836   1.47708   1.49624   1.56223   1.58436
 Alpha virt. eigenvalues --    1.59161   1.60391   1.62740   1.66593   1.74465
 Alpha virt. eigenvalues --    1.81397   1.92308   2.21437   2.45994   2.47631
  Beta  occ. eigenvalues --  -66.39409 -66.39409 -66.37772  -5.53777  -5.53773
  Beta  occ. eigenvalues --   -5.52429  -3.89837  -3.89831  -3.89643  -3.89642
  Beta  occ. eigenvalues --   -3.89175  -3.89166  -3.88294  -3.88103  -3.88024
  Beta  occ. eigenvalues --   -0.79368  -0.61827  -0.57354  -0.44899  -0.44892
  Beta virt. eigenvalues --   -0.36310  -0.35552  -0.29107  -0.26255  -0.20939
  Beta virt. eigenvalues --   -0.15586  -0.14572  -0.08552  -0.03344  -0.03256
  Beta virt. eigenvalues --   -0.00122   0.01120   0.02346   0.02801   0.02871
  Beta virt. eigenvalues --    0.03215   0.05448   0.08366   0.08731   0.09863
  Beta virt. eigenvalues --    0.11181   0.13426   0.13469   0.17404   0.17834
  Beta virt. eigenvalues --    0.21058   0.26787   0.29282   0.29640   0.32550
  Beta virt. eigenvalues --    0.32623   0.44365   0.53189   0.55779   0.55911
  Beta virt. eigenvalues --    0.60154   0.68707   0.69303   0.70093   0.72542
  Beta virt. eigenvalues --    0.72800   0.74510   0.76223   0.77138   0.78252
  Beta virt. eigenvalues --    0.84056   0.84876   0.88074   0.92668   0.95593
  Beta virt. eigenvalues --    1.00322   1.02098   1.06444   1.08286   1.09624
  Beta virt. eigenvalues --    1.16427   1.17029   1.20797   1.39364   1.40346
  Beta virt. eigenvalues --    1.43521   1.47493   1.48977   1.50289   1.55979
  Beta virt. eigenvalues --    1.59191   1.60086   1.60714   1.63446   1.66929
  Beta virt. eigenvalues --    1.74324   1.82105   1.93518   2.22253   2.46117
  Beta virt. eigenvalues --    2.48712
          Condensed to atoms (all electrons):
              1          2          3
     1  Si  13.212228   0.152962   0.273953
     2  Si   0.152962  13.212228   0.273953
     3  Si   0.273953   0.273953  13.173809
 Mulliken atomic charges:
              1
     1  Si   0.360857
     2  Si   0.360857
     3  Si   0.278286
 Sum of Mulliken atomic charges =   1.00000
 Mulliken charges with hydrogens summed into heavy atoms:
              1
     1  Si   0.360857
     2  Si   0.360857
     3  Si   0.278286
 Sum of Mulliken charges with hydrogens summed into heavy atoms =   1.00000
          Atomic-Atomic Spin Densities.
              1          2          3
     1  Si   0.129292  -0.057679   0.047471
     2  Si  -0.057679   0.129292   0.047471
     3  Si   0.047471   0.047471   0.666891
 Mulliken atomic spin densities:
              1
     1  Si   0.119084
     2  Si   0.119084
     3  Si   0.761833
 Sum of Mulliken atomic spin densities =   1.00000
 Electronic spatial extent (au):  <R**2>=            338.7971
 Charge=              1.0000 electrons
 Dipole moment (field-independent basis, Debye):
    X=              0.0000    Y=              0.0000    Z=             -0.0143  Tot=              0.0143
 Quadrupole moment (field-independent basis, Debye-Ang):
   XX=            -34.7719   YY=            -26.5186   ZZ=            -26.4074
   XY=              0.0000   XZ=              0.0000   YZ=              0.0000
 Traceless Quadrupole moment (field-independent basis, Debye-Ang):
   XX=             -5.5392   YY=              2.7140   ZZ=              2.8252
   XY=              0.0000   XZ=              0.0000   YZ=              0.0000
 Octapole moment (field-independent basis, Debye-Ang**2):
  XXX=              0.0000  YYY=              0.0000  ZZZ=              5.8695  XYY=              0.0000
  XXY=              0.0000  XXZ=             -0.2852  XZZ=              0.0000  YZZ=              0.0000
  YYZ=             -3.1854  XYZ=              0.0000
 Hexadecapole moment (field-independent basis, Debye-Ang**3):
 XXXX=            -60.0096 YYYY=           -255.0531 ZZZZ=           -186.4645 XXXY=              0.0000
 XXXZ=              0.0000 YYYX=              0.0000 YYYZ=              0.0000 ZZZX=              0.0000
 ZZZY=              0.0000 XXYY=            -53.3489 XXZZ=            -42.7383 YYZZ=            -78.3698
 XXYZ=              0.0000 YYXZ=              0.0000 ZZXY=              0.0000
 N-N= 1.336482131226D+02 E-N=-3.480442781814D+03  KE= 1.297065950994D+03
 Symmetry A1   KE= 7.536558183917D+02
 Symmetry A2   KE= 3.645327460813D+01
 Symmetry B1   KE= 7.573599401199D+01
 Symmetry B2   KE= 4.312208639818D+02
                          Isotropic Fermi Contact Couplings
        Atom                 a.u.       MegaHertz       Gauss      10(-4) cm-1
     1  Si(29)             0.07441     -66.13265     -23.59777     -22.05948
     2  Si(29)             0.07441     -66.13265     -23.59777     -22.05948
     3  Si(29)             0.08546     -75.94692     -27.09975     -25.33316
 --------------------------------------------------------
       Center         ----  Spin Dipole Couplings  ----
                      3XX-RR        3YY-RR        3ZZ-RR
 --------------------------------------------------------
     1   Atom       -0.214128     -0.807090      1.021218
     2   Atom       -0.214128     -0.807090      1.021218
     3   Atom       -0.791061      0.631043      0.160018
 --------------------------------------------------------
                        XY            XZ            YZ
 --------------------------------------------------------
     1   Atom        0.000000      0.000000     -0.734528
     2   Atom        0.000000      0.000000      0.734528
     3   Atom        0.000000      0.000000      0.000000
 --------------------------------------------------------


 ---------------------------------------------------------------------------------
              Anisotropic Spin Dipole Couplings in Principal Axis System
 ---------------------------------------------------------------------------------

       Atom             a.u.   MegaHertz   Gauss  10(-4) cm-1        Axes

              Baa    -1.0656   113.046    40.338    37.708  0.0000  0.9433  0.3320
     1 Si(29) Bbb    -0.2141    22.716     8.105     7.577  1.0000  0.0000  0.0000
              Bcc     1.2798  -135.762   -48.443   -45.285  0.0000 -0.3320  0.9433
 
              Baa    -1.0656   113.046    40.338    37.708  0.0000  0.9433 -0.3320
     2 Si(29) Bbb    -0.2141    22.716     8.105     7.577  1.0000  0.0000  0.0000
              Bcc     1.2798  -135.762   -48.443   -45.285  0.0000  0.3320  0.9433
 
              Baa    -0.7911    83.919    29.944    27.992  1.0000  0.0000  0.0000
     3 Si(29) Bbb     0.1600   -16.975    -6.057    -5.662  0.0000  0.0000  1.0000
              Bcc     0.6310   -66.944   -23.887   -22.330  0.0000  1.0000  0.0000
 

 ---------------------------------------------------------------------------------

 Calling FoFJK, ICntrl=      2127 FMM=F ISym2X=1 I1Cent= 0 IOpClX= 1 NMat=1 NMatS=1 NMatT=0.
 ***** Axes restored to original set *****
 -------------------------------------------------------------------
 Center     Atomic                   Forces (Hartrees/Bohr)
 Number     Number              X              Y              Z
 -------------------------------------------------------------------
      1       14           0.000000000   -0.000329679   -0.000335982
      2       14           0.000000000    0.000329679   -0.000335982
      3       14           0.000000000    0.000000000    0.000671964
 -------------------------------------------------------------------
 Cartesian Forces:  Max     0.000671964 RMS     0.000315292

 GradGradGradGradGradGradGradGradGradGradGradGradGradGradGradGradGradGrad
 Berny optimization.
 Internal  Forces:  Max     0.000558686 RMS     0.000462885
 Search for a local minimum.
 Step number   1 out of a maximum of   20
 All quantities printed in internal units (Hartrees-Bohrs-Radians)
 Mixed Optimization -- En-DIIS/RFO-DIIS
 Second derivative matrix not updated -- first step.
 The second derivative matrix:
                          R1        R2        R3
           R1           0.08786
           R2           0.00000   0.17040
           R3           0.00000   0.00000   0.17040
     Eigenvalues ---    0.08786   0.17040   0.17040
 RFO step:  Lambda=-5.49318220D-06 EMin= 8.78568357D-02
 Linear search not attempted -- first point.
 Iteration  1 RMS(Cart)=  0.00352256 RMS(Int)=  0.00000255
 Iteration  2 RMS(Cart)=  0.00000150 RMS(Int)=  0.00000000
 Iteration  3 RMS(Cart)=  0.00000000 RMS(Int)=  0.00000000
 ClnCor:  largest displacement from symmetrization is 7.00D-14 for atom     2.
 Variable       Old X    -DE/DX   Delta X   Delta X   Delta X     New X
                                 (Linear)    (Quad)   (Total)
    R1        4.77045  -0.00056   0.00000  -0.00636  -0.00636   4.76409
    R2        4.23500   0.00041   0.00000   0.00239   0.00239   4.23739
    R3        4.23500   0.00041   0.00000   0.00239   0.00239   4.23739
         Item               Value     Threshold  Converged?
 Maximum Force            0.000559     0.000450     NO 
 RMS     Force            0.000463     0.000300     NO 
 Maximum Displacement     0.003367     0.001800     NO 
 RMS     Displacement     0.003522     0.001200     NO 
 Predicted change in Energy=-2.746591D-06
 GradGradGradGradGradGradGradGradGradGradGradGradGradGradGradGradGradGrad

                          Input orientation:                          
 ---------------------------------------------------------------------
 Center     Atomic      Atomic             Coordinates (Angstroms)
 Number     Number       Type             X           Y           Z
 ---------------------------------------------------------------------
      1         14           0        0.000000    1.260525   -0.618162
      2         14           0        0.000000   -1.260525   -0.618162
      3         14           0        0.000000    0.000000    1.236324
 ---------------------------------------------------------------------
                    Distance matrix (angstroms):
                    1          2          3
     1  Si   0.000000
     2  Si   2.521049   0.000000
     3  Si   2.242329   2.242329   0.000000
 Stoichiometry    Si3(1+,2)
 Framework group  C2V[C2(Si),SGV(Si2)]
 Deg. of freedom     2
 Full point group                 C2V     NOp   4
 Largest Abelian subgroup         C2V     NOp   4
 Largest concise Abelian subgroup C2      NOp   2
                         Standard orientation:                         
 ---------------------------------------------------------------------
 Center     Atomic      Atomic             Coordinates (Angstroms)
 Number     Number       Type             X           Y           Z
 ---------------------------------------------------------------------
      1         14           0        0.000000    1.260525   -0.618162
      2         14           0        0.000000   -1.260525   -0.618162
      3         14           0        0.000000    0.000000    1.236324
 ---------------------------------------------------------------------
 Rotational constants (GHZ):      7.8788259      5.6843988      3.3020457
 Standard basis: GTBas3 (6D, 7F)
 There are    37 symmetry adapted basis functions of A1  symmetry.
 There are    13 symmetry adapted basis functions of A2  symmetry.
 There are    17 symmetry adapted basis functions of B1  symmetry.
 There are    29 symmetry adapted basis functions of B2  symmetry.
 Integral buffers will be    131072 words long.
 Raffenetti 2 integral format.
 Two-electron integral symmetry is turned on.
    96 basis functions,   204 primitive gaussians,   105 cartesian basis functions
    21 alpha electrons       20 beta electrons
       nuclear repulsion energy       133.6509289800 Hartrees.
 NAtoms=    3 NActive=    3 NUniq=    2 SFac= 1.69D+00 NAtFMM=   80 NAOKFM=F Big=F
 One-electron integrals computed using PRISM.
 NBasis=    96 RedAO= T  NBF=    37    13    17    29
 NBsUse=    96 1.00D-06 NBFU=    37    13    17    29
 Initial guess read from the read-write file.
 B after Tr=     0.000000    0.000000    0.000000
         Rot=    1.000000    0.000000    0.000000    0.000000 Ang=   0.00 deg.
 Initial guess orbital symmetries:
 Alpha Orbitals:
       Occupied  (B2) (A1) (A1) (A1) (B2) (A1) (B2) (A1) (A2) (B1)
                 (A1) (B2) (B2) (A1) (B1) (A1) (B2) (A1) (A1) (B1)
                 (B2)
       Virtual   (A1) (A2) (B1) (B2) (B2) (A1) (A1) (A1) (B1) (A1)
                 (B2) (A2) (A1) (B2) (B1) (A1) (B1) (A2) (B1) (B2)
                 (B2) (A1) (B2) (A1) (A2) (B2) (A1) (A2) (B1) (A1)
                 (B2) (A1) (B2) (A1) (B1) (B2) (A1) (B1) (B2) (A1)
                 (A1) (B1) (A2) (A1) (B2) (A2) (A1) (B2) (B1) (B2)
                 (A2) (A1) (B2) (B1) (A2) (A1) (B2) (B1) (A1) (A2)
                 (B1) (B2) (A1) (B2) (B2) (A1) (A2) (B1) (A2) (A1)
                 (A1) (B2) (A1) (B2) (A1)
 Beta  Orbitals:
       Occupied  (B2) (A1) (A1) (A1) (B2) (A1) (A1) (B2) (A2) (B1)
                 (A1) (B2) (B1) (A1) (B2) (A1) (B2) (A1) (A1) (B1)
       Virtual   (B2) (A1) (A2) (B1) (B2) (B2) (A1) (A1) (A1) (B1)
                 (A1) (B2) (A1) (B1) (A2) (B2) (A1) (A2) (B1) (B1)
                 (B2) (B2) (A1) (B2) (A1) (A2) (B2) (A1) (A2) (B1)
                 (A1) (B2) (A1) (B2) (A1) (B1) (A1) (B1) (B2) (B2)
                 (A1) (A1) (B1) (A2) (A1) (B2) (A2) (A1) (B2) (B1)
                 (B2) (A2) (A1) (B2) (B1) (A2) (A1) (B2) (B1) (A1)
                 (A2) (B1) (B2) (A1) (B2) (B2) (A1) (A2) (B1) (A2)
                 (A1) (A1) (B2) (A1) (B2) (A1)
 Initial guess <Sx>= 0.0000 <Sy>= 0.0000 <Sz>= 0.5000 <S**2>= 1.1033 S= 0.6633
 Requested convergence on RMS density matrix=1.00D-08 within 128 cycles.
 Requested convergence on MAX density matrix=1.00D-06.
 Requested convergence on             energy=1.00D-06.
 No special actions if energy rises.
 Keep R1 and R2 ints in memory in canonical form, NReq=32990917.
 SCF Done:  E(UB3LYP) =  -868.080609859     A.U. after   11 cycles
             Convg  =    0.9747D-08             -V/T =  2.0034
 <Sx>= 0.0000 <Sy>= 0.0000 <Sz>= 0.5000 <S**2>= 1.1093 S= 0.6659
 <L.S>= 0.000000000000E+00
 Annihilation of the first spin contaminant:
 S**2 before annihilation     1.1093,   after     0.7649
 QCSCF skips out because SCF is already converged.
 Calling FoFJK, ICntrl=      2127 FMM=F ISym2X=1 I1Cent= 0 IOpClX= 1 NMat=1 NMatS=1 NMatT=0.
 ***** Axes restored to original set *****
 -------------------------------------------------------------------
 Center     Atomic                   Forces (Hartrees/Bohr)
 Number     Number              X              Y              Z
 -------------------------------------------------------------------
      1       14           0.000000000   -0.000276477   -0.000207006
      2       14           0.000000000    0.000276477   -0.000207006
      3       14           0.000000000    0.000000000    0.000414011
 -------------------------------------------------------------------
 Cartesian Forces:  Max     0.000414011 RMS     0.000213434

 GradGradGradGradGradGradGradGradGradGradGradGradGradGradGradGradGradGrad
 Berny optimization.
 Using GEDIIS/GDIIS optimizer.
 Internal  Forces:  Max     0.000417182 RMS     0.000315880
 Search for a local minimum.
 Step number   2 out of a maximum of   20
 All quantities printed in internal units (Hartrees-Bohrs-Radians)
 Mixed Optimization -- En-DIIS/RFO-DIIS
 Swaping is turned off.
 Update second derivatives using D2CorX and points    1    2
 DE= -4.67D-06 DEPred=-2.75D-06 R= 1.70D+00
 SS=  1.41D+00  RLast= 7.20D-03 DXNew= 5.0454D-01 2.1596D-02
 Trust test= 1.70D+00 RLast= 7.20D-03 DXMaxT set to 3.00D-01
 The second derivative matrix:
                          R1        R2        R3
           R1           0.04320
           R2           0.02791   0.15515
           R3           0.02791  -0.01525   0.15515
     Eigenvalues ---    0.02913   0.15397   0.17040
 En-DIIS/RFO-DIIS IScMMF=        0 using points:     2    1
 RFO step:  Lambda=-1.62996966D-06.
 DIIS coeffs:      3.33771     -2.33771
 Iteration  1 RMS(Cart)=  0.00853309 RMS(Int)=  0.00001522
 Iteration  2 RMS(Cart)=  0.00000911 RMS(Int)=  0.00000000
 Iteration  3 RMS(Cart)=  0.00000000 RMS(Int)=  0.00000000
 ClnCor:  largest displacement from symmetrization is 7.52D-14 for atom     2.
 Variable       Old X    -DE/DX   Delta X   Delta X   Delta X     New X
                                  (DIIS)     (GDIIS)  (Total)
    R1        4.76409  -0.00042  -0.01486  -0.00126  -0.01613   4.74797
    R2        4.23739   0.00025   0.00558  -0.00057   0.00501   4.24239
    R3        4.23739   0.00025   0.00558  -0.00057   0.00501   4.24239
         Item               Value     Threshold  Converged?
 Maximum Force            0.000417     0.000450     YES
 RMS     Force            0.000316     0.000300     NO 
 Maximum Displacement     0.008063     0.001800     NO 
 RMS     Displacement     0.008531     0.001200     NO 
 Predicted change in Energy=-4.617043D-06
 GradGradGradGradGradGradGradGradGradGradGradGradGradGradGradGradGradGrad

                          Input orientation:                          
 ---------------------------------------------------------------------
 Center     Atomic      Atomic             Coordinates (Angstroms)
 Number     Number       Type             X           Y           Z
 ---------------------------------------------------------------------
      1         14           0        0.000000    1.256258   -0.620192
      2         14           0        0.000000   -1.256258   -0.620192
      3         14           0        0.000000    0.000000    1.240384
 ---------------------------------------------------------------------
                    Distance matrix (angstroms):
                    1          2          3
     1  Si   0.000000
     2  Si   2.512515   0.000000
     3  Si   2.244978   2.244978   0.000000
 Stoichiometry    Si3(1+,2)
 Framework group  C2V[C2(Si),SGV(Si2)]
 Deg. of freedom     2
 Full point group                 C2V     NOp   4
 Largest Abelian subgroup         C2V     NOp   4
 Largest concise Abelian subgroup C2      NOp   2
                         Standard orientation:                         
 ---------------------------------------------------------------------
 Center     Atomic      Atomic             Coordinates (Angstroms)
 Number     Number       Type             X           Y           Z
 ---------------------------------------------------------------------
      1         14           0        0.000000    1.256258   -0.620192
      2         14           0        0.000000   -1.256258   -0.620192
      3         14           0        0.000000    0.000000    1.240384
 ---------------------------------------------------------------------
 Rotational constants (GHZ):      7.8273249      5.7230781      3.3059084
 Standard basis: GTBas3 (6D, 7F)
 There are    37 symmetry adapted basis functions of A1  symmetry.
 There are    13 symmetry adapted basis functions of A2  symmetry.
 There are    17 symmetry adapted basis functions of B1  symmetry.
 There are    29 symmetry adapted basis functions of B2  symmetry.
 Integral buffers will be    131072 words long.
 Raffenetti 2 integral format.
 Two-electron integral symmetry is turned on.
    96 basis functions,   204 primitive gaussians,   105 cartesian basis functions
    21 alpha electrons       20 beta electrons
       nuclear repulsion energy       133.6814810802 Hartrees.
 NAtoms=    3 NActive=    3 NUniq=    2 SFac= 1.69D+00 NAtFMM=   80 NAOKFM=F Big=F
 One-electron integrals computed using PRISM.
 NBasis=    96 RedAO= T  NBF=    37    13    17    29
 NBsUse=    96 1.00D-06 NBFU=    37    13    17    29
 Initial guess read from the read-write file.
 B after Tr=     0.000000    0.000000    0.000000
         Rot=    1.000000    0.000000    0.000000    0.000000 Ang=   0.00 deg.
 Initial guess orbital symmetries:
 Alpha Orbitals:
       Occupied  (B2) (A1) (A1) (A1) (B2) (A1) (B2) (A1) (A2) (B1)
                 (A1) (B2) (B2) (A1) (B1) (A1) (B2) (A1) (A1) (B1)
                 (B2)
       Virtual   (A1) (A2) (B1) (B2) (B2) (A1) (A1) (A1) (B1) (A1)
                 (B2) (A2) (A1) (B2) (B1) (A1) (B1) (A2) (B1) (B2)
                 (B2) (A1) (B2) (A1) (A2) (B2) (A1) (A2) (B1) (A1)
                 (B2) (A1) (B2) (A1) (B1) (B2) (A1) (B1) (B2) (A1)
                 (A1) (B1) (A2) (A1) (B2) (A2) (A1) (B2) (B1) (B2)
                 (A2) (A1) (B2) (B1) (A2) (A1) (B2) (B1) (A1) (A2)
                 (B1) (B2) (A1) (B2) (B2) (A1) (A2) (B1) (A2) (A1)
                 (A1) (B2) (A1) (B2) (A1)
 Beta  Orbitals:
       Occupied  (B2) (A1) (A1) (A1) (B2) (A1) (A1) (B2) (A2) (B1)
                 (A1) (B2) (B1) (A1) (B2) (A1) (B2) (A1) (A1) (B1)
       Virtual   (B2) (A1) (A2) (B1) (B2) (B2) (A1) (A1) (A1) (B1)
                 (A1) (B2) (A1) (B1) (A2) (B2) (A1) (A2) (B1) (B1)
                 (B2) (B2) (A1) (B2) (A1) (A2) (B2) (A1) (A2) (B1)
                 (A1) (B2) (A1) (B2) (A1) (B1) (A1) (B1) (B2) (B2)
                 (A1) (A1) (B1) (A2) (A1) (B2) (A2) (A1) (B2) (B1)
                 (B2) (A2) (A1) (B2) (B1) (A2) (A1) (B2) (B1) (A1)
                 (A2) (B1) (B2) (A1) (B2) (B2) (A1) (A2) (B1) (A2)
                 (A1) (A1) (B2) (A1) (B2) (A1)
 Initial guess <Sx>= 0.0000 <Sy>= 0.0000 <Sz>= 0.5000 <S**2>= 1.1099 S= 0.6662
 Requested convergence on RMS density matrix=1.00D-08 within 128 cycles.
 Requested convergence on MAX density matrix=1.00D-06.
 Requested convergence on             energy=1.00D-06.
 No special actions if energy rises.
 Keep R1 and R2 ints in memory in canonical form, NReq=32990917.
 SCF Done:  E(UB3LYP) =  -868.080614492     A.U. after   12 cycles
             Convg  =    0.9031D-08             -V/T =  2.0034
 <Sx>= 0.0000 <Sy>= 0.0000 <Sz>= 0.5000 <S**2>= 1.1240 S= 0.6722
 <L.S>= 0.000000000000E+00
 Annihilation of the first spin contaminant:
 S**2 before annihilation     1.1240,   after     0.7660
 QCSCF skips out because SCF is already converged.
 Calling FoFJK, ICntrl=      2127 FMM=F ISym2X=1 I1Cent= 0 IOpClX= 1 NMat=1 NMatS=1 NMatT=0.
 ***** Axes restored to original set *****
 -------------------------------------------------------------------
 Center     Atomic                   Forces (Hartrees/Bohr)
 Number     Number              X              Y              Z
 -------------------------------------------------------------------
      1       14           0.000000000   -0.000062389    0.000043830
      2       14           0.000000000    0.000062389    0.000043830
      3       14           0.000000000    0.000000000   -0.000087660
 -------------------------------------------------------------------
 Cartesian Forces:  Max     0.000087660 RMS     0.000046322

 GradGradGradGradGradGradGradGradGradGradGradGradGradGradGradGradGradGrad
 Berny optimization.
 Using GEDIIS/GDIIS optimizer.
 Internal  Forces:  Max     0.000052886 RMS     0.000047150
 Search for a local minimum.
 Step number   3 out of a maximum of   20
 All quantities printed in internal units (Hartrees-Bohrs-Radians)
 Mixed Optimization -- En-DIIS/RFO-DIIS
 Swaping is turned off.
 Update second derivatives using D2CorX and points    1    2    3
 DE= -4.63D-06 DEPred=-4.62D-06 R= 1.00D+00
 SS=  1.41D+00  RLast= 1.76D-02 DXNew= 5.0454D-01 5.2837D-02
 Trust test= 1.00D+00 RLast= 1.76D-02 DXMaxT set to 3.00D-01
 The second derivative matrix:
                          R1        R2        R3
           R1           0.04047
           R2           0.02679   0.15861
           R3           0.02679  -0.01179   0.15861
     Eigenvalues ---    0.02836   0.15894   0.17040
 En-DIIS/RFO-DIIS IScMMF=        0 using points:     3    2    1
 RFO step:  Lambda=-1.69741647D-08.
 DIIS coeffs:      1.73394     -2.49589      1.76195
 Iteration  1 RMS(Cart)=  0.00032680 RMS(Int)=  0.00000000
 Iteration  2 RMS(Cart)=  0.00000000 RMS(Int)=  0.00000000
 ClnCor:  largest displacement from symmetrization is 8.20D-14 for atom     2.
 Variable       Old X    -DE/DX   Delta X   Delta X   Delta X     New X
                                  (DIIS)     (GDIIS)  (Total)
    R1        4.74797  -0.00003  -0.00063   0.00000  -0.00063   4.74733
    R2        4.24239  -0.00005  -0.00053   0.00000  -0.00053   4.24187
    R3        4.24239  -0.00005  -0.00053   0.00000  -0.00053   4.24187
         Item               Value     Threshold  Converged?
 Maximum Force            0.000053     0.000450     YES
 RMS     Force            0.000047     0.000300     YES
 Maximum Displacement     0.000316     0.001800     YES
 RMS     Displacement     0.000327     0.001200     YES
 Predicted change in Energy=-9.565441D-09
 Optimization completed.
    -- Stationary point found.
                           ----------------------------
                           !   Optimized Parameters   !
                           ! (Angstroms and Degrees)  !
 --------------------------                            --------------------------
 ! Name  Definition              Value          Derivative Info.                !
 --------------------------------------------------------------------------------
 ! R1    R(1,2)                  2.5125         -DE/DX =    0.0                 !
 ! R2    R(1,3)                  2.245          -DE/DX =   -0.0001              !
 ! R3    R(2,3)                  2.245          -DE/DX =   -0.0001              !
 --------------------------------------------------------------------------------
 GradGradGradGradGradGradGradGradGradGradGradGradGradGradGradGradGradGrad

                          Input orientation:                          
 ---------------------------------------------------------------------
 Center     Atomic      Atomic             Coordinates (Angstroms)
 Number     Number       Type             X           Y           Z
 ---------------------------------------------------------------------
      1         14           0        0.000000    1.256258   -0.620192
      2         14           0        0.000000   -1.256258   -0.620192
      3         14           0        0.000000    0.000000    1.240384
 ---------------------------------------------------------------------
                    Distance matrix (angstroms):
                    1          2          3
     1  Si   0.000000
     2  Si   2.512515   0.000000
     3  Si   2.244978   2.244978   0.000000
 Stoichiometry    Si3(1+,2)
 Framework group  C2V[C2(Si),SGV(Si2)]
 Deg. of freedom     2
 Full point group                 C2V     NOp   4
 Largest Abelian subgroup         C2V     NOp   4
 Largest concise Abelian subgroup C2      NOp   2
                         Standard orientation:                         
 ---------------------------------------------------------------------
 Center     Atomic      Atomic             Coordinates (Angstroms)
 Number     Number       Type             X           Y           Z
 ---------------------------------------------------------------------
      1         14           0        0.000000    1.256258   -0.620192
      2         14           0        0.000000   -1.256258   -0.620192
      3         14           0        0.000000    0.000000    1.240384
 ---------------------------------------------------------------------
 Rotational constants (GHZ):      7.8273249      5.7230781      3.3059084

 **********************************************************************

            Population analysis using the SCF density.

 **********************************************************************

 Orbital symmetries:
 Alpha Orbitals:
       Occupied  (B2) (A1) (A1) (A1) (B2) (A1) (B2) (A1) (A2) (B1)
                 (A1) (B2) (B2) (A1) (B1) (A1) (B2) (A1) (A1) (B1)
                 (B2)
       Virtual   (A1) (A2) (B1) (B2) (B2) (A1) (A1) (A1) (B1) (A1)
                 (B2) (A2) (A1) (B2) (B1) (A1) (B1) (A2) (B1) (B2)
                 (B2) (A1) (B2) (A1) (A2) (B2) (A1) (A2) (B1) (A1)
                 (B2) (A1) (B2) (A1) (B1) (B2) (A1) (B1) (B2) (A1)
                 (A1) (B1) (A2) (A1) (B2) (A2) (A1) (B2) (B1) (B2)
                 (A2) (A1) (B2) (B1) (A2) (A1) (B2) (B1) (A1) (A2)
                 (B1) (B2) (A1) (B2) (B2) (A1) (A2) (B1) (A2) (A1)
                 (A1) (B2) (A1) (B2) (A1)
 Beta  Orbitals:
       Occupied  (B2) (A1) (A1) (A1) (B2) (A1) (A1) (B2) (A2) (B1)
                 (A1) (B2) (B1) (A1) (B2) (A1) (B2) (A1) (A1) (B1)
       Virtual   (B2) (A1) (A2) (B1) (B2) (B2) (A1) (A1) (A1) (B1)
                 (A1) (B2) (A1) (B1) (A2) (B2) (A1) (A2) (B1) (B1)
                 (B2) (B2) (A1) (B2) (A1) (A2) (B2) (A1) (A2) (B1)
                 (A1) (B2) (A1) (B2) (A1) (B1) (A1) (B1) (B2) (B2)
                 (A1) (A1) (B1) (A2) (A1) (B2) (A2) (A1) (B2) (B1)
                 (B2) (A2) (A1) (B2) (B1) (A2) (A1) (B2) (B1) (A1)
                 (A2) (B1) (B2) (A1) (B2) (B2) (A1) (A2) (B1) (A2)
                 (A1) (A1) (B2) (A1) (B2) (A1)
 The electronic state is 2-B2.
 Alpha  occ. eigenvalues --  -66.39458 -66.39458 -66.38150  -5.53835  -5.53832
 Alpha  occ. eigenvalues --   -5.52832  -3.89869  -3.89869  -3.89651  -3.89650
 Alpha  occ. eigenvalues --   -3.89374  -3.89358  -3.88797  -3.88710  -3.88573
 Alpha  occ. eigenvalues --   -0.80894  -0.62860  -0.60507  -0.45850  -0.45288
 Alpha  occ. eigenvalues --   -0.44793
 Alpha virt. eigenvalues --   -0.36355  -0.29133  -0.27396  -0.20204  -0.18339
 Alpha virt. eigenvalues --   -0.15773  -0.09180  -0.04820  -0.03684  -0.00727
 Alpha virt. eigenvalues --   -0.00471   0.00573   0.02224   0.03029   0.03510
 Alpha virt. eigenvalues --    0.03787   0.07597   0.08285   0.09587   0.10806
 Alpha virt. eigenvalues --    0.12698   0.13357   0.16348   0.17916   0.21152
 Alpha virt. eigenvalues --    0.25436   0.27693   0.28652   0.31061   0.31203
 Alpha virt. eigenvalues --    0.44951   0.52016   0.53261   0.55257   0.58736
 Alpha virt. eigenvalues --    0.68391   0.68677   0.70854   0.72305   0.72754
 Alpha virt. eigenvalues --    0.73416   0.74790   0.74798   0.76508   0.82261
 Alpha virt. eigenvalues --    0.84881   0.87742   0.92727   0.93729   0.99442
 Alpha virt. eigenvalues --    1.02876   1.04855   1.08021   1.08573   1.14902
 Alpha virt. eigenvalues --    1.15225   1.19024   1.39958   1.40129   1.42758
 Alpha virt. eigenvalues --    1.46744   1.47682   1.49584   1.55770   1.58414
 Alpha virt. eigenvalues --    1.59047   1.60483   1.62864   1.66625   1.75095
 Alpha virt. eigenvalues --    1.81550   1.92067   2.21257   2.46174   2.47583
  Beta  occ. eigenvalues --  -66.39399 -66.39399 -66.37826  -5.53768  -5.53764
  Beta  occ. eigenvalues --   -5.52471  -3.89831  -3.89824  -3.89633  -3.89632
  Beta  occ. eigenvalues --   -3.89168  -3.89158  -3.88341  -3.88140  -3.88067
  Beta  occ. eigenvalues --   -0.79398  -0.61757  -0.57438  -0.44924  -0.44906
  Beta virt. eigenvalues --   -0.36254  -0.35619  -0.29053  -0.26316  -0.20794
  Beta virt. eigenvalues --   -0.15624  -0.14637  -0.08571  -0.03329  -0.03273
  Beta virt. eigenvalues --   -0.00120   0.01181   0.02273   0.02773   0.02927
  Beta virt. eigenvalues --    0.03227   0.05387   0.08398   0.08690   0.09817
  Beta virt. eigenvalues --    0.11283   0.13406   0.13442   0.17467   0.17867
  Beta virt. eigenvalues --    0.21142   0.26821   0.29212   0.29631   0.32490
  Beta virt. eigenvalues --    0.32538   0.44616   0.53024   0.55586   0.55877
  Beta virt. eigenvalues --    0.60093   0.68814   0.69456   0.70167   0.72580
  Beta virt. eigenvalues --    0.72824   0.74452   0.76124   0.77055   0.78140
  Beta virt. eigenvalues --    0.84195   0.85142   0.87933   0.92807   0.95307
  Beta virt. eigenvalues --    1.00335   1.02360   1.06304   1.08561   1.09503
  Beta virt. eigenvalues --    1.16291   1.16875   1.20578   1.39493   1.40328
  Beta virt. eigenvalues --    1.43486   1.47401   1.48960   1.50257   1.55489
  Beta virt. eigenvalues --    1.59175   1.59996   1.60818   1.63585   1.66933
  Beta virt. eigenvalues --    1.74890   1.82273   1.93290   2.22073   2.46283
  Beta virt. eigenvalues --    2.48681
          Condensed to atoms (all electrons):
              1          2          3
     1  Si  13.213364   0.155010   0.272091
     2  Si   0.155010  13.213364   0.272091
     3  Si   0.272091   0.272091  13.174887
 Mulliken atomic charges:
              1
     1  Si   0.359535
     2  Si   0.359535
     3  Si   0.280930
 Sum of Mulliken atomic charges =   1.00000
 Mulliken charges with hydrogens summed into heavy atoms:
              1
     1  Si   0.359535
     2  Si   0.359535
     3  Si   0.280930
 Sum of Mulliken charges with hydrogens summed into heavy atoms =   1.00000
          Atomic-Atomic Spin Densities.
              1          2          3
     1  Si   0.122430  -0.058369   0.047380
     2  Si  -0.058369   0.122430   0.047380
     3  Si   0.047380   0.047380   0.682357
 Mulliken atomic spin densities:
              1
     1  Si   0.111441
     2  Si   0.111441
     3  Si   0.777118
 Sum of Mulliken atomic spin densities =   1.00000
 Electronic spatial extent (au):  <R**2>=            338.3852
 Charge=              1.0000 electrons
 Dipole moment (field-independent basis, Debye):
    X=              0.0000    Y=              0.0000    Z=              0.0110  Tot=              0.0110
 Quadrupole moment (field-independent basis, Debye-Ang):
   XX=            -34.7686   YY=            -26.5436   ZZ=            -26.3884
   XY=              0.0000   XZ=              0.0000   YZ=              0.0000
 Traceless Quadrupole moment (field-independent basis, Debye-Ang):
   XX=             -5.5351   YY=              2.6899   ZZ=              2.8452
   XY=              0.0000   XZ=              0.0000   YZ=              0.0000
 Octapole moment (field-independent basis, Debye-Ang**2):
  XXX=              0.0000  YYY=              0.0000  ZZZ=              6.0114  XYY=              0.0000
  XXY=              0.0000  XXZ=             -0.2505  XZZ=              0.0000  YZZ=              0.0000
  YYZ=             -3.1914  XYZ=              0.0000
 Hexadecapole moment (field-independent basis, Debye-Ang**3):
 XXXX=            -59.9969 YYYY=           -252.8926 ZZZZ=           -187.9061 XXXY=              0.0000
 XXXZ=              0.0000 YYYX=              0.0000 YYYZ=              0.0000 ZZZX=              0.0000
 ZZZY=              0.0000 XXYY=            -53.0016 XXZZ=            -42.9696 YYZZ=            -78.2429
 XXYZ=              0.0000 YYXZ=              0.0000 ZZXY=              0.0000
 N-N= 1.336814810802D+02 E-N=-3.480540429573D+03  KE= 1.297064859090D+03
 Symmetry A1   KE= 7.536612398213D+02
 Symmetry A2   KE= 3.645312372412D+01
 Symmetry B1   KE= 7.573566704164D+01
 Symmetry B2   KE= 4.312148285025D+02
                          Isotropic Fermi Contact Couplings
        Atom                 a.u.       MegaHertz       Gauss      10(-4) cm-1
     1  Si(29)             0.07164     -63.67058     -22.71925     -21.23822
     2  Si(29)             0.07164     -63.67058     -22.71925     -21.23822
     3  Si(29)             0.09519     -84.59468     -30.18549     -28.21775
 --------------------------------------------------------
       Center         ----  Spin Dipole Couplings  ----
                      3XX-RR        3YY-RR        3ZZ-RR
 --------------------------------------------------------
     1   Atom       -0.207146     -0.835355      1.042501
     2   Atom       -0.207146     -0.835355      1.042501
     3   Atom       -0.800302      0.622928      0.177373
 --------------------------------------------------------
                        XY            XZ            YZ
 --------------------------------------------------------
     1   Atom        0.000000      0.000000     -0.733203
     2   Atom        0.000000      0.000000      0.733203
     3   Atom        0.000000      0.000000      0.000000
 --------------------------------------------------------


 ---------------------------------------------------------------------------------
              Anisotropic Spin Dipole Couplings in Principal Axis System
 ---------------------------------------------------------------------------------

       Atom             a.u.   MegaHertz   Gauss  10(-4) cm-1        Axes

              Baa    -1.0877   115.389    41.174    38.490  0.0000  0.9456  0.3255
     1 Si(29) Bbb    -0.2071    21.975     7.841     7.330  1.0000  0.0000  0.0000
              Bcc     1.2949  -137.364   -49.015   -45.820  0.0000 -0.3255  0.9456
 
              Baa    -1.0877   115.389    41.174    38.490  0.0000  0.9456 -0.3255
     2 Si(29) Bbb    -0.2071    21.975     7.841     7.330  1.0000  0.0000  0.0000
              Bcc     1.2949  -137.364   -49.015   -45.820  0.0000  0.3255  0.9456
 
              Baa    -0.8003    84.899    30.294    28.319  1.0000  0.0000  0.0000
     3 Si(29) Bbb     0.1774   -18.816    -6.714    -6.277  0.0000  0.0000  1.0000
              Bcc     0.6229   -66.083   -23.580   -22.043  0.0000  1.0000  0.0000
 

 ---------------------------------------------------------------------------------

 1\1\GINC-NODE41\FOpt\UB3LYP\GTBas3\Si3(1+,2)\TAM\04-Jan-2012\0\\# G4 s
 cfcyc=500 scf=xqc\\s3-c\\1,2\Si,0.,1.2562577362,-0.6201921652\Si,0.,-1
 .2562577362,-0.6201921652\Si,0.,0.,1.2403843304\\Version=AM64L-G09RevA
 .02\State=2-B2\HF=-868.0806145\S2=1.123969\S2-1=0.\S2A=0.765959\RMSD=9
 .031e-09\RMSF=4.632e-05\Dipole=0.,0.,0.0043321\Quadrupole=-4.115222,1.
 9999116,2.1153105,0.,0.,0.\PG=C02V [C2(Si1),SGV(Si2)]\\@


 I DON'T EXACTLY UNDERSTAND WHAT YOU ARE SAYING,
 BUT YOU ARE ABSOLUTELY RIGHT.
     M.S.GORDON, IN A NDSU FACULTY MEETING
 Job cpu time:  0 days  0 hours  1 minutes 28.7 seconds.
 File lengths (MBytes):  RWF=      9 Int=      0 D2E=      0 Chk=     13 Scr=      1
 Normal termination of Gaussian 09 at Wed Jan  4 10:20:46 2012.
 Link1:  Proceeding to internal job step number  2.
 ----------------------------------------------------------
 #N Geom=AllCheck Guess=TCheck SCRF=Check B3LYP/GTBas3 Freq
 ----------------------------------------------------------
 1/10=4,29=7,30=1,38=1,40=1/1,3;
 2/12=2,40=1/2;
 3/5=35,11=2,14=-4,16=1,25=1,30=1,70=2,71=2,74=-5,116=-2/1,2,3;
 4/5=101/1;
 5/5=2,7=500,8=3,13=1,98=1/2,8;
 8/6=4,10=90,11=11/1;
 11/6=1,8=1,9=11,15=111,16=1/1,2,10;
 10/6=1/2;
 6/7=2,8=2,9=2,10=2,18=1,28=1/1;
 7/8=1,10=1,25=1/1,2,3,16;
 1/10=4,30=1/3;
 99//99;
 ----
 s3-c
 ----
 Redundant internal coordinates taken from checkpoint file:
 S9L-ne-d-01.chk
 Charge =  1 Multiplicity = 2
 Si,0,0.,1.2562577362,-0.6201921652
 Si,0,0.,-1.2562577362,-0.6201921652
 Si,0,0.,0.,1.2403843304
 Recover connectivity data from disk.

 GradGradGradGradGradGradGradGradGradGradGradGradGradGradGradGradGradGrad
 Berny optimization.
 Initialization pass.
                           ----------------------------
                           !    Initial Parameters    !
                           ! (Angstroms and Degrees)  !
 --------------------------                            --------------------------
 ! Name  Definition              Value          Derivative Info.                !
 --------------------------------------------------------------------------------
 ! R1    R(1,2)                  2.5125         calculate D2E/DX2 analytically  !
 ! R2    R(1,3)                  2.245          calculate D2E/DX2 analytically  !
 ! R3    R(2,3)                  2.245          calculate D2E/DX2 analytically  !
 --------------------------------------------------------------------------------
 Trust Radius=3.00D-01 FncErr=1.00D-07 GrdErr=1.00D-07
 Number of steps in this run=   2 maximum allowed number of steps=   2.
 GradGradGradGradGradGradGradGradGradGradGradGradGradGradGradGradGradGrad

                          Input orientation:                          
 ---------------------------------------------------------------------
 Center     Atomic      Atomic             Coordinates (Angstroms)
 Number     Number       Type             X           Y           Z
 ---------------------------------------------------------------------
      1         14           0        0.000000    1.256258   -0.620192
      2         14           0        0.000000   -1.256258   -0.620192
      3         14           0        0.000000    0.000000    1.240384
 ---------------------------------------------------------------------
                    Distance matrix (angstroms):
                    1          2          3
     1  Si   0.000000
     2  Si   2.512515   0.000000
     3  Si   2.244978   2.244978   0.000000
 Stoichiometry    Si3(1+,2)
 Framework group  C2V[C2(Si),SGV(Si2)]
 Deg. of freedom     2
 Full point group                 C2V     NOp   4
 Largest Abelian subgroup         C2V     NOp   4
 Largest concise Abelian subgroup C2      NOp   2
                         Standard orientation:                         
 ---------------------------------------------------------------------
 Center     Atomic      Atomic             Coordinates (Angstroms)
 Number     Number       Type             X           Y           Z
 ---------------------------------------------------------------------
      1         14           0        0.000000    1.256258   -0.620192
      2         14           0        0.000000   -1.256258   -0.620192
      3         14           0        0.000000    0.000000    1.240384
 ---------------------------------------------------------------------
 Rotational constants (GHZ):      7.8273249      5.7230781      3.3059084
 Standard basis: GTBas3 (6D, 7F)
 There are    37 symmetry adapted basis functions of A1  symmetry.
 There are    13 symmetry adapted basis functions of A2  symmetry.
 There are    17 symmetry adapted basis functions of B1  symmetry.
 There are    29 symmetry adapted basis functions of B2  symmetry.
 Integral buffers will be    131072 words long.
 Raffenetti 2 integral format.
 Two-electron integral symmetry is turned on.
    96 basis functions,   204 primitive gaussians,   105 cartesian basis functions
    21 alpha electrons       20 beta electrons
       nuclear repulsion energy       133.6814810802 Hartrees.
 NAtoms=    3 NActive=    3 NUniq=    2 SFac= 1.69D+00 NAtFMM=   80 NAOKFM=F Big=F
 One-electron integrals computed using PRISM.
 NBasis=    96 RedAO= T  NBF=    37    13    17    29
 NBsUse=    96 1.00D-06 NBFU=    37    13    17    29
 Initial guess read from the checkpoint file:  S9L-ne-d-01.chk
 B after Tr=     0.000000    0.000000    0.000000
         Rot=    1.000000    0.000000    0.000000    0.000000 Ang=   0.00 deg.
 Initial guess orbital symmetries:
 Alpha Orbitals:
       Occupied  (B2) (A1) (A1) (A1) (B2) (A1) (B2) (A1) (A2) (B1)
                 (A1) (B2) (B2) (A1) (B1) (A1) (B2) (A1) (A1) (B1)
                 (B2)
       Virtual   (A1) (A2) (B1) (B2) (B2) (A1) (A1) (A1) (B1) (A1)
                 (B2) (A2) (A1) (B2) (B1) (A1) (B1) (A2) (B1) (B2)
                 (B2) (A1) (B2) (A1) (A2) (B2) (A1) (A2) (B1) (A1)
                 (B2) (A1) (B2) (A1) (B1) (B2) (A1) (B1) (B2) (A1)
                 (A1) (B1) (A2) (A1) (B2) (A2) (A1) (B2) (B1) (B2)
                 (A2) (A1) (B2) (B1) (A2) (A1) (B2) (B1) (A1) (A2)
                 (B1) (B2) (A1) (B2) (B2) (A1) (A2) (B1) (A2) (A1)
                 (A1) (B2) (A1) (B2) (A1)
 Beta  Orbitals:
       Occupied  (B2) (A1) (A1) (A1) (B2) (A1) (A1) (B2) (A2) (B1)
                 (A1) (B2) (B1) (A1) (B2) (A1) (B2) (A1) (A1) (B1)
       Virtual   (B2) (A1) (A2) (B1) (B2) (B2) (A1) (A1) (A1) (B1)
                 (A1) (B2) (A1) (B1) (A2) (B2) (A1) (A2) (B1) (B1)
                 (B2) (B2) (A1) (B2) (A1) (A2) (B2) (A1) (A2) (B1)
                 (A1) (B2) (A1) (B2) (A1) (B1) (A1) (B1) (B2) (B2)
                 (A1) (A1) (B1) (A2) (A1) (B2) (A2) (A1) (B2) (B1)
                 (B2) (A2) (A1) (B2) (B1) (A2) (A1) (B2) (B1) (A1)
                 (A2) (B1) (B2) (A1) (B2) (B2) (A1) (A2) (B1) (A2)
                 (A1) (A1) (B2) (A1) (B2) (A1)
 Initial guess <Sx>= 0.0000 <Sy>= 0.0000 <Sz>= 0.5000 <S**2>= 1.1240 S= 0.6722
 Requested convergence on RMS density matrix=1.00D-08 within 128 cycles.
 Requested convergence on MAX density matrix=1.00D-06.
 Requested convergence on             energy=1.00D-06.
 No special actions if energy rises.
 Keep R1 and R2 ints in memory in canonical form, NReq=32990917.
 SCF Done:  E(UB3LYP) =  -868.080614492     A.U. after    1 cycles
             Convg  =    0.1330D-08             -V/T =  2.0034
 <Sx>= 0.0000 <Sy>= 0.0000 <Sz>= 0.5000 <S**2>= 1.1240 S= 0.6722
 <L.S>= 0.000000000000E+00
 Annihilation of the first spin contaminant:
 S**2 before annihilation     1.1240,   after     0.7660
 QCSCF skips out because SCF is already converged.
 Range of M.O.s used for correlation:     1    96
 NBasis=    96 NAE=    21 NBE=    20 NFC=     0 NFV=     0
 NROrb=     96 NOA=    21 NOB=    20 NVA=    75 NVB=    76

 **** Warning!!: The smallest alpha delta epsilon is  0.84387746D-01


 **** Warning!!: The smallest beta delta epsilon is  0.86518089D-01

 Symmetrizing basis deriv contribution to polar:
 IMax=3 JMax=2 DiffMx= 0.00D+00
 G2DrvN: will do     4 centers at a time, making    1 passes doing MaxLOS=3.
 Calling FoFCou, ICntrl=  3107 FMM=F I1Cent=   0 AccDes= 0.00D+00.
 FoFDir/FoFCou used for L=0 through L=3.
 End of G2Drv Frequency-dependent properties file   721 does not exist.
 End of G2Drv Frequency-dependent properties file   722 does not exist.
          IDoAtm=111
          Differentiating once with respect to electric field.
                with respect to dipole field.
          Differentiating once with respect to nuclear coordinates.
          Keep R1 and R2 ints in memory in canonical form, NReq=32916600.
          There are     9 degrees of freedom in the 1st order CPHF.  IDoFFX=4.
      9 vectors produced by pass  0 Test12= 3.44D-14 1.11D-08 XBig12= 6.32D+02 1.18D+01.
 AX will form     9 AO Fock derivatives at one time.
      9 vectors produced by pass  1 Test12= 3.44D-14 1.11D-08 XBig12= 1.82D+02 4.37D+00.
      9 vectors produced by pass  2 Test12= 3.44D-14 1.11D-08 XBig12= 6.33D+00 8.07D-01.
      9 vectors produced by pass  3 Test12= 3.44D-14 1.11D-08 XBig12= 3.37D-01 2.82D-01.
      9 vectors produced by pass  4 Test12= 3.44D-14 1.11D-08 XBig12= 1.14D-02 4.28D-02.
      9 vectors produced by pass  5 Test12= 3.44D-14 1.11D-08 XBig12= 2.31D-04 4.24D-03.
      9 vectors produced by pass  6 Test12= 3.44D-14 1.11D-08 XBig12= 7.04D-06 8.50D-04.
      9 vectors produced by pass  7 Test12= 3.44D-14 1.11D-08 XBig12= 9.03D-08 7.55D-05.
      8 vectors produced by pass  8 Test12= 3.44D-14 1.11D-08 XBig12= 5.93D-10 5.39D-06.
      3 vectors produced by pass  9 Test12= 3.44D-14 1.11D-08 XBig12= 3.69D-12 4.47D-07.
      1 vectors produced by pass 10 Test12= 3.44D-14 1.11D-08 XBig12= 1.63D-14 2.59D-08.
 Inverted reduced A of dimension    84 with in-core refinement.
 Isotropic polarizability for W=    0.000000       79.40 Bohr**3.
 End of Minotr Frequency-dependent properties file   721 does not exist.
 End of Minotr Frequency-dependent properties file   722 does not exist.

 **********************************************************************

            Population analysis using the SCF density.

 **********************************************************************

 Orbital symmetries:
 Alpha Orbitals:
       Occupied  (B2) (A1) (A1) (A1) (B2) (A1) (B2) (A1) (A2) (B1)
                 (A1) (B2) (B2) (A1) (B1) (A1) (B2) (A1) (A1) (B1)
                 (B2)
       Virtual   (A1) (A2) (B1) (B2) (B2) (A1) (A1) (A1) (B1) (A1)
                 (B2) (A2) (A1) (B2) (B1) (A1) (B1) (A2) (B1) (B2)
                 (B2) (A1) (B2) (A1) (A2) (B2) (A1) (A2) (B1) (A1)
                 (B2) (A1) (B2) (A1) (B1) (B2) (A1) (B1) (B2) (A1)
                 (A1) (B1) (A2) (A1) (B2) (A2) (A1) (B2) (B1) (B2)
                 (A2) (A1) (B2) (B1) (A2) (A1) (B2) (B1) (A1) (A2)
                 (B1) (B2) (A1) (B2) (B2) (A1) (A2) (B1) (A2) (A1)
                 (A1) (B2) (A1) (B2) (A1)
 Beta  Orbitals:
       Occupied  (B2) (A1) (A1) (A1) (B2) (A1) (A1) (B2) (A2) (B1)
                 (A1) (B2) (B1) (A1) (B2) (A1) (B2) (A1) (A1) (B1)
       Virtual   (B2) (A1) (A2) (B1) (B2) (B2) (A1) (A1) (A1) (B1)
                 (A1) (B2) (A1) (B1) (A2) (B2) (A1) (A2) (B1) (B1)
                 (B2) (B2) (A1) (B2) (A1) (A2) (B2) (A1) (A2) (B1)
                 (A1) (B2) (A1) (B2) (A1) (B1) (A1) (B1) (B2) (B2)
                 (A1) (A1) (B1) (A2) (A1) (B2) (A2) (A1) (B2) (B1)
                 (B2) (A2) (A1) (B2) (B1) (A2) (A1) (B2) (B1) (A1)
                 (A2) (B1) (B2) (A1) (B2) (B2) (A1) (A2) (B1) (A2)
                 (A1) (A1) (B2) (A1) (B2) (A1)
 The electronic state is 2-B2.
 Alpha  occ. eigenvalues --  -66.39458 -66.39458 -66.38150  -5.53835  -5.53832
 Alpha  occ. eigenvalues --   -5.52832  -3.89869  -3.89869  -3.89651  -3.89650
 Alpha  occ. eigenvalues --   -3.89374  -3.89358  -3.88797  -3.88710  -3.88573
 Alpha  occ. eigenvalues --   -0.80894  -0.62860  -0.60507  -0.45850  -0.45288
 Alpha  occ. eigenvalues --   -0.44793
 Alpha virt. eigenvalues --   -0.36355  -0.29133  -0.27396  -0.20204  -0.18339
 Alpha virt. eigenvalues --   -0.15773  -0.09180  -0.04820  -0.03684  -0.00727
 Alpha virt. eigenvalues --   -0.00471   0.00573   0.02224   0.03029   0.03510
 Alpha virt. eigenvalues --    0.03787   0.07597   0.08285   0.09587   0.10806
 Alpha virt. eigenvalues --    0.12698   0.13357   0.16348   0.17916   0.21152
 Alpha virt. eigenvalues --    0.25436   0.27693   0.28652   0.31061   0.31203
 Alpha virt. eigenvalues --    0.44951   0.52016   0.53261   0.55257   0.58736
 Alpha virt. eigenvalues --    0.68391   0.68677   0.70854   0.72305   0.72754
 Alpha virt. eigenvalues --    0.73416   0.74790   0.74798   0.76508   0.82261
 Alpha virt. eigenvalues --    0.84881   0.87742   0.92727   0.93729   0.99442
 Alpha virt. eigenvalues --    1.02876   1.04855   1.08021   1.08573   1.14902
 Alpha virt. eigenvalues --    1.15225   1.19024   1.39958   1.40129   1.42758
 Alpha virt. eigenvalues --    1.46744   1.47682   1.49584   1.55770   1.58414
 Alpha virt. eigenvalues --    1.59047   1.60483   1.62864   1.66625   1.75095
 Alpha virt. eigenvalues --    1.81550   1.92067   2.21257   2.46174   2.47583
  Beta  occ. eigenvalues --  -66.39399 -66.39399 -66.37826  -5.53768  -5.53764
  Beta  occ. eigenvalues --   -5.52471  -3.89831  -3.89824  -3.89633  -3.89632
  Beta  occ. eigenvalues --   -3.89168  -3.89158  -3.88341  -3.88140  -3.88067
  Beta  occ. eigenvalues --   -0.79398  -0.61757  -0.57438  -0.44924  -0.44906
  Beta virt. eigenvalues --   -0.36254  -0.35619  -0.29053  -0.26316  -0.20794
  Beta virt. eigenvalues --   -0.15624  -0.14637  -0.08571  -0.03329  -0.03273
  Beta virt. eigenvalues --   -0.00120   0.01181   0.02273   0.02773   0.02927
  Beta virt. eigenvalues --    0.03227   0.05387   0.08398   0.08690   0.09817
  Beta virt. eigenvalues --    0.11283   0.13406   0.13442   0.17467   0.17867
  Beta virt. eigenvalues --    0.21142   0.26821   0.29212   0.29631   0.32490
  Beta virt. eigenvalues --    0.32538   0.44616   0.53024   0.55586   0.55877
  Beta virt. eigenvalues --    0.60093   0.68814   0.69456   0.70167   0.72580
  Beta virt. eigenvalues --    0.72824   0.74452   0.76124   0.77055   0.78140
  Beta virt. eigenvalues --    0.84195   0.85142   0.87933   0.92807   0.95307
  Beta virt. eigenvalues --    1.00335   1.02360   1.06304   1.08561   1.09503
  Beta virt. eigenvalues --    1.16291   1.16875   1.20578   1.39493   1.40328
  Beta virt. eigenvalues --    1.43486   1.47401   1.48960   1.50257   1.55489
  Beta virt. eigenvalues --    1.59175   1.59996   1.60818   1.63585   1.66933
  Beta virt. eigenvalues --    1.74890   1.82273   1.93290   2.22073   2.46283
  Beta virt. eigenvalues --    2.48681
          Condensed to atoms (all electrons):
              1          2          3
     1  Si  13.213364   0.155010   0.272091
     2  Si   0.155010  13.213364   0.272091
     3  Si   0.272091   0.272091  13.174887
 Mulliken atomic charges:
              1
     1  Si   0.359535
     2  Si   0.359535
     3  Si   0.280931
 Sum of Mulliken atomic charges =   1.00000
 Mulliken charges with hydrogens summed into heavy atoms:
              1
     1  Si   0.359535
     2  Si   0.359535
     3  Si   0.280931
 Sum of Mulliken charges with hydrogens summed into heavy atoms =   1.00000
          Atomic-Atomic Spin Densities.
              1          2          3
     1  Si   0.122430  -0.058369   0.047380
     2  Si  -0.058369   0.122430   0.047380
     3  Si   0.047380   0.047380   0.682358
 Mulliken atomic spin densities:
              1
     1  Si   0.111441
     2  Si   0.111441
     3  Si   0.777118
 Sum of Mulliken atomic spin densities =   1.00000
 APT atomic charges:
              1
     1  Si   0.339479
     2  Si   0.339479
     3  Si   0.321042
 Sum of APT charges=   1.00000
 APT Atomic charges with hydrogens summed into heavy atoms:
              1
     1  Si   0.339479
     2  Si   0.339479
     3  Si   0.321042
 Sum of APT charges=   1.00000
 Electronic spatial extent (au):  <R**2>=            338.3852
 Charge=              1.0000 electrons
 Dipole moment (field-independent basis, Debye):
    X=              0.0000    Y=              0.0000    Z=              0.0110  Tot=              0.0110
 Quadrupole moment (field-independent basis, Debye-Ang):
   XX=            -34.7686   YY=            -26.5436   ZZ=            -26.3884
   XY=              0.0000   XZ=              0.0000   YZ=              0.0000
 Traceless Quadrupole moment (field-independent basis, Debye-Ang):
   XX=             -5.5351   YY=              2.6899   ZZ=              2.8452
   XY=              0.0000   XZ=              0.0000   YZ=              0.0000
 Octapole moment (field-independent basis, Debye-Ang**2):
  XXX=              0.0000  YYY=              0.0000  ZZZ=              6.0114  XYY=              0.0000
  XXY=              0.0000  XXZ=             -0.2505  XZZ=              0.0000  YZZ=              0.0000
  YYZ=             -3.1914  XYZ=              0.0000
 Hexadecapole moment (field-independent basis, Debye-Ang**3):
 XXXX=            -59.9969 YYYY=           -252.8926 ZZZZ=           -187.9061 XXXY=              0.0000
 XXXZ=              0.0000 YYYX=              0.0000 YYYZ=              0.0000 ZZZX=              0.0000
 ZZZY=              0.0000 XXYY=            -53.0016 XXZZ=            -42.9696 YYZZ=            -78.2429
 XXYZ=              0.0000 YYXZ=              0.0000 ZZXY=              0.0000
 N-N= 1.336814810802D+02 E-N=-3.480540429460D+03  KE= 1.297064859074D+03
 Symmetry A1   KE= 7.536612397604D+02
 Symmetry A2   KE= 3.645312372655D+01
 Symmetry B1   KE= 7.573566703717D+01
 Symmetry B2   KE= 4.312148285498D+02
  Exact polarizability:  50.996   0.000 100.911   0.000   0.000  86.288
 Approx polarizability:  89.176   0.000 237.091   0.000   0.000 220.516
                          Isotropic Fermi Contact Couplings
        Atom                 a.u.       MegaHertz       Gauss      10(-4) cm-1
     1  Si(29)             0.07164     -63.67053     -22.71923     -21.23820
     2  Si(29)             0.07164     -63.67053     -22.71923     -21.23820
     3  Si(29)             0.09519     -84.59471     -30.18550     -28.21776
 --------------------------------------------------------
       Center         ----  Spin Dipole Couplings  ----
                      3XX-RR        3YY-RR        3ZZ-RR
 --------------------------------------------------------
     1   Atom       -0.207146     -0.835355      1.042501
     2   Atom       -0.207146     -0.835355      1.042501
     3   Atom       -0.800301      0.622928      0.177373
 --------------------------------------------------------
                        XY            XZ            YZ
 --------------------------------------------------------
     1   Atom        0.000000      0.000000     -0.733203
     2   Atom        0.000000      0.000000      0.733203
     3   Atom        0.000000      0.000000      0.000000
 --------------------------------------------------------


 ---------------------------------------------------------------------------------
              Anisotropic Spin Dipole Couplings in Principal Axis System
 ---------------------------------------------------------------------------------

       Atom             a.u.   MegaHertz   Gauss  10(-4) cm-1        Axes

              Baa    -1.0877   115.389    41.174    38.490  0.0000  0.9456  0.3255
     1 Si(29) Bbb    -0.2071    21.975     7.841     7.330  1.0000  0.0000  0.0000
              Bcc     1.2949  -137.364   -49.015   -45.820  0.0000 -0.3255  0.9456
 
              Baa    -1.0877   115.389    41.174    38.490  0.0000  0.9456 -0.3255
     2 Si(29) Bbb    -0.2071    21.975     7.841     7.330  1.0000  0.0000  0.0000
              Bcc     1.2949  -137.364   -49.015   -45.820  0.0000  0.3255  0.9456
 
              Baa    -0.8003    84.899    30.294    28.319  1.0000  0.0000  0.0000
     3 Si(29) Bbb     0.1774   -18.816    -6.714    -6.276  0.0000  0.0000  1.0000
              Bcc     0.6229   -66.083   -23.580   -22.043  0.0000  1.0000  0.0000
 

 ---------------------------------------------------------------------------------

 Calling FoFJK, ICntrl=    100127 FMM=F ISym2X=1 I1Cent= 0 IOpClX= 1 NMat=1 NMatS=1 NMatT=0.
 Full mass-weighted force constant matrix:
 Low frequencies ---  -12.0778   -8.8546   -4.9218    0.0031    0.0034    0.0049
 Low frequencies ---  196.9388  266.4015  467.9423
 Diagonal vibrational polarizability:
        0.0000000       0.3146526       6.4988197
 Harmonic frequencies (cm**-1), IR intensities (KM/Mole), Raman scattering
 activities (A**4/AMU), depolarization ratios for plane and unpolarized
 incident light, reduced masses (AMU), force constants (mDyne/A),
 and normal coordinates:
                     1                      2                      3
                    A1                     B2                     A1
 Frequencies --   196.9388               266.4013               467.9423
 Red. masses --    27.9769                27.9769                27.9769
 Frc consts  --     0.6393                 1.1698                 3.6094
 IR Inten    --     8.9601                 0.8298                 2.2930
  Atom  AN      X      Y      Z        X      Y      Z        X      Y      Z
     1  14     0.00   0.59   0.23     0.00  -0.31   0.46     0.00  -0.39   0.34
     2  14     0.00  -0.59   0.23     0.00  -0.31  -0.46     0.00   0.39   0.34
     3  14     0.00   0.00  -0.46     0.00   0.62   0.00     0.00   0.00  -0.68

 -------------------
 - Thermochemistry -
 -------------------
 Temperature   298.150 Kelvin.  Pressure   1.00000 Atm.
 Atom     1 has atomic number 14 and mass  27.97693
 Atom     2 has atomic number 14 and mass  27.97693
 Atom     3 has atomic number 14 and mass  27.97693
 Molecular mass:    83.93079 amu.
 Principal axes and moments of inertia in atomic units:
                           1         2         3
     Eigenvalues --   230.56935 315.34450 545.91385
           X            0.00000   0.00000   1.00000
           Y            1.00000   0.00000   0.00000
           Z            0.00000   1.00000   0.00000
 This molecule is an asymmetric top.
 Rotational symmetry number  2.
 Rotational temperatures (Kelvin)      0.37565     0.27466     0.15866
 Rotational constants (GHZ):           7.82732     5.72308     3.30591
 Zero-point vibrational energy       5570.3 (Joules/Mol)
                                    1.33133 (Kcal/Mol)
 Warning -- explicit consideration of   3 degrees of freedom as
           vibrations may cause significant error
 Vibrational temperatures:    283.35   383.29   673.26
          (Kelvin)
 
 Zero-point correction=                           0.002122 (Hartree/Particle)
 Thermal correction to Energy=                    0.006233
 Thermal correction to Enthalpy=                  0.007177
 Thermal correction to Gibbs Free Energy=        -0.025564
 Sum of electronic and zero-point Energies=           -868.078493
 Sum of electronic and thermal Energies=              -868.074382
 Sum of electronic and thermal Enthalpies=            -868.073438
 Sum of electronic and thermal Free Energies=         -868.106178
 
                     E (Thermal)             CV                S
                      KCal/Mol        Cal/Mol-Kelvin    Cal/Mol-Kelvin
 Total                    3.911             10.862             68.908
 Electronic               0.000              0.000              1.377
 Translational            0.889              2.981             39.196
 Rotational               0.889              2.981             23.810
 Vibrational              2.134              4.900              4.524
 Vibration     1          0.636              1.844              2.162
 Vibration     2          0.672              1.735              1.619
 Vibration     3          0.825              1.321              0.743
                       Q            Log10(Q)             Ln(Q)
 Total Bot       0.573371D+12         11.758436         27.074799
 Total V=0       0.542388D+13         12.734310         29.321832
 Vib (Bot)       0.266009D+00         -0.575103         -1.324224
 Vib (Bot)    1  0.101365D+01          0.005888          0.013558
 Vib (Bot)    2  0.726776D+00         -0.138599         -0.319137
 Vib (Bot)    3  0.361084D+00         -0.442392         -1.018646
 Vib (V=0)       0.251635D+01          0.400771          0.922809
 Vib (V=0)    1  0.163026D+01          0.212257          0.488739
 Vib (V=0)    2  0.138216D+01          0.140558          0.323646
 Vib (V=0)    3  0.111675D+01          0.047956          0.110423
 Electronic      0.200000D+01          0.301030          0.693147
 Translational   0.302230D+08          7.480337         17.224113
 Rotational      0.356592D+05          4.552172         10.481763
 ***** Axes restored to original set *****
 -------------------------------------------------------------------
 Center     Atomic                   Forces (Hartrees/Bohr)
 Number     Number              X              Y              Z
 -------------------------------------------------------------------
      1       14           0.000000000   -0.000062394    0.000043831
      2       14           0.000000000    0.000062394    0.000043831
      3       14           0.000000000    0.000000000   -0.000087661
 -------------------------------------------------------------------
 Cartesian Forces:  Max     0.000087661 RMS     0.000046324

 GradGradGradGradGradGradGradGradGradGradGradGradGradGradGradGradGradGrad
 Berny optimization.
 Internal  Forces:  Max     0.000052886 RMS     0.000047151
 Search for a local minimum.
 Step number   1 out of a maximum of    2
 All quantities printed in internal units (Hartrees-Bohrs-Radians)
 Second derivative matrix not updated -- analytic derivatives used.
 The second derivative matrix:
                          R1        R2        R3
           R1           0.02888
           R2           0.00735   0.06494
           R3           0.00735   0.01875   0.06494
     Eigenvalues ---    0.02697   0.04620   0.08559
 Angle between quadratic step and forces=  23.56 degrees.
 Linear search not attempted -- first point.
 Iteration  1 RMS(Cart)=  0.00039222 RMS(Int)=  0.00000000
 Iteration  2 RMS(Cart)=  0.00000000 RMS(Int)=  0.00000000
 ClnCor:  largest displacement from symmetrization is 1.07D-11 for atom     2.
 Variable       Old X    -DE/DX   Delta X   Delta X   Delta X     New X
                                 (Linear)    (Quad)   (Total)
    R1        4.74797  -0.00003   0.00000  -0.00085  -0.00085   4.74711
    R2        4.24239  -0.00005   0.00000  -0.00056  -0.00056   4.24184
    R3        4.24239  -0.00005   0.00000  -0.00056  -0.00056   4.24184
         Item               Value     Threshold  Converged?
 Maximum Force            0.000053     0.000450     YES
 RMS     Force            0.000047     0.000300     YES
 Maximum Displacement     0.000426     0.001800     YES
 RMS     Displacement     0.000392     0.001200     YES
 Predicted change in Energy=-4.343427D-08
 Optimization completed.
    -- Stationary point found.
                           ----------------------------
                           !   Optimized Parameters   !
                           ! (Angstroms and Degrees)  !
 --------------------------                            --------------------------
 ! Name  Definition              Value          Derivative Info.                !
 --------------------------------------------------------------------------------
 ! R1    R(1,2)                  2.5125         -DE/DX =    0.0                 !
 ! R2    R(1,3)                  2.245          -DE/DX =   -0.0001              !
 ! R3    R(2,3)                  2.245          -DE/DX =   -0.0001              !
 --------------------------------------------------------------------------------
 GradGradGradGradGradGradGradGradGradGradGradGradGradGradGradGradGradGrad

 1\1\GINC-NODE41\Freq\UB3LYP\GTBas3\Si3(1+,2)\TAM\04-Jan-2012\0\\#N Geo
 m=AllCheck Guess=TCheck SCRF=Check B3LYP/GTBas3 Freq\\s3-c\\1,2\Si,0.,
 1.2562577362,-0.6201921652\Si,0.,-1.2562577362,-0.6201921652\Si,0.,0.,
 1.2403843304\\Version=AM64L-G09RevA.02\State=2-B2\HF=-868.0806145\S2=1
 .123969\S2-1=0.\S2A=0.765959\RMSD=1.330e-09\RMSF=4.632e-05\ZeroPoint=0
 .0021216\Thermal=0.0062325\Dipole=0.,0.,0.0043331\DipoleDeriv=0.332734
 4,0.,0.,0.,0.3809491,-0.3987718,0.,-0.071452,0.3047541,0.3327344,0.,0.
 ,0.,0.3809491,0.3987718,0.,0.0714519,0.3047541,0.3345311,0.,0.,0.,0.23
 81019,0.,0.,0.,0.3904919\Polar=50.9955893,0.0000004,100.9112123,-0.000
 0002,0.0000003,86.2879318\PG=C02V [C2(Si1),SGV(Si2)]\NImag=0\\-0.00003
 856,0.,0.05746283,0.,-0.03621920,0.04454083,-0.00001292,0.,0.,-0.00003
 856,0.,-0.04297611,0.01477632,0.,0.05746283,0.,-0.01477632,0.01294511,
 0.,0.03621920,0.04454083,0.00005148,0.,0.,0.00005148,0.,0.,-0.00010296
 ,0.,-0.01448672,0.02144288,0.,-0.01448672,-0.02144288,0.,0.02897343,0.
 ,0.05099552,-0.05748594,0.,-0.05099553,-0.05748594,0.,0.,0.11497188\\0
 .,0.00006239,-0.00004383,0.,-0.00006239,-0.00004383,0.,0.,0.00008766\\
 \@


 I (ERNEST RUTHERFORD) CAME INTO THE ROOM, WHICH WAS HALF DARK, AND PRESENTLY
 SPOTTED LORD KELVIN IN THE AUDIENCE AND REALIZED I WAS IN TROUBLE AT
[...]
                 (B2) (B2) (A2) (B1) (A1) (B1) (A1) (B1) (B1) (A2)
                 (B2) (A1) (A2) (B1) (B2) (A1) (B1) (A1) (B2) (B2)
                 (B1) (A1) (A2) (B1) (A1) (B2) (A1) (B1) (A1) (A2)
                 (B2) (A1) (B1) (A2) (B2) (B1) (B2) (A1) (A2) (B2)
                 (A1) (B1) (B2) (A2) (B2) (B1) (A1) (B2) (A2) (B1)
                 (A1) (B2) (A2) (A1) (A1) (B1) (B2) (A1) (A2) (B2)
                 (A1) (B2) (A1) (A2) (B1) (A2) (A1) (A1) (B2) (B1)
                 (B2) (A2) (B2) (A1) (B1) (B2) (A2) (A1) (B2) (B1)
                 (A2) (B2) (B1) (A2) (A1) (B2) (A2) (B1) (A1) (A1)
                 (B2) (B1) (B2) (A1) (A2) (A1) (B2) (B2) (A1) (B1)
                 (A1) (A2) (B1) (A1) (A2) (B2) (A1) (B2) (A2) (B1)
                 (A1) (B2) (A1) (B2) (B1) (A2) (B1) (B2) (A1) (A1)
                 (B2) (B2) (A1) (A1) (B2) (A1)
 Beta  Orbitals:
       Occupied  (A1) (B2) (A1) (A1) (B2) (A1) (A1) (B2) (B1) (A2)
                 (A1) (B2) (B1) (B2) (A1) (A1) (B2) (A1) (A1) (B1)
       Virtual   (B2) (A1) (A2) (B1) (B2) (A1) (A1) (B1) (B2) (A1)
                 (A1) (B2) (A2) (B1) (B2) (A1) (B2) (A1) (B2) (A1)
                 (B1) (A1) (A1) (B2) (B1) (A2) (B2) (A2) (A1) (B1)
                 (A1) (B1) (B2) (B2) (A1) (B2) (A1) (A2) (A1) (B2)
                 (A2) (A1) (B1) (B1) (B2) (A1) (A1) (B1) (B2) (A1)
                 (B2) (A1) (B1) (A2) (B2) (A1) (A2) (B2) (B1) (A2)
                 (B1) (B2) (A1) (A1) (B2) (B2) (A2) (B2) (A1) (B1)
                 (B1) (A2) (A1) (B1) (A2) (A1) (B2) (B1) (A2) (A1)
                 (B2) (A1) (B2) (A1) (A1) (B2) (A2) (B1) (A1) (A1)
                 (B1) (B2) (A1) (A1) (B1) (B2) (A2) (B1) (B2) (A1)
                 (A2) (B1) (A1) (B2) (A2) (B2) (A1) (B2) (A1) (A1)
                 (B1) (B2) (B1) (A2) (B2) (A2) (A1) (A1) (B2) (B1)
                 (B2) (B1) (A2) (A1) (B1) (A2) (B2) (B2) (A1) (A1)
                 (B1) (A2) (B2) (B2) (A1) (A2) (A2) (B1) (A1) (B2)
                 (A1) (B2) (A1) (A2) (B1) (B1) (A1) (A1) (B2) (A2)
                 (A1) (B2) (B2) (A2) (B1) (A1) (B1) (A1) (B1) (B1)
                 (A2) (B2) (A1) (A2) (A1) (B1) (B2) (B1) (B2) (A1)
                 (B2) (B1) (A1) (A2) (B1) (A1) (B2) (A1) (B1) (A2)
                 (A1) (B2) (A2) (A1) (B1) (B1) (B2) (B2) (A2) (A1)
                 (B2) (A1) (B1) (B2) (A2) (B2) (B1) (A1) (B2) (A2)
                 (B1) (A1) (B2) (A2) (A1) (A1) (B1) (B2) (A1) (A2)
                 (B2) (A1) (B2) (A1) (A2) (B1) (A2) (A1) (A1) (B2)
                 (B1) (A2) (B2) (B2) (A1) (B2) (B1) (A2) (A1) (B2)
                 (B1) (A2) (B2) (A2) (B1) (A1) (B2) (A2) (B1) (A1)
                 (A1) (B2) (B1) (B2) (A1) (A2) (A1) (B2) (B2) (A1)
                 (B1) (A1) (A2) (B1) (A1) (A2) (B2) (A1) (B2) (A2)
                 (B1) (A1) (B2) (A1) (B2) (B1) (A2) (B1) (B2) (A1)
                 (A1) (B2) (B2) (A1) (A1) (B2) (A1)
 The electronic state is 2-B2.
 Alpha  occ. eigenvalues --  -69.04322 -69.04322 -69.02403  -6.38584  -6.38579
 Alpha  occ. eigenvalues --   -6.37134  -4.49437  -4.49429  -4.48530  -4.48528
 Alpha  occ. eigenvalues --   -4.47941  -4.47910  -4.47846  -4.47754  -4.47182
 Alpha  occ. eigenvalues --   -1.00306  -0.74498  -0.73325  -0.56398  -0.54942
 Alpha  occ. eigenvalues --   -0.51844
 Alpha virt. eigenvalues --   -0.21920  -0.16489  -0.16046  -0.09194  -0.08079
 Alpha virt. eigenvalues --   -0.07638  -0.06854  -0.06455  -0.05274  -0.04452
 Alpha virt. eigenvalues --   -0.04014  -0.03328  -0.03205  -0.02548  -0.01484
 Alpha virt. eigenvalues --   -0.00683   0.01166   0.01910   0.03412   0.04535
 Alpha virt. eigenvalues --    0.05301   0.06767   0.07555   0.09030   0.10650
 Alpha virt. eigenvalues --    0.11653   0.11939   0.12372   0.12652   0.13232
 Alpha virt. eigenvalues --    0.13261   0.14012   0.19764   0.20351   0.22050
 Alpha virt. eigenvalues --    0.22362   0.25953   0.27314   0.27820   0.29793
 Alpha virt. eigenvalues --    0.30873   0.31879   0.38329   0.39290   0.41003
 Alpha virt. eigenvalues --    0.42091   0.43252   0.44010   0.44252   0.44689
 Alpha virt. eigenvalues --    0.46772   0.49371   0.50588   0.52066   0.54717
 Alpha virt. eigenvalues --    0.55306   0.58693   0.58998   0.60497   0.61288
 Alpha virt. eigenvalues --    0.61520   0.63436   0.65835   0.66766   0.67494
 Alpha virt. eigenvalues --    0.70744   0.71295   0.71411   0.71423   0.72538
 Alpha virt. eigenvalues --    0.72660   0.73625   0.74665   0.75037   0.75926
 Alpha virt. eigenvalues --    0.80412   0.80576   0.81959   0.83505   0.84055
 Alpha virt. eigenvalues --    0.84790   0.87427   0.87667   0.90071   0.90382
 Alpha virt. eigenvalues --    1.01927   1.03502   1.10661   1.13049   1.15794
 Alpha virt. eigenvalues --    1.16173   1.21821   1.23198   1.25855   1.27859
 Alpha virt. eigenvalues --    1.28775   1.29827   1.30000   1.30604   1.32546
 Alpha virt. eigenvalues --    1.34880   1.40044   1.41110   1.43363   1.44674
 Alpha virt. eigenvalues --    1.45597   1.46414   1.48028   1.48329   1.48697
 Alpha virt. eigenvalues --    1.50011   1.50753   1.57224   1.58032   1.59086
 Alpha virt. eigenvalues --    1.60322   1.61120   1.62074   1.62515   1.64202
 Alpha virt. eigenvalues --    1.67114   1.67208   1.70016   1.70961   1.71078
 Alpha virt. eigenvalues --    1.71793   1.75036   1.77287   1.80934   1.81144
 Alpha virt. eigenvalues --    1.81367   1.81395   1.83404   1.84374   1.84614
 Alpha virt. eigenvalues --    1.88036   1.92404   1.92688   1.92808   1.95304
 Alpha virt. eigenvalues --    2.14218   2.14224   2.15944   2.17428   2.19871
 Alpha virt. eigenvalues --    2.25364   2.44563   2.48291   2.51890   2.60254
 Alpha virt. eigenvalues --    2.63183   2.73131   2.79822   2.82660   2.83214
 Alpha virt. eigenvalues --    2.91421   2.92831   2.94263   2.97100   3.00145
 Alpha virt. eigenvalues --    3.02639   3.05341   3.06427   3.08609   3.10023
 Alpha virt. eigenvalues --    3.10274   3.11568   3.11854   3.11933   3.12621
 Alpha virt. eigenvalues --    3.14708   3.15876   3.17035   3.19809   3.20662
 Alpha virt. eigenvalues --    3.21495   3.24819   3.24830   3.27217   3.27309
 Alpha virt. eigenvalues --    3.31283   3.32591   3.32823   3.33467   3.33736
 Alpha virt. eigenvalues --    3.34720   3.35071   3.37135   3.37541   3.39574
 Alpha virt. eigenvalues --    3.42269   3.42885   3.44621   3.46026   3.49501
 Alpha virt. eigenvalues --    3.55104   3.55564   3.57763   3.58076   3.60081
 Alpha virt. eigenvalues --    3.62999   3.67247   3.71092   3.71389   3.73952
 Alpha virt. eigenvalues --    3.78724   3.79594   3.81172   3.81747   3.83384
 Alpha virt. eigenvalues --    3.86262   3.88539   3.89400   3.90522   3.91109
 Alpha virt. eigenvalues --    3.93125   3.93517   3.94935   3.96499   3.99803
 Alpha virt. eigenvalues --    4.01871   4.02089   4.05223   4.05752   4.06653
 Alpha virt. eigenvalues --    4.08308   4.09484   4.20177   4.20376   4.25665
 Alpha virt. eigenvalues --    4.31417   4.34016   4.35556   4.35557   4.38382
 Alpha virt. eigenvalues --    4.40825   4.45087   4.45888   4.49577   4.56498
 Alpha virt. eigenvalues --    4.60185   4.68638   4.75918   4.80882   4.81344
 Alpha virt. eigenvalues --    4.83724   4.96194   5.36502   5.41290   5.98584
 Alpha virt. eigenvalues --    6.02387   6.03319   6.08327   6.34307   6.44445
 Alpha virt. eigenvalues --    6.45335   6.47923   6.72847   6.73929   6.74038
 Alpha virt. eigenvalues --    6.88357   7.05181   7.05619   7.19413  12.77547
 Alpha virt. eigenvalues --   13.06380  13.24794  13.36522  13.37222  13.49534
 Alpha virt. eigenvalues --   13.85907  14.77177  14.79471  38.15386  39.01349
 Alpha virt. eigenvalues --   39.91165
  Beta  occ. eigenvalues --  -69.04308 -69.04308 -69.01577  -6.38573  -6.38561
  Beta  occ. eigenvalues --   -6.36195  -4.49295  -4.49260  -4.48709  -4.48705
  Beta  occ. eigenvalues --   -4.47824  -4.47816  -4.46308  -4.45810  -4.45747
  Beta  occ. eigenvalues --   -0.96511  -0.73173  -0.63371  -0.54710  -0.51254
  Beta virt. eigenvalues --   -0.22134  -0.20935  -0.17753  -0.13426  -0.09808
  Beta virt. eigenvalues --   -0.07701  -0.07129  -0.06421  -0.05862  -0.05153
  Beta virt. eigenvalues --   -0.04060  -0.03873  -0.03374  -0.03048  -0.01915
  Beta virt. eigenvalues --   -0.00878   0.00201   0.02097   0.02240   0.04507
  Beta virt. eigenvalues --    0.05213   0.06381   0.08397   0.08553   0.09012
  Beta virt. eigenvalues --    0.10670   0.12015   0.12467   0.12816   0.12992
  Beta virt. eigenvalues --    0.14703   0.15270   0.15381   0.20138   0.21049
  Beta virt. eigenvalues --    0.23016   0.23068   0.25799   0.27811   0.29845
  Beta virt. eigenvalues --    0.31186   0.31421   0.32887   0.38801   0.38985
  Beta virt. eigenvalues --    0.40919   0.42861   0.44294   0.44444   0.44972
  Beta virt. eigenvalues --    0.45495   0.47756   0.50436   0.51181   0.53140
  Beta virt. eigenvalues --    0.54504   0.55743   0.58820   0.59330   0.60533
  Beta virt. eigenvalues --    0.61708   0.62564   0.63318   0.66658   0.67859
  Beta virt. eigenvalues --    0.68568   0.71141   0.71849   0.72265   0.72476
  Beta virt. eigenvalues --    0.72944   0.73128   0.73735   0.76014   0.76135
  Beta virt. eigenvalues --    0.76321   0.79600   0.81051   0.83590   0.84341
  Beta virt. eigenvalues --    0.84692   0.85601   0.87591   0.89365   0.90670
  Beta virt. eigenvalues --    0.92741   1.02068   1.04354   1.10258   1.13798
  Beta virt. eigenvalues --    1.16817   1.17437   1.22194   1.23632   1.24046
  Beta virt. eigenvalues --    1.29059   1.30261   1.30879   1.31098   1.31219
  Beta virt. eigenvalues --    1.34159   1.34744   1.38839   1.42392   1.43409
  Beta virt. eigenvalues --    1.45111   1.46833   1.47208   1.48065   1.48984
  Beta virt. eigenvalues --    1.49508   1.50492   1.52252   1.56325   1.57971
  Beta virt. eigenvalues --    1.59178   1.61616   1.62086   1.62732   1.63620
  Beta virt. eigenvalues --    1.64851   1.67833   1.68143   1.70988   1.71285
  Beta virt. eigenvalues --    1.71870   1.72291   1.74725   1.77860   1.81627
  Beta virt. eigenvalues --    1.81793   1.82007   1.82291   1.84011   1.84549
  Beta virt. eigenvalues --    1.84805   1.88436   1.92836   1.92879   1.93225
  Beta virt. eigenvalues --    1.96411   2.14530   2.14550   2.16649   2.17365
  Beta virt. eigenvalues --    2.20310   2.24728   2.45785   2.49793   2.51360
  Beta virt. eigenvalues --    2.61885   2.63779   2.73868   2.80652   2.83460
  Beta virt. eigenvalues --    2.83823   2.91433   2.93469   2.94472   2.97991
  Beta virt. eigenvalues --    3.00185   3.02334   3.05696   3.07910   3.09236
  Beta virt. eigenvalues --    3.09859   3.11299   3.12034   3.12148   3.13129
  Beta virt. eigenvalues --    3.13572   3.14225   3.17409   3.18008   3.19182
  Beta virt. eigenvalues --    3.20808   3.21962   3.24267   3.25264   3.27175
  Beta virt. eigenvalues --    3.27429   3.31134   3.33142   3.33470   3.33561
  Beta virt. eigenvalues --    3.34166   3.34792   3.36106   3.37189   3.37437
  Beta virt. eigenvalues --    3.39610   3.41999   3.43631   3.45089   3.46686
  Beta virt. eigenvalues --    3.50696   3.56185   3.56242   3.58258   3.59379
  Beta virt. eigenvalues --    3.60685   3.63953   3.67274   3.71283   3.72328
  Beta virt. eigenvalues --    3.74277   3.78434   3.80733   3.81898   3.81957
  Beta virt. eigenvalues --    3.83964   3.86126   3.88826   3.90082   3.91479
  Beta virt. eigenvalues --    3.92164   3.94115   3.94582   3.96069   3.97198
  Beta virt. eigenvalues --    4.00304   4.01471   4.02069   4.05573   4.06339
  Beta virt. eigenvalues --    4.07972   4.08055   4.09388   4.21090   4.21092
  Beta virt. eigenvalues --    4.25120   4.31050   4.34504   4.36009   4.36393
  Beta virt. eigenvalues --    4.38810   4.40734   4.45935   4.46548   4.50228
  Beta virt. eigenvalues --    4.57341   4.60552   4.69593   4.76209   4.81330
  Beta virt. eigenvalues --    4.82253   4.84121   4.97058   5.37398   5.42272
  Beta virt. eigenvalues --    5.98180   6.02451   6.03769   6.08816   6.34256
  Beta virt. eigenvalues --    6.44211   6.45534   6.48390   6.73161   6.74260
  Beta virt. eigenvalues --    6.74504   6.88691   7.05051   7.06248   7.20166
  Beta virt. eigenvalues --   12.77647  13.06264  13.25184  13.37436  13.38442
  Beta virt. eigenvalues --   13.48761  13.85324  14.78188  14.80524  38.15428
  Beta virt. eigenvalues --   39.01347  39.91647
          Condensed to atoms (all electrons):
              1          2          3
     1  Si  12.960337   0.279078   0.393267
     2  Si   0.279078  12.960337   0.393267
     3  Si   0.393267   0.393267  12.948100
 Mulliken atomic charges:
              1
     1  Si   0.367318
     2  Si   0.367318
     3  Si   0.265365
 Sum of Mulliken atomic charges =   1.00000
 Mulliken charges with hydrogens summed into heavy atoms:
              1
     1  Si   0.367318
     2  Si   0.367318
     3  Si   0.265365
 Sum of Mulliken charges with hydrogens summed into heavy atoms =   1.00000
          Atomic-Atomic Spin Densities.
              1          2          3
     1  Si  -0.048994  -0.144730   0.094138
     2  Si  -0.144730  -0.048994   0.094138
     3  Si   0.094138   0.094138   1.010898
 Mulliken atomic spin densities:
              1
     1  Si  -0.099587
     2  Si  -0.099587
     3  Si   1.199174
 Sum of Mulliken atomic spin densities =   1.00000
 Electronic spatial extent (au):  <R**2>=            339.1557
 Charge=              1.0000 electrons
 Dipole moment (field-independent basis, Debye):
    X=              0.0000    Y=              0.0000    Z=             -0.0050  Tot=              0.0050
 Quadrupole moment (field-independent basis, Debye-Ang):
   XX=            -35.4210   YY=            -25.7170   ZZ=            -27.5988
   XY=              0.0000   XZ=              0.0000   YZ=              0.0000
 Traceless Quadrupole moment (field-independent basis, Debye-Ang):
   XX=             -5.8420   YY=              3.8619   ZZ=              1.9801
   XY=              0.0000   XZ=              0.0000   YZ=              0.0000
 Octapole moment (field-independent basis, Debye-Ang**2):
  XXX=              0.0000  YYY=              0.0000  ZZZ=              6.8072  XYY=              0.0000
  XXY=              0.0000  XXZ=             -0.7281  XZZ=              0.0000  YZZ=              0.0000
  YYZ=             -4.5201  XYZ=              0.0000
 Hexadecapole moment (field-independent basis, Debye-Ang**3):
 XXXX=            -62.5423 YYYY=           -248.6268 ZZZZ=           -197.1216 XXXY=              0.0000
 XXXZ=              0.0000 YYYX=              0.0000 YYYZ=              0.0000 ZZZX=              0.0000
 ZZZY=              0.0000 XXYY=            -51.6763 XXZZ=            -43.3677 YYZZ=            -76.9157
 XXYZ=              0.0000 YYXZ=              0.0000 ZZXY=              0.0000
 N-N= 1.336814810802D+02 E-N=-3.482133159305D+03  KE= 1.298970245908D+03
 Symmetry A1   KE= 7.546738408736D+02
 Symmetry A2   KE= 3.658465134085D+01
 Symmetry B1   KE= 7.563942022442D+01
 Symmetry B2   KE= 4.320723334692D+02
                          Isotropic Fermi Contact Couplings
        Atom                 a.u.       MegaHertz       Gauss      10(-4) cm-1
     1  Si(29)             0.00047      -0.42121      -0.15030      -0.14050
     2  Si(29)             0.00047      -0.42121      -0.15030      -0.14050
     3  Si(29)             0.07084     -62.95349     -22.46337     -20.99902
 --------------------------------------------------------
       Center         ----  Spin Dipole Couplings  ----
                      3XX-RR        3YY-RR        3ZZ-RR
 --------------------------------------------------------
     1   Atom       -0.251693     -1.243045      1.494738
     2   Atom       -0.251693     -1.243045      1.494738
     3   Atom       -0.891463      0.347443      0.544020
 --------------------------------------------------------
                        XY            XZ            YZ
 --------------------------------------------------------
     1   Atom        0.000000      0.000000     -1.103431
     2   Atom        0.000000      0.000000      1.103431
     3   Atom        0.000000      0.000000      0.000000
 --------------------------------------------------------


 ---------------------------------------------------------------------------------
              Anisotropic Spin Dipole Couplings in Principal Axis System
 ---------------------------------------------------------------------------------

       Atom             a.u.   MegaHertz   Gauss  10(-4) cm-1        Axes

              Baa    -1.6324   173.171    61.792    57.764  0.0000  0.9430  0.3327
     1 Si(29) Bbb    -0.2517    26.701     9.527     8.906  1.0000  0.0000  0.0000
              Bcc     1.8841  -199.872   -71.319   -66.670  0.0000 -0.3327  0.9430
 
              Baa    -1.6324   173.171    61.792    57.764  0.0000  0.9430 -0.3327
     2 Si(29) Bbb    -0.2517    26.701     9.527     8.906  1.0000  0.0000  0.0000
              Bcc     1.8841  -199.872   -71.319   -66.670  0.0000  0.3327  0.9430
 
              Baa    -0.8915    94.570    33.745    31.545  1.0000  0.0000  0.0000
     3 Si(29) Bbb     0.3474   -36.858   -13.152   -12.295  0.0000  1.0000  0.0000
              Bcc     0.5440   -57.712   -20.593   -19.251  0.0000  0.0000  1.0000
 

 ---------------------------------------------------------------------------------

 1\1\GINC-NODE41\SP\UHF\GFHFB2\Si3(1+,2)\TAM\04-Jan-2012\0\\#N Geom=All
 Check Guess=TCheck SCRF=Check HF/GFHFB2 SCF=Tight\\s3-c\\1,2\Si,0,0.,1
 .2562577362,-0.6201921652\Si,0,0.,-1.2562577362,-0.6201921652\Si,0,0.,
 0.,1.2403843304\\Version=AM64L-G09RevA.02\State=2-B2\HF=-866.4608062\S
 2=1.736395\S2-1=0.\S2A=1.221692\RMSD=6.433e-09\Dipole=0.,0.,-0.0019693
 \Quadrupole=-4.3434198,2.8712617,1.4721581,0.,0.,0.\PG=C02V [C2(Si1),S
 GV(Si2)]\\@


 MAN IS A SINGULAR CREATURE.  HE HAS A SET OF GIFTS
 WHICH MAKE HIM UNIQUE AMONG THE ANIMALS: SO THAT, 
 UNLIKE THEM, HE IS NOT A FIGURE IN THE LANDSCAPE --
 HE IS A SHAPER OF THE LANDSCAPE.

                       -- JACOB BRONOWSKI
 Diagonal vibrational polarizability:
        0.0000000       0.0000000       0.0000000

 Temperature=              298.150000 Pressure=                      1.000000
 E(ZPE)=                     0.002091 E(Thermal)=                    0.006217
 E(CCSD(T))=              -866.612924 E(Empiric)=                   -0.038081
 DE(Plus)=                  -0.003430 DE(2DF)=                      -0.070507
 E(Delta-G3XP)=             -0.938193 DE(HF)=                       -0.021168
 G4(0 K)=                 -867.682213 G4 Energy=                  -867.678087
 G4 Enthalpy=             -867.677143 G4 Free Energy=             -867.709918
 1\1\GINC-NODE41\Mixed\G4\G4\Si3(1+,2)\TAM\04-Jan-2012\0\\# G4 scfcyc=5
 00 scf=xqc\\s3-c\\1,2\Si,0,0.,1.2562577362,-0.6201921652\Si,0,0.,-1.25
 62577362,-0.6201921652\Si,0,0.,0.,1.2403843304\\Version=AM64L-G09RevA.
 02\State=2-B2\MP2/GTBas1=-866.5548374\MP4/GTBas1=-866.6020551\CCSD(T)/
 G3Bas1=-866.6129236\MP2/GTBas2=-866.5579917\MP4/GTBas2=-866.6054853\MP
 2/GTBas3=-866.6199557\MP4/GTBas3=-866.6725625\HF/GTLargeXP=-866.440248
 5\MP2/GTLargeXP=-867.5613034\HF/GFHFB1=-866.4582998\HF/GFHFB2=-866.460
 8062\G4=-867.6822134\FreqCoord=0.,2.3739830738,-1.171993342,0.,-2.3739
 830738,-1.171993342,0.,0.,2.3439866839\PG=C02V [C2(Si1),SGV(Si2)]\NIma
 g=0\\-0.00003856,0.,0.05746283,0.,-0.03621920,0.04454083,-0.00001292,0
 .,0.,-0.00003856,0.,-0.04297611,0.01477632,0.,0.05746283,0.,-0.0147763
 2,0.01294511,0.,0.03621920,0.04454083,0.00005148,0.,0.,0.00005148,0.,0
 .,-0.00010296,0.,-0.01448672,0.02144288,0.,-0.01448672,-0.02144288,0.,
 0.02897343,0.,0.05099552,-0.05748594,0.,-0.05099553,-0.05748594,0.,0.,
 0.11497188\\0.,0.00006239,-0.00004383,0.,-0.00006239,-0.00004383,0.,0.
 ,0.00008766\\\@
 Job cpu time:  0 days  0 hours 34 minutes  6.3 seconds.
 File lengths (MBytes):  RWF=     86 Int=      0 D2E=      0 Chk=     13 Scr=      1
 Normal termination of Gaussian 09 at Wed Jan  4 10:31:41 2012.
