#INFO: **** input file is /home/ltkoanh/Al_B2LYP_6311_Gd_Cluster/Cluster/Al12-neutral-singlet/input.py ****
import numpy
from pyscf import gto, scf, dft, mp, cc
from pyscf.mp import uobmp2_mom_conv, dfuobmp2_mom_conv, uhf_mom
from pyscf.mp import  mp2, ump2
from pyscf.tools import molden
import os
from functools import reduce


mol = gto.Mole()
geom = os.environ.get('geom_txt')
mol.atom = geom
mol.basis = os.environ.get('basis', 'cc-pvdz')
mol.unit = 'A'
mol.charge = int(os.environ.get('charge', 0))
mol.spin = int(os.environ.get('spin', 0))
mol.verbose = 4
mol.build()

#################### Ground state using density fitting
### Hartree-Fock
a  = scf.UHF(mol).density_fit()
a.kernel()

### Ground state OBMP2 calculation
ob = dfuobmp2_mom_conv.DFUOBMP2(a)
ob.second_order = True
ob.thresh = 10e-6
ob.css = 1
ob.cos = 1
e_obmp2g = ob.kernel()

### Ground state O2BMP2 calculation
ob = dfuobmp2_mom_conv.DFUOBMP2(a)
ob.second_order = True
ob.thresh = 10e-6
ob.css = 0                             
ob.cos = 1.2                             
e_o2bmp2g = ob.kernel()  

#################### Ground state NOT using density fitting
### Hartree-Fock
a  = scf.UHF(mol)
a.kernel()

### Ground state OBMP2 calculation
ob = uobmp2_mom_conv.UOBMP2(a)
ob.second_order = True
ob.thresh = 10e-6
ob.css = 1
ob.cos = 1
#e_obmp2g = ob.kernel()

### Ground state O2BMP2 calculation
ob = uobmp2_mom_conv.UOBMP2(a)
ob.second_order = True
ob.thresh = 10e-6
ob.css = 0
ob.cos = 1.2   ## the cos can be vary ...                        	 
#e_o2bmp2g = ob.kernel()


## Results from density-fitting approximate with non-using density fitting 
## check results between df and non-df with small molecules before running the important molecules
#INFO: ******************** input file end ********************


System: uname_result(system='Linux', node='comphys', release='3.10.0-1160.119.1.el7.x86_64', version='#1 SMP Tue Jun 4 14:43:51 UTC 2024', machine='x86_64', processor='x86_64')  Threads 8
Python 3.7.9 (default, Dec  4 2023, 13:00:18) 
[GCC 4.8.5 20150623 (Red Hat 4.8.5-44)]
numpy 1.21.6  scipy 1.7.3
Date: Tue May 27 18:02:35 2025
PySCF version 1.7.0
PySCF path  /share/installs/pyscf/pyscf
GIT HEAD      ref: refs/heads/ob-mp2
GIT ob-mp2 branch  f0fc63383ab6c719c0c91f5e07a6895c637b700d

[CONFIG] conf_file None
[INPUT] verbose = 4
[INPUT] num. atoms = 12
[INPUT] num. electrons = 156
[INPUT] charge = 0
[INPUT] spin (= nelec alpha-beta = 2S) = 0
[INPUT] symmetry False subgroup None
[INPUT] Mole.unit = A
[INPUT]  1 Al     1.709092000000   0.778911000000   2.237397000000 AA    3.229715801685   1.471928465411   4.228067561923 Bohr
[INPUT]  2 Al     2.907028000000   0.069936000000   0.000000000000 AA    5.493486756442   0.132159886248   0.000000000000 Bohr
[INPUT]  3 Al    -0.109441000000  -1.238859000000   2.156306000000 AA   -0.206813516799  -2.341104216953   4.074827780756 Bohr
[INPUT]  4 Al    -2.378381000000   0.218961000000   1.328882000000 AA   -4.494488709869   0.413776321961   2.511223031864 Bohr
[INPUT]  5 Al     1.709092000000   0.778911000000  -2.237397000000 AA    3.229715801685   1.471928465411  -4.228067561923 Bohr
[INPUT]  6 Al     1.290704000000  -1.847750000000   0.000000000000 AA    2.439077067881  -3.491741446665   0.000000000000 Bohr
[INPUT]  7 Al    -1.359610000000  -1.846563000000   0.000000000000 AA   -2.569290536220  -3.489498341755   0.000000000000 Bohr
[INPUT]  8 Al    -0.109441000000  -1.238859000000  -2.156306000000 AA   -0.206813516799  -2.341104216953  -4.074827780756 Bohr
[INPUT]  9 Al    -0.665040000000   1.696405000000   2.587359000000 AA   -1.256743461881   3.205740846343   4.889399895929 Bohr
[INPUT] 10 Al    -0.665040000000   1.696405000000  -2.587359000000 AA   -1.256743461881   3.205740846343  -4.889399895929 Bohr
[INPUT] 11 Al    -2.378381000000   0.218961000000  -1.328882000000 AA   -4.494488709869   0.413776321961  -2.511223031864 Bohr
[INPUT] 12 Al     0.049417000000   0.713541000000   0.000000000000 AA    0.093384595898   1.348397068648   0.000000000000 Bohr

nuclear repulsion = 1703.39056176679
number of shells = 60
number of NR pGTOs = 648
number of NR cGTOs = 108
basis = sto-6g
ecp = {}
CPU time:         1.54


******** <class 'pyscf.df.df_jk.density_fit.<locals>.DFHF'> ********
method = DFHF-UHF
initial guess = minao
damping factor = 0
level_shift factor = 0
DIIS = <class 'pyscf.scf.diis.CDIIS'>
diis_start_cycle = 1
diis_space = 8
SCF conv_tol = 1e-09
SCF conv_tol_grad = None
SCF max_cycles = 50
direct_scf = True
direct_scf_tol = 1e-13
chkfile to save SCF result = /home/ltkoanh/Al_B2LYP_6311_Gd_Cluster/Cluster/Al12-neutral-singlet/tmpo0l5rabc
max_memory 4000 MB (current use 60 MB)
number electrons alpha = 78  beta = 78
Set gradient conv threshold to 3.16228e-05
******** <class 'pyscf.df.df.DF'> ********
auxbasis = None
max_memory = 4000
_cderi_to_save = /home/ltkoanh/Al_B2LYP_6311_Gd_Cluster/Cluster/Al12-neutral-singlet/tmpl5omoyge
Even tempered Gaussians are generated as DF auxbasis for  Al
init E= -2889.11301882268
  alpha nocc = 78  HOMO = -0.720290623279872  LUMO = -0.634778127002461
  beta  nocc = 78  HOMO = -0.679235631333297  LUMO = -0.616464249538648
cycle= 1 E= -2889.93944403952  delta_E= -0.826  |g|= 0.998  |ddm|= 4.06
  alpha nocc = 78  HOMO = 0.256117834510312  LUMO = 0.300281398794636
  beta  nocc = 78  HOMO = 0.260619366166067  LUMO = 0.306157808598951
cycle= 2 E= -2889.79612617699  delta_E= 0.143  |g|= 1.09  |ddm|=  3.7
  alpha nocc = 78  HOMO = 0.114559603964599  LUMO = 0.210191730892499
  beta  nocc = 78  HOMO = 0.110713675356635  LUMO = 0.2151578791466
cycle= 3 E= -2890.85747217857  delta_E= -1.06  |g|= 0.255  |ddm|= 2.14
  alpha nocc = 78  HOMO = 0.0664243393948451  LUMO = 0.210471304013801
  beta  nocc = 78  HOMO = 0.060557038395433  LUMO = 0.214957142361476
cycle= 4 E= -2890.90519953517  delta_E= -0.0477  |g|= 0.133  |ddm|= 0.673
  alpha nocc = 78  HOMO = 0.045731823875268  LUMO = 0.21212054528611
  beta  nocc = 78  HOMO = 0.0390593762043854  LUMO = 0.21247769965794
cycle= 5 E= -2890.92314989503  delta_E= -0.018  |g|= 0.0427  |ddm|= 0.282
  alpha nocc = 78  HOMO = 0.0452992237498892  LUMO = 0.213697268467106
  beta  nocc = 78  HOMO = 0.0377274629648832  LUMO = 0.215014433302378
cycle= 6 E= -2890.92559660376  delta_E= -0.00245  |g|= 0.0194  |ddm|= 0.101
  alpha nocc = 78  HOMO = 0.0447713001887301  LUMO = 0.212843364288253
  beta  nocc = 78  HOMO = 0.0355504765327827  LUMO = 0.213608771097396
cycle= 7 E= -2890.92805581456  delta_E= -0.00246  |g|= 0.0147  |ddm|= 0.145
  alpha nocc = 78  HOMO = 0.0445349650572495  LUMO = 0.21364293589892
  beta  nocc = 78  HOMO = 0.0340459094027361  LUMO = 0.214122453589678
cycle= 8 E= -2890.92959891905  delta_E= -0.00154  |g|= 0.0156  |ddm|= 0.0941
  alpha nocc = 78  HOMO = 0.0446776268226772  LUMO = 0.213186205951187
  beta  nocc = 78  HOMO = 0.0348055041318993  LUMO = 0.213852415506099
cycle= 9 E= -2890.92877520748  delta_E= 0.000824  |g|= 0.0148  |ddm|= 0.0507
  alpha nocc = 78  HOMO = 0.040912838672446  LUMO = 0.214660374880534
  beta  nocc = 78  HOMO = 0.0359647498718433  LUMO = 0.215108057339887
cycle= 10 E= -2890.92606819403  delta_E= 0.00271  |g|= 0.00878  |ddm|= 0.31
  alpha nocc = 78  HOMO = 0.0418572260505602  LUMO = 0.211648495651472
  beta  nocc = 78  HOMO = 0.0383501638359558  LUMO = 0.211264623355804
cycle= 11 E= -2890.92628981154  delta_E= -0.000222  |g|= 0.00609  |ddm|= 0.0661
  alpha nocc = 78  HOMO = 0.0433743840747023  LUMO = 0.210452948271456
  beta  nocc = 78  HOMO = 0.0407195950548652  LUMO = 0.209311859051674
cycle= 12 E= -2890.92652570345  delta_E= -0.000236  |g|= 0.00344  |ddm|= 0.0701
  alpha nocc = 78  HOMO = 0.0413221116970519  LUMO = 0.211869426501565
  beta  nocc = 78  HOMO = 0.0390348447536706  LUMO = 0.210545631908188
cycle= 13 E= -2890.92657266932  delta_E= -4.7e-05  |g|= 0.00268  |ddm|= 0.0422
  alpha nocc = 78  HOMO = 0.0411779360888613  LUMO = 0.21179581490547
  beta  nocc = 78  HOMO = 0.0386327289818012  LUMO = 0.210587458777336
cycle= 14 E= -2890.92663575893  delta_E= -6.31e-05  |g|= 0.00213  |ddm|= 0.0297
  alpha nocc = 78  HOMO = 0.041678939430036  LUMO = 0.211302045671672
  beta  nocc = 78  HOMO = 0.0387566710192858  LUMO = 0.210193930443549
cycle= 15 E= -2890.9266983902  delta_E= -6.26e-05  |g|= 0.00218  |ddm|= 0.0314
  alpha nocc = 78  HOMO = 0.0415710693943885  LUMO = 0.211439906157554
  beta  nocc = 78  HOMO = 0.0386818918174811  LUMO = 0.210226062222249
cycle= 16 E= -2890.92672135953  delta_E= -2.3e-05  |g|= 0.00204  |ddm|= 0.0109
  alpha nocc = 78  HOMO = 0.0414105063703598  LUMO = 0.21155328058693
  beta  nocc = 78  HOMO = 0.0386393869540192  LUMO = 0.21032155829081
cycle= 17 E= -2890.92671450602  delta_E= 6.85e-06  |g|= 0.00197  |ddm|= 0.00562
  alpha nocc = 78  HOMO = 0.0412424558910918  LUMO = 0.211728630595812
  beta  nocc = 78  HOMO = 0.0387090335657502  LUMO = 0.210373423066117
cycle= 18 E= -2890.9267149902  delta_E= -4.84e-07  |g|= 0.00196  |ddm|= 0.00681
  alpha nocc = 78  HOMO = 0.0412153434471251  LUMO = 0.211755785318099
  beta  nocc = 78  HOMO = 0.0387346551084724  LUMO = 0.21036442354123
cycle= 19 E= -2890.9267127502  delta_E= 2.24e-06  |g|= 0.00195  |ddm|= 0.00172
  alpha nocc = 78  HOMO = 0.0412297783909021  LUMO = 0.211740194502086
  beta  nocc = 78  HOMO = 0.0387026801959922  LUMO = 0.210353704110686
cycle= 20 E= -2890.92671862586  delta_E= -5.88e-06  |g|= 0.00198  |ddm|= 0.00275
  alpha nocc = 78  HOMO = 0.0412296478655129  LUMO = 0.211657997919277
  beta  nocc = 78  HOMO = 0.038685787472473  LUMO = 0.210409327864547
cycle= 21 E= -2890.92669486426  delta_E= 2.38e-05  |g|= 0.0019  |ddm|= 0.0131
  alpha nocc = 78  HOMO = 0.0411496912447576  LUMO = 0.211633076565888
  beta  nocc = 78  HOMO = 0.0387080963782033  LUMO = 0.21052682388699
cycle= 22 E= -2890.92666941596  delta_E= 2.54e-05  |g|= 0.00161  |ddm|= 0.0205
  alpha nocc = 78  HOMO = 0.0409552958301874  LUMO = 0.211499787026107
  beta  nocc = 78  HOMO = 0.0389348888698097  LUMO = 0.210615392403461
cycle= 23 E= -2890.92664976735  delta_E= 1.96e-05  |g|= 0.00131  |ddm|= 0.0355
  alpha nocc = 78  HOMO = 0.0407935554735911  LUMO = 0.211467025459519
  beta  nocc = 78  HOMO = 0.0389470852846507  LUMO = 0.210646022392249
cycle= 24 E= -2890.92666475561  delta_E= -1.5e-05  |g|= 0.000935  |ddm|= 0.0251
  alpha nocc = 78  HOMO = 0.0406774496872371  LUMO = 0.211457863090143
  beta  nocc = 78  HOMO = 0.0389441454121596  LUMO = 0.210687660756917
cycle= 25 E= -2890.9266787188  delta_E= -1.4e-05  |g|= 0.000726  |ddm|= 0.0204
  alpha nocc = 78  HOMO = 0.0406515889331323  LUMO = 0.21140159318757
  beta  nocc = 78  HOMO = 0.0388744927719753  LUMO = 0.210714620028996
cycle= 26 E= -2890.92668604186  delta_E= -7.32e-06  |g|= 0.000669  |ddm|= 0.0118
  alpha nocc = 78  HOMO = 0.0406557979350159  LUMO = 0.211432248212432
  beta  nocc = 78  HOMO = 0.0388464535456716  LUMO = 0.210725087967766
cycle= 27 E= -2890.92668875169  delta_E= -2.71e-06  |g|= 0.000633  |ddm|= 0.0052
  alpha nocc = 78  HOMO = 0.0406900089768508  LUMO = 0.211429971304831
  beta  nocc = 78  HOMO = 0.0387822021027804  LUMO = 0.210726129409454
cycle= 28 E= -2890.92669421986  delta_E= -5.47e-06  |g|= 0.000589  |ddm|= 0.00954
  alpha nocc = 78  HOMO = 0.0407141906430677  LUMO = 0.211439028842582
  beta  nocc = 78  HOMO = 0.0387242936160897  LUMO = 0.210722455526712
cycle= 29 E= -2890.92669740969  delta_E= -3.19e-06  |g|= 0.000575  |ddm|= 0.00597
  alpha nocc = 78  HOMO = 0.0407181103952361  LUMO = 0.211460399877734
  beta  nocc = 78  HOMO = 0.0387147743104266  LUMO = 0.210703018284513
cycle= 30 E= -2890.92669904286  delta_E= -1.63e-06  |g|= 0.000583  |ddm|= 0.00279
  alpha nocc = 78  HOMO = 0.0406924878557712  LUMO = 0.211430958794193
  beta  nocc = 78  HOMO = 0.0387385083240336  LUMO = 0.210744826204116
cycle= 31 E= -2890.9266961669  delta_E= 2.88e-06  |g|= 0.000563  |ddm|= 0.00559
  alpha nocc = 78  HOMO = 0.0406444218475994  LUMO = 0.211383042869307
  beta  nocc = 78  HOMO = 0.0387676595262524  LUMO = 0.210775140882288
cycle= 32 E= -2890.92669277508  delta_E= 3.39e-06  |g|= 0.00056  |ddm|= 0.00665
  alpha nocc = 78  HOMO = 0.0405867033319265  LUMO = 0.211350595567754
  beta  nocc = 78  HOMO = 0.0388225922950324  LUMO = 0.210808897662753
cycle= 33 E= -2890.92669067035  delta_E= 2.1e-06  |g|= 0.000552  |ddm|= 0.00684
  alpha nocc = 78  HOMO = 0.0405555992043047  LUMO = 0.211341206905241
  beta  nocc = 78  HOMO = 0.0388314983371748  LUMO = 0.210826585085199
cycle= 34 E= -2890.92669061209  delta_E= 5.83e-08  |g|= 0.00055  |ddm|= 0.00307
  alpha nocc = 78  HOMO = 0.0405875573620297  LUMO = 0.21135441717316
  beta  nocc = 78  HOMO = 0.0388390510974719  LUMO = 0.210815921829022
cycle= 35 E= -2890.92668977293  delta_E= 8.39e-07  |g|= 0.000543  |ddm|= 0.00315
  alpha nocc = 78  HOMO = 0.0405702175067481  LUMO = 0.211343554121063
  beta  nocc = 78  HOMO = 0.0388498413161718  LUMO = 0.210810378492506
cycle= 36 E= -2890.92668872924  delta_E= 1.04e-06  |g|= 0.000538  |ddm|= 0.00225
  alpha nocc = 78  HOMO = 0.0405742133905407  LUMO = 0.211344425334799
  beta  nocc = 78  HOMO = 0.038839275444717  LUMO = 0.210805420899231
cycle= 37 E= -2890.92668910738  delta_E= -3.78e-07  |g|= 0.000539  |ddm|= 0.00113
  alpha nocc = 78  HOMO = 0.040562662677278  LUMO = 0.211341189052513
  beta  nocc = 78  HOMO = 0.0388386518212075  LUMO = 0.21080928217718
cycle= 38 E= -2890.92668884822  delta_E= 2.59e-07  |g|= 0.000541  |ddm|= 0.000665
  alpha nocc = 78  HOMO = 0.0405603993345891  LUMO = 0.211338031399024
  beta  nocc = 78  HOMO = 0.0388460773306734  LUMO = 0.210812739039675
cycle= 39 E= -2890.92668843472  delta_E= 4.13e-07  |g|= 0.000541  |ddm|= 0.00081
  alpha nocc = 78  HOMO = 0.0405761109780232  LUMO = 0.211353156603583
  beta  nocc = 78  HOMO = 0.0388298511580623  LUMO = 0.210793373306216
cycle= 40 E= -2890.92668950725  delta_E= -1.07e-06  |g|= 0.000541  |ddm|= 0.00278
  alpha nocc = 78  HOMO = 0.040567000519654  LUMO = 0.211344050115384
  beta  nocc = 78  HOMO = 0.0388367632352687  LUMO = 0.210800094458795
cycle= 41 E= -2890.9266888647  delta_E= 6.43e-07  |g|= 0.000541  |ddm|= 0.0014
  alpha nocc = 78  HOMO = 0.0405662568901832  LUMO = 0.211335130078527
  beta  nocc = 78  HOMO = 0.0388353910447334  LUMO = 0.210815207436801
cycle= 42 E= -2890.92668836175  delta_E= 5.03e-07  |g|= 0.000532  |ddm|= 0.00237
  alpha nocc = 78  HOMO = 0.0405640595495142  LUMO = 0.211335542785506
  beta  nocc = 78  HOMO = 0.0388050055505692  LUMO = 0.210841393180774
cycle= 43 E= -2890.92668923869  delta_E= -8.77e-07  |g|= 0.000523  |ddm|= 0.00548
  alpha nocc = 78  HOMO = 0.0405716696596949  LUMO = 0.211333999243397
  beta  nocc = 78  HOMO = 0.038782420350003  LUMO = 0.210837378874792
cycle= 44 E= -2890.92668932531  delta_E= -8.66e-08  |g|= 0.000515  |ddm|= 0.00169
  alpha nocc = 78  HOMO = 0.0405813699539896  LUMO = 0.211342009361803
  beta  nocc = 78  HOMO = 0.0387751441445008  LUMO = 0.210842288414417
cycle= 45 E= -2890.92668990176  delta_E= -5.76e-07  |g|= 0.000517  |ddm|= 0.0014
  alpha nocc = 78  HOMO = 0.0405956530259699  LUMO = 0.211344943860201
  beta  nocc = 78  HOMO = 0.0387621498854106  LUMO = 0.210837454093776
cycle= 46 E= -2890.92669058189  delta_E= -6.8e-07  |g|= 0.000519  |ddm|= 0.00153
  alpha nocc = 78  HOMO = 0.0405691247037581  LUMO = 0.211337622895379
  beta  nocc = 78  HOMO = 0.0387876266670584  LUMO = 0.210850710507838
cycle= 47 E= -2890.92668917791  delta_E= 1.4e-06  |g|= 0.000512  |ddm|= 0.00306
  alpha nocc = 78  HOMO = 0.0405155558425439  LUMO = 0.211314225883684
  beta  nocc = 78  HOMO = 0.0388074854911064  LUMO = 0.210877170453557
cycle= 48 E= -2890.92668699738  delta_E= 2.18e-06  |g|= 0.0005  |ddm|= 0.00485
  alpha nocc = 78  HOMO = 0.0404307079128302  LUMO = 0.211262624100138
  beta  nocc = 78  HOMO = 0.0388937082366246  LUMO = 0.210940930953822
cycle= 49 E= -2890.9266828977  delta_E= 4.1e-06  |g|= 0.000481  |ddm|= 0.0108
  alpha nocc = 78  HOMO = 0.0404385579671352  LUMO = 0.211263944296395
  beta  nocc = 78  HOMO = 0.0388871378888741  LUMO = 0.210957821534047
cycle= 50 E= -2890.92668279889  delta_E= 9.88e-08  |g|= 0.000472  |ddm|= 0.0019
SCF not converged.
SCF energy = -2890.92668279889 after 50 cycles  <S^2> = 0.010836795  2S+1 = 1.0214437
shift = 0
thresh = 1e-05 
eri1 (1356, 5886)
eri1 (1356, 5886)
    CPU time for making amplitude: integral transform      1.21 sec, wall time      0.08 sec
shape (1356, 3240)
1st memory: 519.1 MiB
eri1 (1356, 5886)
eri1 (1356, 5886)
2nd memory: 402.5 MiB

========================
iter = 0  energy = -2891.706611 energy diff = 2891.706611
multiplicity <S^2> : Reference = 0.010836795 Response = 0.010837003 Projector = 0.010837211
eri1 (1356, 5886)
eri1 (1356, 5886)
    CPU time for making amplitude: integral transform      1.03 sec, wall time      0.07 sec
shape (1356, 3240)
1st memory: 509.5 MiB
eri1 (1356, 5886)
eri1 (1356, 5886)
2nd memory: 385.7 MiB

========================
iter = 1  energy = -2891.710231 energy diff = 0.003620
multiplicity <S^2> : Reference = 0.0074221944 Response = 0.0074215445 Projector = 0.0074208946
eri1 (1356, 5886)
eri1 (1356, 5886)
    CPU time for making amplitude: integral transform      1.22 sec, wall time      0.08 sec
shape (1356, 3240)
1st memory: 513.9 MiB
eri1 (1356, 5886)
eri1 (1356, 5886)
2nd memory: 386.5 MiB

========================
iter = 2  energy = -2891.717173 energy diff = 0.006942
multiplicity <S^2> : Reference = 0.0055797815 Response = 0.0055791871 Projector = 0.0055785927
eri1 (1356, 5886)
eri1 (1356, 5886)
    CPU time for making amplitude: integral transform      0.85 sec, wall time      0.06 sec
shape (1356, 3240)
1st memory: 511.1 MiB
eri1 (1356, 5886)
eri1 (1356, 5886)
2nd memory: 386.5 MiB

========================
iter = 3  energy = -2891.720920 energy diff = 0.003748
multiplicity <S^2> : Reference = 0.0038652998 Response = 0.0038653936 Projector = 0.0038654874
eri1 (1356, 5886)
eri1 (1356, 5886)
    CPU time for making amplitude: integral transform      1.18 sec, wall time      0.08 sec
shape (1356, 3240)
1st memory: 513.9 MiB
eri1 (1356, 5886)
eri1 (1356, 5886)
2nd memory: 386.1 MiB

========================
iter = 4  energy = -2891.723188 energy diff = 0.002267
multiplicity <S^2> : Reference = 0.0019918446 Response = 0.0019919572 Projector = 0.0019920697
eri1 (1356, 5886)
eri1 (1356, 5886)
    CPU time for making amplitude: integral transform      1.10 sec, wall time      0.07 sec
shape (1356, 3240)
1st memory: 547.9 MiB
eri1 (1356, 5886)
eri1 (1356, 5886)
2nd memory: 421.6 MiB

========================
iter = 5  energy = -2891.723638 energy diff = 0.000450
multiplicity <S^2> : Reference = 0.0013216137 Response = 0.0013214897 Projector = 0.0013213656
eri1 (1356, 5886)
eri1 (1356, 5886)
    CPU time for making amplitude: integral transform      0.97 sec, wall time      0.06 sec
shape (1356, 3240)
1st memory: 573.9 MiB
eri1 (1356, 5886)
eri1 (1356, 5886)
2nd memory: 420.2 MiB

========================
iter = 6  energy = -2891.723793 energy diff = 0.000156
multiplicity <S^2> : Reference = 0.00082410301 Response = 0.00082405094 Projector = 0.00082399886
eri1 (1356, 5886)
eri1 (1356, 5886)
    CPU time for making amplitude: integral transform      1.14 sec, wall time      0.08 sec
shape (1356, 3240)
1st memory: 539.6 MiB
eri1 (1356, 5886)
eri1 (1356, 5886)
2nd memory: 420.4 MiB

========================
iter = 7  energy = -2891.723858 energy diff = 0.000065
multiplicity <S^2> : Reference = 0.00048890564 Response = 0.00048886079 Projector = 0.00048881595
eri1 (1356, 5886)
eri1 (1356, 5886)
    CPU time for making amplitude: integral transform      0.96 sec, wall time      0.06 sec
shape (1356, 3240)
1st memory: 549.8 MiB
eri1 (1356, 5886)
eri1 (1356, 5886)
2nd memory: 420.6 MiB

========================
iter = 8  energy = -2891.723892 energy diff = 0.000034
multiplicity <S^2> : Reference = 0.00024330724 Response = 0.00024329865 Projector = 0.00024329007
eri1 (1356, 5886)
eri1 (1356, 5886)
    CPU time for making amplitude: integral transform      0.95 sec, wall time      0.06 sec
shape (1356, 3240)
1st memory: 549.7 MiB
eri1 (1356, 5886)
eri1 (1356, 5886)
2nd memory: 420.4 MiB

========================
iter = 9  energy = -2891.723921 energy diff = 0.000029
multiplicity <S^2> : Reference = 9.9342716e-05 Response = 9.9341092e-05 Projector = 9.9339468e-05
eri1 (1356, 5886)
eri1 (1356, 5886)
    CPU time for making amplitude: integral transform      0.87 sec, wall time      0.06 sec
shape (1356, 3240)
1st memory: 551.0 MiB
eri1 (1356, 5886)
eri1 (1356, 5886)
2nd memory: 421.1 MiB

========================
iter = 10  energy = -2891.723926 energy diff = 0.000005
multiplicity <S^2> : Reference = 3.9068704e-05 Response = 3.9063429e-05 Projector = 3.9058154e-05

UOB-MP2 has converged
UOB-MP2 energy =  -2891.723926320442
shift = 0
thresh = 1e-05 
eri1 (1356, 5886)
eri1 (1356, 5886)
    CPU time for making amplitude: integral transform      0.91 sec, wall time      0.06 sec
shape (1356, 3240)
1st memory: 508.9 MiB
eri1 (1356, 5886)
eri1 (1356, 5886)
2nd memory: 383.4 MiB

========================
iter = 0  energy = -2891.444474 energy diff = 2891.444474
multiplicity <S^2> : Reference = 0.010836795 Response = 0.010837003 Projector = 0.010837211
eri1 (1356, 5886)
eri1 (1356, 5886)
    CPU time for making amplitude: integral transform      1.39 sec, wall time      0.10 sec
shape (1356, 3240)
1st memory: 513.0 MiB
eri1 (1356, 5886)
eri1 (1356, 5886)
2nd memory: 385.4 MiB

========================
iter = 1  energy = -2891.472142 energy diff = 0.027668
multiplicity <S^2> : Reference = 0.0076249632 Response = 0.0076243589 Projector = 0.0076237545
eri1 (1356, 5886)
eri1 (1356, 5886)
    CPU time for making amplitude: integral transform      0.98 sec, wall time      0.07 sec
shape (1356, 3240)
1st memory: 511.1 MiB
eri1 (1356, 5886)
eri1 (1356, 5886)
2nd memory: 385.5 MiB

========================
iter = 2  energy = -2891.475842 energy diff = 0.003700
multiplicity <S^2> : Reference = 0.0057330933 Response = 0.0057338685 Projector = 0.0057346436
eri1 (1356, 5886)
eri1 (1356, 5886)
    CPU time for making amplitude: integral transform      1.10 sec, wall time      0.07 sec
shape (1356, 3240)
1st memory: 513.2 MiB
eri1 (1356, 5886)
eri1 (1356, 5886)
2nd memory: 385.9 MiB

========================
iter = 3  energy = -2891.477500 energy diff = 0.001658
multiplicity <S^2> : Reference = 0.0040728053 Response = 0.004072641 Projector = 0.0040724767
eri1 (1356, 5886)
eri1 (1356, 5886)
    CPU time for making amplitude: integral transform      1.03 sec, wall time      0.07 sec
shape (1356, 3240)
1st memory: 546.7 MiB
eri1 (1356, 5886)
eri1 (1356, 5886)
2nd memory: 421.1 MiB

========================
iter = 4  energy = -2891.478679 energy diff = 0.001180
multiplicity <S^2> : Reference = 0.0020924455 Response = 0.002091956 Projector = 0.0020914665
eri1 (1356, 5886)
eri1 (1356, 5886)
    CPU time for making amplitude: integral transform      0.95 sec, wall time      0.06 sec
shape (1356, 3240)
1st memory: 574.7 MiB
eri1 (1356, 5886)
eri1 (1356, 5886)
2nd memory: 421.3 MiB

========================
iter = 5  energy = -2891.478853 energy diff = 0.000173
multiplicity <S^2> : Reference = 0.0014043303 Response = 0.0014044324 Projector = 0.0014045344
eri1 (1356, 5886)
eri1 (1356, 5886)
    CPU time for making amplitude: integral transform      1.01 sec, wall time      0.07 sec
shape (1356, 3240)
1st memory: 538.8 MiB
eri1 (1356, 5886)
eri1 (1356, 5886)
2nd memory: 420.8 MiB

========================
iter = 6  energy = -2891.478918 energy diff = 0.000065
multiplicity <S^2> : Reference = 0.00082622128 Response = 0.00082623879 Projector = 0.00082625629
eri1 (1356, 5886)
eri1 (1356, 5886)
    CPU time for making amplitude: integral transform      0.93 sec, wall time      0.06 sec
shape (1356, 3240)
1st memory: 574.3 MiB
eri1 (1356, 5886)
eri1 (1356, 5886)
2nd memory: 420.5 MiB

========================
iter = 7  energy = -2891.478936 energy diff = 0.000018
multiplicity <S^2> : Reference = 0.00046231985 Response = 0.00046235982 Projector = 0.00046239978
eri1 (1356, 5886)
eri1 (1356, 5886)
    CPU time for making amplitude: integral transform      1.13 sec, wall time      0.08 sec
shape (1356, 3240)
1st memory: 548.2 MiB
eri1 (1356, 5886)
eri1 (1356, 5886)
2nd memory: 420.4 MiB

========================
iter = 8  energy = -2891.478951 energy diff = 0.000015
multiplicity <S^2> : Reference = 0.00021598541 Response = 0.00021599375 Projector = 0.0002160021
eri1 (1356, 5886)
eri1 (1356, 5886)
    CPU time for making amplitude: integral transform      0.96 sec, wall time      0.06 sec
shape (1356, 3240)
1st memory: 549.6 MiB
eri1 (1356, 5886)
eri1 (1356, 5886)
2nd memory: 420.4 MiB

========================
iter = 9  energy = -2891.478957 energy diff = 0.000006
multiplicity <S^2> : Reference = 7.8148655e-05 Response = 7.815793e-05 Projector = 7.8167205e-05

UOB-MP2 has converged
UOB-MP2 energy =  -2891.478956901784


******** <class 'pyscf.scf.uhf.UHF'> ********
method = UHF
initial guess = minao
damping factor = 0
level_shift factor = 0
DIIS = <class 'pyscf.scf.diis.CDIIS'>
diis_start_cycle = 1
diis_space = 8
SCF conv_tol = 1e-09
SCF conv_tol_grad = None
SCF max_cycles = 50
direct_scf = True
direct_scf_tol = 1e-13
chkfile to save SCF result = /home/ltkoanh/Al_B2LYP_6311_Gd_Cluster/Cluster/Al12-neutral-singlet/tmpv0nf2he8
max_memory 4000 MB (current use 245 MB)
number electrons alpha = 78  beta = 78
Set gradient conv threshold to 3.16228e-05
init E= -2889.11519763955
  alpha nocc = 78  HOMO = -0.720540748234752  LUMO = -0.634991399869753
  beta  nocc = 78  HOMO = -0.679464606999043  LUMO = -0.616692688190015
cycle= 1 E= -2889.94242382434  delta_E= -0.827  |g|= 0.998  |ddm|= 4.06
  alpha nocc = 78  HOMO = 0.256024003439998  LUMO = 0.300083290140877
  beta  nocc = 78  HOMO = 0.260535613815366  LUMO = 0.305972910965092
cycle= 2 E= -2889.79805231942  delta_E= 0.144  |g|= 1.09  |ddm|=  3.7
  alpha nocc = 78  HOMO = 0.114503231287234  LUMO = 0.21005656661004
  beta  nocc = 78  HOMO = 0.110682411498208  LUMO = 0.215022373720505
cycle= 3 E= -2890.86107057027  delta_E= -1.06  |g|= 0.255  |ddm|= 2.14
  alpha nocc = 78  HOMO = 0.066338863905951  LUMO = 0.210352699877863
  beta  nocc = 78  HOMO = 0.0604791913523781  LUMO = 0.214856535658569
cycle= 4 E= -2890.90885400913  delta_E= -0.0478  |g|= 0.133  |ddm|= 0.673
  alpha nocc = 78  HOMO = 0.0456303818060296  LUMO = 0.211971465650349
  beta  nocc = 78  HOMO = 0.0389599147461483  LUMO = 0.212324306732446
cycle= 5 E= -2890.92684938264  delta_E= -0.018  |g|= 0.0427  |ddm|= 0.282
  alpha nocc = 78  HOMO = 0.0451905115825233  LUMO = 0.213542260801942
  beta  nocc = 78  HOMO = 0.0376176669644911  LUMO = 0.214854924433345
cycle= 6 E= -2890.92930231213  delta_E= -0.00245  |g|= 0.0194  |ddm|= 0.101
  alpha nocc = 78  HOMO = 0.0446568166989139  LUMO = 0.21269199612812
  beta  nocc = 78  HOMO = 0.0354317634455134  LUMO = 0.213449662114522
cycle= 7 E= -2890.93176339019  delta_E= -0.00246  |g|= 0.0147  |ddm|= 0.145
  alpha nocc = 78  HOMO = 0.0444199809049266  LUMO = 0.213488428703569
  beta  nocc = 78  HOMO = 0.0339291908096624  LUMO = 0.213961647923865
cycle= 8 E= -2890.9333042664  delta_E= -0.00154  |g|= 0.0156  |ddm|= 0.0939
  alpha nocc = 78  HOMO = 0.0445646060961884  LUMO = 0.213027142753863
  beta  nocc = 78  HOMO = 0.0346962133464211  LUMO = 0.213689457928816
cycle= 9 E= -2890.93247047863  delta_E= 0.000834  |g|= 0.0148  |ddm|= 0.0512
  alpha nocc = 78  HOMO = 0.040783360162511  LUMO = 0.2145160707929
  beta  nocc = 78  HOMO = 0.0358451065848647  LUMO = 0.214950016019596
cycle= 10 E= -2890.92976521023  delta_E= 0.00271  |g|= 0.00877  |ddm|= 0.311
  alpha nocc = 78  HOMO = 0.041759525711188  LUMO = 0.211481876961499
  beta  nocc = 78  HOMO = 0.0382440879189  LUMO = 0.211080994652519
cycle= 11 E= -2890.9299900352  delta_E= -0.000225  |g|= 0.00608  |ddm|= 0.0658
  alpha nocc = 78  HOMO = 0.0432665345012045  LUMO = 0.210295374641358
  beta  nocc = 78  HOMO = 0.0405970932332293  LUMO = 0.209135495272966
cycle= 12 E= -2890.93022505195  delta_E= -0.000235  |g|= 0.00345  |ddm|= 0.0699
  alpha nocc = 78  HOMO = 0.041221784355928  LUMO = 0.211709175598009
  beta  nocc = 78  HOMO = 0.0389174039152046  LUMO = 0.210366197133243
cycle= 13 E= -2890.9302719289  delta_E= -4.69e-05  |g|= 0.00269  |ddm|= 0.0419
  alpha nocc = 78  HOMO = 0.0410692229783113  LUMO = 0.211644403385808
  beta  nocc = 78  HOMO = 0.0385081885853483  LUMO = 0.210415220466329
cycle= 14 E= -2890.9303352097  delta_E= -6.33e-05  |g|= 0.00214  |ddm|= 0.0297
  alpha nocc = 78  HOMO = 0.0415704371323587  LUMO = 0.211151203093328
  beta  nocc = 78  HOMO = 0.0386309110975839  LUMO = 0.210021188442221
cycle= 15 E= -2890.93039828861  delta_E= -6.31e-05  |g|= 0.00219  |ddm|= 0.0314
  alpha nocc = 78  HOMO = 0.0414677999362629  LUMO = 0.211284526099759
  beta  nocc = 78  HOMO = 0.03855830021456  LUMO = 0.210050885822029
cycle= 16 E= -2890.93042125682  delta_E= -2.3e-05  |g|= 0.00206  |ddm|= 0.0107
  alpha nocc = 78  HOMO = 0.0413107562240493  LUMO = 0.211389942017563
  beta  nocc = 78  HOMO = 0.0385199739376957  LUMO = 0.210147334097298
cycle= 17 E= -2890.93041292141  delta_E= 8.34e-06  |g|= 0.00198  |ddm|= 0.00611
  alpha nocc = 78  HOMO = 0.0411385834964215  LUMO = 0.211569913234207
  beta  nocc = 78  HOMO = 0.0385978228490332  LUMO = 0.210205756956198
cycle= 18 E= -2890.93041218145  delta_E= 7.4e-07  |g|= 0.00197  |ddm|= 0.00715
  alpha nocc = 78  HOMO = 0.041114352509293  LUMO = 0.211592469432686
  beta  nocc = 78  HOMO = 0.0386287502924365  LUMO = 0.210196676514393
cycle= 19 E= -2890.93041233302  delta_E= -1.52e-07  |g|= 0.00197  |ddm|= 0.00212
  alpha nocc = 78  HOMO = 0.0410697842038907  LUMO = 0.211625386975206
  beta  nocc = 78  HOMO = 0.038659039314691  LUMO = 0.210235263457361
cycle= 20 E= -2890.93039893969  delta_E= 1.34e-05  |g|= 0.00189  |ddm|= 0.0066
  alpha nocc = 78  HOMO = 0.0410534318952915  LUMO = 0.211486460817116
  beta  nocc = 78  HOMO = 0.0385697609681062  LUMO = 0.210327929126119
cycle= 21 E= -2890.93037746579  delta_E= 2.15e-05  |g|= 0.00169  |ddm|= 0.02
  alpha nocc = 78  HOMO = 0.0407780307006107  LUMO = 0.211447107855061
  beta  nocc = 78  HOMO = 0.0387753895373009  LUMO = 0.210431588133703
cycle= 22 E= -2890.93036597688  delta_E= 1.15e-05  |g|= 0.00108  |ddm|= 0.04
  alpha nocc = 78  HOMO = 0.0405621152442537  LUMO = 0.211369502269538
  beta  nocc = 78  HOMO = 0.0387501434408421  LUMO = 0.210461558726937
cycle= 23 E= -2890.93037356996  delta_E= -7.59e-06  |g|= 0.000853  |ddm|= 0.027
  alpha nocc = 78  HOMO = 0.0405640469879719  LUMO = 0.211297021109188
  beta  nocc = 78  HOMO = 0.0386171297691955  LUMO = 0.210519908314727
cycle= 24 E= -2890.9303834927  delta_E= -9.92e-06  |g|= 0.000738  |ddm|= 0.0179
  alpha nocc = 78  HOMO = 0.0405851809417516  LUMO = 0.211268956252485
  beta  nocc = 78  HOMO = 0.0385786024789663  LUMO = 0.210538725577231
cycle= 25 E= -2890.93038844339  delta_E= -4.95e-06  |g|= 0.000614  |ddm|= 0.0102
  alpha nocc = 78  HOMO = 0.040558543540972  LUMO = 0.211298686775205
  beta  nocc = 78  HOMO = 0.0385760389058328  LUMO = 0.210529046698044
cycle= 26 E= -2890.93039194924  delta_E= -3.51e-06  |g|= 0.000583  |ddm|= 0.00687
  alpha nocc = 78  HOMO = 0.0405913767367252  LUMO = 0.211282591403988
  beta  nocc = 78  HOMO = 0.0385402442790475  LUMO = 0.210530846765637
cycle= 27 E= -2890.93039381708  delta_E= -1.87e-06  |g|= 0.000561  |ddm|= 0.00355
  alpha nocc = 78  HOMO = 0.0405944807442381  LUMO = 0.21130456799562
  beta  nocc = 78  HOMO = 0.0385252839782841  LUMO = 0.210524082847247
cycle= 28 E= -2890.93039584197  delta_E= -2.02e-06  |g|= 0.00056  |ddm|= 0.0034
  alpha nocc = 78  HOMO = 0.0405866347204126  LUMO = 0.2112998697732
  beta  nocc = 78  HOMO = 0.0385298668537555  LUMO = 0.21052893794907
cycle= 29 E= -2890.93039509218  delta_E= 7.5e-07  |g|= 0.000559  |ddm|= 0.00119
  alpha nocc = 78  HOMO = 0.0405657240256956  LUMO = 0.211249624330694
  beta  nocc = 78  HOMO = 0.038581931115495  LUMO = 0.210566934415455
cycle= 30 E= -2890.93038965831  delta_E= 5.43e-06  |g|= 0.000535  |ddm|= 0.0102
  alpha nocc = 78  HOMO = 0.0405574408770236  LUMO = 0.211221469996502
  beta  nocc = 78  HOMO = 0.0386094011168321  LUMO = 0.210593093949248
cycle= 31 E= -2890.93038642385  delta_E= 3.23e-06  |g|= 0.000534  |ddm|= 0.00804
  alpha nocc = 78  HOMO = 0.0405721094582572  LUMO = 0.211230178134054
  beta  nocc = 78  HOMO = 0.038585696122511  LUMO = 0.21059902033108
cycle= 32 E= -2890.93038756334  delta_E= -1.14e-06  |g|= 0.000544  |ddm|= 0.00227
  alpha nocc = 78  HOMO = 0.0405763442219254  LUMO = 0.211226369013811
  beta  nocc = 78  HOMO = 0.0386381276407544  LUMO = 0.210604339724213
cycle= 33 E= -2890.9303857487  delta_E= 1.81e-06  |g|= 0.000531  |ddm|= 0.00427
  alpha nocc = 78  HOMO = 0.0405388039673107  LUMO = 0.211209473987014
  beta  nocc = 78  HOMO = 0.038667145693865  LUMO = 0.210610646911469
cycle= 34 E= -2890.93038318296  delta_E= 2.57e-06  |g|= 0.000511  |ddm|= 0.00512
  alpha nocc = 78  HOMO = 0.0405197547410782  LUMO = 0.21119224558788
  beta  nocc = 78  HOMO = 0.0386811685755197  LUMO = 0.210616883888399
cycle= 35 E= -2890.93038177762  delta_E= 1.41e-06  |g|= 0.000507  |ddm|= 0.0032
  alpha nocc = 78  HOMO = 0.0405080126500548  LUMO = 0.211190335316122
  beta  nocc = 78  HOMO = 0.0387148956499681  LUMO = 0.210635434254831
cycle= 36 E= -2890.93038035637  delta_E= 1.42e-06  |g|= 0.000496  |ddm|= 0.0033
  alpha nocc = 78  HOMO = 0.040512600237276  LUMO = 0.211192679588184
  beta  nocc = 78  HOMO = 0.0387105765942538  LUMO = 0.210632389631056
cycle= 37 E= -2890.93038097209  delta_E= -6.16e-07  |g|= 0.000496  |ddm|= 0.00199
  alpha nocc = 78  HOMO = 0.0405204043863475  LUMO = 0.211200256831751
  beta  nocc = 78  HOMO = 0.0387036105155822  LUMO = 0.21062709822238
cycle= 38 E= -2890.93038167213  delta_E= -7e-07  |g|= 0.000497  |ddm|= 0.00131
  alpha nocc = 78  HOMO = 0.0405170928733729  LUMO = 0.211195071348228
  beta  nocc = 78  HOMO = 0.0387090483938818  LUMO = 0.210632634788181
cycle= 39 E= -2890.93038115043  delta_E= 5.22e-07  |g|= 0.000497  |ddm|= 0.00128
  alpha nocc = 78  HOMO = 0.0405093549121772  LUMO = 0.211184117782467
  beta  nocc = 78  HOMO = 0.0387191921676348  LUMO = 0.21064266321319
cycle= 40 E= -2890.93038010672  delta_E= 1.04e-06  |g|= 0.000498  |ddm|= 0.00274
  alpha nocc = 78  HOMO = 0.0405033599842606  LUMO = 0.211181222848946
  beta  nocc = 78  HOMO = 0.0387206581923261  LUMO = 0.210644325025
cycle= 41 E= -2890.9303800787  delta_E= 2.8e-08  |g|= 0.000493  |ddm|= 0.00116
  alpha nocc = 78  HOMO = 0.0404902335094808  LUMO = 0.211180525678931
  beta  nocc = 78  HOMO = 0.0387016141121248  LUMO = 0.210648944942857
cycle= 42 E= -2890.93038084844  delta_E= -7.7e-07  |g|= 0.000491  |ddm|= 0.00308
  alpha nocc = 78  HOMO = 0.0404941263677717  LUMO = 0.211183150964752
  beta  nocc = 78  HOMO = 0.0386958921082702  LUMO = 0.210651225328586
cycle= 43 E= -2890.93038141704  delta_E= -5.69e-07  |g|= 0.000491  |ddm|= 0.00196
  alpha nocc = 78  HOMO = 0.0404988527833009  LUMO = 0.211186321118512
  beta  nocc = 78  HOMO = 0.038687421298241  LUMO = 0.210648227975501
cycle= 44 E= -2890.93038173387  delta_E= -3.17e-07  |g|= 0.00049  |ddm|= 0.0014
  alpha nocc = 78  HOMO = 0.0404970530542718  LUMO = 0.211185579575483
  beta  nocc = 78  HOMO = 0.0386902750607791  LUMO = 0.210649688978362
cycle= 45 E= -2890.93038157358  delta_E= 1.6e-07  |g|= 0.00049  |ddm|= 0.000352
  alpha nocc = 78  HOMO = 0.0404973797556467  LUMO = 0.211186735263343
  beta  nocc = 78  HOMO = 0.0386893436536811  LUMO = 0.210650398229713
cycle= 46 E= -2890.93038168668  delta_E= -1.13e-07  |g|= 0.000491  |ddm|= 0.000497
  alpha nocc = 78  HOMO = 0.0404395264965807  LUMO = 0.211166096387204
  beta  nocc = 78  HOMO = 0.0387359386755496  LUMO = 0.210684151217072
cycle= 47 E= -2890.930378678  delta_E= 3.01e-06  |g|= 0.000478  |ddm|= 0.00672
  alpha nocc = 78  HOMO = 0.0403023358282729  LUMO = 0.211096677968469
  beta  nocc = 78  HOMO = 0.0388340283559799  LUMO = 0.21074826545909
cycle= 48 E= -2890.93037216467  delta_E= 6.51e-06  |g|= 0.000445  |ddm|= 0.0166
  alpha nocc = 78  HOMO = 0.0402495123372075  LUMO = 0.211068783067149
  beta  nocc = 78  HOMO = 0.0388725519288698  LUMO = 0.210771004130815
cycle= 49 E= -2890.93037009528  delta_E= 2.07e-06  |g|= 0.000422  |ddm|= 0.00636
  alpha nocc = 78  HOMO = 0.0401753547627007  LUMO = 0.211027616349924
  beta  nocc = 78  HOMO = 0.0389309490818354  LUMO = 0.210823151645628
cycle= 50 E= -2890.93036758797  delta_E= 2.51e-06  |g|= 0.000413  |ddm|= 0.0117
SCF not converged.
SCF energy = -2890.93036758797 after 50 cycles  <S^2> = 0.0066449631  2S+1 = 1.0132028
