 Entering Gaussian System, Link 0=g09
 Initial command:
 /usr/local/chem/g09A2/l1.exe /temp0/tam/Gau-15627.inp -scrdir=/temp0/tam/
 Entering Link 1 = /usr/local/chem/g09A2/l1.exe PID=     15628.
  
 Copyright (c) 1988,1990,1992,1993,1995,1998,2003,2009, Gaussian, Inc.
                  All Rights Reserved.
  
 This is part of the Gaussian(R) 09 program.  It is based on
 the Gaussian(R) 03 system (copyright 2003, Gaussian, Inc.),
 the Gaussian(R) 98 system (copyright 1998, Gaussian, Inc.),
 the Gaussian(R) 94 system (copyright 1995, Gaussian, Inc.),
 the Gaussian 92(TM) system (copyright 1992, Gaussian, Inc.),
 the Gaussian 90(TM) system (copyright 1990, Gaussian, Inc.),
 the Gaussian 88(TM) system (copyright 1988, Gaussian, Inc.),
 the Gaussian 86(TM) system (copyright 1986, Carnegie Mellon
 University), and the Gaussian 82(TM) system (copyright 1983,
 Carnegie Mellon University). Gaussian is a federally registered
 trademark of Gaussian, Inc.
  
 This software contains proprietary and confidential information,
 including trade secrets, belonging to Gaussian, Inc.
  
 This software is provided under written license and may be
 used, copied, transmitted, or stored only in accord with that
 written license.
  
 The following legend is applicable only to US Government
 contracts under FAR:
  
                    RESTRICTED RIGHTS LEGEND
  
 Use, reproduction and disclosure by the US Government is
 subject to restrictions as set forth in subparagraphs (a)
 and (c) of the Commercial Computer Software - Restricted
 Rights clause in FAR 52.227-19.
  
 Gaussian, Inc.
 340 Quinnipiac St., Bldg. 40, Wallingford CT 06492
  
  
 ---------------------------------------------------------------
 Warning -- This program may not be used in any manner that
 competes with the business of Gaussian, Inc. or will provide
 assistance to any competitor of Gaussian, Inc.  The licensee
 of this program is prohibited from giving any competitor of
 Gaussian, Inc. access to this program.  By using this program,
 the user acknowledges that Gaussian, Inc. is engaged in the
 business of creating and licensing software in the field of
 computational chemistry and represents and warrants to the
 licensee that it is not a competitor of Gaussian, Inc. and that
 it will not use this program in any manner prohibited above.
 ---------------------------------------------------------------
  

 Cite this work as:
 Gaussian 09, Revision A.02,
 M. J. Frisch, G. W. Trucks, H. B. Schlegel, G. E. Scuseria, 
 M. A. Robb, J. R. Cheeseman, G. Scalmani, V. Barone, B. Mennucci, 
 G. A. Petersson, H. Nakatsuji, M. Caricato, X. Li, H. P. Hratchian, 
 A. F. Izmaylov, J. Bloino, G. Zheng, J. L. Sonnenberg, M. Hada, 
 M. Ehara, K. Toyota, R. Fukuda, J. Hasegawa, M. Ishida, T. Nakajima, 
 Y. Honda, O. Kitao, H. Nakai, T. Vreven, J. A. Montgomery, Jr., 
 J. E. Peralta, F. Ogliaro, M. Bearpark, J. J. Heyd, E. Brothers, 
 K. N. Kudin, V. N. Staroverov, R. Kobayashi, J. Normand, 
 K. Raghavachari, A. Rendell, J. C. Burant, S. S. Iyengar, J. Tomasi, 
 M. Cossi, N. Rega, J. M. Millam, M. Klene, J. E. Knox, J. B. Cross, 
 V. Bakken, C. Adamo, J. Jaramillo, R. Gomperts, R. E. Stratmann, 
 O. Yazyev, A. J. Austin, R. Cammi, C. Pomelli, J. W. Ochterski, 
 R. L. Martin, K. Morokuma, V. G. Zakrzewski, G. A. Voth, 
 P. Salvador, J. J. Dannenberg, S. Dapprich, A. D. Daniels, 
 O. Farkas, J. B. Foresman, J. V. Ortiz, J. Cioslowski, 
 and D. J. Fox, Gaussian, Inc., Wallingford CT, 2009.
 
 ******************************************
 Gaussian 09:  AM64L-G09RevA.02 11-Jun-2009
                19-Dec-2011 
 ******************************************
 %NprocShared=12
 Will use up to   12 processors via shared memory.
 %mem=70050MB
 %chk=S9L-ne-d-01
 -----------------------
 # G4 scfcyc=500 scf=xqc
 -----------------------
 1/14=-1,18=20,19=15,26=3,38=1/1,3;
 2/9=110,12=2,17=6,18=5,40=1/2;
 3/5=35,7=104,11=2,16=1,25=1,30=1,71=1,74=-5/1,2,3;
 4//1;
 5/5=2,7=500,8=3,13=1,38=5/2,8;
 6/7=2,8=2,9=2,10=2,28=1/1;
 7//1,2,3,16;
 1/14=-1,18=20,19=15/3(2);
 2/9=110/2;
 99//99;
 2/9=110/2;
 3/5=35,7=104,11=2,16=1,25=1,30=1,71=1,74=-5/1,2,3;
 4/5=5,16=3/1;
 5/5=2,7=500,8=3,13=1,38=5/2,8;
 7//1,2,3,16;
 1/14=-1,18=20,19=15/3(-5);
 2/9=110/2;
 6/7=2,8=2,9=2,10=2,19=2,28=1/1;
 99/9=1/99;
 ------
 si11-n
 ------
 Symbolic Z-matrix:
 Charge =  1 Multiplicity = 2
 Si                    3.22957  -0.5368    0. 
 Si                    1.16476  -1.90732   0. 
 Si                   -0.68823  -1.20078   1.33252 
 Si                   -1.88024   0.84674   0. 
 Si                    1.387     0.45391  -1.24339 
 Si                    1.387     0.45391   1.24339 
 Si                   -0.68823  -1.20078  -1.33252 
 Si                   -0.68897   1.13717   2.23638 
 Si                   -2.64718  -1.48861   0. 
 Si                    0.11349   2.30537   0. 
 Si                   -0.68897   1.13717  -2.23638 
 

 GradGradGradGradGradGradGradGradGradGradGradGradGradGradGradGradGradGrad
 Berny optimization.
 Initialization pass.
                           ----------------------------
                           !    Initial Parameters    !
                           ! (Angstroms and Degrees)  !
 --------------------------                            --------------------------
 ! Name  Definition              Value          Derivative Info.                !
 --------------------------------------------------------------------------------
 ! R1    R(1,2)                  2.4783         estimate D2E/DX2                !
 ! R2    R(1,5)                  2.4336         estimate D2E/DX2                !
 ! R3    R(1,6)                  2.4336         estimate D2E/DX2                !
 ! R4    R(2,3)                  2.3892         estimate D2E/DX2                !
 ! R5    R(2,5)                  2.6778         estimate D2E/DX2                !
 ! R6    R(2,6)                  2.6778         estimate D2E/DX2                !
 ! R7    R(2,7)                  2.3892         estimate D2E/DX2                !
 ! R8    R(3,4)                  2.7182         estimate D2E/DX2                !
 ! R9    R(3,6)                  2.6557         estimate D2E/DX2                !
 ! R10   R(3,7)                  2.665          estimate D2E/DX2                !
 ! R11   R(3,8)                  2.5066         estimate D2E/DX2                !
 ! R12   R(3,9)                  2.3866         estimate D2E/DX2                !
 ! R13   R(4,7)                  2.7182         estimate D2E/DX2                !
 ! R14   R(4,8)                  2.5505         estimate D2E/DX2                !
 ! R15   R(4,9)                  2.4581         estimate D2E/DX2                !
 ! R16   R(4,10)                 2.4703         estimate D2E/DX2                !
 ! R17   R(4,11)                 2.5505         estimate D2E/DX2                !
 ! R18   R(5,6)                  2.4868         estimate D2E/DX2                !
 ! R19   R(5,7)                  2.6557         estimate D2E/DX2                !
 ! R20   R(5,10)                 2.5682         estimate D2E/DX2                !
 ! R21   R(5,11)                 2.4005         estimate D2E/DX2                !
 ! R22   R(6,8)                  2.4005         estimate D2E/DX2                !
 ! R23   R(6,10)                 2.5682         estimate D2E/DX2                !
 ! R24   R(7,9)                  2.3866         estimate D2E/DX2                !
 ! R25   R(7,11)                 2.5066         estimate D2E/DX2                !
 ! R26   R(8,10)                 2.6476         estimate D2E/DX2                !
 ! R27   R(10,11)                2.6476         estimate D2E/DX2                !
 ! A1    A(1,2,3)              118.8579         estimate D2E/DX2                !
 ! A2    A(1,2,7)              118.8579         estimate D2E/DX2                !
 ! A3    A(3,2,5)               93.5877         estimate D2E/DX2                !
 ! A4    A(6,2,7)               93.5877         estimate D2E/DX2                !
 ! A5    A(2,3,4)              106.8248         estimate D2E/DX2                !
 ! A6    A(2,3,8)              118.5002         estimate D2E/DX2                !
 ! A7    A(2,3,9)              106.8296         estimate D2E/DX2                !
 ! A8    A(4,3,6)               81.772          estimate D2E/DX2                !
 ! A9    A(6,3,7)               88.0767         estimate D2E/DX2                !
 ! A10   A(6,3,9)              134.2519         estimate D2E/DX2                !
 ! A11   A(7,3,8)              111.1365         estimate D2E/DX2                !
 ! A12   A(8,3,9)              108.2751         estimate D2E/DX2                !
 ! A13   A(3,4,10)              95.2124         estimate D2E/DX2                !
 ! A14   A(3,4,11)             108.1073         estimate D2E/DX2                !
 ! A15   A(7,4,8)              108.1073         estimate D2E/DX2                !
 ! A16   A(7,4,10)              95.2124         estimate D2E/DX2                !
 ! A17   A(8,4,9)              104.7096         estimate D2E/DX2                !
 ! A18   A(8,4,11)             122.53           estimate D2E/DX2                !
 ! A19   A(9,4,10)             144.3699         estimate D2E/DX2                !
 ! A20   A(9,4,11)             104.7096         estimate D2E/DX2                !
 ! A21   A(1,5,7)              110.8022         estimate D2E/DX2                !
 ! A22   A(1,5,10)             114.9328         estimate D2E/DX2                !
 ! A23   A(1,5,11)             169.1045         estimate D2E/DX2                !
 ! A24   A(2,5,10)             111.6983         estimate D2E/DX2                !
 ! A25   A(2,5,11)             111.794          estimate D2E/DX2                !
 ! A26   A(6,5,7)               91.9233         estimate D2E/DX2                !
 ! A27   A(6,5,11)             114.4344         estimate D2E/DX2                !
 ! A28   A(7,5,10)              94.4702         estimate D2E/DX2                !
 ! A29   A(1,6,3)              110.8022         estimate D2E/DX2                !
 ! A30   A(1,6,8)              169.1045         estimate D2E/DX2                !
 ! A31   A(1,6,10)             114.9328         estimate D2E/DX2                !
 ! A32   A(2,6,8)              111.794          estimate D2E/DX2                !
 ! A33   A(2,6,10)             111.6983         estimate D2E/DX2                !
 ! A34   A(3,6,5)               91.9233         estimate D2E/DX2                !
 ! A35   A(3,6,10)              94.4702         estimate D2E/DX2                !
 ! A36   A(5,6,8)              114.4344         estimate D2E/DX2                !
 ! A37   A(2,7,4)              106.8248         estimate D2E/DX2                !
 ! A38   A(2,7,9)              106.8296         estimate D2E/DX2                !
 ! A39   A(2,7,11)             118.5002         estimate D2E/DX2                !
 ! A40   A(3,7,5)               88.0767         estimate D2E/DX2                !
 ! A41   A(3,7,11)             111.1365         estimate D2E/DX2                !
 ! A42   A(4,7,5)               81.772          estimate D2E/DX2                !
 ! A43   A(5,7,9)              134.2519         estimate D2E/DX2                !
 ! A44   A(9,7,11)             108.2751         estimate D2E/DX2                !
 ! A45   A(3,8,10)              96.135          estimate D2E/DX2                !
 ! A46   A(4,8,6)               90.5046         estimate D2E/DX2                !
 ! A47   A(4,10,5)              88.5409         estimate D2E/DX2                !
 ! A48   A(4,10,6)              88.5409         estimate D2E/DX2                !
 ! A49   A(5,10,8)             103.9545         estimate D2E/DX2                !
 ! A50   A(6,10,11)            103.9545         estimate D2E/DX2                !
 ! A51   A(8,10,11)            115.2723         estimate D2E/DX2                !
 ! A52   A(4,11,5)              90.5046         estimate D2E/DX2                !
 ! A53   A(7,11,10)             96.135          estimate D2E/DX2                !
 ! D1    D(1,2,3,4)             76.8376         estimate D2E/DX2                !
 ! D2    D(1,2,3,8)             14.2918         estimate D2E/DX2                !
 ! D3    D(1,2,3,9)            136.7729         estimate D2E/DX2                !
 ! D4    D(5,2,3,4)             23.881          estimate D2E/DX2                !
 ! D5    D(5,2,3,8)            -38.6648         estimate D2E/DX2                !
 ! D6    D(5,2,3,9)             83.8164         estimate D2E/DX2                !
 ! D7    D(3,2,5,10)            16.1068         estimate D2E/DX2                !
 ! D8    D(3,2,5,11)           -53.7931         estimate D2E/DX2                !
 ! D9    D(7,2,6,8)             53.7931         estimate D2E/DX2                !
 ! D10   D(7,2,6,10)           -16.1068         estimate D2E/DX2                !
 ! D11   D(1,2,7,4)            -76.8376         estimate D2E/DX2                !
 ! D12   D(1,2,7,9)           -136.7729         estimate D2E/DX2                !
 ! D13   D(1,2,7,11)           -14.2918         estimate D2E/DX2                !
 ! D14   D(6,2,7,4)            -23.881          estimate D2E/DX2                !
 ! D15   D(6,2,7,9)            -83.8164         estimate D2E/DX2                !
 ! D16   D(6,2,7,11)            38.6648         estimate D2E/DX2                !
 ! D17   D(2,3,4,10)           -59.9305         estimate D2E/DX2                !
 ! D18   D(2,3,4,11)             4.0003         estimate D2E/DX2                !
 ! D19   D(6,3,4,10)            -0.5097         estimate D2E/DX2                !
 ! D20   D(6,3,4,11)            63.4211         estimate D2E/DX2                !
 ! D21   D(4,3,6,1)           -118.3281         estimate D2E/DX2                !
 ! D22   D(4,3,6,5)            -60.6109         estimate D2E/DX2                !
 ! D23   D(4,3,6,10)             0.4898         estimate D2E/DX2                !
 ! D24   D(7,3,6,1)            -57.7172         estimate D2E/DX2                !
 ! D25   D(7,3,6,5)              0.0            estimate D2E/DX2                !
 ! D26   D(7,3,6,10)            61.1007         estimate D2E/DX2                !
 ! D27   D(9,3,6,1)            -93.3619         estimate D2E/DX2                !
 ! D28   D(9,3,6,5)            -35.6447         estimate D2E/DX2                !
 ! D29   D(9,3,6,10)            25.456          estimate D2E/DX2                !
 ! D30   D(6,3,7,5)              0.0            estimate D2E/DX2                !
 ! D31   D(6,3,7,11)           -51.451          estimate D2E/DX2                !
 ! D32   D(8,3,7,5)             51.451          estimate D2E/DX2                !
 ! D33   D(8,3,7,11)             0.0            estimate D2E/DX2                !
 ! D34   D(2,3,8,10)            44.1771         estimate D2E/DX2                !
 ! D35   D(7,3,8,10)           -17.7565         estimate D2E/DX2                !
 ! D36   D(9,3,8,10)           -77.5757         estimate D2E/DX2                !
 ! D37   D(8,4,7,2)             -4.0003         estimate D2E/DX2                !
 ! D38   D(8,4,7,5)            -63.4211         estimate D2E/DX2                !
 ! D39   D(10,4,7,2)            59.9305         estimate D2E/DX2                !
 ! D40   D(10,4,7,5)             0.5097         estimate D2E/DX2                !
 ! D41   D(7,4,8,6)             32.7737         estimate D2E/DX2                !
 ! D42   D(9,4,8,6)             89.8325         estimate D2E/DX2                !
 ! D43   D(11,4,8,6)           -28.7756         estimate D2E/DX2                !
 ! D44   D(3,4,10,5)            58.4555         estimate D2E/DX2                !
 ! D45   D(3,4,10,6)             0.5218         estimate D2E/DX2                !
 ! D46   D(7,4,10,5)            -0.5218         estimate D2E/DX2                !
 ! D47   D(7,4,10,6)           -58.4555         estimate D2E/DX2                !
 ! D48   D(9,4,10,5)            28.9668         estimate D2E/DX2                !
 ! D49   D(9,4,10,6)           -28.9668         estimate D2E/DX2                !
 ! D50   D(3,4,11,5)           -32.7737         estimate D2E/DX2                !
 ! D51   D(8,4,11,5)            28.7756         estimate D2E/DX2                !
 ! D52   D(9,4,11,5)           -89.8325         estimate D2E/DX2                !
 ! D53   D(7,5,6,3)              0.0            estimate D2E/DX2                !
 ! D54   D(7,5,6,8)            -56.7847         estimate D2E/DX2                !
 ! D55   D(11,5,6,3)            56.7847         estimate D2E/DX2                !
 ! D56   D(11,5,6,8)             0.0            estimate D2E/DX2                !
 ! D57   D(1,5,7,3)             57.7172         estimate D2E/DX2                !
 ! D58   D(1,5,7,4)            118.3281         estimate D2E/DX2                !
 ! D59   D(1,5,7,9)             93.3619         estimate D2E/DX2                !
 ! D60   D(6,5,7,3)              0.0            estimate D2E/DX2                !
 ! D61   D(6,5,7,4)             60.6109         estimate D2E/DX2                !
 ! D62   D(6,5,7,9)             35.6447         estimate D2E/DX2                !
 ! D63   D(10,5,7,3)           -61.1007         estimate D2E/DX2                !
 ! D64   D(10,5,7,4)            -0.4898         estimate D2E/DX2                !
 ! D65   D(10,5,7,9)           -25.456          estimate D2E/DX2                !
 ! D66   D(1,5,10,4)          -114.8821         estimate D2E/DX2                !
 ! D67   D(1,5,10,8)           -56.6847         estimate D2E/DX2                !
 ! D68   D(2,5,10,4)           -51.5004         estimate D2E/DX2                !
 ! D69   D(2,5,10,8)             6.697          estimate D2E/DX2                !
 ! D70   D(7,5,10,4)             0.5335         estimate D2E/DX2                !
 ! D71   D(7,5,10,8)            58.7309         estimate D2E/DX2                !
 ! D72   D(1,5,11,4)            37.7895         estimate D2E/DX2                !
 ! D73   D(2,5,11,4)            53.7068         estimate D2E/DX2                !
 ! D74   D(6,5,11,4)           -14.7259         estimate D2E/DX2                !
 ! D75   D(1,6,8,4)            -37.7895         estimate D2E/DX2                !
 ! D76   D(2,6,8,4)            -53.7068         estimate D2E/DX2                !
 ! D77   D(5,6,8,4)             14.7259         estimate D2E/DX2                !
 ! D78   D(1,6,10,4)           114.8821         estimate D2E/DX2                !
 ! D79   D(1,6,10,11)           56.6847         estimate D2E/DX2                !
 ! D80   D(2,6,10,4)            51.5004         estimate D2E/DX2                !
 ! D81   D(2,6,10,11)           -6.697          estimate D2E/DX2                !
 ! D82   D(3,6,10,4)            -0.5335         estimate D2E/DX2                !
 ! D83   D(3,6,10,11)          -58.7309         estimate D2E/DX2                !
 ! D84   D(2,7,11,10)          -44.1771         estimate D2E/DX2                !
 ! D85   D(3,7,11,10)           17.7565         estimate D2E/DX2                !
 ! D86   D(9,7,11,10)           77.5757         estimate D2E/DX2                !
 ! D87   D(3,8,10,5)           -25.226          estimate D2E/DX2                !
 ! D88   D(3,8,10,11)           32.1001         estimate D2E/DX2                !
 ! D89   D(6,10,11,7)           25.226          estimate D2E/DX2                !
 ! D90   D(8,10,11,7)          -32.1001         estimate D2E/DX2                !
 --------------------------------------------------------------------------------
 Trust Radius=3.00D-01 FncErr=1.00D-07 GrdErr=1.00D-06
 Number of steps in this run= 100 maximum allowed number of steps= 100.
 GradGradGradGradGradGradGradGradGradGradGradGradGradGradGradGradGradGrad

                          Input orientation:                          
 ---------------------------------------------------------------------
 Center     Atomic      Atomic             Coordinates (Angstroms)
 Number     Number       Type             X           Y           Z
 ---------------------------------------------------------------------
      1         14           0        3.229570   -0.536798    0.000000
      2         14           0        1.164761   -1.907315    0.000000
      3         14           0       -0.688234   -1.200777    1.332524
      4         14           0       -1.880236    0.846743    0.000000
      5         14           0        1.387004    0.453915   -1.243393
      6         14           0        1.387004    0.453915    1.243393
      7         14           0       -0.688234   -1.200777   -1.332524
      8         14           0       -0.688972    1.137167    2.236375
      9         14           0       -2.647177   -1.488614    0.000000
     10         14           0        0.113494    2.305370    0.000000
     11         14           0       -0.688972    1.137167   -2.236375
 ---------------------------------------------------------------------
                    Distance matrix (angstroms):
                    1          2          3          4          5
     1  Si   0.000000
     2  Si   2.478256   0.000000
     3  Si   4.191143   2.389228   0.000000
     4  Si   5.293798   4.105709   2.718239   0.000000
     5  Si   2.433637   2.677840   3.698644   3.517839   0.000000
     6  Si   2.433637   2.677840   2.655666   3.517839   2.486786
     7  Si   4.191143   2.389228   2.665048   2.718239   2.655666
     8  Si   4.812328   4.207918   2.506578   2.550457   4.109172
     9  Si   5.953327   3.834864   2.386614   2.458066   4.646940
    10  Si   4.217564   4.341875   3.835552   2.470334   2.568217
    11  Si   4.812328   4.207918   4.266500   2.550457   2.400526
                    6          7          8          9         10
     6  Si   0.000000
     7  Si   3.698644   0.000000
     8  Si   2.400526   4.266500   0.000000
     9  Si   4.646940   2.386614   3.966190   0.000000
    10  Si   2.568217   3.835552   2.647645   4.692080   0.000000
    11  Si   4.109172   2.506578   4.472750   3.966190   2.647645
                   11
    11  Si   0.000000
 Stoichiometry    Si11(1+,2)
 Framework group  CS[SG(Si5),X(Si6)]
 Deg. of freedom    16
 Full point group                 CS      NOp   2
 Largest Abelian subgroup         CS      NOp   2
 Largest concise Abelian subgroup CS      NOp   2
                         Standard orientation:                         
 ---------------------------------------------------------------------
 Center     Atomic      Atomic             Coordinates (Angstroms)
 Number     Number       Type             X           Y           Z
 ---------------------------------------------------------------------
      1         14           0        0.499758   -3.235508    0.000000
      2         14           0       -1.447578   -1.702656    0.000000
      3         14           0       -1.355750    0.278343    1.332524
      4         14           0        0.216489    2.050706    0.000000
      5         14           0        0.864777   -1.175575   -1.243393
      6         14           0        0.864777   -1.175575    1.243393
      7         14           0       -1.355750    0.278343   -1.332524
      8         14           0        0.864777    1.009948    2.236375
      9         14           0       -2.241576    2.049110    0.000000
     10         14           0        2.225297    0.612915    0.000000
     11         14           0        0.864777    1.009948   -2.236375
 ---------------------------------------------------------------------
 Rotational constants (GHZ):      0.5205529      0.4038231      0.3914854
 Standard basis: GTBas3 (6D, 7F)
 There are   206 symmetry adapted basis functions of A'  symmetry.
 There are   146 symmetry adapted basis functions of A"  symmetry.
 Integral buffers will be    131072 words long.
 Raffenetti 2 integral format.
 Two-electron integral symmetry is turned on.
   352 basis functions,   748 primitive gaussians,   385 cartesian basis functions
    77 alpha electrons       76 beta electrons
       nuclear repulsion energy      1797.3182796976 Hartrees.
 NAtoms=   11 NActive=   11 NUniq=    8 SFac= 1.42D+00 NAtFMM=   80 NAOKFM=F Big=F
 One-electron integrals computed using PRISM.
 NBasis=   352 RedAO= T  NBF=   206   146
 NBsUse=   352 1.00D-06 NBFU=   206   146
 Harris functional with IExCor=  402 diagonalized for initial guess.
 ExpMin= 7.78D-02 ExpMax= 1.61D+04 ExpMxC= 2.43D+03 IAcc=2 IRadAn=         0 AccDes= 0.00D+00
 HarFok:  IExCor=  402 AccDes= 0.00D+00 IRadAn=         0 IDoV= 1
 ScaDFX=  1.000000  1.000000  1.000000  1.000000
 FoFCou: FMM=F IPFlag=           0 FMFlag=      100000 FMFlg1=           0
         NFxFlg=           0 DoJE=T BraDBF=F KetDBF=T FulRan=T
         Omega=  0.000000  0.000000  1.000000  0.000000  0.000000 ICntrl=     500 IOpCl=  0
         NMat0=    1 NMatS0=    1 NMatT0=    0 NMatD0=    1 NMtDS0=    0 NMtDT0=    0
         I1Cent=           4 NGrid=           0.
 Petite list used in FoFCou.
 Initial guess orbital symmetries:
 Alpha Orbitals:
       Occupied  (A") (A') (A") (A') (A') (A') (A') (A') (A") (A')
                 (A') (A') (A") (A") (A') (A') (A') (A') (A") (A')
                 (A') (A') (A') (A") (A') (A") (A") (A') (A') (A")
                 (A') (A") (A') (A") (A') (A") (A') (A') (A') (A")
                 (A') (A") (A') (A') (A") (A') (A') (A") (A') (A")
                 (A") (A') (A') (A') (A") (A') (A') (A') (A") (A')
                 (A') (A') (A") (A") (A') (A') (A') (A") (A') (A")
                 (A") (A') (A') (A') (A") (A') (A')
       Virtual   (A") (A') (A") (A') (A') (A') (A") (A") (A') (A')
                 (A") (A') (A") (A') (A') (A") (A") (A') (A') (A")
                 (A") (A') (A') (A") (A') (A') (A') (A") (A") (A')
                 (A') (A") (A') (A") (A') (A') (A') (A') (A") (A')
                 (A") (A') (A') (A") (A") (A') (A') (A') (A") (A')
                 (A") (A') (A") (A') (A") (A") (A') (A') (A") (A")
                 (A') (A') (A') (A") (A") (A') (A") (A") (A') (A')
                 (A") (A') (A') (A") (A') (A') (A') (A") (A") (A')
                 (A") (A') (A") (A') (A') (A") (A') (A") (A') (A')
                 (A') (A") (A") (A") (A') (A') (A') (A") (A') (A")
                 (A") (A') (A') (A") (A") (A') (A') (A') (A") (A")
                 (A') (A") (A') (A") (A') (A") (A') (A') (A') (A')
                 (A') (A") (A") (A') (A') (A") (A") (A') (A') (A')
                 (A") (A') (A') (A") (A") (A') (A') (A") (A') (A")
                 (A") (A') (A') (A") (A') (A") (A') (A') (A") (A')
                 (A') (A") (A') (A") (A') (A") (A") (A') (A') (A')
                 (A") (A') (A') (A") (A") (A') (A") (A') (A") (A')
                 (A") (A') (A') (A") (A') (A') (A") (A') (A") (A')
                 (A") (A') (A") (A') (A") (A") (A') (A') (A') (A")
                 (A") (A') (A") (A") (A') (A') (A') (A") (A") (A")
                 (A') (A') (A") (A') (A') (A") (A') (A") (A') (A")
                 (A') (A") (A') (A') (A') (A") (A') (A") (A") (A')
                 (A") (A') (A') (A") (A') (A') (A') (A") (A") (A')
                 (A') (A") (A') (A") (A') (A") (A") (A') (A') (A')
                 (A") (A') (A") (A') (A") (A') (A') (A") (A') (A")
                 (A") (A') (A") (A') (A') (A") (A') (A") (A') (A')
                 (A") (A") (A') (A') (A") (A') (A') (A") (A') (A')
                 (A') (A") (A') (A") (A')
 Beta  Orbitals:
       Occupied  (A") (A') (A") (A') (A') (A') (A') (A') (A") (A')
                 (A') (A') (A") (A") (A') (A') (A') (A') (A") (A')
                 (A') (A') (A') (A") (A') (A") (A") (A') (A') (A")
                 (A') (A") (A') (A") (A') (A") (A') (A') (A') (A")
                 (A') (A") (A') (A') (A") (A') (A') (A") (A') (A")
                 (A") (A') (A') (A') (A") (A') (A') (A') (A") (A')
                 (A') (A') (A") (A") (A') (A') (A') (A") (A') (A")
                 (A") (A') (A') (A') (A") (A')
       Virtual   (A') (A") (A') (A") (A') (A') (A') (A") (A") (A')
                 (A') (A") (A') (A") (A') (A') (A") (A") (A') (A')
                 (A") (A") (A') (A') (A") (A') (A') (A') (A") (A")
                 (A') (A') (A") (A') (A") (A') (A') (A') (A') (A")
                 (A') (A") (A') (A') (A") (A") (A') (A') (A') (A")
                 (A') (A") (A') (A") (A') (A") (A") (A') (A') (A")
                 (A") (A') (A') (A') (A") (A") (A') (A") (A") (A')
                 (A') (A") (A') (A') (A") (A') (A') (A') (A") (A")
                 (A') (A") (A') (A") (A') (A') (A") (A') (A") (A')
                 (A') (A') (A") (A") (A") (A') (A') (A') (A") (A')
                 (A") (A") (A') (A') (A") (A") (A') (A') (A') (A")
                 (A") (A') (A") (A') (A") (A') (A") (A') (A') (A')
                 (A') (A') (A") (A") (A') (A') (A") (A") (A') (A')
                 (A') (A") (A') (A') (A") (A") (A') (A') (A") (A')
                 (A") (A") (A') (A') (A") (A') (A") (A') (A') (A")
                 (A') (A') (A") (A') (A") (A') (A") (A") (A') (A')
                 (A') (A") (A') (A') (A") (A") (A') (A") (A') (A")
                 (A') (A") (A') (A') (A") (A') (A') (A") (A') (A")
                 (A') (A") (A') (A") (A') (A") (A") (A') (A') (A')
                 (A") (A") (A') (A") (A") (A') (A') (A') (A") (A")
                 (A") (A') (A') (A") (A') (A') (A") (A') (A") (A')
                 (A") (A') (A") (A') (A') (A') (A") (A') (A") (A")
                 (A') (A") (A') (A') (A") (A') (A') (A') (A") (A")
                 (A') (A') (A") (A') (A") (A') (A") (A") (A') (A')
                 (A') (A") (A') (A") (A') (A") (A') (A') (A") (A')
                 (A") (A") (A') (A") (A') (A') (A") (A') (A") (A')
                 (A') (A") (A") (A') (A') (A") (A') (A') (A") (A')
                 (A') (A') (A") (A') (A") (A')
 The electronic state of the initial guess is 2-A'.
 Initial guess <Sx>= 0.0000 <Sy>= 0.0000 <Sz>= 0.5000 <S**2>= 0.7500 S= 0.5000
 Requested convergence on RMS density matrix=1.00D-08 within 128 cycles.
 Requested convergence on MAX density matrix=1.00D-06.
 Requested convergence on             energy=1.00D-06.
 No special actions if energy rises.
 Keep R1 and R2 ints in memory in canonical form, NReq=5550621562.
 Integral accuracy reduced to 1.0D-05 until final iterations.
 EnCoef did     5 forward-backward iterations
 Initial convergence to 1.0D-05 achieved.  Increase integral accuracy.
 SCF Done:  E(UB3LYP) =  -3184.17597561     A.U. after   21 cycles
             Convg  =    0.5665D-08             -V/T =  2.0036
 <Sx>= 0.0000 <Sy>= 0.0000 <Sz>= 0.5000 <S**2>= 0.7624 S= 0.5062
 <L.S>= 0.000000000000E+00
 Annihilation of the first spin contaminant:
 S**2 before annihilation     0.7624,   after     0.7501
 QCSCF skips out because SCF is already converged.

 **********************************************************************

            Population analysis using the SCF density.

 **********************************************************************

 Orbital symmetries:
 Alpha Orbitals:
       Occupied  (A') (A") (A') (A') (A') (A') (A") (A') (A") (A')
                 (A') (A') (A') (A") (A') (A') (A') (A') (A") (A")
                 (A') (A') (A') (A") (A') (A') (A") (A') (A") (A')
                 (A") (A') (A") (A') (A') (A") (A') (A") (A') (A')
                 (A") (A") (A') (A') (A') (A") (A') (A") (A") (A')
                 (A') (A") (A') (A") (A') (A') (A') (A') (A") (A')
                 (A') (A') (A") (A") (A') (A') (A') (A") (A') (A")
                 (A') (A') (A") (A") (A') (A') (A')
       Virtual   (A") (A') (A") (A') (A') (A') (A") (A") (A') (A')
                 (A") (A') (A") (A') (A') (A") (A") (A') (A') (A")
                 (A") (A') (A') (A") (A') (A') (A') (A") (A') (A')
                 (A") (A") (A') (A") (A') (A') (A') (A') (A") (A')
                 (A") (A') (A") (A') (A") (A') (A') (A') (A") (A')
                 (A") (A") (A') (A') (A") (A') (A") (A") (A') (A')
                 (A") (A') (A") (A') (A") (A") (A') (A') (A") (A')
                 (A") (A') (A') (A") (A') (A') (A') (A") (A") (A')
                 (A") (A') (A") (A') (A') (A") (A") (A') (A') (A')
                 (A') (A") (A") (A") (A') (A') (A') (A") (A') (A")
                 (A") (A') (A') (A") (A') (A") (A') (A') (A") (A")
                 (A') (A") (A') (A") (A') (A") (A') (A') (A') (A')
                 (A') (A") (A") (A') (A') (A") (A") (A') (A') (A')
                 (A") (A') (A') (A") (A") (A') (A') (A") (A') (A")
                 (A') (A") (A') (A') (A") (A") (A') (A') (A") (A')
                 (A') (A') (A") (A") (A') (A") (A") (A') (A') (A')
                 (A') (A") (A') (A") (A") (A') (A') (A") (A") (A')
                 (A") (A') (A") (A') (A') (A') (A") (A') (A") (A')
                 (A") (A') (A") (A') (A") (A") (A') (A') (A') (A")
                 (A") (A') (A") (A') (A") (A') (A') (A") (A") (A')
                 (A") (A') (A') (A") (A") (A') (A') (A") (A') (A")
                 (A') (A") (A') (A') (A') (A") (A') (A") (A") (A')
                 (A") (A') (A') (A") (A') (A') (A") (A") (A') (A')
                 (A") (A') (A') (A") (A') (A") (A") (A') (A') (A')
                 (A") (A') (A") (A') (A") (A') (A') (A") (A') (A")
                 (A") (A") (A') (A') (A') (A") (A') (A") (A') (A')
                 (A") (A") (A') (A') (A") (A') (A') (A") (A') (A')
                 (A') (A") (A') (A") (A')
 Beta  Orbitals:
       Occupied  (A') (A") (A') (A') (A') (A') (A") (A') (A") (A')
                 (A') (A') (A") (A') (A') (A') (A') (A') (A") (A")
                 (A') (A') (A') (A") (A") (A') (A") (A') (A') (A")
                 (A") (A') (A') (A') (A") (A') (A") (A') (A') (A")
                 (A') (A") (A') (A') (A') (A") (A') (A") (A") (A')
                 (A') (A") (A") (A') (A') (A') (A') (A') (A") (A')
                 (A') (A') (A") (A") (A') (A') (A') (A") (A') (A")
                 (A') (A') (A") (A") (A') (A')
       Virtual   (A') (A") (A') (A") (A') (A') (A') (A") (A") (A')
                 (A') (A") (A') (A") (A') (A') (A") (A") (A') (A')
                 (A") (A") (A') (A') (A") (A') (A') (A') (A") (A')
                 (A") (A') (A") (A') (A") (A') (A') (A') (A') (A")
                 (A') (A") (A') (A") (A') (A") (A') (A') (A') (A")
                 (A') (A") (A") (A') (A') (A") (A') (A") (A") (A')
                 (A') (A") (A') (A") (A') (A") (A") (A') (A') (A")
                 (A') (A") (A') (A') (A") (A') (A') (A") (A') (A")
                 (A') (A") (A') (A") (A') (A') (A") (A") (A') (A')
                 (A') (A') (A") (A") (A") (A') (A') (A') (A") (A')
                 (A") (A") (A') (A') (A") (A') (A") (A') (A') (A")
                 (A") (A') (A") (A') (A") (A') (A") (A') (A') (A')
                 (A') (A') (A") (A") (A') (A') (A") (A") (A') (A')
                 (A') (A") (A') (A') (A") (A") (A') (A') (A") (A')
                 (A") (A') (A") (A') (A') (A") (A") (A') (A') (A")
                 (A') (A') (A') (A") (A") (A') (A") (A") (A') (A')
                 (A') (A') (A") (A') (A") (A") (A') (A') (A") (A")
                 (A') (A") (A') (A") (A') (A') (A') (A") (A') (A")
                 (A') (A") (A') (A") (A') (A") (A") (A') (A') (A')
                 (A") (A") (A') (A") (A") (A') (A') (A') (A") (A")
                 (A') (A") (A') (A') (A") (A") (A') (A') (A") (A')
                 (A") (A') (A") (A') (A') (A') (A") (A') (A") (A")
                 (A') (A") (A') (A') (A") (A') (A') (A") (A") (A')
                 (A') (A") (A') (A') (A") (A') (A") (A") (A') (A')
                 (A') (A") (A') (A") (A') (A") (A') (A') (A") (A')
                 (A") (A") (A") (A') (A') (A') (A") (A') (A") (A')
                 (A') (A") (A") (A') (A') (A") (A') (A') (A") (A')
                 (A') (A') (A") (A') (A") (A')
 The electronic state is 2-A'.
 Alpha  occ. eigenvalues --  -66.31214 -66.30882 -66.30882 -66.30827 -66.30684
 Alpha  occ. eigenvalues --  -66.30554 -66.30436 -66.30435 -66.30397 -66.30397
 Alpha  occ. eigenvalues --  -66.29585  -5.45406  -5.45341  -5.45337  -5.45255
 Alpha  occ. eigenvalues --   -5.44971  -5.44843  -5.44820  -5.44818  -5.44704
 Alpha  occ. eigenvalues --   -5.44703  -5.44127  -3.81340  -3.81337  -3.81311
 Alpha  occ. eigenvalues --   -3.81285  -3.81263  -3.81184  -3.81166  -3.81102
 Alpha  occ. eigenvalues --   -3.81064  -3.81004  -3.81000  -3.80935  -3.80839
 Alpha  occ. eigenvalues --   -3.80825  -3.80821  -3.80813  -3.80688  -3.80655
 Alpha  occ. eigenvalues --   -3.80639  -3.80628  -3.80628  -3.80599  -3.80530
 Alpha  occ. eigenvalues --   -3.80529  -3.80524  -3.80523  -3.80509  -3.80507
 Alpha  occ. eigenvalues --   -3.80441  -3.80441  -3.80067  -3.79978  -3.79781
 Alpha  occ. eigenvalues --   -0.82654  -0.74525  -0.72219  -0.71281  -0.63253
 Alpha  occ. eigenvalues --   -0.59584  -0.57634  -0.56741  -0.55693  -0.52571
 Alpha  occ. eigenvalues --   -0.48775  -0.43984  -0.42266  -0.42145  -0.41191
 Alpha  occ. eigenvalues --   -0.40553  -0.40378  -0.39760  -0.38927  -0.38697
 Alpha  occ. eigenvalues --   -0.37195  -0.33189
 Alpha virt. eigenvalues --   -0.25262  -0.25184  -0.23030  -0.22386  -0.21255
 Alpha virt. eigenvalues --   -0.19682  -0.18712  -0.18432  -0.18217  -0.17634
 Alpha virt. eigenvalues --   -0.17060  -0.16810  -0.15478  -0.14553  -0.11779
 Alpha virt. eigenvalues --   -0.10646  -0.08825  -0.07716  -0.07568  -0.06894
 Alpha virt. eigenvalues --   -0.06525  -0.05116  -0.03444  -0.01286  -0.00773
 Alpha virt. eigenvalues --    0.00308   0.00978   0.01296   0.02135   0.02396
 Alpha virt. eigenvalues --    0.02534   0.03545   0.03897   0.04390   0.04615
 Alpha virt. eigenvalues --    0.05105   0.05372   0.06064   0.06674   0.07024
 Alpha virt. eigenvalues --    0.08037   0.09258   0.09940   0.09998   0.10171
 Alpha virt. eigenvalues --    0.11498   0.11912   0.12130   0.13122   0.14112
 Alpha virt. eigenvalues --    0.14793   0.15053   0.15213   0.15640   0.16242
 Alpha virt. eigenvalues --    0.16960   0.17215   0.18043   0.18246   0.19766
 Alpha virt. eigenvalues --    0.19893   0.20438   0.21499   0.21526   0.22354
 Alpha virt. eigenvalues --    0.22651   0.23288   0.24372   0.24534   0.25169
 Alpha virt. eigenvalues --    0.25745   0.26510   0.28477   0.28820   0.30268
 Alpha virt. eigenvalues --    0.30457   0.31124   0.31304   0.31847   0.33205
 Alpha virt. eigenvalues --    0.34853   0.35834   0.36670   0.36857   0.37022
 Alpha virt. eigenvalues --    0.38336   0.38433   0.38814   0.39970   0.40367
 Alpha virt. eigenvalues --    0.41823   0.43047   0.43541   0.43973   0.44937
 Alpha virt. eigenvalues --    0.47023   0.47524   0.47684   0.48296   0.49050
 Alpha virt. eigenvalues --    0.50572   0.50805   0.52130   0.52480   0.53828
 Alpha virt. eigenvalues --    0.53978   0.54723   0.55130   0.55579   0.56497
 Alpha virt. eigenvalues --    0.56687   0.57948   0.58407   0.58666   0.58698
 Alpha virt. eigenvalues --    0.59843   0.60946   0.61209   0.62293   0.64914
 Alpha virt. eigenvalues --    0.66484   0.67628   0.70580   0.72203   0.73339
 Alpha virt. eigenvalues --    0.73996   0.74201   0.75701   0.76633   0.80141
 Alpha virt. eigenvalues --    0.80467   0.81256   0.81949   0.82286   0.82799
 Alpha virt. eigenvalues --    0.83694   0.84909   0.87208   0.88214   0.88518
 Alpha virt. eigenvalues --    0.89448   0.89692   0.91693   0.92284   0.92852
 Alpha virt. eigenvalues --    0.93681   0.94186   0.94683   0.95854   0.96058
 Alpha virt. eigenvalues --    0.96941   0.97790   0.98394   0.99375   0.99403
 Alpha virt. eigenvalues --    1.01318   1.03105   1.04176   1.04642   1.04934
 Alpha virt. eigenvalues --    1.06612   1.07071   1.07948   1.08849   1.09278
 Alpha virt. eigenvalues --    1.09772   1.11461   1.11887   1.13289   1.13963
 Alpha virt. eigenvalues --    1.15944   1.16347   1.17410   1.17482   1.18575
 Alpha virt. eigenvalues --    1.19815   1.21225   1.23079   1.24095   1.24901
 Alpha virt. eigenvalues --    1.25336   1.26217   1.27311   1.27824   1.28530
 Alpha virt. eigenvalues --    1.30055   1.30561   1.31955   1.32735   1.33938
 Alpha virt. eigenvalues --    1.34054   1.34670   1.35209   1.35865   1.35931
 Alpha virt. eigenvalues --    1.37141   1.37926   1.38362   1.39760   1.40905
 Alpha virt. eigenvalues --    1.41037   1.42054   1.44236   1.44444   1.51441
 Alpha virt. eigenvalues --    1.51636   1.55741   1.56562   1.56941   1.62101
 Alpha virt. eigenvalues --    1.62945   1.63488   1.64560   1.66343   1.66816
 Alpha virt. eigenvalues --    1.66832   1.68667   1.69074   1.69353   1.70012
 Alpha virt. eigenvalues --    1.71020   1.71508   1.72419   1.72686   1.74658
 Alpha virt. eigenvalues --    1.75057   1.77366   1.78594   1.78781   1.79419
 Alpha virt. eigenvalues --    1.80184   1.80406   1.81384   1.81913   1.82770
 Alpha virt. eigenvalues --    1.83100   1.84146   1.84451   1.85592   1.86029
 Alpha virt. eigenvalues --    1.87099   1.88057   1.88837   1.89744   1.90937
 Alpha virt. eigenvalues --    1.93075   1.93653   1.94314   1.97001   1.98882
 Alpha virt. eigenvalues --    1.99971   2.00118   2.01182   2.02415   2.03994
 Alpha virt. eigenvalues --    2.04513   2.04972   2.09110   2.13407   2.18994
 Alpha virt. eigenvalues --    2.22542   2.24700   2.29433   2.36128   2.40486
 Alpha virt. eigenvalues --    2.63858   2.75959   2.82910   2.83224   2.86737
 Alpha virt. eigenvalues --    2.96187   2.97900   3.07191   3.11862   3.18592
  Beta  occ. eigenvalues --  -66.31134 -66.30867 -66.30866 -66.30681 -66.30653
  Beta  occ. eigenvalues --  -66.30540 -66.30431 -66.30430 -66.30378 -66.30378
  Beta  occ. eigenvalues --  -66.29511  -5.45327  -5.45322  -5.45315  -5.45080
  Beta  occ. eigenvalues --   -5.44932  -5.44826  -5.44796  -5.44794  -5.44698
  Beta  occ. eigenvalues --   -5.44697  -5.44029  -3.81329  -3.81328  -3.81214
  Beta  occ. eigenvalues --   -3.81156  -3.81134  -3.81057  -3.81005  -3.80961
  Beta  occ. eigenvalues --   -3.80959  -3.80957  -3.80908  -3.80831  -3.80809
  Beta  occ. eigenvalues --   -3.80795  -3.80786  -3.80782  -3.80665  -3.80633
  Beta  occ. eigenvalues --   -3.80596  -3.80593  -3.80568  -3.80556  -3.80529
  Beta  occ. eigenvalues --   -3.80527  -3.80522  -3.80521  -3.80488  -3.80483
  Beta  occ. eigenvalues --   -3.80421  -3.80420  -3.79909  -3.79886  -3.79727
  Beta  occ. eigenvalues --   -0.82366  -0.74088  -0.71988  -0.71163  -0.62782
  Beta  occ. eigenvalues --   -0.58874  -0.57411  -0.56593  -0.55527  -0.52005
  Beta  occ. eigenvalues --   -0.48064  -0.42604  -0.42026  -0.41576  -0.41021
  Beta  occ. eigenvalues --   -0.40224  -0.40145  -0.39696  -0.38648  -0.38256
  Beta  occ. eigenvalues --   -0.36786
  Beta virt. eigenvalues --   -0.28056  -0.25100  -0.24800  -0.22862  -0.21533
  Beta virt. eigenvalues --   -0.20785  -0.19526  -0.18589  -0.18232  -0.17975
  Beta virt. eigenvalues --   -0.17374  -0.16883  -0.16372  -0.15323  -0.14103
  Beta virt. eigenvalues --   -0.11136  -0.10357  -0.08309  -0.07438  -0.07012
  Beta virt. eigenvalues --   -0.06685  -0.06371  -0.04721  -0.03153  -0.01099
  Beta virt. eigenvalues --   -0.00500   0.00530   0.01191   0.01400   0.02523
  Beta virt. eigenvalues --    0.02645   0.02664   0.03678   0.04029   0.04553
  Beta virt. eigenvalues --    0.04944   0.05289   0.05734   0.06264   0.06869
  Beta virt. eigenvalues --    0.07351   0.08196   0.09436   0.10101   0.10295
  Beta virt. eigenvalues --    0.10347   0.11736   0.12050   0.12717   0.13212
  Beta virt. eigenvalues --    0.14374   0.14927   0.15226   0.15588   0.16178
  Beta virt. eigenvalues --    0.16352   0.17308   0.17395   0.18189   0.18549
  Beta virt. eigenvalues --    0.19948   0.20064   0.20661   0.21554   0.21699
  Beta virt. eigenvalues --    0.22587   0.22821   0.23540   0.24561   0.24659
  Beta virt. eigenvalues --    0.25382   0.25908   0.26985   0.28833   0.29106
  Beta virt. eigenvalues --    0.30509   0.30794   0.31537   0.31546   0.32045
  Beta virt. eigenvalues --    0.33369   0.35133   0.36205   0.36822   0.37164
  Beta virt. eigenvalues --    0.37325   0.38531   0.38844   0.39139   0.40222
  Beta virt. eigenvalues --    0.40619   0.42260   0.43216   0.43866   0.44350
  Beta virt. eigenvalues --    0.45236   0.47262   0.47810   0.47849   0.48502
  Beta virt. eigenvalues --    0.49395   0.50704   0.51014   0.52419   0.52595
  Beta virt. eigenvalues --    0.54141   0.54244   0.55031   0.55458   0.55724
  Beta virt. eigenvalues --    0.56629   0.56938   0.58024   0.58608   0.58827
  Beta virt. eigenvalues --    0.58876   0.60006   0.61293   0.61541   0.62675
  Beta virt. eigenvalues --    0.65170   0.66776   0.67823   0.70613   0.72531
  Beta virt. eigenvalues --    0.73666   0.74348   0.74419   0.75957   0.77022
  Beta virt. eigenvalues --    0.80434   0.80731   0.81528   0.82127   0.82487
  Beta virt. eigenvalues --    0.82982   0.83916   0.85151   0.87573   0.88444
  Beta virt. eigenvalues --    0.88870   0.89779   0.90070   0.91901   0.92659
  Beta virt. eigenvalues --    0.93179   0.93731   0.94511   0.95055   0.95994
  Beta virt. eigenvalues --    0.96335   0.97212   0.98195   0.98633   0.99632
  Beta virt. eigenvalues --    0.99661   1.01509   1.03351   1.04370   1.04848
  Beta virt. eigenvalues --    1.05165   1.06935   1.07278   1.08269   1.09026
  Beta virt. eigenvalues --    1.09392   1.10013   1.11722   1.12040   1.13503
  Beta virt. eigenvalues --    1.14245   1.16205   1.16947   1.17545   1.17835
  Beta virt. eigenvalues --    1.18768   1.20044   1.21368   1.23462   1.24278
  Beta virt. eigenvalues --    1.25085   1.25639   1.26547   1.27585   1.28111
  Beta virt. eigenvalues --    1.28634   1.30326   1.30869   1.32263   1.32998
  Beta virt. eigenvalues --    1.34109   1.34280   1.34941   1.35453   1.36058
  Beta virt. eigenvalues --    1.36096   1.37505   1.38178   1.38566   1.39955
  Beta virt. eigenvalues --    1.41175   1.41229   1.42341   1.44485   1.44567
  Beta virt. eigenvalues --    1.51603   1.51877   1.55995   1.56690   1.57128
  Beta virt. eigenvalues --    1.62214   1.63200   1.63565   1.64672   1.66597
  Beta virt. eigenvalues --    1.66900   1.66987   1.68885   1.69140   1.69564
  Beta virt. eigenvalues --    1.70205   1.71185   1.71620   1.72743   1.72846
  Beta virt. eigenvalues --    1.74803   1.75197   1.77427   1.78801   1.79002
  Beta virt. eigenvalues --    1.79613   1.80277   1.80623   1.81465   1.82105
  Beta virt. eigenvalues --    1.82909   1.83253   1.84261   1.84617   1.85781
  Beta virt. eigenvalues --    1.86240   1.87191   1.88201   1.89028   1.89933
  Beta virt. eigenvalues --    1.91036   1.93254   1.93777   1.94448   1.97252
  Beta virt. eigenvalues --    1.98976   2.00154   2.00195   2.01372   2.02578
  Beta virt. eigenvalues --    2.04175   2.04624   2.05080   2.09204   2.13606
  Beta virt. eigenvalues --    2.19153   2.22659   2.24828   2.29558   2.36331
  Beta virt. eigenvalues --    2.40674   2.64151   2.76165   2.82963   2.83425
  Beta virt. eigenvalues --    2.86879   2.96552   2.98009   3.07491   3.11942
  Beta virt. eigenvalues --    3.18733
          Condensed to atoms (all electrons):
              1          2          3          4          5          6
     1  Si  13.596607   0.103593  -0.002741   0.000704   0.115055   0.115055
     2  Si   0.103593  13.521861   0.149644   0.010615   0.010358   0.010358
     3  Si  -0.002741   0.149644  13.499278  -0.012826   0.004736   0.030504
     4  Si   0.000704   0.010615  -0.012826  13.581629   0.007311   0.007311
     5  Si   0.115055   0.010358   0.004736   0.007311  13.489119   0.047191
     6  Si   0.115055   0.010358   0.030504   0.007311   0.047191  13.489119
     7  Si  -0.002741   0.149644  -0.015647  -0.012826   0.030504   0.004736
     8  Si  -0.009273   0.000058   0.064911   0.074545   0.006548   0.114786
     9  Si   0.000613  -0.023732   0.172524   0.128048   0.001290   0.001290
    10  Si  -0.001121   0.005635   0.024625   0.035561   0.031493   0.031493
    11  Si  -0.009273   0.000058   0.008221   0.074545   0.114786   0.006548
              7          8          9         10         11
     1  Si  -0.002741  -0.009273   0.000613  -0.001121  -0.009273
     2  Si   0.149644   0.000058  -0.023732   0.005635   0.000058
     3  Si  -0.015647   0.064911   0.172524   0.024625   0.008221
     4  Si  -0.012826   0.074545   0.128048   0.035561   0.074545
     5  Si   0.030504   0.006548   0.001290   0.031493   0.114786
     6  Si   0.004736   0.114786   0.001290   0.031493   0.006548
     7  Si  13.499278   0.008221   0.172524   0.024625   0.064911
     8  Si   0.008221  13.685497  -0.011082   0.009996   0.003887
     9  Si   0.172524  -0.011082  13.460353  -0.004685  -0.011082
    10  Si   0.024625   0.009996  -0.004685  13.747706   0.009996
    11  Si   0.064911   0.003887  -0.011082   0.009996  13.685497
 Mulliken atomic charges:
              1
     1  Si   0.093521
     2  Si   0.061908
     3  Si   0.076771
     4  Si   0.105382
     5  Si   0.141609
     6  Si   0.141609
     7  Si   0.076771
     8  Si   0.051906
     9  Si   0.113939
    10  Si   0.084677
    11  Si   0.051906
 Sum of Mulliken atomic charges =   1.00000
 Mulliken charges with hydrogens summed into heavy atoms:
              1
     1  Si   0.093521
     2  Si   0.061908
     3  Si   0.076771
     4  Si   0.105382
     5  Si   0.141609
     6  Si   0.141609
     7  Si   0.076771
     8  Si   0.051906
     9  Si   0.113939
    10  Si   0.084677
    11  Si   0.051906
 Sum of Mulliken charges with hydrogens summed into heavy atoms =   1.00000
          Atomic-Atomic Spin Densities.
              1          2          3          4          5          6
     1  Si   0.208190  -0.030785   0.002237   0.000556   0.014115   0.014115
     2  Si  -0.030785   0.233676  -0.035882   0.005878   0.000426   0.000426
     3  Si   0.002237  -0.035882   0.056004   0.009118  -0.001065   0.000546
     4  Si   0.000556   0.005878   0.009118   0.408744  -0.012612  -0.012612
     5  Si   0.014115   0.000426  -0.001065  -0.012612   0.043815   0.014719
     6  Si   0.014115   0.000426   0.000546  -0.012612   0.014719   0.043815
     7  Si   0.002237  -0.035882   0.011228   0.009118   0.000546  -0.001065
     8  Si   0.000154   0.001911   0.002805   0.002503  -0.003232  -0.007463
     9  Si   0.000119  -0.001796  -0.002001  -0.037959  -0.000591  -0.000591
    10  Si  -0.002269  -0.000124  -0.000417  -0.014958   0.002867   0.002867
    11  Si   0.000154   0.001911  -0.000182   0.002503  -0.007463  -0.003232
              7          8          9         10         11
     1  Si   0.002237   0.000154   0.000119  -0.002269   0.000154
     2  Si  -0.035882   0.001911  -0.001796  -0.000124   0.001911
     3  Si   0.011228   0.002805  -0.002001  -0.000417  -0.000182
     4  Si   0.009118   0.002503  -0.037959  -0.014958   0.002503
     5  Si   0.000546  -0.003232  -0.000591   0.002867  -0.007463
     6  Si  -0.001065  -0.007463  -0.000591   0.002867  -0.003232
     7  Si   0.056004  -0.000182  -0.002001  -0.000417   0.002805
     8  Si  -0.000182   0.012415   0.002531   0.001142   0.001633
     9  Si  -0.002001   0.002531   0.093462   0.000779   0.002531
    10  Si  -0.000417   0.001142   0.000779   0.029779   0.001142
    11  Si   0.002805   0.001633   0.002531   0.001142   0.012415
 Mulliken atomic spin densities:
              1
     1  Si   0.208824
     2  Si   0.139759
     3  Si   0.042391
     4  Si   0.360278
     5  Si   0.051526
     6  Si   0.051526
     7  Si   0.042391
     8  Si   0.014217
     9  Si   0.054482
    10  Si   0.020389
    11  Si   0.014217
 Sum of Mulliken atomic spin densities =   1.00000
 Electronic spatial extent (au):  <R**2>=           3409.3084
 Charge=              1.0000 electrons
 Dipole moment (field-independent basis, Debye):
    X=             -0.2477    Y=             -0.5951    Z=              0.0000  Tot=              0.6446
 Quadrupole moment (field-independent basis, Debye-Ang):
   XX=           -122.6171   YY=           -116.7572   ZZ=           -124.0524
   XY=             -2.8337   XZ=              0.0000   YZ=              0.0000
 Traceless Quadrupole moment (field-independent basis, Debye-Ang):
   XX=             -1.4748   YY=              4.3850   ZZ=             -2.9102
   XY=             -2.8337   XZ=              0.0000   YZ=              0.0000
 Octapole moment (field-independent basis, Debye-Ang**2):
  XXX=            -10.4788  YYY=            -23.3173  ZZZ=              0.0000  XYY=             -1.4684
  XXY=              5.5064  XXZ=              0.0000  XZZ=              1.0227  YZZ=              1.8866
  YYZ=              0.0000  XYZ=              0.0000
 Hexadecapole moment (field-independent basis, Debye-Ang**3):
 XXXX=          -1573.0798 YYYY=          -2094.4522 ZZZZ=          -1410.3483 XXXY=             82.1580
 XXXZ=              0.0000 YYYX=             97.4812 YYYZ=              0.0000 ZZZX=              0.0000
 ZZZY=              0.0000 XXYY=           -615.0176 XXZZ=           -502.0698 YYZZ=           -596.9625
 XXYZ=              0.0000 YYXZ=              0.0000 ZZXY=             37.0184
 N-N= 1.797318279698D+03 E-N=-1.671324767181D+04  KE= 4.758603975437D+03
 Symmetry A'   KE= 3.274805230603D+03
 Symmetry A"   KE= 1.483798744834D+03
                          Isotropic Fermi Contact Couplings
        Atom                 a.u.       MegaHertz       Gauss      10(-4) cm-1
     1  Si(29)             0.03686     -32.75955     -11.68942     -10.92741
     2  Si(29)             0.22460    -199.60947     -71.22562     -66.58255
     3  Si(29)             0.03800     -33.77597     -12.05211     -11.26645
     4  Si(29)             0.19636    -174.50819     -62.26886     -58.20967
     5  Si(29)            -0.02246      19.96290       7.12326       6.65891
     6  Si(29)            -0.02246      19.96290       7.12326       6.65891
     7  Si(29)             0.03800     -33.77597     -12.05211     -11.26645
     8  Si(29)             0.00222      -1.96876      -0.70250      -0.65671
     9  Si(29)             0.08779     -78.01702     -27.83841     -26.02368
    10  Si(29)             0.02489     -22.12059      -7.89318      -7.37864
    11  Si(29)             0.00222      -1.96876      -0.70250      -0.65671
 --------------------------------------------------------
       Center         ----  Spin Dipole Couplings  ----
                      3XX-RR        3YY-RR        3ZZ-RR
 --------------------------------------------------------
     1   Atom        0.221327     -0.003201     -0.218126
     2   Atom        0.236981     -0.138555     -0.098426
     3   Atom        0.109455     -0.061418     -0.048037
     4   Atom       -0.303315      0.634092     -0.330777
     5   Atom       -0.079476      0.118663     -0.039187
     6   Atom       -0.079476      0.118663     -0.039187
     7   Atom        0.109455     -0.061418     -0.048037
     8   Atom        0.024515     -0.032666      0.008150
     9   Atom       -0.056765      0.132486     -0.075720
    10   Atom       -0.020902      0.061550     -0.040648
    11   Atom        0.024515     -0.032666      0.008150
 --------------------------------------------------------
                        XY            XZ            YZ
 --------------------------------------------------------
     1   Atom        0.319136      0.000000      0.000000
     2   Atom        0.034246      0.000000      0.000000
     3   Atom       -0.001579     -0.018027      0.015105
     4   Atom        0.190467      0.000000      0.000000
     5   Atom       -0.040290     -0.009782      0.067179
     6   Atom       -0.040290      0.009782     -0.067179
     7   Atom       -0.001579      0.018027     -0.015105
     8   Atom       -0.007171      0.038354     -0.010705
     9   Atom       -0.087182      0.000000      0.000000
    10   Atom        0.027842      0.000000      0.000000
    11   Atom       -0.007171     -0.038354      0.010705
 --------------------------------------------------------


 ---------------------------------------------------------------------------------
              Anisotropic Spin Dipole Couplings in Principal Axis System
 ---------------------------------------------------------------------------------

       Atom             a.u.   MegaHertz   Gauss  10(-4) cm-1        Axes

              Baa    -0.2292    24.319     8.678     8.112 -0.5780  0.8160  0.0000
     1 Si(29) Bbb    -0.2181    23.140     8.257     7.719  0.0000  0.0000  1.0000
              Bcc     0.4474   -47.459   -16.934   -15.831  0.8160  0.5780  0.0000
 
              Baa    -0.1417    15.027     5.362     5.012 -0.0901  0.9959  0.0000
     2 Si(29) Bbb    -0.0984    10.441     3.726     3.483  0.0000  0.0000  1.0000
              Bcc     0.2401   -25.468    -9.088    -8.495  0.9959  0.0901  0.0000
 
              Baa    -0.0717     7.603     2.713     2.536 -0.0490  0.8242 -0.5642
     3 Si(29) Bbb    -0.0399     4.232     1.510     1.412  0.1047  0.5660  0.8177
              Bcc     0.1116   -11.834    -4.223    -3.947  0.9933 -0.0190 -0.1140
 
              Baa    -0.3405    36.126    12.890    12.050  0.9814 -0.1918  0.0000
     4 Si(29) Bbb    -0.3308    35.090    12.521    11.705  0.0000  0.0000  1.0000
              Bcc     0.6713   -71.216   -25.412   -23.755  0.1918  0.9814  0.0000
 
              Baa    -0.0878     9.309     3.322     3.105  0.9662  0.2278 -0.1205
     5 Si(29) Bbb    -0.0630     6.683     2.385     2.229  0.1881 -0.3037  0.9340
              Bcc     0.1508   -15.993    -5.707    -5.335 -0.1762  0.9251  0.3363
 
              Baa    -0.0878     9.309     3.322     3.105  0.9662  0.2278  0.1205
     6 Si(29) Bbb    -0.0630     6.683     2.385     2.229 -0.1881  0.3037  0.9340
              Bcc     0.1508   -15.993    -5.707    -5.335 -0.1762  0.9251 -0.3363
 
              Baa    -0.0717     7.603     2.713     2.536 -0.0490  0.8242  0.5642
     7 Si(29) Bbb    -0.0399     4.232     1.510     1.412 -0.1047 -0.5660  0.8177
              Bcc     0.1116   -11.834    -4.223    -3.947  0.9933 -0.0190  0.1140
 
              Baa    -0.0355     3.764     1.343     1.256 -0.0809  0.9492  0.3040
     8 Si(29) Bbb    -0.0218     2.308     0.824     0.770 -0.6376 -0.2837  0.7162
              Bcc     0.0572    -6.072    -2.167    -2.025  0.7661 -0.1359  0.6282
 
              Baa    -0.0908     9.633     3.437     3.213  0.9315  0.3637  0.0000
     9 Si(29) Bbb    -0.0757     8.033     2.866     2.679  0.0000  0.0000  1.0000
              Bcc     0.1665   -17.666    -6.304    -5.893 -0.3637  0.9315  0.0000
 
              Baa    -0.0406     4.312     1.539     1.438  0.0000  0.0000  1.0000
    10 Si(29) Bbb    -0.0294     3.121     1.114     1.041  0.9562 -0.2927  0.0000
              Bcc     0.0701    -7.433    -2.652    -2.480  0.2927  0.9562  0.0000
 
              Baa    -0.0355     3.764     1.343     1.256 -0.0809  0.9492 -0.3040
    11 Si(29) Bbb    -0.0218     2.308     0.824     0.770  0.6376  0.2837  0.7162
              Bcc     0.0572    -6.072    -2.167    -2.025  0.7661 -0.1359 -0.6282
 

 ---------------------------------------------------------------------------------

 Calling FoFJK, ICntrl=      2127 FMM=F ISym2X=1 I1Cent= 0 IOpClX= 1 NMat=1 NMatS=1 NMatT=0.
 ***** Axes restored to original set *****
 -------------------------------------------------------------------
 Center     Atomic                   Forces (Hartrees/Bohr)
 Number     Number              X              Y              Z
 -------------------------------------------------------------------
      1       14          -0.002261915    0.000933932    0.000000000
      2       14           0.001637712    0.000815177    0.000000000
      3       14           0.000154863    0.001558136   -0.001350043
      4       14           0.001828389   -0.000727860    0.000000000
      5       14          -0.001594331   -0.001198120    0.001105921
      6       14          -0.001594331   -0.001198120   -0.001105921
      7       14           0.000154863    0.001558136    0.001350043
      8       14           0.000789502    0.000205955   -0.002019662
      9       14           0.000910887    0.000885650    0.000000000
     10       14          -0.000815141   -0.003038840    0.000000000
     11       14           0.000789502    0.000205955    0.002019662
 -------------------------------------------------------------------
 Cartesian Forces:  Max     0.003038840 RMS     0.001269218

 GradGradGradGradGradGradGradGradGradGradGradGradGradGradGradGradGradGrad
 Berny optimization.
 Internal  Forces:  Max     0.001181397 RMS     0.000314147
 Search for a local minimum.
 Step number   1 out of a maximum of  100
 All quantities printed in internal units (Hartrees-Bohrs-Radians)
 Mixed Optimization -- En-DIIS/RFO-DIIS
 Second derivative matrix not updated -- first step.
     Eigenvalues ---    0.01484   0.01944   0.03245   0.03882   0.03895
     Eigenvalues ---    0.05370   0.06661   0.07173   0.07320   0.07537
     Eigenvalues ---    0.07548   0.08034   0.08356   0.08507   0.09018
     Eigenvalues ---    0.09530   0.09680   0.09832   0.10279   0.10478
     Eigenvalues ---    0.10537   0.11363   0.12174   0.12251   0.13271
     Eigenvalues ---    0.14216   0.148651000.000001000.000001000.00000
     Eigenvalues --- 1000.000001000.000001000.000001000.000001000.00000
     Eigenvalues --- 1000.000001000.000001000.000001000.000001000.00000
     Eigenvalues --- 1000.000001000.000001000.000001000.000001000.00000
     Eigenvalues --- 1000.000001000.000001000.000001000.000001000.00000
     Eigenvalues --- 1000.000001000.000001000.000001000.000001000.00000
     Eigenvalues --- 1000.000001000.000001000.000001000.000001000.00000
     Eigenvalues --- 1000.000001000.000001000.000001000.000001000.00000
     Eigenvalues --- 1000.000001000.000001000.000001000.000001000.00000
     Eigenvalues --- 1000.000001000.000001000.000001000.000001000.00000
     Eigenvalues --- 1000.000001000.000001000.000001000.000001000.00000
     Eigenvalues --- 1000.000001000.000001000.000001000.000001000.00000
     Eigenvalues --- 1000.000001000.000001000.000001000.000001000.00000
     Eigenvalues --- 1000.000001000.000001000.000001000.000001000.00000
     Eigenvalues --- 1000.000001000.000001000.000001000.000001000.00000
     Eigenvalues --- 1000.000001000.000001000.000001000.000001000.00000
     Eigenvalues --- 1000.000001000.000001000.000001000.000001000.00000
     Eigenvalues --- 1000.000001000.000001000.000001000.000001000.00000
     Eigenvalues --- 1000.000001000.000001000.000001000.000001000.00000
     Eigenvalues --- 1000.000001000.000001000.000001000.000001000.00000
     Eigenvalues --- 1000.000001000.000001000.000001000.000001000.00000
     Eigenvalues --- 1000.000001000.000001000.000001000.000001000.00000
     Eigenvalues --- 1000.000001000.000001000.000001000.000001000.00000
     Eigenvalues --- 1000.000001000.000001000.000001000.000001000.00000
     Eigenvalues --- 1000.000001000.000001000.000001000.000001000.00000
     Eigenvalues --- 1000.000001000.000001000.000001000.000001000.00000
     Eigenvalues --- 1000.000001000.000001000.000001000.000001000.00000
     Eigenvalues --- 1000.000001000.000001000.000001000.000001000.00000
     Eigenvalues --- 1000.000001000.000001000.000001000.000001000.00000
 RFO step:  Lambda=-2.05726463D-04 EMin= 1.48418522D-02
 Linear search not attempted -- first point.
 Iteration  1 RMS(Cart)=  0.00224145 RMS(Int)=  0.00002322
 Iteration  2 RMS(Cart)=  0.00000814 RMS(Int)=  0.00001195
 Iteration  3 RMS(Cart)=  0.00000000 RMS(Int)=  0.00001195
 ClnCor:  largest displacement from symmetrization is 1.13D-09 for atom     7.
 Variable       Old X    -DE/DX   Delta X   Delta X   Delta X     New X
                                 (Linear)    (Quad)   (Total)
    R1        4.68322  -0.00103   0.00000  -0.01047  -0.01050   4.67272
    R2        4.59891  -0.00081   0.00000  -0.00949  -0.00946   4.58944
    R3        4.59891  -0.00081   0.00000  -0.00949  -0.00946   4.58944
    R4        4.51499   0.00000   0.00000  -0.00014  -0.00014   4.51484
    R5        5.06038  -0.00047   0.00000  -0.00832  -0.00831   5.05207
    R6        5.06038  -0.00047   0.00000  -0.00832  -0.00831   5.05207
    R7        4.51499   0.00000   0.00000  -0.00014  -0.00014   4.51484
    R8        5.13673  -0.00060   0.00000  -0.00852  -0.00852   5.12821
    R9        5.01848  -0.00108   0.00000  -0.01312  -0.01311   5.00537
   R10        5.03621  -0.00065   0.00000  -0.00947  -0.00947   5.02674
   R11        4.73675  -0.00052   0.00000  -0.00478  -0.00480   4.73195
   R12        4.51005  -0.00045   0.00000  -0.00456  -0.00457   4.50548
   R13        5.13673  -0.00060   0.00000  -0.00852  -0.00852   5.12821
   R14        4.81966  -0.00066   0.00000  -0.01020  -0.01019   4.80947
   R15        4.64507  -0.00061   0.00000  -0.00674  -0.00674   4.63833
   R16        4.66826  -0.00118   0.00000  -0.01197  -0.01197   4.65628
   R17        4.81966  -0.00066   0.00000  -0.01020  -0.01019   4.80947
   R18        4.69934  -0.00084   0.00000  -0.00522  -0.00528   4.69407
   R19        5.01848  -0.00108   0.00000  -0.01312  -0.01311   5.00537
   R20        4.85323  -0.00086   0.00000  -0.00846  -0.00848   4.84474
   R21        4.53634  -0.00076   0.00000  -0.00818  -0.00817   4.52816
   R22        4.53634  -0.00076   0.00000  -0.00818  -0.00817   4.52816
   R23        4.85323  -0.00086   0.00000  -0.00846  -0.00848   4.84474
   R24        4.51005  -0.00045   0.00000  -0.00456  -0.00457   4.50548
   R25        4.73675  -0.00052   0.00000  -0.00478  -0.00480   4.73195
   R26        5.00332  -0.00103   0.00000  -0.01419  -0.01416   4.98916
   R27        5.00332  -0.00103   0.00000  -0.01419  -0.01416   4.98916
    A1        2.07446  -0.00022   0.00000  -0.00196  -0.00196   2.07250
    A2        2.07446  -0.00022   0.00000  -0.00196  -0.00196   2.07250
    A3        1.63341  -0.00029   0.00000  -0.00246  -0.00247   1.63095
    A4        1.63341  -0.00029   0.00000  -0.00246  -0.00247   1.63095
    A5        1.86444   0.00012   0.00000   0.00126   0.00126   1.86571
    A6        2.06822   0.00006   0.00000   0.00003   0.00003   2.06825
    A7        1.86453   0.00008   0.00000   0.00166   0.00166   1.86618
    A8        1.42719  -0.00003   0.00000   0.00036   0.00035   1.42754
    A9        1.53723  -0.00003   0.00000   0.00034   0.00033   1.53756
   A10        2.34314  -0.00004   0.00000   0.00065   0.00065   2.34378
   A11        1.93970  -0.00002   0.00000  -0.00066  -0.00065   1.93905
   A12        1.88976  -0.00005   0.00000  -0.00096  -0.00095   1.88880
   A13        1.66177  -0.00004   0.00000  -0.00053  -0.00052   1.66125
   A14        1.88683   0.00000   0.00000   0.00052   0.00052   1.88735
   A15        1.88683   0.00000   0.00000   0.00052   0.00052   1.88735
   A16        1.66177  -0.00004   0.00000  -0.00053  -0.00052   1.66125
   A17        1.82753   0.00003   0.00000   0.00114   0.00113   1.82866
   A18        2.13855  -0.00001   0.00000  -0.00035  -0.00035   2.13820
   A19        2.51973  -0.00001   0.00000   0.00019   0.00020   2.51993
   A20        1.82753   0.00003   0.00000   0.00114   0.00113   1.82866
   A21        1.93386   0.00006   0.00000   0.00179   0.00178   1.93564
   A22        2.00596  -0.00001   0.00000  -0.00172  -0.00170   2.00426
   A23        2.95143   0.00014   0.00000   0.00220   0.00217   2.95360
   A24        1.94950   0.00014   0.00000   0.00090   0.00091   1.95042
   A25        1.95117   0.00027   0.00000   0.00353   0.00353   1.95470
   A26        1.60437   0.00003   0.00000  -0.00034  -0.00033   1.60403
   A27        1.99726   0.00004   0.00000  -0.00081  -0.00081   1.99645
   A28        1.64882   0.00000   0.00000  -0.00026  -0.00025   1.64856
   A29        1.93386   0.00006   0.00000   0.00179   0.00178   1.93564
   A30        2.95143   0.00014   0.00000   0.00220   0.00217   2.95360
   A31        2.00596  -0.00001   0.00000  -0.00172  -0.00170   2.00426
   A32        1.95117   0.00027   0.00000   0.00353   0.00353   1.95470
   A33        1.94950   0.00014   0.00000   0.00090   0.00091   1.95042
   A34        1.60437   0.00003   0.00000  -0.00034  -0.00033   1.60403
   A35        1.64882   0.00000   0.00000  -0.00026  -0.00025   1.64856
   A36        1.99726   0.00004   0.00000  -0.00081  -0.00081   1.99645
   A37        1.86444   0.00012   0.00000   0.00126   0.00126   1.86571
   A38        1.86453   0.00008   0.00000   0.00166   0.00166   1.86618
   A39        2.06822   0.00006   0.00000   0.00003   0.00003   2.06825
   A40        1.53723  -0.00003   0.00000   0.00034   0.00033   1.53756
   A41        1.93970  -0.00002   0.00000  -0.00066  -0.00065   1.93905
   A42        1.42719  -0.00003   0.00000   0.00036   0.00035   1.42754
   A43        2.34314  -0.00004   0.00000   0.00065   0.00065   2.34378
   A44        1.88976  -0.00005   0.00000  -0.00096  -0.00095   1.88880
   A45        1.67787  -0.00008   0.00000  -0.00077  -0.00077   1.67710
   A46        1.57960  -0.00006   0.00000   0.00011   0.00010   1.57970
   A47        1.54533   0.00006   0.00000   0.00043   0.00043   1.54576
   A48        1.54533   0.00006   0.00000   0.00043   0.00043   1.54576
   A49        1.81435   0.00008   0.00000   0.00152   0.00151   1.81586
   A50        1.81435   0.00008   0.00000   0.00152   0.00151   1.81586
   A51        2.01188   0.00021   0.00000   0.00196   0.00196   2.01385
   A52        1.57960  -0.00006   0.00000   0.00011   0.00010   1.57970
   A53        1.67787  -0.00008   0.00000  -0.00077  -0.00077   1.67710
    D1        1.34107  -0.00023   0.00000  -0.00298  -0.00297   1.33810
    D2        0.24944  -0.00026   0.00000  -0.00263  -0.00262   0.24682
    D3        2.38714  -0.00022   0.00000  -0.00250  -0.00249   2.38465
    D4        0.41680  -0.00008   0.00000  -0.00184  -0.00183   0.41497
    D5       -0.67483  -0.00011   0.00000  -0.00148  -0.00148  -0.67631
    D6        1.46287  -0.00007   0.00000  -0.00136  -0.00135   1.46152
    D7        0.28112   0.00007   0.00000   0.00213   0.00212   0.28324
    D8       -0.93887   0.00000   0.00000   0.00239   0.00238  -0.93649
    D9        0.93887   0.00000   0.00000  -0.00239  -0.00238   0.93649
   D10       -0.28112  -0.00007   0.00000  -0.00213  -0.00212  -0.28324
   D11       -1.34107   0.00023   0.00000   0.00298   0.00297  -1.33810
   D12       -2.38714   0.00022   0.00000   0.00250   0.00249  -2.38465
   D13       -0.24944   0.00026   0.00000   0.00263   0.00262  -0.24682
   D14       -0.41680   0.00008   0.00000   0.00184   0.00183  -0.41497
   D15       -1.46287   0.00007   0.00000   0.00136   0.00135  -1.46152
   D16        0.67483   0.00011   0.00000   0.00148   0.00148   0.67631
   D17       -1.04598   0.00001   0.00000   0.00087   0.00087  -1.04512
   D18        0.06982  -0.00002   0.00000   0.00000   0.00001   0.06983
   D19       -0.00890   0.00001   0.00000   0.00048   0.00047  -0.00842
   D20        1.10691  -0.00002   0.00000  -0.00039  -0.00038   1.10652
   D21       -2.06522  -0.00001   0.00000   0.00103   0.00101  -2.06420
   D22       -1.05786  -0.00001   0.00000  -0.00009  -0.00009  -1.05795
   D23        0.00855  -0.00001   0.00000  -0.00047  -0.00046   0.00809
   D24       -1.00736   0.00000   0.00000   0.00112   0.00111  -1.00625
   D25        0.00000   0.00000   0.00000   0.00000   0.00000   0.00000
   D26        1.06641   0.00000   0.00000  -0.00037  -0.00037   1.06604
   D27       -1.62947  -0.00005   0.00000   0.00030   0.00029  -1.62918
   D28       -0.62212  -0.00005   0.00000  -0.00082  -0.00082  -0.62294
   D29        0.44429  -0.00005   0.00000  -0.00119  -0.00119   0.44310
   D30        0.00000   0.00000   0.00000   0.00000   0.00000   0.00000
   D31       -0.89799   0.00001   0.00000  -0.00054  -0.00054  -0.89853
   D32        0.89799  -0.00001   0.00000   0.00054   0.00054   0.89853
   D33        0.00000   0.00000   0.00000   0.00000   0.00000   0.00000
   D34        0.77104   0.00014   0.00000   0.00077   0.00078   0.77181
   D35       -0.30991   0.00004   0.00000  -0.00039  -0.00039  -0.31030
   D36       -1.35395   0.00004   0.00000  -0.00068  -0.00068  -1.35463
   D37       -0.06982   0.00002   0.00000   0.00000  -0.00001  -0.06983
   D38       -1.10691   0.00002   0.00000   0.00039   0.00038  -1.10652
   D39        1.04598  -0.00001   0.00000  -0.00087  -0.00087   1.04512
   D40        0.00890  -0.00001   0.00000  -0.00048  -0.00047   0.00842
   D41        0.57201  -0.00008   0.00000  -0.00202  -0.00201   0.57000
   D42        1.56787  -0.00005   0.00000  -0.00109  -0.00108   1.56679
   D43       -0.50223  -0.00010   0.00000  -0.00339  -0.00337  -0.50560
   D44        1.02024  -0.00001   0.00000   0.00019   0.00019   1.02043
   D45        0.00911  -0.00001   0.00000  -0.00050  -0.00049   0.00861
   D46       -0.00911   0.00001   0.00000   0.00050   0.00049  -0.00861
   D47       -1.02024   0.00001   0.00000  -0.00019  -0.00019  -1.02043
   D48        0.50557   0.00000   0.00000   0.00034   0.00034   0.50591
   D49       -0.50557   0.00000   0.00000  -0.00034  -0.00034  -0.50591
   D50       -0.57201   0.00008   0.00000   0.00202   0.00201  -0.57000
   D51        0.50223   0.00010   0.00000   0.00339   0.00337   0.50560
   D52       -1.56787   0.00005   0.00000   0.00109   0.00108  -1.56679
   D53        0.00000   0.00000   0.00000   0.00000   0.00000   0.00000
   D54       -0.99108  -0.00012   0.00000  -0.00169  -0.00169  -0.99277
   D55        0.99108   0.00012   0.00000   0.00169   0.00169   0.99277
   D56        0.00000   0.00000   0.00000   0.00000   0.00000   0.00000
   D57        1.00736   0.00000   0.00000  -0.00112  -0.00111   1.00625
   D58        2.06522   0.00001   0.00000  -0.00103  -0.00101   2.06420
   D59        1.62947   0.00005   0.00000  -0.00030  -0.00029   1.62918
   D60        0.00000   0.00000   0.00000   0.00000   0.00000   0.00000
   D61        1.05786   0.00001   0.00000   0.00009   0.00009   1.05795
   D62        0.62212   0.00005   0.00000   0.00082   0.00082   0.62294
   D63       -1.06641   0.00000   0.00000   0.00037   0.00037  -1.06604
   D64       -0.00855   0.00001   0.00000   0.00047   0.00046  -0.00809
   D65       -0.44429   0.00005   0.00000   0.00119   0.00119  -0.44310
   D66       -2.00507  -0.00007   0.00000  -0.00188  -0.00187  -2.00694
   D67       -0.98933   0.00004   0.00000  -0.00130  -0.00129  -0.99062
   D68       -0.89885  -0.00015   0.00000  -0.00249  -0.00249  -0.90134
   D69        0.11688  -0.00003   0.00000  -0.00191  -0.00190   0.11498
   D70        0.00931  -0.00001   0.00000  -0.00050  -0.00050   0.00882
   D71        1.02505   0.00011   0.00000   0.00008   0.00009   1.02514
   D72        0.65955  -0.00032   0.00000  -0.01773  -0.01778   0.64177
   D73        0.93736   0.00009   0.00000  -0.00096  -0.00095   0.93641
   D74       -0.25702  -0.00005   0.00000  -0.00161  -0.00160  -0.25862
   D75       -0.65955   0.00032   0.00000   0.01773   0.01778  -0.64177
   D76       -0.93736  -0.00009   0.00000   0.00096   0.00095  -0.93641
   D77        0.25702   0.00005   0.00000   0.00161   0.00160   0.25862
   D78        2.00507   0.00007   0.00000   0.00188   0.00187   2.00694
   D79        0.98933  -0.00004   0.00000   0.00130   0.00129   0.99062
   D80        0.89885   0.00015   0.00000   0.00249   0.00249   0.90134
   D81       -0.11688   0.00003   0.00000   0.00191   0.00190  -0.11498
   D82       -0.00931   0.00001   0.00000   0.00050   0.00050  -0.00882
   D83       -1.02505  -0.00011   0.00000  -0.00008  -0.00009  -1.02514
   D84       -0.77104  -0.00014   0.00000  -0.00077  -0.00078  -0.77181
   D85        0.30991  -0.00004   0.00000   0.00039   0.00039   0.31030
   D86        1.35395  -0.00004   0.00000   0.00068   0.00068   1.35463
   D87       -0.44028  -0.00003   0.00000   0.00070   0.00069  -0.43958
   D88        0.56025   0.00002   0.00000   0.00190   0.00189   0.56215
   D89        0.44028   0.00003   0.00000  -0.00070  -0.00069   0.43958
   D90       -0.56025  -0.00002   0.00000  -0.00190  -0.00189  -0.56215
         Item               Value     Threshold  Converged?
 Maximum Force            0.001181     0.000450     NO 
 RMS     Force            0.000314     0.000300     NO 
 Maximum Displacement     0.011547     0.001800     NO 
 RMS     Displacement     0.002245     0.001200     NO 
 Predicted change in Energy=-1.033072D-04
 GradGradGradGradGradGradGradGradGradGradGradGradGradGradGradGradGradGrad

                          Input orientation:                          
 ---------------------------------------------------------------------
 Center     Atomic      Atomic             Coordinates (Angstroms)
 Number     Number       Type             X           Y           Z
 ---------------------------------------------------------------------
      1         14           0        3.223775   -0.533489    0.000000
      2         14           0        1.167288   -1.906478    0.000000
      3         14           0       -0.686884   -1.198563    1.330018
      4         14           0       -1.876691    0.845878    0.000000
      5         14           0        1.383569    0.451055   -1.241996
      6         14           0        1.383569    0.451055    1.241996
      7         14           0       -0.686884   -1.198563   -1.330018
      8         14           0       -0.688011    1.137602    2.231432
      9         14           0       -2.644739   -1.485361    0.000000
     10         14           0        0.113024    2.299260    0.000000
     11         14           0       -0.688011    1.137602   -2.231432
 ---------------------------------------------------------------------
                    Distance matrix (angstroms):
                    1          2          3          4          5
     1  Si   0.000000
     2  Si   2.472698   0.000000
     3  Si   4.183840   2.389151   0.000000
     4  Si   5.283692   4.103812   2.713730   0.000000
     5  Si   2.428629   2.673442   3.690972   3.511088   0.000000
     6  Si   2.428629   2.673442   2.648729   3.511088   2.483993
     7  Si   4.183840   2.389151   2.660036   2.713730   2.648729
     8  Si   4.803530   4.205692   2.504040   2.545064   4.102133
     9  Si   5.945209   3.835217   2.384197   2.454501   4.638915
    10  Si   4.207283   4.335863   3.826691   2.463998   2.563728
    11  Si   4.803530   4.205692   4.259295   2.545064   2.396200
                    6          7          8          9         10
     6  Si   0.000000
     7  Si   3.690972   0.000000
     8  Si   2.396200   4.259295   0.000000
     9  Si   4.638915   2.384197   3.960809   0.000000
    10  Si   2.563728   3.826691   2.640150   4.682800   0.000000
    11  Si   4.102133   2.504040   4.462863   3.960809   2.640150
                   11
    11  Si   0.000000
 Stoichiometry    Si11(1+,2)
 Framework group  CS[SG(Si5),X(Si6)]
 Deg. of freedom    16
 Full point group                 CS      NOp   2
 Largest Abelian subgroup         CS      NOp   2
 Largest concise Abelian subgroup CS      NOp   2
                         Standard orientation:                         
 ---------------------------------------------------------------------
 Center     Atomic      Atomic             Coordinates (Angstroms)
 Number     Number       Type             X           Y           Z
 ---------------------------------------------------------------------
      1         14           0        0.507752   -3.227928    0.000000
      2         14           0       -1.442472   -1.707774    0.000000
      3         14           0       -1.353795    0.274959    1.330018
      4         14           0        0.212551    2.047512    0.000000
      5         14           0        0.863406   -1.171428   -1.241996
      6         14           0        0.863406   -1.171428    1.241996
      7         14           0       -1.353795    0.274959   -1.330018
      8         14           0        0.863406    1.010955    2.231432
      9         14           0       -2.241946    2.043189    0.000000
     10         14           0        2.218080    0.616030    0.000000
     11         14           0        0.863406    1.010955   -2.231432
 ---------------------------------------------------------------------
[...]
 Mulliken atomic charges:
              1
     1  Si   0.118205
     2  Si  -0.026446
     3  Si   0.159287
     4  Si   0.209019
     5  Si   0.166410
     6  Si   0.166410
     7  Si   0.159287
     8  Si  -0.000963
     9  Si   0.016221
    10  Si   0.033533
    11  Si  -0.000963
 Sum of Mulliken atomic charges =   1.00000
 Mulliken charges with hydrogens summed into heavy atoms:
              1
     1  Si   0.118205
     2  Si  -0.026446
     3  Si   0.159287
     4  Si   0.209019
     5  Si   0.166410
     6  Si   0.166410
     7  Si   0.159287
     8  Si  -0.000963
     9  Si   0.016221
    10  Si   0.033533
    11  Si  -0.000963
 Sum of Mulliken charges with hydrogens summed into heavy atoms =   1.00000
          Atomic-Atomic Spin Densities.
              1          2          3          4          5          6
     1  Si   0.197511  -0.044789   0.002807  -0.001723   0.035664   0.035664
     2  Si  -0.044789   0.329155  -0.044160   0.002838   0.012047   0.012047
     3  Si   0.002807  -0.044160   0.040787   0.018639  -0.002232   0.001310
     4  Si  -0.001723   0.002838   0.018639   0.577499  -0.014669  -0.014669
     5  Si   0.035664   0.012047  -0.002232  -0.014669  -0.054473  -0.009156
     6  Si   0.035664   0.012047   0.001310  -0.014669  -0.009156  -0.054473
     7  Si   0.002807  -0.044160  -0.001056   0.018639   0.001310  -0.002232
     8  Si  -0.000383   0.000651   0.001960  -0.002180  -0.000943   0.001840
     9  Si   0.000859  -0.003939   0.015956  -0.054604  -0.001803  -0.001803
    10  Si  -0.006336   0.000931  -0.002959   0.001360   0.008570   0.008570
    11  Si  -0.000383   0.000651  -0.000821  -0.002180   0.001840  -0.000943
              7          8          9         10         11
     1  Si   0.002807  -0.000383   0.000859  -0.006336  -0.000383
     2  Si  -0.044160   0.000651  -0.003939   0.000931   0.000651
     3  Si  -0.001056   0.001960   0.015956  -0.002959  -0.000821
     4  Si   0.018639  -0.002180  -0.054604   0.001360  -0.002180
     5  Si   0.001310  -0.000943  -0.001803   0.008570   0.001840
     6  Si  -0.002232   0.001840  -0.001803   0.008570  -0.000943
     7  Si   0.040787  -0.000821   0.015956  -0.002959   0.001960
     8  Si  -0.000821   0.016036   0.001041  -0.000763   0.001100
     9  Si   0.015956   0.001041  -0.007551  -0.001563   0.001041
    10  Si  -0.002959  -0.000763  -0.001563   0.012554  -0.000763
    11  Si   0.001960   0.001100   0.001041  -0.000763   0.016036
 Mulliken atomic spin densities:
              1
     1  Si   0.221697
     2  Si   0.221271
     3  Si   0.030231
     4  Si   0.528950
     5  Si  -0.023845
     6  Si  -0.023845
     7  Si   0.030231
     8  Si   0.017539
     9  Si  -0.036411
    10  Si   0.016642
    11  Si   0.017539
 Sum of Mulliken atomic spin densities =   1.00000
 Electronic spatial extent (au):  <R**2>=           3394.2148
 Charge=              1.0000 electrons
 Dipole moment (field-independent basis, Debye):
    X=             -0.6479    Y=             -0.8600    Z=              0.0000  Tot=              1.0768
 Quadrupole moment (field-independent basis, Debye-Ang):
   XX=           -126.8531   YY=           -121.7269   ZZ=           -128.1098
   XY=             -2.7850   XZ=              0.0000   YZ=              0.0000
 Traceless Quadrupole moment (field-independent basis, Debye-Ang):
   XX=             -1.2899   YY=              3.8364   ZZ=             -2.5465
   XY=             -2.7850   XZ=              0.0000   YZ=              0.0000
 Octapole moment (field-independent basis, Debye-Ang**2):
  XXX=            -14.0552  YYY=            -17.0631  ZZZ=              0.0000  XYY=             -0.2862
  XXY=              1.1415  XXZ=              0.0000  XZZ=             -3.8226  YZZ=             -4.5392
  YYZ=              0.0000  XYZ=              0.0000
 Hexadecapole moment (field-independent basis, Debye-Ang**3):
 XXXX=          -1634.4676 YYYY=          -2172.6034 ZZZZ=          -1459.3337 XXXY=             87.9870
 XXXZ=              0.0000 YYYX=            116.9487 YYYZ=              0.0000 ZZZX=              0.0000
 ZZZY=              0.0000 XXYY=           -634.9064 XXZZ=           -513.1989 YYZZ=           -611.5534
 XXYZ=              0.0000 YYXZ=              0.0000 ZZXY=             35.1578
 N-N= 1.805086633518D+03 E-N=-1.674213607625D+04  KE= 4.766290063154D+03
 Symmetry A'   KE= 3.279630750887D+03
 Symmetry A"   KE= 1.486659312266D+03
                          Isotropic Fermi Contact Couplings
        Atom                 a.u.       MegaHertz       Gauss      10(-4) cm-1
     1  Si(29)             0.00113      -1.00372      -0.35815      -0.33481
     2  Si(29)             0.32542    -289.21249    -103.19820     -96.47090
     3  Si(29)             0.04185     -37.19217     -13.27109     -12.40597
     4  Si(29)             0.37541    -333.63754    -119.05017    -111.28950
     5  Si(29)            -0.10480      93.13596      33.23322      31.06681
     6  Si(29)            -0.10480      93.13596      33.23322      31.06681
     7  Si(29)             0.04185     -37.19217     -13.27109     -12.40597
     8  Si(29)             0.01328     -11.80314      -4.21165      -3.93710
     9  Si(29)             0.05274     -46.87145     -16.72490     -15.63463
    10  Si(29)             0.01048      -9.31262      -3.32298      -3.10636
    11  Si(29)             0.01328     -11.80314      -4.21165      -3.93710
 --------------------------------------------------------
       Center         ----  Spin Dipole Couplings  ----
                      3XX-RR        3YY-RR        3ZZ-RR
 --------------------------------------------------------
     1   Atom        0.089671      0.072029     -0.161700
     2   Atom        0.420313     -0.263274     -0.157039
     3   Atom        0.167257     -0.097249     -0.070008
     4   Atom       -0.478817      0.971825     -0.493008
     5   Atom       -0.099365      0.132312     -0.032947
     6   Atom       -0.099365      0.132312     -0.032947
     7   Atom        0.167257     -0.097249     -0.070008
     8   Atom        0.051846     -0.027612     -0.024234
     9   Atom       -0.131770      0.237902     -0.106132
    10   Atom        0.056217     -0.008397     -0.047819
    11   Atom        0.051846     -0.027612     -0.024234
 --------------------------------------------------------
                        XY            XZ            YZ
 --------------------------------------------------------
     1   Atom        0.421532      0.000000      0.000000
     2   Atom        0.175659      0.000000      0.000000
     3   Atom       -0.079557     -0.033530      0.084758
     4   Atom        0.311575      0.000000      0.000000
     5   Atom       -0.030766      0.030521      0.000302
     6   Atom       -0.030766     -0.030521     -0.000302
     7   Atom       -0.079557      0.033530     -0.084758
     8   Atom       -0.019215      0.017131     -0.002400
     9   Atom       -0.297341      0.000000      0.000000
    10   Atom       -0.114667      0.000000      0.000000
    11   Atom       -0.019215     -0.017131      0.002400
 --------------------------------------------------------


 ---------------------------------------------------------------------------------
              Anisotropic Spin Dipole Couplings in Principal Axis System
 ---------------------------------------------------------------------------------

       Atom             a.u.   MegaHertz   Gauss  10(-4) cm-1        Axes

              Baa    -0.3408    36.151    12.899    12.059 -0.6997  0.7145  0.0000
     1 Si(29) Bbb    -0.1617    17.154     6.121     5.722  0.0000  0.0000  1.0000
              Bcc     0.5025   -53.304   -19.020   -17.780  0.7145  0.6997  0.0000
 
              Baa    -0.3058    32.437    11.574    10.820 -0.2351  0.9720  0.0000
     2 Si(29) Bbb    -0.1570    16.659     5.944     5.557  0.0000  0.0000  1.0000
              Bcc     0.4628   -49.097   -17.519   -16.377  0.9720  0.2351  0.0000
 
              Baa    -0.1744    18.497     6.600     6.170  0.1248  0.7894 -0.6010
     3 Si(29) Bbb    -0.0268     2.848     1.016     0.950  0.3510  0.5315  0.7709
              Bcc     0.2012   -21.345    -7.616    -7.120  0.9280 -0.3072 -0.2107
 
              Baa    -0.5429    57.594    20.551    19.211  0.9795 -0.2015  0.0000
     4 Si(29) Bbb    -0.4930    52.300    18.662    17.445  0.0000  0.0000  1.0000
              Bcc     1.0359  -109.894   -39.213   -36.657  0.2015  0.9795  0.0000
 
              Baa    -0.1146    12.160     4.339     4.056  0.9302  0.1163 -0.3480
     5 Si(29) Bbb    -0.0218     2.310     0.824     0.771  0.3423  0.0665  0.9372
              Bcc     0.1364   -14.471    -5.164    -4.827 -0.1322  0.9910 -0.0221
 
              Baa    -0.1146    12.160     4.339     4.056  0.9302  0.1163  0.3480
     6 Si(29) Bbb    -0.0218     2.310     0.824     0.771 -0.3423 -0.0665  0.9372
              Bcc     0.1364   -14.471    -5.164    -4.827 -0.1322  0.9910  0.0221
 
              Baa    -0.1744    18.497     6.600     6.170  0.1248  0.7894  0.6010
     7 Si(29) Bbb    -0.0268     2.848     1.016     0.950 -0.3510 -0.5315  0.7709
              Bcc     0.2012   -21.345    -7.616    -7.120  0.9280 -0.3072  0.2107
 
              Baa    -0.0325     3.444     1.229     1.149  0.2684  0.9184 -0.2907
     8 Si(29) Bbb    -0.0273     2.898     1.034     0.967 -0.1219  0.3317  0.9355
              Bcc     0.0598    -6.342    -2.263    -2.116  0.9556 -0.2156  0.2010
 
              Baa    -0.2970    31.511    11.244    10.511  0.8741  0.4858  0.0000
     9 Si(29) Bbb    -0.1061    11.259     4.017     3.756  0.0000  0.0000  1.0000
              Bcc     0.4032   -42.770   -15.262   -14.267 -0.4858  0.8741  0.0000
 
              Baa    -0.0952    10.101     3.604     3.369  0.6037  0.7972  0.0000
    10 Si(29) Bbb    -0.0478     5.073     1.810     1.692  0.0000  0.0000  1.0000
              Bcc     0.1430   -15.174    -5.415    -5.062  0.7972 -0.6037  0.0000
 
              Baa    -0.0325     3.444     1.229     1.149  0.2684  0.9184  0.2907
    11 Si(29) Bbb    -0.0273     2.898     1.034     0.967  0.1219 -0.3317  0.9355
              Bcc     0.0598    -6.342    -2.263    -2.116  0.9556 -0.2156 -0.2010
 

 ---------------------------------------------------------------------------------

 1\1\GINC-NODE77\SP\UHF\GFHFB2\Si11(1+,2)\TAM\20-Dec-2011\0\\#N Geom=Al
 lCheck Guess=TCheck SCRF=Check HF/GFHFB2 SCF=Tight\\si11-n\\1,2\Si,0,3
 .2231573493,-0.5111416907,0.\Si,0,1.1765198204,-1.9129322352,0.\Si,0,-
 0.6862520884,-1.1886212098,1.3253220702\Si,0,-1.8753138849,0.835540148
 7,0.\Si,0,1.3711330532,0.42770672,-1.243471322\Si,0,1.3711330532,0.427
 70672,1.243471322\Si,0,-0.6862520884,-1.1886212098,-1.3253220702\Si,0,
 -0.6856499884,1.1608941073,2.2190484789\Si,0,-2.6409530303,-1.48969368
 29,0.\Si,0,0.1181342174,2.2782636937,0.\Si,0,-0.6856499884,1.160894107
 3,-2.2190484789\\Version=AM64L-G09RevA.02\State=2-A'\HF=-3178.0063364\
 S2=0.901502\S2-1=0.\S2A=0.768956\RMSD=3.639e-09\Dipole=0.2331156,-0.35
 37314,0.\Quadrupole=3.7323157,-1.8390278,-1.8932879,0.3982275,0.,0.\PG
 =CS [SG(Si5),X(Si6)]\\@


 ANYONE WHO IS NOT SHOCKED BY QUANTUM THEORY HAS
 NOT UNDERSTOOD IT. -- NIELS BOHR(1885-1962)
 Diagonal vibrational polarizability:
        0.0000000       0.0000000       0.0000000

 Temperature=              298.150000 Pressure=                      1.000000
 E(ZPE)=                     0.016235 E(Thermal)=                    0.032093
 E(CCSD(T))=             -3178.791672 E(Empiric)=                   -0.152129
 DE(Plus)=                  -0.026316 DE(2DF)=                      -0.388086
 E(Delta-G3XP)=             -3.449464 DE(HF)=                       -0.073015
 G4(0 K)=                -3182.864446 G4 Energy=                 -3182.848587
 G4 Enthalpy=            -3182.847643 G4 Free Energy=            -3182.907429
 1\1\GINC-NODE77\Mixed\G4\G4\Si11(1+,2)\TAM\20-Dec-2011\0\\# G4 scfcyc=
 500 scf=xqc\\si11-n\\1,2\Si,0,3.2231573493,-0.5111416907,0.\Si,0,1.176
 5198204,-1.9129322352,0.\Si,0,-0.6862520884,-1.1886212098,1.3253220702
 \Si,0,-1.8753138849,0.8355401487,0.\Si,0,1.3711330532,0.42770672,-1.24
 3471322\Si,0,1.3711330532,0.42770672,1.243471322\Si,0,-0.6862520884,-1
 .1886212098,-1.3253220702\Si,0,-0.6856499884,1.1608941073,2.2190484789
 \Si,0,-2.6409530303,-1.4896936829,0.\Si,0,0.1181342174,2.2782636937,0.
 \Si,0,-0.6856499884,1.1608941073,-2.2190484789\\Version=AM64L-G09RevA.
 02\State=2-A'\MP2/GTBas1=-3178.7166387\MP4/GTBas1=-3178.864009\CCSD(T)
 /G3Bas1=-3178.7916716\MP2/GTBas2=-3178.7406356\MP4/GTBas2=-3178.890324
 7\MP2/GTBas3=-3179.0705906\MP4/GTBas3=-3179.2520952\HF/GTLargeXP=-3177
 .936071\MP2/GTLargeXP=-3182.5440511\HF/GFHFB1=-3177.9950538\HF/GFHFB2=
 -3178.0063364\G4=-3182.8644459\FreqCoord=6.0908846734,-0.9659178106,0.
 ,2.2233002504,-3.6149180354,0.,-1.2968285051,-2.2461685624,2.504495750
 5,-3.5438296557,1.578942054,0.,2.5910659624,0.808248566,-2.3498202527,
 2.5910659624,0.808248566,2.3498202527,-1.2968285051,-2.2461685624,-2.5
 044957505,-1.295690701,2.1937719322,4.1933939007,-4.9906779571,-2.8151
 130825,0.,0.2232413178,4.3052944396,0.,-1.295690701,2.1937719322,-4.19
 33939007\PG=CS [SG(Si5),X(Si6)]\NImag=0\\0.10828738,-0.01138430,0.0338
 6854,0.,0.,0.02915177,-0.03234198,-0.02383053,0.,0.11693791,-0.0154704
 1,-0.00816773,0.,-0.00825047,0.06399543,0.,0.,-0.00633823,0.,0.,0.0528
 6565,-0.00396796,-0.00257788,0.00305054,-0.03584458,0.01038871,0.02216
 659,0.10766251,-0.00113954,-0.00182590,0.00162071,0.01320535,-0.006671
 45,-0.01271728,0.00603789,0.06543568,-0.00446239,0.00183374,0.00222555
 ,0.01642667,-0.01078695,-0.01596936,0.00430139,0.00945926,0.07515078,-
 0.00028388,-0.00344063,0.,-0.00190339,-0.00036012,0.,-0.00402552,0.007
 36179,-0.00114249,0.07123309,-0.00022257,-0.00159416,0.,0.00757486,-0.
 00372164,0.,0.00443247,-0.00421344,0.01216459,0.03200467,0.07742965,0.
 ,0.,-0.00328962,0.,0.,-0.00208595,-0.00216576,0.00932782,-0.00476416,0
 .,0.,0.05028056,-0.03315971,0.01923244,-0.02390110,-0.00082633,0.00072
 514,0.00344624,-0.00188401,-0.00393116,-0.00054975,-0.00959728,0.00153
 063,0.00223267,0.10978907,0.01630245,-0.00922946,0.01013500,0.00152451
 ,-0.01776057,0.00952949,-0.00718043,0.00173466,0.00488254,0.00060127,-
 0.00171068,-0.00509718,-0.03422299,0.05758931,-0.02219551,0.00920126,-
 0.00927971,0.00386930,0.00223979,-0.00312570,0.00464722,-0.00006965,-0
 .00688557,-0.00308767,-0.00082750,0.00406959,0.02959617,-0.01667828,0.
 08084679,-0.03315971,0.01923244,0.02390110,-0.00082633,0.00072514,-0.0
 0344624,-0.01236616,-0.01204379,0.00104235,-0.00959728,0.00153063,-0.0
 0223267,-0.00006070,0.00275182,0.00027677,0.10978907,0.01630245,-0.009
 22946,-0.01013500,0.00152451,-0.01776057,-0.00952949,-0.01199438,-0.00
 425326,0.00048166,0.00060127,-0.00171068,0.00509718,0.00275182,0.00246
 293,0.00316846,-0.03422299,0.05758931,0.02219551,-0.00920126,-0.009279
 71,-0.00386930,-0.00223979,-0.00312570,-0.00057084,0.00157377,0.002649
 00,0.00308767,0.00082750,0.00406959,-0.00027677,-0.00316846,-0.0414017
 9,-0.02959617,0.01667828,0.08084679,-0.00396796,-0.00257788,-0.0030505
 4,-0.03584458,0.01038871,-0.02216659,0.00977944,-0.00194642,-0.0008446
 4,-0.00402552,0.00443247,0.00216576,-0.01236616,-0.01199438,0.00057084
 ,-0.00188401,-0.00718043,-0.00464722,0.10766251,-0.00113954,-0.0018259
 0,-0.00162071,0.01320535,-0.00667145,0.01271728,-0.00194642,-0.0115811
 8,-0.00005264,0.00736179,-0.00421344,-0.00932782,-0.01204379,-0.004253
 26,-0.00157377,-0.00393116,0.00173466,0.00006965,0.00603789,0.06543568
 ,0.00446239,-0.00183374,0.00222555,-0.01642667,0.01078695,-0.01596936,
 0.00084464,0.00005264,-0.02654245,0.00114249,-0.01216459,-0.00476416,-
 0.00104235,-0.00048166,0.00264900,0.00054975,-0.00488254,-0.00688557,-
 0.00430139,-0.00945926,0.07515078,0.00341533,-0.00098146,0.00134797,-0
 .00069158,0.00076184,0.00192052,-0.00071382,0.00062538,0.00098377,-0.0
 0633493,-0.00246631,-0.00885470,-0.00174674,-0.00011797,0.00555009,-0.
 04367829,0.01981283,0.02369125,-0.00416117,0.00095045,-0.00434928,0.05
 592890,-0.00106297,-0.00166860,0.00081448,-0.00118049,-0.00129248,-0.0
 0451485,0.00068168,-0.02545598,-0.01341422,0.00046297,-0.00140044,-0.0
 0274690,-0.00340530,-0.00330232,0.00043697,0.01711028,-0.00321282,-0.0
 1056966,0.00548126,-0.00248331,-0.00368367,-0.01385441,0.04467498,-0.0
 0054149,0.00131912,-0.00178026,-0.00122893,0.00215325,-0.00151581,0.00
 074026,-0.01022737,-0.00879959,-0.00632590,-0.00573352,-0.02643599,0.0
 0126741,-0.00245940,-0.00583176,0.01953982,-0.01044626,-0.00990348,0.0
 0123157,-0.00150502,-0.00556990,-0.02057939,0.02660045,0.08197365,-0.0
 0683684,0.00300830,0.,-0.00750077,-0.00055324,0.,-0.04838653,-0.008134
 41,-0.01870725,0.00527503,-0.01646410,0.,-0.00040661,0.00064292,-0.002
 47760,-0.00040661,0.00064292,0.00247760,-0.04838653,-0.00813441,0.0187
 0725,0.00114341,-0.00142533,0.00096661,0.10418356,-0.00340807,0.002953
 24,0.,0.00098966,0.00530028,0.,-0.00476199,-0.00365000,-0.00737792,-0.
 01771477,-0.04059342,0.,0.00418199,-0.00337414,0.00065639,0.00418199,-
 0.00337414,-0.00065639,-0.00476199,-0.00365000,0.00737792,-0.00204958,
 -0.00139893,0.00086312,0.02676668,0.05189487,0.,0.,-0.00259895,0.,0.,0
 .00062590,-0.03080384,-0.00910733,-0.01237721,0.,0.,-0.00061931,0.0027
 2851,0.00335169,-0.00314347,-0.00272851,-0.00335168,-0.00314347,0.0308
 0384,0.00910733,-0.01237721,-0.00337826,-0.00310206,-0.00064301,0.,0.,
 0.03994890,-0.00139999,0.00430098,0.,-0.00046679,0.00088286,0.,-0.0060
 9220,-0.00098554,-0.00139694,-0.03440540,-0.02988645,0.,-0.00606324,0.
 01187998,0.00694163,-0.00606324,0.01187998,-0.00694163,-0.00609220,-0.
 00098554,0.00139694,0.00262048,-0.00242090,0.00453130,0.00017846,-0.00
 137433,0.,0.05516363,0.00228546,-0.00161199,0.,-0.00358227,-0.00595732
 ,0.,0.00143910,-0.00703582,-0.00087373,-0.02734120,-0.01687131,0.,0.00
 807095,-0.01894365,-0.00712335,0.00807095,-0.01894365,0.00712335,0.001
 43910,-0.00703582,0.00087373,-0.00229399,-0.00026348,0.00186743,0.0050
 7601,-0.00270885,0.,0.00912988,0.07963535,0.,0.,0.00074387,0.,0.,-0.00
 384565,-0.00097863,0.00858239,0.00088291,0.,0.,0.00997544,0.00603879,-
 0.01046000,-0.00799389,-0.00603879,0.01046000,-0.00799390,0.00097863,-
 0.00858239,0.00088291,0.00406678,0.00774765,-0.01845263,0.,0.,-0.00502
 917,0.,0.,0.04928273,0.00341532,-0.00098146,-0.00134797,-0.00069158,0.
 00076185,-0.00192052,-0.00416117,0.00095045,0.00434928,-0.00633493,-0.
 00246631,0.00885469,-0.04367829,0.01981283,-0.02369125,-0.00174674,-0.
 00011797,-0.00555009,-0.00071382,0.00062538,-0.00098377,-0.00578159,-0
 .00038680,0.00039875,0.00114341,-0.00204958,0.00337826,0.00262048,-0.0
 0229399,-0.00406678,0.05592890,-0.00106297,-0.00166860,-0.00081448,-0.
 00118049,-0.00129248,0.00451485,0.00548126,-0.00248331,0.00368367,0.00
 046297,-0.00140044,0.00274690,0.01711028,-0.00321282,0.01056966,-0.003
 40530,-0.00330232,-0.00043697,0.00068168,-0.02545598,0.01341422,-0.000
 38680,-0.00419663,-0.00243181,-0.00142533,-0.00139893,0.00310206,-0.00
 242090,-0.00026348,-0.00774765,-0.01385441,0.04467498,0.00054149,-0.00
 131912,-0.00178026,0.00122893,-0.00215325,-0.00151581,-0.00123157,0.00
 150502,-0.00556990,0.00632590,0.00573352,-0.02643599,-0.01953982,0.010
 44626,-0.00990348,-0.00126741,0.00245940,-0.00583176,-0.00074026,0.010
 22737,-0.00879959,-0.00039875,0.00243181,-0.00304122,-0.00096661,-0.00
 086312,-0.00064301,-0.00453130,-0.00186743,-0.01845263,0.02057939,-0.0
 2660045,0.08197365\\-0.00000144,-0.00004698,0.,0.00002552,-0.00000449,
 0.,-0.00001236,-0.00006409,-0.00011048,0.00027789,-0.00013079,0.,-0.00
 011240,-0.00001931,0.00008194,-0.00011240,-0.00001931,-0.00008194,-0.0
 0001236,-0.00006409,0.00011048,-0.00007038,0.00008925,0.00005834,0.000
 00962,0.00012398,0.,0.00007866,0.00004658,0.,-0.00007038,0.00008925,-0
 .00005834\\\@
 Job cpu time:  3 days  2 hours 35 minutes 55.8 seconds.
 File lengths (MBytes):  RWF=  13715 Int=      0 D2E=      0 Chk=     96 Scr=      1
 Normal termination of Gaussian 09 at Tue Dec 20 03:01:04 2011.
