 Entering Gaussian System, Link 0=g09
 Initial command:
 /usr/local/chem/g09A2/l1.exe /temp0/tam/Gau-27147.inp -scrdir=/temp0/tam/
 Entering Link 1 = /usr/local/chem/g09A2/l1.exe PID=     27148.
  
 Copyright (c) 1988,1990,1992,1993,1995,1998,2003,2009, Gaussian, Inc.
                  All Rights Reserved.
  
 This is part of the Gaussian(R) 09 program.  It is based on
 the Gaussian(R) 03 system (copyright 2003, Gaussian, Inc.),
 the Gaussian(R) 98 system (copyright 1998, Gaussian, Inc.),
 the Gaussian(R) 94 system (copyright 1995, Gaussian, Inc.),
 the Gaussian 92(TM) system (copyright 1992, Gaussian, Inc.),
 the Gaussian 90(TM) system (copyright 1990, Gaussian, Inc.),
 the Gaussian 88(TM) system (copyright 1988, Gaussian, Inc.),
 the Gaussian 86(TM) system (copyright 1986, Carnegie Mellon
 University), and the Gaussian 82(TM) system (copyright 1983,
 Carnegie Mellon University). Gaussian is a federally registered
 trademark of Gaussian, Inc.
  
 This software contains proprietary and confidential information,
 including trade secrets, belonging to Gaussian, Inc.
  
 This software is provided under written license and may be
 used, copied, transmitted, or stored only in accord with that
 written license.
  
 The following legend is applicable only to US Government
 contracts under FAR:
  
                    RESTRICTED RIGHTS LEGEND
  
 Use, reproduction and disclosure by the US Government is
 subject to restrictions as set forth in subparagraphs (a)
 and (c) of the Commercial Computer Software - Restricted
 Rights clause in FAR 52.227-19.
  
 Gaussian, Inc.
 340 Quinnipiac St., Bldg. 40, Wallingford CT 06492
  
  
 ---------------------------------------------------------------
 Warning -- This program may not be used in any manner that
 competes with the business of Gaussian, Inc. or will provide
 assistance to any competitor of Gaussian, Inc.  The licensee
 of this program is prohibited from giving any competitor of
 Gaussian, Inc. access to this program.  By using this program,
 the user acknowledges that Gaussian, Inc. is engaged in the
 business of creating and licensing software in the field of
 computational chemistry and represents and warrants to the
 licensee that it is not a competitor of Gaussian, Inc. and that
 it will not use this program in any manner prohibited above.
 ---------------------------------------------------------------
  

 Cite this work as:
 Gaussian 09, Revision A.02,
 M. J. Frisch, G. W. Trucks, H. B. Schlegel, G. E. Scuseria, 
 M. A. Robb, J. R. Cheeseman, G. Scalmani, V. Barone, B. Mennucci, 
 G. A. Petersson, H. Nakatsuji, M. Caricato, X. Li, H. P. Hratchian, 
 A. F. Izmaylov, J. Bloino, G. Zheng, J. L. Sonnenberg, M. Hada, 
 M. Ehara, K. Toyota, R. Fukuda, J. Hasegawa, M. Ishida, T. Nakajima, 
 Y. Honda, O. Kitao, H. Nakai, T. Vreven, J. A. Montgomery, Jr., 
 J. E. Peralta, F. Ogliaro, M. Bearpark, J. J. Heyd, E. Brothers, 
 K. N. Kudin, V. N. Staroverov, R. Kobayashi, J. Normand, 
 K. Raghavachari, A. Rendell, J. C. Burant, S. S. Iyengar, J. Tomasi, 
 M. Cossi, N. Rega, J. M. Millam, M. Klene, J. E. Knox, J. B. Cross, 
 V. Bakken, C. Adamo, J. Jaramillo, R. Gomperts, R. E. Stratmann, 
 O. Yazyev, A. J. Austin, R. Cammi, C. Pomelli, J. W. Ochterski, 
 R. L. Martin, K. Morokuma, V. G. Zakrzewski, G. A. Voth, 
 P. Salvador, J. J. Dannenberg, S. Dapprich, A. D. Daniels, 
 O. Farkas, J. B. Foresman, J. V. Ortiz, J. Cioslowski, 
 and D. J. Fox, Gaussian, Inc., Wallingford CT, 2009.
 
 ******************************************
 Gaussian 09:  AM64L-G09RevA.02 11-Jun-2009
                 6-Dec-2011 
 ******************************************
 %NprocShared=6
 Will use up to    6 processors via shared memory.
 %mem=19500MB
 %chk=S7B-ne-d-04
 -----------------------
 # G4 scfcyc=500 scf=xqc
 -----------------------
 1/14=-1,18=20,19=15,26=3,38=1/1,3;
 2/9=110,12=2,17=6,18=5,40=1/2;
 3/5=35,7=104,11=2,16=1,25=1,30=1,71=1,74=-5/1,2,3;
 4//1;
 5/5=2,7=500,8=3,13=1,38=5/2,8;
 6/7=2,8=2,9=2,10=2,28=1/1;
 7//1,2,3,16;
 1/14=-1,18=20,19=15/3(2);
 2/9=110/2;
 99//99;
 2/9=110/2;
 3/5=35,7=104,11=2,16=1,25=1,30=1,71=1,74=-5/1,2,3;
 4/5=5,16=3/1;
 5/5=2,7=500,8=3,13=1,38=5/2,8;
 7//1,2,3,16;
 1/14=-1,18=20,19=15/3(-5);
 2/9=110/2;
 6/7=2,8=2,9=2,10=2,19=2,28=1/1;
 99/9=1/99;
 -------------
 Si-ca-doublet
 -------------
 Symbolic Z-matrix:
 Charge =  1 Multiplicity = 2
 Si                    0.       -0.1       0. 
 

 GradGradGradGradGradGradGradGradGradGradGradGradGradGradGradGradGradGrad
 Berny optimization.
 Initialization pass.
 No Z-matrix variables, so optimization will use Cartesian coordinates.
 Trust Radius=1.00D-01 FncErr=1.00D-07 GrdErr=1.00D-06
 Number of steps in this run=  20 maximum allowed number of steps= 100.
 GradGradGradGradGradGradGradGradGradGradGradGradGradGradGradGradGradGrad

                          Input orientation:                          
 ---------------------------------------------------------------------
 Center     Atomic      Atomic             Coordinates (Angstroms)
 Number     Number       Type             X           Y           Z
 ---------------------------------------------------------------------
      1         14           0        0.000000   -0.100000    0.000000
 ---------------------------------------------------------------------
 Stoichiometry    Si(1+,2)
 Framework group  OH[O(Si)]
 Deg. of freedom     0
 Full point group                 OH      NOp  48
 Largest Abelian subgroup         D2H     NOp   8
 Largest concise Abelian subgroup C1      NOp   1
                         Standard orientation:                         
 ---------------------------------------------------------------------
 Center     Atomic      Atomic             Coordinates (Angstroms)
 Number     Number       Type             X           Y           Z
 ---------------------------------------------------------------------
      1         14           0        0.000000    0.000000    0.000000
 ---------------------------------------------------------------------
 Standard basis: GTBas3 (6D, 7F)
 There are    10 symmetry adapted basis functions of AG  symmetry.
 There are     2 symmetry adapted basis functions of B1G symmetry.
 There are     2 symmetry adapted basis functions of B2G symmetry.
 There are     2 symmetry adapted basis functions of B3G symmetry.
 There are     1 symmetry adapted basis functions of AU  symmetry.
 There are     5 symmetry adapted basis functions of B1U symmetry.
 There are     5 symmetry adapted basis functions of B2U symmetry.
 There are     5 symmetry adapted basis functions of B3U symmetry.
 Integral buffers will be    131072 words long.
 Raffenetti 2 integral format.
 Two-electron integral symmetry is turned on.
    32 basis functions,    68 primitive gaussians,    35 cartesian basis functions
     7 alpha electrons        6 beta electrons
       nuclear repulsion energy         0.0000000000 Hartrees.
 NAtoms=    1 NActive=    1 NUniq=    1 SFac= 7.50D-01 NAtFMM=   80 NAOKFM=F Big=F
 One-electron integrals computed using PRISM.
 NBasis=    32 RedAO= T  NBF=    10     2     2     2     1     5     5     5
 NBsUse=    32 1.00D-06 NBFU=    10     2     2     2     1     5     5     5
 Harris functional with IExCor=  402 diagonalized for initial guess.
 ExpMin= 7.78D-02 ExpMax= 1.61D+04 ExpMxC= 2.43D+03 IAcc=2 IRadAn=         0 AccDes= 0.00D+00
 HarFok:  IExCor=  402 AccDes= 0.00D+00 IRadAn=         0 IDoV= 1
 ScaDFX=  1.000000  1.000000  1.000000  1.000000
 FoFCou: FMM=F IPFlag=           0 FMFlag=      100000 FMFlg1=           0
         NFxFlg=           0 DoJE=T BraDBF=F KetDBF=T FulRan=T
         Omega=  0.000000  0.000000  1.000000  0.000000  0.000000 ICntrl=     500 IOpCl=  0
         NMat0=    1 NMatS0=    1 NMatT0=    0 NMatD0=    1 NMtDS0=    0 NMtDT0=    0
         I1Cent=           4 NGrid=           0.
 Petite list used in FoFCou.
 Initial guess orbital symmetries:
 Alpha Orbitals:
       Occupied  (A1G) (A1G) (T1U) (T1U) (T1U) (A1G) (T1U)
       Virtual   (T1U) (T1U) (A1G) (T1U) (T1U) (T1U) (T2G) (T2G)
                 (T2G) (EG) (EG) (A1G) (?A) (?A) (?A) (?A) (?A)
                 (?A) (A2U) (EG) (EG) (T2G) (T2G) (T2G) (A1G)
 Beta  Orbitals:
       Occupied  (A1G) (A1G) (T1U) (T1U) (T1U) (A1G)
       Virtual   (T1U) (T1U) (T1U) (A1G) (T1U) (T1U) (T1U) (T2G)
                 (T2G) (T2G) (EG) (EG) (A1G) (?A) (?A) (?A) (?A)
                 (?A) (?A) (A2U) (EG) (EG) (T2G) (T2G) (T2G) (A1G)
 Initial guess <Sx>= 0.0000 <Sy>= 0.0000 <Sz>= 0.5000 <S**2>= 0.7500 S= 0.5000
 Requested convergence on RMS density matrix=1.00D-08 within 128 cycles.
 Requested convergence on MAX density matrix=1.00D-06.
 Requested convergence on             energy=1.00D-06.
 No special actions if energy rises.
 Keep R1 and R2 ints in memory in canonical form, NReq=2367783.
 Integral accuracy reduced to 1.0D-05 until final iterations.
 Density matrix breaks symmetry, PCut= 1.00D-04
 Density has only Abelian symmetry.
 Density matrix breaks symmetry, PCut= 1.00D-04
 Density has only Abelian symmetry.
 Density matrix breaks symmetry, PCut= 1.00D-04
 Density has only Abelian symmetry.
 Density matrix breaks symmetry, PCut= 1.00D-04
 Density has only Abelian symmetry.
 Density matrix breaks symmetry, PCut= 1.00D-04
 Density has only Abelian symmetry.
 Initial convergence to 1.0D-05 achieved.  Increase integral accuracy.
 Density matrix breaks symmetry, PCut= 1.00D-04
 Density has only Abelian symmetry.
 Density matrix breaks symmetry, PCut= 1.00D-04
 Density has only Abelian symmetry.
 Density matrix breaks symmetry, PCut= 1.00D-04
 Density has only Abelian symmetry.
 Density matrix breaks symmetry, PCut= 1.00D-04
 Density has only Abelian symmetry.
 Density matrix breaks symmetry, PCut= 1.00D-04
 Density has only Abelian symmetry.
 SCF Done:  E(UB3LYP) =  -289.073832390     A.U. after    9 cycles
             Convg  =    0.8244D-08             -V/T =  2.0032
 <Sx>= 0.0000 <Sy>= 0.0000 <Sz>= 0.5000 <S**2>= 0.7543 S= 0.5022
 <L.S>= 0.000000000000E+00
 Annihilation of the first spin contaminant:
 S**2 before annihilation     0.7543,   after     0.7500
 QCSCF skips out because SCF is already converged.

 **********************************************************************

            Population analysis using the SCF density.

 **********************************************************************

 Orbital symmetries:
 Alpha Orbitals:
       Occupied  (A1G) (A1G) (T1U) (T1U) (T1U) (?A) (?B)
       Virtual   (?B) (?B) (?A) (T2G) (T2G) (?A) (T2G) (?A) (?B)
                 (?B) (?B) (A1G) (?C) (A2U) (?C) (?C) (?C) (?C)
                 (?C) (T2G) (EG) (T2G) (T2G) (EG) (A1G)
 Beta  Orbitals:
       Occupied  (A1G) (A1G) (T1U) (T1U) (T1U) (?A)
       Virtual   (?B) (?B) (?B) (?A) (?A) (T2G) (?B) (?B) (T2G)
                 (T2G) (?B) (?A) (?A) (?B) (?B) (A2U) (?B) (?B)
                 (?B) (?B) (?A) (T2G) (T2G) (T2G) (?A) (?A)
 Unable to determine electronic state:  an orbital has unidentified symmetry.
 Alpha  occ. eigenvalues --  -66.53489  -5.67321  -4.03326  -4.03326  -4.02889
 Alpha  occ. eigenvalues --   -0.74900  -0.47907
 Alpha virt. eigenvalues --   -0.40358  -0.40358  -0.09086  -0.01713  -0.01713
 Alpha virt. eigenvalues --   -0.01374  -0.00312  -0.00312   0.00248   0.00922
 Alpha virt. eigenvalues --    0.00922   0.50958   0.65413   0.65413   0.65621
 Alpha virt. eigenvalues --    0.65659   0.65659   0.66344   0.66344   1.26647
 Alpha virt. eigenvalues --    1.26647   1.26987   1.26987   1.27359   2.14940
  Beta  occ. eigenvalues --  -66.53111  -5.66923  -4.03130  -4.03130  -4.01500
  Beta  occ. eigenvalues --   -0.71145
  Beta virt. eigenvalues --   -0.39323  -0.39323  -0.35534  -0.08434  -0.00010
  Beta virt. eigenvalues --   -0.00010   0.01137   0.01137   0.02773   0.02773
  Beta virt. eigenvalues --    0.03086   0.03773   0.52116   0.66286   0.66286
  Beta virt. eigenvalues --    0.68516   0.68516   0.69808   0.69808   0.70305
  Beta virt. eigenvalues --    1.26447   1.26447   1.29004   1.29004   1.29878
  Beta virt. eigenvalues --    2.16552
          Condensed to atoms (all electrons):
              1
     1  Si  13.000000
 Mulliken atomic charges:
              1
     1  Si   1.000000
 Sum of Mulliken atomic charges =   1.00000
 Mulliken charges with hydrogens summed into heavy atoms:
              1
     1  Si   1.000000
 Sum of Mulliken charges with hydrogens summed into heavy atoms =   1.00000
          Atomic-Atomic Spin Densities.
              1
     1  Si   1.000000
 Mulliken atomic spin densities:
              1
     1  Si   1.000000
 Sum of Mulliken atomic spin densities =   1.00000
 Electronic spatial extent (au):  <R**2>=             19.8683
 Charge=              1.0000 electrons
 Dipole moment (field-independent basis, Debye):
    X=              0.0000    Y=              0.0000    Z=              0.0000  Tot=              0.0000
 Quadrupole moment (field-independent basis, Debye-Ang):
   XX=             -7.6913   YY=            -11.3410   ZZ=             -7.6913
   XY=              0.0000   XZ=              0.0000   YZ=              0.0000
 Traceless Quadrupole moment (field-independent basis, Debye-Ang):
   XX=              1.2166   YY=             -2.4331   ZZ=              1.2166
   XY=              0.0000   XZ=              0.0000   YZ=              0.0000
 Octapole moment (field-independent basis, Debye-Ang**2):
  XXX=              0.0000  YYY=              0.0000  ZZZ=              0.0000  XYY=              0.0000
  XXY=              0.0000  XXZ=              0.0000  XZZ=              0.0000  YZZ=              0.0000
  YYZ=              0.0000  XYZ=              0.0000
 Hexadecapole moment (field-independent basis, Debye-Ang**3):
 XXXX=             -9.2085 YYYY=            -19.9922 ZZZZ=             -9.2085 XXXY=              0.0000
 XXXZ=              0.0000 YYYX=              0.0000 YYYZ=              0.0000 ZZZX=              0.0000
 ZZZY=              0.0000 XXYY=             -4.8599 XXZZ=             -3.0695 YYZZ=             -4.8599
 XXYZ=              0.0000 YYXZ=              0.0000 ZZXY=              0.0000
 N-N= 0.000000000000D+00 E-N=-1.022165370340D+03  KE= 4.315912531617D+02
 Symmetry AG   KE= 3.208821453884D+02
 Symmetry B1G  KE= 0.000000000000D+00
 Symmetry B2G  KE= 0.000000000000D+00
 Symmetry B3G  KE= 0.000000000000D+00
 Symmetry AU   KE= 0.000000000000D+00
 Symmetry B1U  KE= 3.647822781313D+01
 Symmetry B2U  KE= 3.775265214709D+01
 Symmetry B3U  KE= 3.647822781313D+01
                          Isotropic Fermi Contact Couplings
        Atom                 a.u.       MegaHertz       Gauss      10(-4) cm-1
     1  Si(29)            -0.01584      14.07840       5.02352       4.69605
 --------------------------------------------------------
       Center         ----  Spin Dipole Couplings  ----
                      3XX-RR        3YY-RR        3ZZ-RR
 --------------------------------------------------------
     1   Atom       -1.150769      2.301539     -1.150769
 --------------------------------------------------------
                        XY            XZ            YZ
 --------------------------------------------------------
     1   Atom        0.000000      0.000000      0.000000
 --------------------------------------------------------


 ---------------------------------------------------------------------------------
              Anisotropic Spin Dipole Couplings in Principal Axis System
 ---------------------------------------------------------------------------------

       Atom             a.u.   MegaHertz   Gauss  10(-4) cm-1        Axes

              Baa    -1.1508   122.078    43.561    40.721  1.0000  0.0000  0.0000
     1 Si(29) Bbb    -1.1508   122.078    43.561    40.721  0.0000  0.0000  1.0000
              Bcc     2.3015  -244.157   -87.121   -81.442  0.0000  1.0000  0.0000
 

 ---------------------------------------------------------------------------------

 Density matrix has only Abelian symmetry.
 Density matrix has only Abelian symmetry.
 Calling FoFJK, ICntrl=      2127 FMM=F ISym2X=1 I1Cent= 0 IOpClX= 1 NMat=1 NMatS=1 NMatT=0.
 ***** Axes restored to original set *****
 -------------------------------------------------------------------
 Center     Atomic                   Forces (Hartrees/Bohr)
 Number     Number              X              Y              Z
 -------------------------------------------------------------------
      1       14           0.000000000    0.000000000    0.000000000
 -------------------------------------------------------------------
 Cartesian Forces:  Max     0.000000000 RMS     0.000000000

 GradGradGradGradGradGradGradGradGradGradGradGradGradGradGradGradGradGrad
 Berny optimization.
 Search for a local minimum.
 Step number   1 out of a maximum of   20
 All quantities printed in internal units (Hartrees-Bohrs-Radians)
 Mixed Optimization -- En-DIIS/RFO-DIIS
 Second derivative matrix not updated -- first step.
 The second derivative matrix:
                          X1        Y1        Z1
           X1           0.00000
           Y1           0.00000   0.00000
           Z1           0.00000   0.00000   0.00000
     Eigenvalues --- 
 RFO step:  Lambda=-5.96046448D-09 EMin= 0.00000000D+00
 Linear search not attempted -- first point.
 TrRot=  0.000000  0.000000  0.000000  0.000000  0.000000  0.000000
 Variable       Old X    -DE/DX   Delta X   Delta X   Delta X     New X
                                 (Linear)    (Quad)   (Total)
    X1        0.00000   0.00000   0.00000   0.00000   0.00000   0.00000
    Y1       -0.18897   0.00000   0.00000   0.00000   0.00000  -0.18897
    Z1        0.00000   0.00000   0.00000   0.00000   0.00000   0.00000
         Item               Value     Threshold  Converged?
 Maximum Force            0.000000     0.000450     YES
 RMS     Force            0.000000     0.000300     YES
 Maximum Displacement     0.000000     0.001800     YES
 RMS     Displacement     0.000000     0.001200     YES
 Predicted change in Energy= 0.000000D+00
 Optimization completed.
    -- Stationary point found.
 GradGradGradGradGradGradGradGradGradGradGradGradGradGradGradGradGradGrad

                          Input orientation:                          
 ---------------------------------------------------------------------
 Center     Atomic      Atomic             Coordinates (Angstroms)
 Number     Number       Type             X           Y           Z
 ---------------------------------------------------------------------
      1         14           0        0.000000   -0.100000    0.000000
 ---------------------------------------------------------------------
 Stoichiometry    Si(1+,2)
 Framework group  OH[O(Si)]
 Deg. of freedom     0
 Full point group                 OH      NOp  48
 Largest Abelian subgroup         D2H     NOp   8
 Largest concise Abelian subgroup C1      NOp   1
                         Standard orientation:                         
 ---------------------------------------------------------------------
 Center     Atomic      Atomic             Coordinates (Angstroms)
 Number     Number       Type             X           Y           Z
 ---------------------------------------------------------------------
      1         14           0        0.000000    0.000000    0.000000
 ---------------------------------------------------------------------
 1\1\GINC-NODE43\FOpt\UB3LYP\GTBas3\Si1(1+,2)\TAM\06-Dec-2011\0\\# G4 s
 cfcyc=500 scf=xqc\\Si-ca-doublet\\1,2\Si,0.,-0.1,0.\\Version=AM64L-G09
 RevA.02\HF=-289.0738324\S2=0.754323\S2-1=0.\S2A=0.75\RMSD=8.244e-09\RM
 SF=0.000e+00\Dipole=0.,0.,0.\Quadrupole=0.9044878,-1.8089755,0.9044878
 ,0.,0.,0.\PG=OH [O(Si1)]\\@


 BETTER TO HUNT IN FIELDS, FOR HEALTH UNBOUGHT
 THAN FEE THE DOCTOR FOR A NAUSEOUS DRAUGHT.
 THE WISE, FOR CURE, ON EXERCISE DEPEND;
 GOD NEVER MADE HIS WORK FOR MAN TO MEND.
     -- JOHN DRYDEN (1631-1700)
 Job cpu time:  0 days  0 hours  0 minutes 13.3 seconds.
 File lengths (MBytes):  RWF=      5 Int=      0 D2E=      0 Chk=      2 Scr=      1
 Normal termination of Gaussian 09 at Tue Dec  6 18:52:13 2011.
 Link1:  Proceeding to internal job step number  2.
 ----------------------------------------------------------
 #N Geom=AllCheck Guess=TCheck SCRF=Check B3LYP/GTBas3 Freq
 ----------------------------------------------------------
 1/10=4,29=7,30=1,38=1,40=1/1,3;
 2/12=2,40=1/2;
 3/5=35,11=2,14=-4,16=1,25=1,30=1,70=2,71=2,74=-5,116=-2/1,2,3;
 4/5=101/1;
 5/5=2,7=500,8=3,13=1,98=1/2,8;
 8/6=4,10=90,11=11/1;
 11/6=1,8=1,9=11,15=111,16=1/1,2,10;
 10/6=1/2;
 6/7=2,8=2,9=2,10=2,18=1,28=1/1;
 7/8=1,10=1,25=1/1,2,3,16;
 1/10=4,30=1/3;
 99//99;
 -------------
 Si-ca-doublet
 -------------
 No Z-matrix found on checkpoint file.
 Cartesian coordinates read from the checkpoint file:
 S7B-ne-d-04.chk
 Charge =  1 Multiplicity = 2
  Si                                                0.000000000000     -0.100000000000      0.000000000000
 Recover connectivity data from disk.

 GradGradGradGradGradGradGradGradGradGradGradGradGradGradGradGradGradGrad
 Berny optimization.
 Initialization pass.
 Trust Radius=3.00D-01 FncErr=1.00D-07 GrdErr=1.00D-07
 Number of steps in this run=   2 maximum allowed number of steps=   2.
 GradGradGradGradGradGradGradGradGradGradGradGradGradGradGradGradGradGrad

                          Input orientation:                          
 ---------------------------------------------------------------------
 Center     Atomic      Atomic             Coordinates (Angstroms)
 Number     Number       Type             X           Y           Z
 ---------------------------------------------------------------------
      1         14           0        0.000000   -0.100000    0.000000
 ---------------------------------------------------------------------
 Stoichiometry    Si(1+,2)
 Framework group  OH[O(Si)]
 Deg. of freedom     0
 Full point group                 OH      NOp  48
 Largest Abelian subgroup         D2H     NOp   8
 Largest concise Abelian subgroup C1      NOp   1
                         Standard orientation:                         
 ---------------------------------------------------------------------
 Center     Atomic      Atomic             Coordinates (Angstroms)
 Number     Number       Type             X           Y           Z
 ---------------------------------------------------------------------
      1         14           0        0.000000    0.000000    0.000000
 ---------------------------------------------------------------------
 Standard basis: GTBas3 (6D, 7F)
 There are    10 symmetry adapted basis functions of AG  symmetry.
 There are     2 symmetry adapted basis functions of B1G symmetry.
 There are     2 symmetry adapted basis functions of B2G symmetry.
 There are     2 symmetry adapted basis functions of B3G symmetry.
 There are     1 symmetry adapted basis functions of AU  symmetry.
 There are     5 symmetry adapted basis functions of B1U symmetry.
 There are     5 symmetry adapted basis functions of B2U symmetry.
 There are     5 symmetry adapted basis functions of B3U symmetry.
 Integral buffers will be    131072 words long.
 Raffenetti 2 integral format.
 Two-electron integral symmetry is turned on.
    32 basis functions,    68 primitive gaussians,    35 cartesian basis functions
     7 alpha electrons        6 beta electrons
       nuclear repulsion energy         0.0000000000 Hartrees.
 NAtoms=    1 NActive=    1 NUniq=    1 SFac= 7.50D-01 NAtFMM=   80 NAOKFM=F Big=F
 One-electron integrals computed using PRISM.
 NBasis=    32 RedAO= T  NBF=    10     2     2     2     1     5     5     5
 NBsUse=    32 1.00D-06 NBFU=    10     2     2     2     1     5     5     5
 Initial guess read from the checkpoint file:  S7B-ne-d-04.chk
 B after Tr=     0.000000    0.000000    0.000000
         Rot=    1.000000    0.000000    0.000000    0.000000 Ang=   0.00 deg.
 Initial guess orbital symmetries:
 Alpha Orbitals:
       Occupied  (A1G) (A1G) (T1U) (T1U) (T1U) (?A) (?B)
       Virtual   (?B) (?B) (?A) (T2G) (T2G) (?A) (T2G) (?A) (?B)
                 (?B) (?B) (A1G) (?C) (A2U) (?C) (?C) (?C) (?C)
                 (?C) (T2G) (EG) (T2G) (T2G) (EG) (A1G)
 Beta  Orbitals:
       Occupied  (A1G) (A1G) (T1U) (T1U) (T1U) (?A)
       Virtual   (?B) (?B) (?B) (?A) (?A) (T2G) (?B) (?B) (T2G)
                 (T2G) (?B) (?A) (?A) (?B) (?B) (A2U) (?B) (?B)
                 (?B) (?B) (?A) (T2G) (T2G) (T2G) (?A) (?A)
 Initial guess <Sx>= 0.0000 <Sy>= 0.0000 <Sz>= 0.5000 <S**2>= 0.7543 S= 0.5022
 Requested convergence on RMS density matrix=1.00D-08 within 128 cycles.
 Requested convergence on MAX density matrix=1.00D-06.
 Requested convergence on             energy=1.00D-06.
 No special actions if energy rises.
 Keep R1 and R2 ints in memory in canonical form, NReq=2367783.
 Density matrix breaks symmetry, PCut= 1.00D-04
 Density has only Abelian symmetry.
 Density matrix breaks symmetry, PCut= 1.00D-04
 Density has only Abelian symmetry.
 SCF Done:  E(UB3LYP) =  -289.073832390     A.U. after    1 cycles
             Convg  =    0.7682D-09             -V/T =  2.0032
 <Sx>= 0.0000 <Sy>= 0.0000 <Sz>= 0.5000 <S**2>= 0.7543 S= 0.5022
 <L.S>= 0.000000000000E+00
 Annihilation of the first spin contaminant:
 S**2 before annihilation     0.7543,   after     0.7500
 QCSCF skips out because SCF is already converged.
 Range of M.O.s used for correlation:     1    32
 NBasis=    32 NAE=     7 NBE=     6 NFC=     0 NFV=     0
 NROrb=     32 NOA=     7 NOB=     6 NVA=    25 NVB=    26

 **** Warning!!: The smallest alpha delta epsilon is  0.75492429D-01

 Symmetrizing basis deriv contribution to polar:
 IMax=3 JMax=2 DiffMx= 0.00D+00
 G2DrvN: will do     2 centers at a time, making    1 passes doing MaxLOS=3.
 Calling FoFCou, ICntrl=  3107 FMM=F I1Cent=   0 AccDes= 0.00D+00.
 FoFDir/FoFCou used for L=0 through L=3.
 End of G2Drv Frequency-dependent properties file   721 does not exist.
 End of G2Drv Frequency-dependent properties file   722 does not exist.
          IDoAtm=1
          Differentiating once with respect to electric field.
                with respect to dipole field.
          Differentiating once with respect to nuclear coordinates.
          Keep R1 and R2 ints in memory in canonical form, NReq=2338798.
 CalDSu exits because no D1Ps are significant.
          There are     6 degrees of freedom in the 1st order CPHF.  IDoFFX=5.
      3 vectors produced by pass  0 Test12= 5.52D-15 1.67D-08 XBig12= 3.52D+01 4.07D+00.
 AX will form     3 AO Fock derivatives at one time.
      3 vectors produced by pass  1 Test12= 5.52D-15 1.67D-08 XBig12= 1.06D+00 7.54D-01.
      3 vectors produced by pass  2 Test12= 5.52D-15 1.67D-08 XBig12= 1.02D-02 6.67D-02.
      3 vectors produced by pass  3 Test12= 5.52D-15 1.67D-08 XBig12= 1.64D-04 6.59D-03.
      3 vectors produced by pass  4 Test12= 5.52D-15 1.67D-08 XBig12= 2.05D-06 8.76D-04.
      3 vectors produced by pass  5 Test12= 5.52D-15 1.67D-08 XBig12= 1.50D-09 1.58D-05.
      3 vectors produced by pass  6 Test12= 5.52D-15 1.67D-08 XBig12= 1.27D-12 8.77D-07.
 Inverted reduced A of dimension    21 with in-core refinement.
 Isotropic polarizability for W=    0.000000       16.46 Bohr**3.
 End of Minotr Frequency-dependent properties file   721 does not exist.
 End of Minotr Frequency-dependent properties file   722 does not exist.

 **********************************************************************

            Population analysis using the SCF density.

 **********************************************************************

 Orbital symmetries:
 Alpha Orbitals:
       Occupied  (A1G) (A1G) (T1U) (T1U) (T1U) (?A) (?B)
       Virtual   (?B) (?B) (?A) (T2G) (T2G) (?A) (T2G) (?A) (?B)
                 (?B) (?B) (A1G) (?C) (A2U) (?C) (?C) (?C) (?C)
                 (?C) (T2G) (EG) (T2G) (T2G) (EG) (A1G)
 Beta  Orbitals:
       Occupied  (A1G) (A1G) (T1U) (T1U) (T1U) (?A)
       Virtual   (?B) (?B) (?B) (?A) (?A) (T2G) (?B) (?B) (T2G)
                 (T2G) (?B) (?A) (?A) (?B) (?B) (A2U) (?B) (?B)
                 (?B) (?B) (?A) (T2G) (T2G) (T2G) (?A) (?A)
 Unable to determine electronic state:  an orbital has unidentified symmetry.
 Alpha  occ. eigenvalues --  -66.53489  -5.67321  -4.03326  -4.03326  -4.02889
 Alpha  occ. eigenvalues --   -0.74900  -0.47907
 Alpha virt. eigenvalues --   -0.40358  -0.40358  -0.09086  -0.01713  -0.01713
 Alpha virt. eigenvalues --   -0.01374  -0.00312  -0.00312   0.00248   0.00922
 Alpha virt. eigenvalues --    0.00922   0.50958   0.65413   0.65413   0.65621
 Alpha virt. eigenvalues --    0.65659   0.65659   0.66344   0.66344   1.26647
 Alpha virt. eigenvalues --    1.26647   1.26987   1.26987   1.27359   2.14940
  Beta  occ. eigenvalues --  -66.53111  -5.66923  -4.03130  -4.03130  -4.01500
  Beta  occ. eigenvalues --   -0.71145
  Beta virt. eigenvalues --   -0.39323  -0.39323  -0.35534  -0.08434  -0.00010
  Beta virt. eigenvalues --   -0.00010   0.01137   0.01137   0.02773   0.02773
  Beta virt. eigenvalues --    0.03086   0.03773   0.52116   0.66286   0.66286
  Beta virt. eigenvalues --    0.68516   0.68516   0.69808   0.69808   0.70305
  Beta virt. eigenvalues --    1.26447   1.26447   1.29004   1.29004   1.29878
  Beta virt. eigenvalues --    2.16552
          Condensed to atoms (all electrons):
              1
     1  Si  13.000000
 Mulliken atomic charges:
              1
     1  Si   1.000000
 Sum of Mulliken atomic charges =   1.00000
 Mulliken charges with hydrogens summed into heavy atoms:
              1
     1  Si   1.000000
 Sum of Mulliken charges with hydrogens summed into heavy atoms =   1.00000
          Atomic-Atomic Spin Densities.
              1
     1  Si   1.000000
 Mulliken atomic spin densities:
              1
     1  Si   1.000000
 Sum of Mulliken atomic spin densities =   1.00000
 APT atomic charges:
              1
     1  Si   1.000000
 Sum of APT charges=   1.00000
 APT Atomic charges with hydrogens summed into heavy atoms:
              1
     1  Si   1.000000
 Sum of APT charges=   1.00000
 Electronic spatial extent (au):  <R**2>=             19.8683
 Charge=              1.0000 electrons
 Dipole moment (field-independent basis, Debye):
    X=              0.0000    Y=              0.0000    Z=              0.0000  Tot=              0.0000
 Quadrupole moment (field-independent basis, Debye-Ang):
   XX=             -7.6913   YY=            -11.3410   ZZ=             -7.6913
   XY=              0.0000   XZ=              0.0000   YZ=              0.0000
 Traceless Quadrupole moment (field-independent basis, Debye-Ang):
   XX=              1.2166   YY=             -2.4331   ZZ=              1.2166
   XY=              0.0000   XZ=              0.0000   YZ=              0.0000
 Octapole moment (field-independent basis, Debye-Ang**2):
  XXX=              0.0000  YYY=              0.0000  ZZZ=              0.0000  XYY=              0.0000
  XXY=              0.0000  XXZ=              0.0000  XZZ=              0.0000  YZZ=              0.0000
  YYZ=              0.0000  XYZ=              0.0000
 Hexadecapole moment (field-independent basis, Debye-Ang**3):
 XXXX=             -9.2085 YYYY=            -19.9922 ZZZZ=             -9.2085 XXXY=              0.0000
 XXXZ=              0.0000 YYYX=              0.0000 YYYZ=              0.0000 ZZZX=              0.0000
 ZZZY=              0.0000 XXYY=             -4.8599 XXZZ=             -3.0695 YYZZ=             -4.8599
 XXYZ=              0.0000 YYXZ=              0.0000 ZZXY=              0.0000
 N-N= 0.000000000000D+00 E-N=-1.022165369921D+03  KE= 4.315912529380D+02
 Symmetry AG   KE= 3.208821452877D+02
 Symmetry B1G  KE= 0.000000000000D+00
 Symmetry B2G  KE= 0.000000000000D+00
 Symmetry B3G  KE= 0.000000000000D+00
 Symmetry AU   KE= 0.000000000000D+00
 Symmetry B1U  KE= 3.647822777709D+01
 Symmetry B2U  KE= 3.775265209611D+01
 Symmetry B3U  KE= 3.647822777709D+01
  Exact polarizability:  16.257   0.000  16.860   0.000   0.000  16.257
 Approx polarizability:  24.869   0.000  18.631   0.000   0.000  24.869
                          Isotropic Fermi Contact Couplings
        Atom                 a.u.       MegaHertz       Gauss      10(-4) cm-1
     1  Si(29)            -0.01584      14.07843       5.02353       4.69606
 --------------------------------------------------------
       Center         ----  Spin Dipole Couplings  ----
                      3XX-RR        3YY-RR        3ZZ-RR
 --------------------------------------------------------
     1   Atom       -1.150769      2.301539     -1.150769
 --------------------------------------------------------
                        XY            XZ            YZ
 --------------------------------------------------------
     1   Atom        0.000000      0.000000      0.000000
 --------------------------------------------------------


 ---------------------------------------------------------------------------------
              Anisotropic Spin Dipole Couplings in Principal Axis System
 ---------------------------------------------------------------------------------

       Atom             a.u.   MegaHertz   Gauss  10(-4) cm-1        Axes

              Baa    -1.1508   122.078    43.561    40.721  1.0000  0.0000  0.0000
     1 Si(29) Bbb    -1.1508   122.078    43.561    40.721  0.0000  0.0000  1.0000
              Bcc     2.3015  -244.157   -87.121   -81.442  0.0000  1.0000  0.0000
 

 ---------------------------------------------------------------------------------

 Density matrix has only Abelian symmetry.
 Density matrix has only Abelian symmetry.
 Calling FoFJK, ICntrl=    100127 FMM=F ISym2X=1 I1Cent= 0 IOpClX= 1 NMat=1 NMatS=1 NMatT=0.
 Full mass-weighted force constant matrix:
 Low frequencies ---    0.0000    0.0000    0.0000
 Diagonal vibrational polarizability:
        0.0000000       0.0000000       0.0000000
 Harmonic frequencies (cm**-1), IR intensities (KM/Mole), Raman scattering
 activities (A**4/AMU), depolarization ratios for plane and unpolarized
 incident light, reduced masses (AMU), force constants (mDyne/A),
 and normal coordinates:

 -------------------
 - Thermochemistry -
 -------------------
 Temperature   298.150 Kelvin.  Pressure   1.00000 Atm.
 Atom     1 has atomic number 14 and mass  27.97693
 Molecular mass:    27.97693 amu.
 Zero-point vibrational energy          0.0 (Joules/Mol)
                                    0.00000 (Kcal/Mol)
 Vibrational temperatures: 
          (Kelvin)
 
 Zero-point correction=                           0.000000 (Hartree/Particle)
 Thermal correction to Energy=                    0.001416
 Thermal correction to Enthalpy=                  0.002360
 Thermal correction to Gibbs Free Energy=        -0.015361
 Sum of electronic and zero-point Energies=           -289.073832
 Sum of electronic and thermal Energies=              -289.072416
 Sum of electronic and thermal Enthalpies=            -289.071472
 Sum of electronic and thermal Free Energies=         -289.089194
 
                     E (Thermal)             CV                S
                      KCal/Mol        Cal/Mol-Kelvin    Cal/Mol-Kelvin
 Total                    0.889              2.981             37.299
 Electronic               0.000              0.000              1.377
 Translational            0.889              2.981             35.921
 Rotational               0.000              0.000              0.000
 Vibrational              0.000              0.000              0.000
                       Q            Log10(Q)             Ln(Q)
 Total Bot       0.116328D+08          7.065685         16.269342
 Total V=0       0.116328D+08          7.065685         16.269342
 Vib (Bot)       0.100000D+01          0.000000          0.000000
 Vib (V=0)       0.100000D+01          0.000000          0.000000
 Electronic      0.200000D+01          0.301030          0.693147
 Translational   0.581641D+07          6.764655         15.576194
 Rotational      0.100000D+01          0.000000          0.000000
 ***** Axes restored to original set *****
 -------------------------------------------------------------------
 Center     Atomic                   Forces (Hartrees/Bohr)
 Number     Number              X              Y              Z
 -------------------------------------------------------------------
      1       14           0.000000000    0.000000000    0.000000000
 -------------------------------------------------------------------
 Cartesian Forces:  Max     0.000000000 RMS     0.000000000

 GradGradGradGradGradGradGradGradGradGradGradGradGradGradGradGradGradGrad
 Berny optimization.
 Search for a local minimum.
 Step number   1 out of a maximum of    2
 All quantities printed in internal units (Hartrees-Bohrs-Radians)
 Second derivative matrix not updated -- analytic derivatives used.
 The second derivative matrix:
                          X1        Y1        Z1
           X1           0.00000
           Y1           0.00000   0.00000
           Z1           0.00000   0.00000   0.00000
     Eigenvalues --- 
 Angle between quadratic step and forces=  90.00 degrees.
 Linear search not attempted -- first point.
 TrRot=  0.000000  0.000000  0.000000  0.000000  0.000000  0.000000
 Variable       Old X    -DE/DX   Delta X   Delta X   Delta X     New X
                                 (Linear)    (Quad)   (Total)
    X1        0.00000   0.00000   0.00000   0.00000   0.00000   0.00000
    Y1       -0.18897   0.00000   0.00000   0.00000   0.00000  -0.18897
    Z1        0.00000   0.00000   0.00000   0.00000   0.00000   0.00000
         Item               Value     Threshold  Converged?
 Maximum Force            0.000000     0.000450     YES
 RMS     Force            0.000000     0.000300     YES
 Maximum Displacement     0.000000     0.001800     YES
 RMS     Displacement     0.000000     0.001200     YES
 Predicted change in Energy= 0.000000D+00
 Optimization completed.
    -- Stationary point found.
 GradGradGradGradGradGradGradGradGradGradGradGradGradGradGradGradGradGrad

 1\1\GINC-NODE43\Freq\UB3LYP\GTBas3\Si1(1+,2)\TAM\06-Dec-2011\0\\#N Geo
 m=AllCheck Guess=TCheck SCRF=Check B3LYP/GTBas3 Freq\\Si-ca-doublet\\1
 ,2\Si,0.,-0.1,0.\\Version=AM64L-G09RevA.02\HF=-289.0738324\S2=0.754323
 \S2-1=0.\S2A=0.75\RMSD=7.682e-10\RMSF=0.000e+00\Thermal=0.0014163\Dipo
 le=0.,0.,0.\DipoleDeriv=1.,0.,0.,0.,1.,0.,0.,0.,1.\Polar=16.257137,0.,
 16.8602466,0.,0.,16.257137\PG=OH [O(Si1)]\NImag=0\\0.,0.,0.,0.,0.,0.\\
 0.,0.,0.\\\@


 ... IT CAN BE VERY DIFFICULT, IN THESE COMPLEX TIMES,
 TO UNDERSTAND JUST HOW SCIENTISTS DO WHAT THEY DO.

                     DON MOSER IN THE FEBRUARY 1979 SMITHSONIAN
 Job cpu time:  0 days  0 hours  0 minutes 25.2 seconds.
 File lengths (MBytes):  RWF=      5 Int=      0 D2E=      0 Chk=      2 Scr=      1
 Normal termination of Gaussian 09 at Tue Dec  6 18:52:18 2011.
 Link1:  Proceeding to internal job step number  3.
 -----------------------------------------------------------------
 #N Geom=AllCheck Guess=TCheck SCRF=Check CCSD(T,E4T,FrzG4)/GTBas1
 -----------------------------------------------------------------
 1/29=7,38=1,40=1/1;
 2/12=2,40=1/2;
 3/5=33,11=9,14=-4,16=1,25=1,30=1,70=2,116=-2/1,2,3;
 4/5=101/1;
 5/5=2,7=500,8=3,13=1/2,8;
 8/6=4,9=120000,10=6/1,4;
 9/5=7,14=4/13;
 6/7=2,8=2,9=2,10=2/1;
 99/5=1,9=1/99;
 -------------
 Si-ca-doublet
 -------------
 No Z-matrix found on checkpoint file.
 Cartesian coordinates read from the checkpoint file:
 S7B-ne-d-04.chk
 Charge =  1 Multiplicity = 2
  Si                                                0.000000000000     -0.100000000000      0.000000000000
 Recover connectivity data from disk.
                          Input orientation:                          
 ---------------------------------------------------------------------
 Center     Atomic      Atomic             Coordinates (Angstroms)
 Number     Number       Type             X           Y           Z
 ---------------------------------------------------------------------
      1         14           0        0.000000   -0.100000    0.000000
 ---------------------------------------------------------------------
 Stoichiometry    Si(1+,2)
 Framework group  OH[O(Si)]
 Deg. of freedom     0
 Full point group                 OH      NOp  48
 Largest Abelian subgroup         D2H     NOp   8
 Largest concise Abelian subgroup C1      NOp   1
                         Standard orientation:                         
 ---------------------------------------------------------------------
 Center     Atomic      Atomic             Coordinates (Angstroms)
 Number     Number       Type             X           Y           Z
 ---------------------------------------------------------------------
      1         14           0        0.000000    0.000000    0.000000
 ---------------------------------------------------------------------
 Standard basis: GTBas1 (6D, 7F)
 There are     7 symmetry adapted basis functions of AG  symmetry.
 There are     1 symmetry adapted basis functions of B1G symmetry.
 There are     1 symmetry adapted basis functions of B2G symmetry.
 There are     1 symmetry adapted basis functions of B3G symmetry.
 There are     0 symmetry adapted basis functions of AU  symmetry.
 There are     3 symmetry adapted basis functions of B1U symmetry.
 There are     3 symmetry adapted basis functions of B2U symmetry.
 There are     3 symmetry adapted basis functions of B3U symmetry.
 Integral buffers will be    131072 words long.
 Raffenetti 2 integral format.
 Two-electron integral symmetry is turned on.
    19 basis functions,    52 primitive gaussians,    19 cartesian basis functions
     7 alpha electrons        6 beta electrons
       nuclear repulsion energy         0.0000000000 Hartrees.
 NAtoms=    1 NActive=    1 NUniq=    1 SFac= 7.50D-01 NAtFMM=   80 NAOKFM=F Big=F
 One-electron integrals computed using PRISM.
 NBasis=    19 RedAO= T  NBF=     7     1     1     1     0     3     3     3
 NBsUse=    19 1.00D-06 NBFU=     7     1     1     1     0     3     3     3
 Initial guess read from the checkpoint file:  S7B-ne-d-04.chk
 B after Tr=     0.000000    0.000000    0.000000
         Rot=    1.000000    0.000000    0.000000    0.000000 Ang=   0.00 deg.
 Initial guess orbital symmetries:
 Alpha Orbitals:
       Occupied  (A1G) (A1G) (T1U) (T1U) (T1U) (?A) (?B)
       Virtual   (?B) (?B) (?A) (T2G) (T2G) (?A) (T2G) (?A) (?B)
                 (?B) (?B) (A1G)
 Beta  Orbitals:
       Occupied  (A1G) (A1G) (T1U) (T1U) (T1U) (?A)
       Virtual   (?B) (?B) (?B) (?A) (?A) (T2G) (?B) (?B) (T2G)
                 (T2G) (?B) (?A) (?A)
 Initial guess <Sx>= 0.0000 <Sy>= 0.0000 <Sz>= 0.5000 <S**2>= 0.7535 S= 0.5018
 Requested convergence on RMS density matrix=1.00D-08 within 128 cycles.
 Requested convergence on MAX density matrix=1.00D-06.
 Requested convergence on             energy=1.00D-06.
 No special actions if energy rises.
 Keep R1 and R2 ints in memory in canonical form, NReq=876293.
 Density matrix breaks symmetry, PCut= 1.00D-04
 Density has only Abelian symmetry.
 Density matrix breaks symmetry, PCut= 1.00D-07
 Density has only Abelian symmetry.
 Density matrix breaks symmetry, PCut= 1.00D-07
 Density has only Abelian symmetry.
 Density matrix breaks symmetry, PCut= 1.00D-07
 Density has only Abelian symmetry.
 Density matrix breaks symmetry, PCut= 1.00D-07
 Density has only Abelian symmetry.
 Density matrix breaks symmetry, PCut= 1.00D-07
 Density has only Abelian symmetry.
 Density matrix breaks symmetry, PCut= 1.00D-07
 Density has only Abelian symmetry.
 Density matrix breaks symmetry, PCut= 1.00D-07
 Density has only Abelian symmetry.
 Density matrix breaks symmetry, PCut= 1.00D-07
 Density has only Abelian symmetry.
 Density matrix breaks symmetry, PCut= 1.00D-07
 Density has only Abelian symmetry.
 SCF Done:  E(UHF) =  -288.551295063     A.U. after    9 cycles
             Convg  =    0.2694D-08             -V/T =  2.0004
 <Sx>= 0.0000 <Sy>= 0.0000 <Sz>= 0.5000 <S**2>= 0.7582 S= 0.5041
 <L.S>= 0.000000000000E+00
 Annihilation of the first spin contaminant:
 S**2 before annihilation     0.7582,   after     0.7500
 QCSCF skips out because SCF is already converged.
 ExpMin= 7.78D-02 ExpMax= 1.61D+04 ExpMxC= 2.43D+03 IAcc=3 IRadAn=         5 AccDes= 0.00D+00
 HarFok:  IExCor=  205 AccDes= 0.00D+00 IRadAn=         5 IDoV=-2
 ScaDFX=  1.000000  1.000000  1.000000  1.000000
 Range of M.O.s used for correlation:     6    19
 NBasis=    19 NAE=     7 NBE=     6 NFC=     5 NFV=     0
 NROrb=     14 NOA=     2 NOB=     1 NVA=    12 NVB=    13
 Semi-Direct transformation.
 ModeAB=           2 MOrb=             2 LenV=    2555738061
 LASXX=          304 LTotXX=         304 LenRXX=         304
 LTotAB=         433 MaxLAS=        5320 LenRXY=        5320
 NonZer=        6244 LenScr=      785920 LnRSAI=           0
 LnScr1=           0 LExtra=           0 Total=       791544
 MaxDsk=          -1 SrtSym=           F ITran=            4
 JobTyp=1 Pass  1:  I=   1 to   2.
 (rs|ai) integrals will be sorted in core.
 ModeAB=           2 MOrb=             1 LenV=    2555738061
 LASXX=          166 LTotXX=         166 LenRXX=         166
 LTotAB=         183 MaxLAS=        2660 LenRXY=        2660
 NonZer=        3122 LenScr=      785920 LnRSAI=           0
 LnScr1=           0 LExtra=           0 Total=       788746
 MaxDsk=          -1 SrtSym=           F ITran=            4
 JobTyp=2 Pass  1:  I=   1 to   1.
 (rs|ai) integrals will be sorted in core.
 Spin components of T(2) and E(2):
     alpha-alpha T2 =       0.1090017153D-02 E2=     -0.1949300789D-02
     alpha-beta  T2 =       0.2070689054D-01 E2=     -0.3248513228D-01
     beta-beta   T2 =       0.0000000000D+00 E2=      0.0000000000D+00
 ANorm=    0.1010839704D+01
 E2 =    -0.3443443307D-01 EUMP2 =    -0.28858572949646D+03
 (S**2,0)=  0.75823D+00           (S**2,1)=  0.75054D+00
 E(PUHF)=      -0.28855352151D+03        E(PMP2)=      -0.28858691623D+03
 R2 and R3 integrals will be kept in memory, NReq=      856290.
 Iterations=  50 Convergence= 0.100D-06
 Iteration Nr.   1
 **********************
 DD1Dir will call FoFMem   1 times, MxPair=         6
 NAB=     2 NAA=     1 NBB=     0.
 E(PMP3)=      -0.28859768720D+03
 MP4(R+Q)=  0.75056416D-03
 Time for triples=        0.08 seconds.
 MP4(T)=   -0.28045829D-03
 E3=       -0.11416821D-01        EUMP3=      -0.28859714632D+03
 E4(DQ)=   -0.36094401D-02        UMP4(DQ)=   -0.28860075576D+03
 E4(SDQ)=  -0.38000063D-02        UMP4(SDQ)=  -0.28860094632D+03
 E4(SDTQ)= -0.40804646D-02        UMP4(SDTQ)= -0.28860122678D+03
 DE(Corr)= -0.45097609E-01 E(Corr)=     -288.59639267    
 NORM(A)=   0.10240985D+01
 Iteration Nr.   2
 **********************
 DD1Dir will call FoFMem   1 times, MxPair=         6
 NAB=     2 NAA=     1 NBB=     0.
 DE(Corr)= -0.50419246E-01 E(CORR)=     -288.60171431     Delta=-5.32D-03
 NORM(A)=   0.10263336D+01
 Iteration Nr.   3
 **********************
 DD1Dir will call FoFMem   1 times, MxPair=         6
 NAB=     2 NAA=     1 NBB=     0.
 DE(Corr)= -0.51239412E-01 E(CORR)=     -288.60253448     Delta=-8.20D-04
 NORM(A)=   0.10270051D+01
 Iteration Nr.   4
 **********************
 DD1Dir will call FoFMem   1 times, MxPair=         6
 NAB=     2 NAA=     1 NBB=     0.
 DE(Corr)= -0.51433474E-01 E(CORR)=     -288.60272854     Delta=-1.94D-04
 NORM(A)=   0.10268652D+01
 Iteration Nr.   5
 **********************
 DD1Dir will call FoFMem   1 times, MxPair=         6
 NAB=     2 NAA=     1 NBB=     0.
 DE(Corr)= -0.51391003E-01 E(CORR)=     -288.60268607     Delta= 4.25D-05
 NORM(A)=   0.10269106D+01
 Iteration Nr.   6
 **********************
 DD1Dir will call FoFMem   1 times, MxPair=         6
 NAB=     2 NAA=     1 NBB=     0.
 DE(Corr)= -0.51403892E-01 E(CORR)=     -288.60269896     Delta=-1.29D-05
 NORM(A)=   0.10269011D+01
 Iteration Nr.   7
 **********************
 DD1Dir will call FoFMem   1 times, MxPair=         6
 NAB=     2 NAA=     1 NBB=     0.
 DE(Corr)= -0.51401050E-01 E(CORR)=     -288.60269611     Delta= 2.84D-06
 NORM(A)=   0.10269033D+01
 Iteration Nr.   8
 **********************
 DD1Dir will call FoFMem   1 times, MxPair=         6
 NAB=     2 NAA=     1 NBB=     0.
 DE(Corr)= -0.51401689E-01 E(CORR)=     -288.60269675     Delta=-6.39D-07
 NORM(A)=   0.10269033D+01
 Iteration Nr.   9
 **********************
 DD1Dir will call FoFMem   1 times, MxPair=         6
 NAB=     2 NAA=     1 NBB=     0.
 DE(Corr)= -0.51401705E-01 E(CORR)=     -288.60269677     Delta=-1.66D-08
 NORM(A)=   0.10269033D+01
 Dominant configurations:
 ***********************
 Spin Case        I    J    A    B          Value
   ABAB           6    6    8    7      -0.109713D+00
   ABAB           6    6    9    8      -0.109713D+00
 Largest amplitude= 1.10D-01
 Time for triples=        0.10 seconds.
 T4(CCSD)= -0.57715008D-03
 T5(CCSD)=  0.18883251D-04
 CCSD(T)= -0.28860325504D+03

 S**2, projected HF & approx projected MPn energies after annihilation of
 unwanted spin states (see manual for definitions):

 spins       (S**2,0) (S**2,1)    PUHF        PMP2        PMP3        PMP4
 annihilated
 s+1         0.75000  0.75000 -288.553522 -288.586916 -288.597687


 **********************************************************************

            Population analysis using the SCF density.

 **********************************************************************

 Orbital symmetries:
 Alpha Orbitals:
       Occupied  (A1G) (A1G) (T1U) (T1U) (T1U) (T2G) (?A)
       Virtual   (?A) (?A) (A1G) (?A) (?A) (?A) (T2G) (T2G) (T2G)
                 (T2G) (T2G) (A1G)
 Beta  Orbitals:
       Occupied  (A1G) (A1G) (T1U) (T1U) (T1U) (?A)
       Virtual   (?B) (?B) (?B) (?A) (?B) (?B) (?B) (T2G) (?A)
                 (T2G) (T2G) (?A) (A1G)
 Unable to determine electronic state:  partially filled degenerate orbitals.
 Alpha  occ. eigenvalues --  -69.16445  -6.51178  -4.61947  -4.60796  -4.60796
 Alpha  occ. eigenvalues --   -0.88339  -0.59275
 Alpha virt. eigenvalues --   -0.26387  -0.26387   0.04541   0.11606   0.14385
 Alpha virt. eigenvalues --    0.14385   0.46042   0.46643   0.46643   0.49044
 Alpha virt. eigenvalues --    0.49044   2.87529
  Beta  occ. eigenvalues --  -69.15854  -6.50477  -4.60509  -4.60509  -4.58826
  Beta  occ. eigenvalues --   -0.79507
  Beta virt. eigenvalues --   -0.24928  -0.24928  -0.20077   0.06113   0.14924
  Beta virt. eigenvalues --    0.14924   0.18442   0.49468   0.49468   0.53708
  Beta virt. eigenvalues --    0.53708   0.55333   2.88772
          Condensed to atoms (all electrons):
              1
     1  Si  13.000000
 Mulliken atomic charges:
              1
     1  Si   1.000000
 Sum of Mulliken atomic charges =   1.00000
 Mulliken charges with hydrogens summed into heavy atoms:
              1
     1  Si   1.000000
 Sum of Mulliken charges with hydrogens summed into heavy atoms =   1.00000
          Atomic-Atomic Spin Densities.
              1
     1  Si   1.000000
 Mulliken atomic spin densities:
              1
     1  Si   1.000000
 Sum of Mulliken atomic spin densities =   1.00000
 Electronic spatial extent (au):  <R**2>=             20.1861
 Charge=              1.0000 electrons
 Dipole moment (field-independent basis, Debye):
    X=              0.0000    Y=              0.0000    Z=              0.0000  Tot=              0.0000
 Quadrupole moment (field-independent basis, Debye-Ang):
   XX=             -7.7691   YY=            -11.6128   ZZ=             -7.7691
   XY=              0.0000   XZ=              0.0000   YZ=              0.0000
 Traceless Quadrupole moment (field-independent basis, Debye-Ang):
   XX=              1.2812   YY=             -2.5625   ZZ=              1.2812
   XY=              0.0000   XZ=              0.0000   YZ=              0.0000
 Octapole moment (field-independent basis, Debye-Ang**2):
  XXX=              0.0000  YYY=              0.0000  ZZZ=              0.0000  XYY=              0.0000
  XXY=              0.0000  XXZ=              0.0000  XZZ=              0.0000  YZZ=              0.0000
  YYZ=              0.0000  XYZ=              0.0000
 Hexadecapole moment (field-independent basis, Debye-Ang**3):
 XXXX=             -9.4873 YYYY=            -20.9043 ZZZZ=             -9.4873 XXXY=              0.0000
 XXXZ=              0.0000 YYYX=              0.0000 YYYZ=              0.0000 ZZZX=              0.0000
 ZZZY=              0.0000 XXYY=             -5.0638 XXZZ=             -3.1624 YYZZ=             -5.0638
 XXYZ=              0.0000 YYXZ=              0.0000 ZZXY=              0.0000
 N-N= 0.000000000000D+00 E-N=-1.022723207126D+03  KE= 4.320714782025D+02
 Symmetry AG   KE= 3.210118337631D+02
 Symmetry B1G  KE= 0.000000000000D+00
 Symmetry B2G  KE= 0.000000000000D+00
 Symmetry B3G  KE= 0.000000000000D+00
 Symmetry AU   KE= 0.000000000000D+00
 Symmetry B1U  KE= 3.660450943975D+01
 Symmetry B2U  KE= 3.785062555988D+01
 Symmetry B3U  KE= 3.660450943975D+01
 1\1\GINC-NODE43\SP\UCCSD(T)\GTBas1\Si1(1+,2)\TAM\06-Dec-2011\0\\#N Geo
 m=AllCheck Guess=TCheck SCRF=Check CCSD(T,E4T,FrzG4)/GTBas1\\Si-ca-dou
 blet\\1,2\Si,0.,-0.1,0.\\Version=AM64L-G09RevA.02\HF=-288.5512951\MP2=
 -288.5857295\MP3=-288.5971463\MP4D=-288.6015063\MP4DQ=-288.6007558\MP4
 SDTQ=-288.6012268\PUHF=-288.5535215\PMP2-0=-288.5869162\PMP3-0=-288.59
 76872\MP4SDQ=-288.6009463\CCSD=-288.6026968\CCSD(T)=-288.603255\S2=0.7
 58227\S2-1=0.750543\S2A=0.75\RMSD=2.694e-09\PG=OH [O(Si1)]\\@


 DON'T WORRY CHARLIE BROWN...WE LEARN MORE FROM LOSING 
 THAN WE DO FROM WINNING.
 THEN THAT MAKES ME THE SMARTEST PERSON IN THE WORLD...
 CHARLES SCHULZ 'PEANUTS'
 Job cpu time:  0 days  0 hours  0 minutes  5.7 seconds.
 File lengths (MBytes):  RWF=     12 Int=      0 D2E=      0 Chk=      2 Scr=      1
 Normal termination of Gaussian 09 at Tue Dec  6 18:52:19 2011.
 Link1:  Proceeding to internal job step number  4.
 ---------------------------------------------------------
 #N Geom=AllCheck Guess=TCheck SCRF=Check MP4=FrzG4/GTBas2
 ---------------------------------------------------------
 1/29=7,38=1,40=1/1;
 2/12=2,40=1/2;
 3/5=34,11=9,14=-4,16=1,25=1,30=1,70=2,116=-2/1,2,3;
 4/5=101/1;
 5/5=2,7=500,8=3,13=1/2,8;
 8/6=4,9=120000,10=6/1,4;
 9/5=5/13;
 6/7=2,8=2,9=2,10=2/1;
 99/5=1,9=1/99;
 -------------
 Si-ca-doublet
 -------------
 No Z-matrix found on checkpoint file.
 Cartesian coordinates read from the checkpoint file:
 S7B-ne-d-04.chk
 Charge =  1 Multiplicity = 2
  Si                                                0.000000000000     -0.100000000000      0.000000000000
 Recover connectivity data from disk.
                          Input orientation:                          
 ---------------------------------------------------------------------
 Center     Atomic      Atomic             Coordinates (Angstroms)
 Number     Number       Type             X           Y           Z
 ---------------------------------------------------------------------
      1         14           0        0.000000   -0.100000    0.000000
 ---------------------------------------------------------------------
 Stoichiometry    Si(1+,2)
 Framework group  OH[O(Si)]
 Deg. of freedom     0
 Full point group                 OH      NOp  48
 Largest Abelian subgroup         D2H     NOp   8
 Largest concise Abelian subgroup C1      NOp   1
                         Standard orientation:                         
 ---------------------------------------------------------------------
 Center     Atomic      Atomic             Coordinates (Angstroms)
 Number     Number       Type             X           Y           Z
 ---------------------------------------------------------------------
      1         14           0        0.000000    0.000000    0.000000
 ---------------------------------------------------------------------
 Standard basis: GTBas2 (6D, 7F)
 There are     8 symmetry adapted basis functions of AG  symmetry.
 There are     1 symmetry adapted basis functions of B1G symmetry.
 There are     1 symmetry adapted basis functions of B2G symmetry.
 There are     1 symmetry adapted basis functions of B3G symmetry.
 There are     0 symmetry adapted basis functions of AU  symmetry.
 There are     4 symmetry adapted basis functions of B1U symmetry.
 There are     4 symmetry adapted basis functions of B2U symmetry.
 There are     4 symmetry adapted basis functions of B3U symmetry.
 Integral buffers will be    131072 words long.
 Raffenetti 2 integral format.
 Two-electron integral symmetry is turned on.
    23 basis functions,    56 primitive gaussians,    23 cartesian basis functions
     7 alpha electrons        6 beta electrons
       nuclear repulsion energy         0.0000000000 Hartrees.
 NAtoms=    1 NActive=    1 NUniq=    1 SFac= 7.50D-01 NAtFMM=   80 NAOKFM=F Big=F
 One-electron integrals computed using PRISM.
 NBasis=    23 RedAO= T  NBF=     8     1     1     1     0     4     4     4
 NBsUse=    23 1.00D-06 NBFU=     8     1     1     1     0     4     4     4
 Initial guess read from the checkpoint file:  S7B-ne-d-04.chk
 B after Tr=     0.000000    0.000000    0.000000
         Rot=    1.000000    0.000000    0.000000    0.000000 Ang=   0.00 deg.
 Initial guess orbital symmetries:
 Alpha Orbitals:
       Occupied  (A1G) (A1G) (T1U) (T1U) (T1U) (T2G) (?A)
       Virtual   (?A) (?A) (A1G) (?A) (?A) (?A) (T2G) (T2G) (T2G)
                 (T2G) (T2G) (A1G) (A1G) (T1U) (T1U) (T1U)
 Beta  Orbitals:
       Occupied  (A1G) (A1G) (T1U) (T1U) (T1U) (?A)
       Virtual   (?B) (?B) (?B) (?A) (?B) (?B) (?B) (T2G) (?A)
                 (T2G) (T2G) (?A) (A1G) (A1G) (T1U) (T1U) (T1U)
 Initial guess <Sx>= 0.0000 <Sy>= 0.0000 <Sz>= 0.5000 <S**2>= 0.7582 S= 0.5041
 Requested convergence on RMS density matrix=1.00D-08 within 128 cycles.
 Requested convergence on MAX density matrix=1.00D-06.
 Requested convergence on             energy=1.00D-06.
 No special actions if energy rises.
 Keep R1 and R2 ints in memory in canonical form, NReq=916795.
 Density matrix breaks symmetry, PCut= 1.00D-04
 Density has only Abelian symmetry.
 Density matrix breaks symmetry, PCut= 1.00D-07
 Density has only Abelian symmetry.
 Density matrix breaks symmetry, PCut= 1.00D-07
 Density has only Abelian symmetry.
 Density matrix breaks symmetry, PCut= 1.00D-07
 Density has only Abelian symmetry.
 Density matrix breaks symmetry, PCut= 1.00D-07
 Density has only Abelian symmetry.
 Density matrix breaks symmetry, PCut= 1.00D-07
 Density has only Abelian symmetry.
 Density matrix breaks symmetry, PCut= 1.00D-07
 Density has only Abelian symmetry.
 Density matrix breaks symmetry, PCut= 1.00D-07
 Density has only Abelian symmetry.
 Density matrix breaks symmetry, PCut= 1.00D-07
 Density has only Abelian symmetry.
 Density matrix breaks symmetry, PCut= 1.00D-07
 Density has only Abelian symmetry.
 SCF Done:  E(UHF) =  -288.551706083     A.U. after    9 cycles
             Convg  =    0.8746D-09             -V/T =  2.0005
 <Sx>= 0.0000 <Sy>= 0.0000 <Sz>= 0.5000 <S**2>= 0.7583 S= 0.5041
 <L.S>= 0.000000000000E+00
 Annihilation of the first spin contaminant:
 S**2 before annihilation     0.7583,   after     0.7500
 QCSCF skips out because SCF is already converged.
 ExpMin= 3.31D-02 ExpMax= 1.61D+04 ExpMxC= 2.43D+03 IAcc=3 IRadAn=         5 AccDes= 0.00D+00
 HarFok:  IExCor=  205 AccDes= 0.00D+00 IRadAn=         5 IDoV=-2
 ScaDFX=  1.000000  1.000000  1.000000  1.000000
 Range of M.O.s used for correlation:     6    23
 NBasis=    23 NAE=     7 NBE=     6 NFC=     5 NFV=     0
 NROrb=     18 NOA=     2 NOB=     1 NVA=    16 NVB=    17
 Semi-Direct transformation.
 ModeAB=           2 MOrb=             2 LenV=    2555735210
 LASXX=          698 LTotXX=         698 LenRXX=         698
 LTotAB=         915 MaxLAS=        9936 LenRXY=        9936
 NonZer=       11340 LenScr=      785920 LnRSAI=           0
 LnScr1=           0 LExtra=           0 Total=       796554
 MaxDsk=          -1 SrtSym=           F ITran=            4
 JobTyp=1 Pass  1:  I=   1 to   2.
 (rs|ai) integrals will be sorted in core.
 ModeAB=           2 MOrb=             1 LenV=    2555735210
 LASXX=          384 LTotXX=         384 LenRXX=         384
 LTotAB=         405 MaxLAS=        4968 LenRXY=        4968
 NonZer=        5670 LenScr=      785920 LnRSAI=           0
 LnScr1=           0 LExtra=           0 Total=       791272
 MaxDsk=          -1 SrtSym=           F ITran=            4
 JobTyp=2 Pass  1:  I=   1 to   1.
 (rs|ai) integrals will be sorted in core.
 Spin components of T(2) and E(2):
     alpha-alpha T2 =       0.1087723495D-02 E2=     -0.1984253774D-02
     alpha-beta  T2 =       0.2072090210D-01 E2=     -0.3280975730D-01
     beta-beta   T2 =       0.0000000000D+00 E2=      0.0000000000D+00
 ANorm=    0.1010845500D+01
 E2 =    -0.3479401107D-01 EUMP2 =    -0.28858650009395D+03
 (S**2,0)=  0.75825D+00           (S**2,1)=  0.75055D+00
 E(PUHF)=      -0.28855393753D+03        E(PMP2)=      -0.28858768981D+03
 R2 and R3 integrals will be kept in memory, NReq=      896452.
 DD1Dir will call FoFMem   1 times, MxPair=         6
 NAB=     2 NAA=     1 NBB=     0.
 E(PMP3)=      -0.28859846266D+03
 MP4(D)= -0.43460363D-02
 MP4(S)= -0.19755859D-03
 MP4(R+Q)=  0.75880956D-03
 Time for triples=        0.15 seconds.
 MP4(T)=   -0.28554127D-03
 E3=       -0.11421011D-01        EUMP3=      -0.28859792110D+03
 E4(DQ)=   -0.35872268D-02        UMP4(DQ)=   -0.28860150833D+03
 E4(SDQ)=  -0.37847853D-02        UMP4(SDQ)=  -0.28860170589D+03
 E4(SDTQ)= -0.40703266D-02        UMP4(SDTQ)= -0.28860199143D+03
 Largest amplitude= 6.29D-02

 S**2, projected HF & approx projected MPn energies after annihilation of
 unwanted spin states (see manual for definitions):

 spins       (S**2,0) (S**2,1)    PUHF        PMP2        PMP3        PMP4
 annihilated
 s+1         0.75000  0.75000 -288.553938 -288.587690 -288.598463 -288.602533


 **********************************************************************

            Population analysis using the SCF density.

 **********************************************************************

 Orbital symmetries:
 Alpha Orbitals:
       Occupied  (A1G) (A1G) (T1U) (T1U) (T1U) (T2G) (?A)
       Virtual   (?A) (?A) (A1G) (?A) (?A) (?A) (A1G) (?A) (?A)
                 (?A) (T2G) (T2G) (T2G) (T2G) (T2G) (A1G)
 Beta  Orbitals:
       Occupied  (A1G) (A1G) (T1U) (T1U) (T1U) (?A)
       Virtual   (?B) (?B) (?B) (?A) (?B) (?B) (?B) (?A) (?B) (?B)
                 (?B) (T2G) (?A) (T2G) (T2G) (?A) (A1G)
 Unable to determine electronic state:  partially filled degenerate orbitals.
 Alpha  occ. eigenvalues --  -69.16839  -6.51352  -4.62134  -4.60985  -4.60985
 Alpha  occ. eigenvalues --   -0.88336  -0.59295
 Alpha virt. eigenvalues --   -0.26398  -0.26398  -0.10048  -0.05711  -0.05255
 Alpha virt. eigenvalues --   -0.05255   0.22242   0.24888   0.26853   0.26853
 Alpha virt. eigenvalues --    0.46053   0.46653   0.46653   0.49053   0.49053
 Alpha virt. eigenvalues --    2.90408
  Beta  occ. eigenvalues --  -69.16253  -6.50660  -4.60702  -4.60702  -4.59026
  Beta  occ. eigenvalues --   -0.79504
  Beta virt. eigenvalues --   -0.24957  -0.24957  -0.20236  -0.09599  -0.05092
  Beta virt. eigenvalues --   -0.05092  -0.03832   0.23610   0.27320   0.27320
  Beta virt. eigenvalues --    0.30563   0.49475   0.49475   0.53718   0.53718
  Beta virt. eigenvalues --    0.55357   2.91698
          Condensed to atoms (all electrons):
              1
     1  Si  13.000000
 Mulliken atomic charges:
              1
     1  Si   1.000000
 Sum of Mulliken atomic charges =   1.00000
 Mulliken charges with hydrogens summed into heavy atoms:
              1
     1  Si   1.000000
 Sum of Mulliken charges with hydrogens summed into heavy atoms =   1.00000
          Atomic-Atomic Spin Densities.
              1
     1  Si   1.000000
 Mulliken atomic spin densities:
              1
     1  Si   1.000000
 Sum of Mulliken atomic spin densities =   1.00000
 Electronic spatial extent (au):  <R**2>=             20.0853
 Charge=              1.0000 electrons
 Dipole moment (field-independent basis, Debye):
    X=              0.0000    Y=              0.0000    Z=              0.0000  Tot=              0.0000
 Quadrupole moment (field-independent basis, Debye-Ang):
   XX=             -7.7362   YY=            -11.5431   ZZ=             -7.7362
   XY=              0.0000   XZ=              0.0000   YZ=              0.0000
 Traceless Quadrupole moment (field-independent basis, Debye-Ang):
   XX=              1.2690   YY=             -2.5379   ZZ=              1.2690
   XY=              0.0000   XZ=              0.0000   YZ=              0.0000
 Octapole moment (field-independent basis, Debye-Ang**2):
  XXX=              0.0000  YYY=              0.0000  ZZZ=              0.0000  XYY=              0.0000
  XXY=              0.0000  XXZ=              0.0000  XZZ=              0.0000  YZZ=              0.0000
  YYZ=              0.0000  XYZ=              0.0000
 Hexadecapole moment (field-independent basis, Debye-Ang**3):
 XXXX=             -9.2131 YYYY=            -20.1321 ZZZZ=             -9.2131 XXXY=              0.0000
 XXXZ=              0.0000 YYYX=              0.0000 YYYZ=              0.0000 ZZZX=              0.0000
 ZZZY=              0.0000 XXYY=             -4.8894 XXZZ=             -3.0710 YYZZ=             -4.8894
 XXYZ=              0.0000 YYXZ=              0.0000 ZZXY=              0.0000
 N-N= 0.000000000000D+00 E-N=-1.022619897137D+03  KE= 4.319994426132D+02
 Symmetry AG   KE= 3.209757676149D+02
 Symmetry B1G  KE= 0.000000000000D+00
 Symmetry B2G  KE= 0.000000000000D+00
 Symmetry B3G  KE= 0.000000000000D+00
 Symmetry AU   KE= 0.000000000000D+00
 Symmetry B1U  KE= 3.659253930482D+01
 Symmetry B2U  KE= 3.783859638857D+01
 Symmetry B3U  KE= 3.659253930482D+01
 1\1\GINC-NODE43\SP\UMP4SDTQ\GTBas2\Si1(1+,2)\TAM\06-Dec-2011\0\\#N Geo
 m=AllCheck Guess=TCheck SCRF=Check MP4=FrzG4/GTBas2\\Si-ca-doublet\\1,
 2\Si,0.,-0.1,0.\\Version=AM64L-G09RevA.02\HF=-288.5517061\MP2=-288.586
 5001\MP3=-288.5979211\MP4D=-288.6022671\MP4DQ=-288.6015083\MP4SDQ=-288
 .6017059\MP4SDTQ=-288.6019914\PUHF=-288.5539375\PMP2-0=-288.5876898\PM
 P3-0=-288.5984627\S2=0.75825\S2-1=0.750547\S2A=0.75\RMSD=8.746e-10\PG=
 OH [O(Si1)]\\@


 You never know when you're making a memory.
                        -- Rickie Lee Jones
 Job cpu time:  0 days  0 hours  0 minutes  4.6 seconds.
 File lengths (MBytes):  RWF=     12 Int=      0 D2E=      0 Chk=      2 Scr=      1
 Normal termination of Gaussian 09 at Tue Dec  6 18:52:20 2011.
 Link1:  Proceeding to internal job step number  5.
 ---------------------------------------------------------
 #N Geom=AllCheck Guess=TCheck SCRF=Check MP4=FrzG4/GTBas3
 ---------------------------------------------------------
 1/29=7,38=1,40=1/1;
 2/12=2,40=1/2;
 3/5=35,11=9,14=-4,16=1,25=1,30=1,70=2,116=-2/1,2,3;
 4/5=101/1;
 5/5=2,7=500,8=3,13=1/2,8;
 8/6=4,9=120000,10=6/1,4;
 9/5=5/13;
 6/7=2,8=2,9=2,10=2/1;
 99/5=1,9=1/99;
 -------------
 Si-ca-doublet
 -------------
 No Z-matrix found on checkpoint file.
 Cartesian coordinates read from the checkpoint file:
 S7B-ne-d-04.chk
 Charge =  1 Multiplicity = 2
  Si                                                0.000000000000     -0.100000000000      0.000000000000
 Recover connectivity data from disk.
                          Input orientation:                          
 ---------------------------------------------------------------------
 Center     Atomic      Atomic             Coordinates (Angstroms)
 Number     Number       Type             X           Y           Z
 ---------------------------------------------------------------------
      1         14           0        0.000000   -0.100000    0.000000
 ---------------------------------------------------------------------
 Stoichiometry    Si(1+,2)
 Framework group  OH[O(Si)]
 Deg. of freedom     0
 Full point group                 OH      NOp  48
 Largest Abelian subgroup         D2H     NOp   8
 Largest concise Abelian subgroup C1      NOp   1
                         Standard orientation:                         
 ---------------------------------------------------------------------
 Center     Atomic      Atomic             Coordinates (Angstroms)
 Number     Number       Type             X           Y           Z
 ---------------------------------------------------------------------
      1         14           0        0.000000    0.000000    0.000000
 ---------------------------------------------------------------------
 Standard basis: GTBas3 (6D, 7F)
 There are    10 symmetry adapted basis functions of AG  symmetry.
 There are     2 symmetry adapted basis functions of B1G symmetry.
 There are     2 symmetry adapted basis functions of B2G symmetry.
 There are     2 symmetry adapted basis functions of B3G symmetry.
 There are     1 symmetry adapted basis functions of AU  symmetry.
 There are     5 symmetry adapted basis functions of B1U symmetry.
 There are     5 symmetry adapted basis functions of B2U symmetry.
 There are     5 symmetry adapted basis functions of B3U symmetry.
 Integral buffers will be    131072 words long.
 Raffenetti 2 integral format.
 Two-electron integral symmetry is turned on.
    32 basis functions,    68 primitive gaussians,    35 cartesian basis functions
     7 alpha electrons        6 beta electrons
       nuclear repulsion energy         0.0000000000 Hartrees.
 NAtoms=    1 NActive=    1 NUniq=    1 SFac= 7.50D-01 NAtFMM=   80 NAOKFM=F Big=F
 One-electron integrals computed using PRISM.
 NBasis=    32 RedAO= T  NBF=    10     2     2     2     1     5     5     5
 NBsUse=    32 1.00D-06 NBFU=    10     2     2     2     1     5     5     5
 Initial guess read from the checkpoint file:  S7B-ne-d-04.chk
 B after Tr=     0.000000    0.000000    0.000000
         Rot=    1.000000    0.000000    0.000000    0.000000 Ang=   0.00 deg.
 Initial guess orbital symmetries:
 Alpha Orbitals:
       Occupied  (A1G) (A1G) (T1U) (T1U) (T1U) (T2G) (?A)
       Virtual   (?A) (?A) (A1G) (?A) (?A) (?A) (A1G) (T2G) (T2G)
                 (T2G) (T2G) (T2G) (A1G) (EG) (EG) (T2G) (T2G)
                 (T2G) (A2U) (?B) (?B) (?B) (?B) (?B) (?B)
 Beta  Orbitals:
       Occupied  (A1G) (A1G) (T1U) (T1U) (T1U) (?A)
       Virtual   (?B) (?B) (?B) (?A) (?B) (?B) (?B) (?A) (T2G)
                 (?A) (T2G) (T2G) (?A) (A1G) (EG) (EG) (T2G) (T2G)
                 (T2G) (A2U) (?C) (?C) (?C) (?C) (?C) (?C)
 Initial guess <Sx>= 0.0000 <Sy>= 0.0000 <Sz>= 0.5000 <S**2>= 0.7575 S= 0.5037
 Requested convergence on RMS density matrix=1.00D-08 within 128 cycles.
 Requested convergence on MAX density matrix=1.00D-06.
 Requested convergence on             energy=1.00D-06.
 No special actions if energy rises.
 Keep R1 and R2 ints in memory in canonical form, NReq=2360162.
 Density matrix breaks symmetry, PCut= 1.00D-04
 Density has only Abelian symmetry.
 Density matrix breaks symmetry, PCut= 1.00D-07
 Density has only Abelian symmetry.
 Density matrix breaks symmetry, PCut= 1.00D-07
 Density has only Abelian symmetry.
 Density matrix breaks symmetry, PCut= 1.00D-07
 Density has only Abelian symmetry.
 Density matrix breaks symmetry, PCut= 1.00D-07
 Density has only Abelian symmetry.
 Density matrix breaks symmetry, PCut= 1.00D-07
 Density has only Abelian symmetry.
 Density matrix breaks symmetry, PCut= 1.00D-07
 Density has only Abelian symmetry.
 Density matrix breaks symmetry, PCut= 1.00D-07
 Density has only Abelian symmetry.
 Density matrix breaks symmetry, PCut= 1.00D-07
 Density has only Abelian symmetry.
 Density matrix breaks symmetry, PCut= 1.00D-07
 Density has only Abelian symmetry.
 SCF Done:  E(UHF) =  -288.552490392     A.U. after    9 cycles
             Convg  =    0.1096D-08             -V/T =  2.0003
 <Sx>= 0.0000 <Sy>= 0.0000 <Sz>= 0.5000 <S**2>= 0.7656 S= 0.5078
 <L.S>= 0.000000000000E+00
 Annihilation of the first spin contaminant:
 S**2 before annihilation     0.7656,   after     0.7500
 QCSCF skips out because SCF is already converged.
 ExpMin= 7.78D-02 ExpMax= 1.61D+04 ExpMxC= 2.43D+03 IAcc=3 IRadAn=         5 AccDes= 0.00D+00
 HarFok:  IExCor=  205 AccDes= 0.00D+00 IRadAn=         5 IDoV=-2
 ScaDFX=  1.000000  1.000000  1.000000  1.000000
 Range of M.O.s used for correlation:     6    32
 NBasis=    32 NAE=     7 NBE=     6 NFC=     5 NFV=     0
 NROrb=     27 NOA=     2 NOB=     1 NVA=    25 NVB=    26
 Semi-Direct transformation.
 ModeAB=           2 MOrb=             2 LenV=    2555674258
 LASXX=         2326 LTotXX=        2326 LenRXX=        2326
 LTotAB=        2758 MaxLAS=       34020 LenRXY=       34020
 NonZer=       39042 LenScr=      785920 LnRSAI=           0
 LnScr1=           0 LExtra=           0 Total=       822266
 MaxDsk=          -1 SrtSym=           F ITran=            4
 JobTyp=1 Pass  1:  I=   1 to   2.
 (rs|ai) integrals will be sorted in core.
 ModeAB=           2 MOrb=             1 LenV=    2555674258
 LASXX=         1215 LTotXX=        1215 LenRXX=        1215
 LTotAB=        1259 MaxLAS=       17010 LenRXY=       17010
 NonZer=       19521 LenScr=      785920 LnRSAI=           0
 LnScr1=           0 LExtra=           0 Total=       804145
 MaxDsk=          -1 SrtSym=           F ITran=            4
 JobTyp=2 Pass  1:  I=   1 to   1.
 (rs|ai) integrals will be sorted in core.
 Spin components of T(2) and E(2):
     alpha-alpha T2 =       0.1591363558D-02 E2=     -0.2544372713D-02
     alpha-beta  T2 =       0.2417363308D-01 E2=     -0.3684547012D-01
     beta-beta   T2 =       0.0000000000D+00 E2=      0.0000000000D+00
 ANorm=    0.1012800571D+01
 E2 =    -0.3938984283D-01 EUMP2 =    -0.28859188023528D+03
 (S**2,0)=  0.76564D+00           (S**2,1)=  0.75333D+00
 E(PUHF)=      -0.28855544340D+03        E(PMP2)=      -0.28859367152D+03
 R2 and R3 integrals will be kept in memory, NReq=     2337530.
 DD1Dir will call FoFMem   1 times, MxPair=         6
 NAB=     2 NAA=     1 NBB=     0.
 E(PMP3)=      -0.28860484029D+03
 MP4(D)= -0.46719879D-02
 MP4(S)= -0.24309130D-03
 MP4(R+Q)=  0.10148792D-02
 Time for triples=        0.40 seconds.
 MP4(T)=   -0.51336167D-03
 E3=       -0.12034282D-01        EUMP3=      -0.28860391452D+03
 E4(DQ)=   -0.36571087D-02        UMP4(DQ)=   -0.28860757163D+03
 E4(SDQ)=  -0.39002000D-02        UMP4(SDQ)=  -0.28860781472D+03
 E4(SDTQ)= -0.44135617D-02        UMP4(SDTQ)= -0.28860832808D+03
 Largest amplitude= 6.34D-02

 S**2, projected HF & approx projected MPn energies after annihilation of
 unwanted spin states (see manual for definitions):

 spins       (S**2,0) (S**2,1)    PUHF        PMP2        PMP3        PMP4
 annihilated
 s+1         0.75000  0.75000 -288.555443 -288.593672 -288.604840 -288.609254


 **********************************************************************

            Population analysis using the SCF density.

 **********************************************************************

 Orbital symmetries:
 Alpha Orbitals:
       Occupied  (A1G) (A1G) (T1U) (T1U) (T1U) (?A) (?B)
       Virtual   (?B) (?B) (?A) (?B) (?A) (?B) (?B) (T2G) (T2G)
                 (T2G) (?A) (A1G) (?C) (?C) (A2U) (?C) (?C) (?C)
                 (?C) (T2G) (T2G) (T2G) (T2G) (T2G) (T2G)
 Beta  Orbitals:
       Occupied  (A1G) (A1G) (T1U) (T1U) (T1U) (?A)
       Virtual   (?B) (?B) (?B) (?A) (?B) (?B) (T2G) (?A) (?B)
                 (T2G) (T2G) (?A) (?A) (?B) (?B) (A2U) (?B) (?B)
                 (?B) (?B) (?A) (T2G) (T2G) (T2G) (?A) (?A)
 Unable to determine electronic state:  an orbital has unidentified symmetry.
 Alpha  occ. eigenvalues --  -69.16705  -6.51358  -4.62147  -4.61017  -4.61017
 Alpha  occ. eigenvalues --   -0.88465  -0.59575
 Alpha virt. eigenvalues --   -0.26288  -0.26288  -0.00206   0.11612   0.14161
 Alpha virt. eigenvalues --    0.14347   0.14347   0.14779   0.14779   0.17278
 Alpha virt. eigenvalues --    0.17278   0.66180   0.84606   0.84606   0.85159
 Alpha virt. eigenvalues --    0.85159   0.85459   0.85459   0.85554   1.56041
 Alpha virt. eigenvalues --    1.56041   1.57186   1.57186   1.57554   2.38915
  Beta  occ. eigenvalues --  -69.16117  -6.50672  -4.60732  -4.60732  -4.59036
  Beta  occ. eigenvalues --   -0.79597
  Beta virt. eigenvalues --   -0.25162  -0.25162  -0.19931   0.00891   0.14857
  Beta virt. eigenvalues --    0.14857   0.17590   0.17590   0.18416   0.21377
  Beta virt. eigenvalues --    0.21377   0.22884   0.67481   0.84675   0.84675
  Beta virt. eigenvalues --    0.87576   0.87576   0.89410   0.89410   0.90045
  Beta virt. eigenvalues --    1.56152   1.56152   1.59394   1.59394   1.60544
  Beta virt. eigenvalues --    2.40127
          Condensed to atoms (all electrons):
              1
     1  Si  13.000000
 Mulliken atomic charges:
              1
     1  Si   1.000000
 Sum of Mulliken atomic charges =   1.00000
 Mulliken charges with hydrogens summed into heavy atoms:
              1
     1  Si   1.000000
 Sum of Mulliken charges with hydrogens summed into heavy atoms =   1.00000
          Atomic-Atomic Spin Densities.
              1
     1  Si   1.000000
 Mulliken atomic spin densities:
              1
     1  Si   1.000000
 Sum of Mulliken atomic spin densities =   1.00000
 Electronic spatial extent (au):  <R**2>=             20.2067
 Charge=              1.0000 electrons
 Dipole moment (field-independent basis, Debye):
    X=              0.0000    Y=              0.0000    Z=              0.0000  Tot=              0.0000
 Quadrupole moment (field-independent basis, Debye-Ang):
   XX=             -7.7463   YY=            -11.6860   ZZ=             -7.7463
   XY=              0.0000   XZ=              0.0000   YZ=              0.0000
 Traceless Quadrupole moment (field-independent basis, Debye-Ang):
   XX=              1.3132   YY=             -2.6264   ZZ=              1.3132
   XY=              0.0000   XZ=              0.0000   YZ=              0.0000
 Octapole moment (field-independent basis, Debye-Ang**2):
  XXX=              0.0000  YYY=              0.0000  ZZZ=              0.0000  XYY=              0.0000
  XXY=              0.0000  XXZ=              0.0000  XZZ=              0.0000  YZZ=              0.0000
  YYZ=              0.0000  XYZ=              0.0000
 Hexadecapole moment (field-independent basis, Debye-Ang**3):
 XXXX=             -9.4193 YYYY=            -21.0886 ZZZZ=             -9.4193 XXXY=              0.0000
 XXXZ=              0.0000 YYYX=              0.0000 YYYZ=              0.0000 ZZZX=              0.0000
 ZZZY=              0.0000 XXYY=             -5.0650 XXZZ=             -3.1398 YYZZ=             -5.0650
 XXYZ=              0.0000 YYXZ=              0.0000 ZZXY=              0.0000
 N-N= 0.000000000000D+00 E-N=-1.022718538096D+03  KE= 4.321007041852D+02
 Symmetry AG   KE= 3.210374141224D+02
 Symmetry B1G  KE= 0.000000000000D+00
 Symmetry B2G  KE= 0.000000000000D+00
 Symmetry B3G  KE= 0.000000000000D+00
 Symmetry AU   KE= 0.000000000000D+00
 Symmetry B1U  KE= 3.660548145847D+01
 Symmetry B2U  KE= 3.785232714584D+01
 Symmetry B3U  KE= 3.660548145847D+01
 1\1\GINC-NODE43\SP\UMP4SDTQ\GTBas3\Si1(1+,2)\TAM\06-Dec-2011\0\\#N Geo
 m=AllCheck Guess=TCheck SCRF=Check MP4=FrzG4/GTBas3\\Si-ca-doublet\\1,
 2\Si,0.,-0.1,0.\\Version=AM64L-G09RevA.02\HF=-288.5524904\MP2=-288.591
 8802\MP3=-288.6039145\MP4D=-288.6085865\MP4DQ=-288.6075716\MP4SDQ=-288
 .6078147\MP4SDTQ=-288.6083281\PUHF=-288.5554434\PMP2-0=-288.5936715\PM
 P3-0=-288.6048403\S2=0.765635\S2-1=0.753333\S2A=0.75\RMSD=1.096e-09\PG
 =OH [O(Si1)]\\@


 YOU CAN WIPE THE SLATE CLEAN, BUT YOU'LL STILL
 HAVE TO EAT A LITTLE CHALK DUST.
 Job cpu time:  0 days  0 hours  0 minutes  9.3 seconds.
 File lengths (MBytes):  RWF=     12 Int=      0 D2E=      0 Chk=      2 Scr=      1
 Normal termination of Gaussian 09 at Tue Dec  6 18:52:22 2011.
 Link1:  Proceeding to internal job step number  6.
 -----------------------------------------------------------
 #N Geom=AllCheck Guess=TCheck SCRF=Check MP2=Full/GTLargeXP
 -----------------------------------------------------------
 1/29=7,38=1,40=1/1;
 2/12=2,40=1/2;
 3/5=31,11=9,14=-4,16=1,25=1,30=1,70=2,116=-2/1,2,3;
 4/5=101/1;
 5/5=2,7=500,8=3,13=1/2,8;
 8/10=90/1;
 9/16=-3/6;
 6/7=2,8=2,9=2,10=2/1;
 99/5=1,9=1/99;
 -------------
 Si-ca-doublet
 -------------
 No Z-matrix found on checkpoint file.
[...]
  XXY=              0.0000  XXZ=              0.0000  XZZ=              0.0000  YZZ=              0.0000
  YYZ=              0.0000  XYZ=              0.0000
 Hexadecapole moment (field-independent basis, Debye-Ang**3):
 XXXX=             -9.0400 YYYY=            -20.2926 ZZZZ=             -9.0400 XXXY=              0.0000
 XXXZ=              0.0000 YYYX=              0.0000 YYYZ=              0.0000 ZZZX=              0.0000
 ZZZY=              0.0000 XXYY=             -4.8592 XXZZ=             -3.0133 YYZZ=             -4.8592
 XXYZ=              0.0000 YYXZ=              0.0000 ZZXY=              0.0000
 N-N= 0.000000000000D+00 E-N=-1.022868417639D+03  KE= 4.322236970993D+02
 Symmetry AG   KE= 3.212333886454D+02
 Symmetry B1G  KE= 0.000000000000D+00
 Symmetry B2G  KE= 0.000000000000D+00
 Symmetry B3G  KE= 0.000000000000D+00
 Symmetry AU   KE= 0.000000000000D+00
 Symmetry B1U  KE= 3.657063304980D+01
 Symmetry B2U  KE= 3.784904235425D+01
 Symmetry B3U  KE= 3.657063304980D+01
                          Isotropic Fermi Contact Couplings
        Atom                 a.u.       MegaHertz       Gauss      10(-4) cm-1
     1  Si(29)            -0.03069      27.27566       9.73263       9.09818
 --------------------------------------------------------
       Center         ----  Spin Dipole Couplings  ----
                      3XX-RR        3YY-RR        3ZZ-RR
 --------------------------------------------------------
     1   Atom       -1.088448      2.176896     -1.088448
 --------------------------------------------------------
                        XY            XZ            YZ
 --------------------------------------------------------
     1   Atom        0.000000      0.000000      0.000000
 --------------------------------------------------------


 ---------------------------------------------------------------------------------
              Anisotropic Spin Dipole Couplings in Principal Axis System
 ---------------------------------------------------------------------------------

       Atom             a.u.   MegaHertz   Gauss  10(-4) cm-1        Axes

              Baa    -1.0884   115.467    41.201    38.516  1.0000  0.0000  0.0000
     1 Si(29) Bbb    -1.0884   115.467    41.201    38.516  0.0000  0.0000  1.0000
              Bcc     2.1769  -230.934   -82.403   -77.031  0.0000  1.0000  0.0000
 

 ---------------------------------------------------------------------------------

 1\1\GINC-NODE43\SP\UHF\GFHFB1\Si1(1+,2)\TAM\06-Dec-2011\0\\#N Geom=All
 Check Guess=TCheck SCRF=Check HF/GFHFB1 SCF=Tight\\Si-ca-doublet\\1,2\
 Si,0.,-0.1,0.\\Version=AM64L-G09RevA.02\HF=-288.5777716\S2=0.766199\S2
 -1=0.\S2A=0.75\RMSD=1.260e-09\Dipole=0.,0.,0.\Quadrupole=0.9745442,-1.
 9490885,0.9745442,0.,0.,0.\PG=OH [O(Si1)]\\@


 I SUPPOSE A BABY LLAMA HAS A MMAMA AND A PPOPA.
     -- RICHARD AMOUR
 Job cpu time:  0 days  0 hours  0 minutes 13.5 seconds.
 File lengths (MBytes):  RWF=     12 Int=      0 D2E=      0 Chk=      2 Scr=      1
 Normal termination of Gaussian 09 at Tue Dec  6 18:52:29 2011.
 Link1:  Proceeding to internal job step number  8.
 ------------------------------------------------------------
 #N Geom=AllCheck Guess=TCheck SCRF=Check HF/GFHFB2 SCF=Tight
 ------------------------------------------------------------
 1/29=7,38=1,40=1/1;
 2/12=2,40=1/2;
 3/5=37,11=9,14=-4,16=1,25=1,30=1,70=2,116=-2/1,2,3;
 4/5=101/1;
 5/5=2,7=500,8=3,13=1,32=2/2,8;
 6/7=2,8=2,9=2,10=2,28=1/1;
 99/5=1,9=1/99;
 -------------
 Si-ca-doublet
 -------------
 No Z-matrix found on checkpoint file.
 Cartesian coordinates read from the checkpoint file:
 S7B-ne-d-04.chk
 Charge =  1 Multiplicity = 2
  Si                                                0.000000000000     -0.100000000000      0.000000000000
 Recover connectivity data from disk.
                          Input orientation:                          
 ---------------------------------------------------------------------
 Center     Atomic      Atomic             Coordinates (Angstroms)
 Number     Number       Type             X           Y           Z
 ---------------------------------------------------------------------
      1         14           0        0.000000   -0.100000    0.000000
 ---------------------------------------------------------------------
 Stoichiometry    Si(1+,2)
 Framework group  OH[O(Si)]
 Deg. of freedom     0
 Full point group                 OH      NOp  48
 Largest Abelian subgroup         D2H     NOp   8
 Largest concise Abelian subgroup C1      NOp   1
                         Standard orientation:                         
 ---------------------------------------------------------------------
 Center     Atomic      Atomic             Coordinates (Angstroms)
 Number     Number       Type             X           Y           Z
 ---------------------------------------------------------------------
      1         14           0        0.000000    0.000000    0.000000
 ---------------------------------------------------------------------
 Standard basis: GFHFB2 (5D, 7F)
 There are    22 symmetry adapted basis functions of AG  symmetry.
 There are     8 symmetry adapted basis functions of B1G symmetry.
 There are     8 symmetry adapted basis functions of B2G symmetry.
 There are     8 symmetry adapted basis functions of B3G symmetry.
 There are     5 symmetry adapted basis functions of AU  symmetry.
 There are    16 symmetry adapted basis functions of B1U symmetry.
 There are    16 symmetry adapted basis functions of B2U symmetry.
 There are    16 symmetry adapted basis functions of B3U symmetry.
 Integral buffers will be    131072 words long.
 Raffenetti 2 integral format.
 Two-electron integral symmetry is turned on.
    99 basis functions,   196 primitive gaussians,   134 cartesian basis functions
     7 alpha electrons        6 beta electrons
       nuclear repulsion energy         0.0000000000 Hartrees.
 NAtoms=    1 NActive=    1 NUniq=    1 SFac= 7.50D-01 NAtFMM=   80 NAOKFM=F Big=F
 One-electron integrals computed using PRISM.
 NBasis=    99 RedAO= T  NBF=    22     8     8     8     5    16    16    16
 NBsUse=    99 1.00D-06 NBFU=    22     8     8     8     5    16    16    16
 Initial guess read from the checkpoint file:  S7B-ne-d-04.chk
 B after Tr=     0.000000    0.000000    0.000000
         Rot=    1.000000    0.000000    0.000000    0.000000 Ang=   0.00 deg.
 Initial guess orbital symmetries:
 Alpha Orbitals:
       Occupied  (A1G) (A1G) (T1U) (T1U) (T1U) (?A) (?B)
       Virtual   (?B) (?B) (?A) (?B) (?B) (?B) (?A) (?C) (?C) (?C)
                 (?A) (?B) (?B) (?B) (?A) (?B) (?B) (?B) (A2U)
                 (?B) (?B) (?B) (?A) (?C) (?C) (?A) (?C) (?B) (?B)
                 (?B) (?A) (?D) (?A) (?A) (?D) (?D) (?D) (?D) (?D)
                 (?A) (?A) (?D) (?D) (?D) (?A) (?E) (?E) (?E) (A2U)
                 (?E) (?E) (?E) (T1U) (T1U) (T1U) (A1G) (EG) (EG)
                 (T2G) (T2G) (T2G) (A1G) (T2G) (?F) (?F) (T2G)
                 (?F) (?F) (T2G) (?F) (?F) (EU) (EU) (A2U) (?F)
                 (?F) (?F) (T1U) (?E) (?E) (?F) (?F) (?F) (T1U)
                 (?E) (?E) (?F) (?F) (?F) (T1U) (?E) (?E)
 Beta  Orbitals:
       Occupied  (A1G) (A1G) (T1U) (T1U) (T1U) (?A)
       Virtual   (?B) (?B) (?B) (?A) (?B) (?B) (?B) (?C) (?A) (?C)
                 (?C) (?A) (?B) (?B) (?B) (?A) (?B) (?B) (?B) (A2U)
                 (?B) (?B) (?B) (?A) (?C) (?C) (?C) (?A) (?B) (?B)
                 (?B) (?A) (?C) (?A) (?C) (?A) (?C) (?C) (?C) (?C)
                 (?A) (?B) (?B) (?A) (?C) (?C) (?C) (?A) (?B) (A2U)
                 (?B) (?B) (?B) (T1U) (T1U) (T1U) (A1G) (EG) (EG)
                 (T2G) (T2G) (T2G) (A1G) (T2G) (?D) (?D) (T2G)
                 (?D) (?D) (T2G) (?D) (?D) (EU) (EU) (A2U) (?E)
                 (?E) (?E) (T1U) (?F) (?F) (?E) (?E) (?E) (T1U)
                 (?F) (?F) (?E) (?E) (?E) (T1U) (?F) (?F)
 Initial guess <Sx>= 0.0000 <Sy>= 0.0000 <Sz>= 0.5000 <S**2>= 0.7662 S= 0.5081
 Requested convergence on RMS density matrix=1.00D-08 within 128 cycles.
 Requested convergence on MAX density matrix=1.00D-06.
 Requested convergence on             energy=1.00D-06.
 No special actions if energy rises.
 Keep R1 and R2 ints in memory in canonical form, NReq=98345096.
 Density matrix breaks symmetry, PCut= 1.00D-04
 Density has only Abelian symmetry.
 Density matrix breaks symmetry, PCut= 1.00D-07
 Density has only Abelian symmetry.
 Density matrix breaks symmetry, PCut= 1.00D-07
 Density has only Abelian symmetry.
 Density matrix breaks symmetry, PCut= 1.00D-07
 Density has only Abelian symmetry.
 Density matrix breaks symmetry, PCut= 1.00D-07
 Density has only Abelian symmetry.
 Density matrix breaks symmetry, PCut= 1.00D-07
 Density has only Abelian symmetry.
 Density matrix breaks symmetry, PCut= 1.00D-07
 Density has only Abelian symmetry.
 Density matrix breaks symmetry, PCut= 1.00D-07
 Density has only Abelian symmetry.
 Density matrix breaks symmetry, PCut= 1.00D-07
 Density has only Abelian symmetry.
 SCF Done:  E(UHF) =  -288.578170074     A.U. after    8 cycles
             Convg  =    0.7377D-09             -V/T =  2.0000
 <Sx>= 0.0000 <Sy>= 0.0000 <Sz>= 0.5000 <S**2>= 0.7665 S= 0.5082
 <L.S>= 0.000000000000E+00
 Annihilation of the first spin contaminant:
 S**2 before annihilation     0.7665,   after     0.7500
 QCSCF skips out because SCF is already converged.

 **********************************************************************

            Population analysis using the SCF density.

 **********************************************************************

 Orbital symmetries:
 Alpha Orbitals:
       Occupied  (A1G) (A1G) (T1U) (T1U) (T1U) (?A) (?B)
       Virtual   (?B) (?B) (?A) (?B) (?B) (?B) (?A) (?C) (?C) (?C)
                 (?A) (?B) (?B) (?B) (?A) (?B) (?B) (A2U) (?B)
                 (?B) (?B) (?B) (?A) (?C) (?C) (?A) (?C) (?B) (?B)
                 (?B) (?A) (?A) (?C) (?C) (?C) (?A) (?C) (?C) (?C)
                 (?A) (?D) (?D) (?D) (?E) (?D) (?D) (?D) (?A) (?C)
                 (?C) (?C) (?A) (?D) (?D) (?D) (?D) (?D) (?D) (?E)
                 (?D) (?D) (?D) (?D) (?D) (?D) (?E) (?D) (?D) (?D)
                 (?E) (?D) (?D) (?D) (A1G) (?F) (T2G) (?F) (?F)
                 (T2G) (?F) (?F) (?F) (T2G) (T2G) (EG) (T2G) (T2G)
                 (EG) (T1U) (T1U) (T1U) (A1G)
 Beta  Orbitals:
       Occupied  (A1G) (A1G) (T1U) (T1U) (T1U) (?A)
       Virtual   (?B) (?B) (?B) (?A) (?B) (?B) (?B) (?C) (?A) (?C)
                 (?C) (?B) (?B) (?A) (?A) (?B) (?B) (?B) (A2U)
                 (?B) (?B) (?B) (?B) (?A) (?C) (?C) (?C) (?A) (?B)
                 (?B) (?B) (?A) (?A) (?C) (?C) (?C) (?A) (?C) (?B)
                 (?B) (?C) (?C) (?A) (?B) (?D) (?B) (?B) (?B) (?A)
                 (?C) (?C) (?C) (?A) (?B) (?B) (?B) (?B) (?B) (?B)
                 (?D) (?B) (?B) (?B) (?B) (?B) (?D) (?B) (?B) (?B)
                 (?B) (?D) (?B) (?B) (?B) (?A) (?C) (?A) (?C) (?C)
                 (?A) (?C) (?C) (?C) (?A) (?C) (EG) (?C) (?C) (EG)
                 (T1U) (T1U) (T1U) (A1G)
 Unable to determine electronic state:  an orbital has unidentified symmetry.
 Alpha  occ. eigenvalues --  -69.17689  -6.51491  -4.62456  -4.61071  -4.61071
 Alpha  occ. eigenvalues --   -0.88478  -0.59624
 Alpha virt. eigenvalues --   -0.26259  -0.26259  -0.10622  -0.07246  -0.07030
 Alpha virt. eigenvalues --   -0.07030   0.02890   0.03248   0.03248   0.04706
 Alpha virt. eigenvalues --    0.04706   0.06440   0.07331   0.07331   0.08010
 Alpha virt. eigenvalues --    0.35873   0.35873   0.36531   0.36531   0.36908
 Alpha virt. eigenvalues --    0.36908   0.37033   0.55696   0.55760   0.55760
 Alpha virt. eigenvalues --    0.56117   0.56117   0.64399   0.65298   0.65298
 Alpha virt. eigenvalues --    0.77227   1.21928   1.21928   1.23038   1.23038
 Alpha virt. eigenvalues --    1.23831   1.23831   1.24307   1.24307   1.24466
 Alpha virt. eigenvalues --    1.25942   1.25942   1.26844   1.26844   1.27370
 Alpha virt. eigenvalues --    1.27370   1.27543   2.01693   2.01693   2.03353
 Alpha virt. eigenvalues --    2.03353   2.03906   2.80129   2.80129   2.80802
 Alpha virt. eigenvalues --    3.10128   3.10128   3.11660   3.11660   3.12593
 Alpha virt. eigenvalues --    3.12593   3.12905   3.12956   3.12956   3.14351
 Alpha virt. eigenvalues --    3.14351   3.15453   3.15453   3.16249   3.16249
 Alpha virt. eigenvalues --    3.16731   3.16731   3.16892   3.55505   3.62201
 Alpha virt. eigenvalues --    3.62201   3.63695   3.63695   3.64772   3.64772
 Alpha virt. eigenvalues --    3.65422   3.65422   3.65639   5.79910   5.79910
 Alpha virt. eigenvalues --    5.81476   5.81476   5.82011  12.57458  12.57458
 Alpha virt. eigenvalues --   12.57816  34.10880
  Beta  occ. eigenvalues --  -69.17016  -6.50783  -4.60743  -4.60743  -4.59085
  Beta  occ. eigenvalues --   -0.79627
  Beta virt. eigenvalues --   -0.25178  -0.25178  -0.20076  -0.10267  -0.06951
  Beta virt. eigenvalues --   -0.06951  -0.06173   0.04902   0.04902   0.07514
  Beta virt. eigenvalues --    0.07514   0.07563   0.07563   0.07986   0.09280
  Beta virt. eigenvalues --    0.09523   0.35922   0.35922   0.37552   0.37552
  Beta virt. eigenvalues --    0.38562   0.38562   0.38914   0.56286   0.56286
  Beta virt. eigenvalues --    0.59619   0.59619   0.60905   0.65771   0.65771
  Beta virt. eigenvalues --    0.69591   0.78704   1.21930   1.21930   1.23915
  Beta virt. eigenvalues --    1.23915   1.25368   1.25368   1.25983   1.25983
  Beta virt. eigenvalues --    1.26256   1.26256   1.26555   1.28696   1.28696
  Beta virt. eigenvalues --    1.30384   1.30384   1.30961   2.01794   2.01794
  Beta virt. eigenvalues --    2.04866   2.04866   2.05951   2.80521   2.80521
  Beta virt. eigenvalues --    2.84573   3.10118   3.10118   3.12829   3.12829
  Beta virt. eigenvalues --    3.12896   3.12896   3.14494   3.14494   3.15020
  Beta virt. eigenvalues --    3.15020   3.15057   3.16723   3.16723   3.17978
  Beta virt. eigenvalues --    3.17978   3.18757   3.18757   3.19023   3.56625
  Beta virt. eigenvalues --    3.62154   3.62154   3.64648   3.64648   3.66458
  Beta virt. eigenvalues --    3.66458   3.67557   3.67557   3.67925   5.79998
  Beta virt. eigenvalues --    5.79998   5.82383   5.82383   5.83209  12.57726
  Beta virt. eigenvalues --   12.57726  12.60136  34.11428
          Condensed to atoms (all electrons):
              1
     1  Si  13.000000
 Mulliken atomic charges:
              1
     1  Si   1.000000
 Sum of Mulliken atomic charges =   1.00000
 Mulliken charges with hydrogens summed into heavy atoms:
              1
     1  Si   1.000000
 Sum of Mulliken charges with hydrogens summed into heavy atoms =   1.00000
          Atomic-Atomic Spin Densities.
              1
     1  Si   1.000000
 Mulliken atomic spin densities:
              1
     1  Si   1.000000
 Sum of Mulliken atomic spin densities =   1.00000
 Electronic spatial extent (au):  <R**2>=             20.0644
 Charge=              1.0000 electrons
 Dipole moment (field-independent basis, Debye):
    X=              0.0000    Y=              0.0000    Z=              0.0000  Tot=              0.0000
 Quadrupole moment (field-independent basis, Debye-Ang):
   XX=             -7.6850   YY=            -11.6174   ZZ=             -7.6850
   XY=              0.0000   XZ=              0.0000   YZ=              0.0000
 Traceless Quadrupole moment (field-independent basis, Debye-Ang):
   XX=              1.3108   YY=             -2.6216   ZZ=              1.3108
   XY=              0.0000   XZ=              0.0000   YZ=              0.0000
 Octapole moment (field-independent basis, Debye-Ang**2):
  XXX=              0.0000  YYY=              0.0000  ZZZ=              0.0000  XYY=              0.0000
  XXY=              0.0000  XXZ=              0.0000  XZZ=              0.0000  YZZ=              0.0000
  YYZ=              0.0000  XYZ=              0.0000
 Hexadecapole moment (field-independent basis, Debye-Ang**3):
 XXXX=             -9.0218 YYYY=            -20.2557 ZZZZ=             -9.0218 XXXY=              0.0000
 XXXZ=              0.0000 YYYX=              0.0000 YYYZ=              0.0000 ZZZX=              0.0000
 ZZZY=              0.0000 XXYY=             -4.8470 XXZZ=             -3.0073 YYZZ=             -4.8470
 XXYZ=              0.0000 YYXZ=              0.0000 ZZXY=              0.0000
 N-N= 0.000000000000D+00 E-N=-1.022859502087D+03  KE= 4.322178063557D+02
 Symmetry AG   KE= 3.212341253746D+02
 Symmetry B1G  KE= 0.000000000000D+00
 Symmetry B2G  KE= 0.000000000000D+00
 Symmetry B3G  KE= 0.000000000000D+00
 Symmetry AU   KE= 0.000000000000D+00
 Symmetry B1U  KE= 3.654471845729D+01
 Symmetry B2U  KE= 3.789424406656D+01
 Symmetry B3U  KE= 3.654471845729D+01
                          Isotropic Fermi Contact Couplings
        Atom                 a.u.       MegaHertz       Gauss      10(-4) cm-1
     1  Si(29)            -0.05614      49.89003      17.80200      16.64152
 --------------------------------------------------------
       Center         ----  Spin Dipole Couplings  ----
                      3XX-RR        3YY-RR        3ZZ-RR
 --------------------------------------------------------
     1   Atom       -1.219792      2.439583     -1.219792
 --------------------------------------------------------
                        XY            XZ            YZ
 --------------------------------------------------------
     1   Atom        0.000000      0.000000      0.000000
 --------------------------------------------------------


 ---------------------------------------------------------------------------------
              Anisotropic Spin Dipole Couplings in Principal Axis System
 ---------------------------------------------------------------------------------

       Atom             a.u.   MegaHertz   Gauss  10(-4) cm-1        Axes

              Baa    -1.2198   129.400    46.173    43.163  0.0000  0.0000  1.0000
     1 Si(29) Bbb    -1.2198   129.400    46.173    43.163  1.0000  0.0000  0.0000
              Bcc     2.4396  -258.801   -92.347   -86.327  0.0000  1.0000  0.0000
 

 ---------------------------------------------------------------------------------

 1\1\GINC-NODE43\SP\UHF\GFHFB2\Si1(1+,2)\TAM\06-Dec-2011\0\\#N Geom=All
 Check Guess=TCheck SCRF=Check HF/GFHFB2 SCF=Tight\\Si-ca-doublet\\1,2\
 Si,0.,-0.1,0.\\Version=AM64L-G09RevA.02\HF=-288.5781701\S2=0.766485\S2
 -1=0.\S2A=0.750001\RMSD=7.377e-10\Dipole=0.,0.,0.\Quadrupole=0.9745492
 ,-1.9490985,0.9745492,0.,0.,0.\PG=OH [O(Si1)]\\@


 DIATOMIC MOLECULES ARE PECULIAR BECAUSE THEY ONLY HAVE TWO ENDS,
 AND THESE ENDS ARE VERY CLOSE TOGETHER.
 KLAUS RUEDENBERG, REV.MOD.PHYS. PG 176, 32, (1960)
 Diagonal vibrational polarizability:
        0.0000000       0.0000000       0.0000000

 Temperature=              298.150000 Pressure=                      1.000000
 E(ZPE)=                     0.000000 E(Thermal)=                    0.001416
 E(CCSD(T))=              -288.603255 E(Empiric)=                   -0.009460
 DE(Plus)=                  -0.000765 DE(2DF)=                      -0.007101
 E(Delta-G3XP)=             -0.310559 DE(HF)=                       -0.006755
 G4(0 K)=                 -288.937895 G4 Energy=                  -288.936479
 G4 Enthalpy=             -288.935534 G4 Free Energy=             -288.953256
 1\1\GINC-NODE43\Mixed\G4\G4\Si1(1+,2)\TAM\06-Dec-2011\0\\# G4 scfcyc=5
 00 scf=xqc\\Si-ca-doublet\\1,2\Si,0.,-0.1,0.\\Version=AM64L-G09RevA.02
 \MP2/GTBas1=-288.5857295\MP4/GTBas1=-288.6012268\CCSD(T)/G3Bas1=-288.6
 03255\MP2/GTBas2=-288.5865001\MP4/GTBas2=-288.6019914\MP2/GTBas3=-288.
 5918802\MP4/GTBas3=-288.6083281\HF/GTLargeXP=-288.5715123\MP2/GTLargeX
 P=-288.9032097\HF/GFHFB1=-288.5777716\HF/GFHFB2=-288.5781701\G4=-288.9
 378948\FreqCoord=0.,-0.1889726133,0.\PG=OH [O(Si1)]\NImag=0\\0.,0.,0.,
 0.,0.,0.\\0.,0.,0.\\\@
 Job cpu time:  0 days  0 hours  0 minutes 58.9 seconds.
 File lengths (MBytes):  RWF=     12 Int=      0 D2E=      0 Chk=      2 Scr=      1
 Normal termination of Gaussian 09 at Tue Dec  6 18:52:39 2011.
