 Entering Gaussian System, Link 0=g09
 Initial command:
 /usr/local/chem/g09A2/l1.exe /temp0/tam/Gau-17671.inp -scrdir=/temp0/tam/
 Entering Link 1 = /usr/local/chem/g09A2/l1.exe PID=     17672.
  
 Copyright (c) 1988,1990,1992,1993,1995,1998,2003,2009, Gaussian, Inc.
                  All Rights Reserved.
  
 This is part of the Gaussian(R) 09 program.  It is based on
 the Gaussian(R) 03 system (copyright 2003, Gaussian, Inc.),
 the Gaussian(R) 98 system (copyright 1998, Gaussian, Inc.),
 the Gaussian(R) 94 system (copyright 1995, Gaussian, Inc.),
 the Gaussian 92(TM) system (copyright 1992, Gaussian, Inc.),
 the Gaussian 90(TM) system (copyright 1990, Gaussian, Inc.),
 the Gaussian 88(TM) system (copyright 1988, Gaussian, Inc.),
 the Gaussian 86(TM) system (copyright 1986, Carnegie Mellon
 University), and the Gaussian 82(TM) system (copyright 1983,
 Carnegie Mellon University). Gaussian is a federally registered
 trademark of Gaussian, Inc.
  
 This software contains proprietary and confidential information,
 including trade secrets, belonging to Gaussian, Inc.
  
 This software is provided under written license and may be
 used, copied, transmitted, or stored only in accord with that
 written license.
  
 The following legend is applicable only to US Government
 contracts under FAR:
  
                    RESTRICTED RIGHTS LEGEND
  
 Use, reproduction and disclosure by the US Government is
 subject to restrictions as set forth in subparagraphs (a)
 and (c) of the Commercial Computer Software - Restricted
 Rights clause in FAR 52.227-19.
  
 Gaussian, Inc.
 340 Quinnipiac St., Bldg. 40, Wallingford CT 06492
  
  
 ---------------------------------------------------------------
 Warning -- This program may not be used in any manner that
 competes with the business of Gaussian, Inc. or will provide
 assistance to any competitor of Gaussian, Inc.  The licensee
 of this program is prohibited from giving any competitor of
 Gaussian, Inc. access to this program.  By using this program,
 the user acknowledges that Gaussian, Inc. is engaged in the
 business of creating and licensing software in the field of
 computational chemistry and represents and warrants to the
 licensee that it is not a competitor of Gaussian, Inc. and that
 it will not use this program in any manner prohibited above.
 ---------------------------------------------------------------
  

 Cite this work as:
 Gaussian 09, Revision A.02,
 M. J. Frisch, G. W. Trucks, H. B. Schlegel, G. E. Scuseria, 
 M. A. Robb, J. R. Cheeseman, G. Scalmani, V. Barone, B. Mennucci, 
 G. A. Petersson, H. Nakatsuji, M. Caricato, X. Li, H. P. Hratchian, 
 A. F. Izmaylov, J. Bloino, G. Zheng, J. L. Sonnenberg, M. Hada, 
 M. Ehara, K. Toyota, R. Fukuda, J. Hasegawa, M. Ishida, T. Nakajima, 
 Y. Honda, O. Kitao, H. Nakai, T. Vreven, J. A. Montgomery, Jr., 
 J. E. Peralta, F. Ogliaro, M. Bearpark, J. J. Heyd, E. Brothers, 
 K. N. Kudin, V. N. Staroverov, R. Kobayashi, J. Normand, 
 K. Raghavachari, A. Rendell, J. C. Burant, S. S. Iyengar, J. Tomasi, 
 M. Cossi, N. Rega, J. M. Millam, M. Klene, J. E. Knox, J. B. Cross, 
 V. Bakken, C. Adamo, J. Jaramillo, R. Gomperts, R. E. Stratmann, 
 O. Yazyev, A. J. Austin, R. Cammi, C. Pomelli, J. W. Ochterski, 
 R. L. Martin, K. Morokuma, V. G. Zakrzewski, G. A. Voth, 
 P. Salvador, J. J. Dannenberg, S. Dapprich, A. D. Daniels, 
 O. Farkas, J. B. Foresman, J. V. Ortiz, J. Cioslowski, 
 and D. J. Fox, Gaussian, Inc., Wallingford CT, 2009.
 
 ******************************************
 Gaussian 09:  AM64L-G09RevA.02 11-Jun-2009
                 7-Jan-2012 
 ******************************************
 %NprocShared=8
 Will use up to    8 processors via shared memory.
 %mem=18050MB
 %chk=S9L-ne-d-01
 -----------------------
 # G4 scfcyc=500 scf=xqc
 -----------------------
 1/14=-1,18=20,19=15,26=3,38=1/1,3;
 2/9=110,12=2,17=6,18=5,40=1/2;
 3/5=35,7=104,11=2,16=1,25=1,30=1,71=1,74=-5/1,2,3;
 4//1;
 5/5=2,7=500,8=3,13=1,38=5/2,8;
 6/7=2,8=2,9=2,10=2,28=1/1;
 7//1,2,3,16;
 1/14=-1,18=20,19=15/3(2);
 2/9=110/2;
 99//99;
 2/9=110/2;
 3/5=35,7=104,11=2,16=1,25=1,30=1,71=1,74=-5/1,2,3;
 4/5=5,16=3/1;
 5/5=2,7=500,8=3,13=1,38=5/2,8;
 7//1,2,3,16;
 1/14=-1,18=20,19=15/3(-5);
 2/9=110/2;
 6/7=2,8=2,9=2,10=2,19=2,28=1/1;
 99/9=1/99;
 -------
 si2-c-q
 -------
 Symbolic Z-matrix:
 Charge =  1 Multiplicity = 4
 Si                    0.        0.        1.0775 
 Si                    0.        0.       -1.0775 
 

 GradGradGradGradGradGradGradGradGradGradGradGradGradGradGradGradGradGrad
 Berny optimization.
 Initialization pass.
                           ----------------------------
                           !    Initial Parameters    !
                           ! (Angstroms and Degrees)  !
 --------------------------                            --------------------------
 ! Name  Definition              Value          Derivative Info.                !
 --------------------------------------------------------------------------------
 ! R1    R(1,2)                  2.155          estimate D2E/DX2                !
 --------------------------------------------------------------------------------
 Trust Radius=3.00D-01 FncErr=1.00D-07 GrdErr=1.00D-06
 Number of steps in this run=  20 maximum allowed number of steps= 100.
 GradGradGradGradGradGradGradGradGradGradGradGradGradGradGradGradGradGrad

                          Input orientation:                          
 ---------------------------------------------------------------------
 Center     Atomic      Atomic             Coordinates (Angstroms)
 Number     Number       Type             X           Y           Z
 ---------------------------------------------------------------------
      1         14           0        0.000000    0.000000    1.077504
      2         14           0        0.000000    0.000000   -1.077504
 ---------------------------------------------------------------------
 Stoichiometry    Si2(1+,4)
 Framework group  D*H[C*(Si.Si)]
 Deg. of freedom     1
 Full point group                 D*H     NOp   8
 Largest Abelian subgroup         D2H     NOp   8
 Largest concise Abelian subgroup C2      NOp   2
                         Standard orientation:                         
 ---------------------------------------------------------------------
 Center     Atomic      Atomic             Coordinates (Angstroms)
 Number     Number       Type             X           Y           Z
 ---------------------------------------------------------------------
      1         14           0        0.000000    0.000000    1.077504
      2         14           0        0.000000    0.000000   -1.077504
 ---------------------------------------------------------------------
 Rotational constants (GHZ):      0.0000000      7.7794588      7.7794588
 Standard basis: GTBas3 (6D, 7F)
 There are    15 symmetry adapted basis functions of AG  symmetry.
 There are     3 symmetry adapted basis functions of B1G symmetry.
 There are     7 symmetry adapted basis functions of B2G symmetry.
 There are     7 symmetry adapted basis functions of B3G symmetry.
 There are     3 symmetry adapted basis functions of AU  symmetry.
 There are    15 symmetry adapted basis functions of B1U symmetry.
 There are     7 symmetry adapted basis functions of B2U symmetry.
 There are     7 symmetry adapted basis functions of B3U symmetry.
 Integral buffers will be    131072 words long.
 Raffenetti 2 integral format.
 Two-electron integral symmetry is turned on.
    64 basis functions,   136 primitive gaussians,    70 cartesian basis functions
    15 alpha electrons       12 beta electrons
       nuclear repulsion energy        48.1291637357 Hartrees.
 NAtoms=    2 NActive=    2 NUniq=    1 SFac= 3.00D+00 NAtFMM=   80 NAOKFM=F Big=F
 One-electron integrals computed using PRISM.
 NBasis=    64 RedAO= T  NBF=    15     3     7     7     3    15     7     7
 NBsUse=    64 1.00D-06 NBFU=    15     3     7     7     3    15     7     7
 Harris functional with IExCor=  402 diagonalized for initial guess.
 ExpMin= 7.78D-02 ExpMax= 1.61D+04 ExpMxC= 2.43D+03 IAcc=2 IRadAn=         0 AccDes= 0.00D+00
 HarFok:  IExCor=  402 AccDes= 0.00D+00 IRadAn=         0 IDoV= 1
 ScaDFX=  1.000000  1.000000  1.000000  1.000000
 FoFCou: FMM=F IPFlag=           0 FMFlag=      100000 FMFlg1=           0
         NFxFlg=           0 DoJE=T BraDBF=F KetDBF=T FulRan=T
         Omega=  0.000000  0.000000  1.000000  0.000000  0.000000 ICntrl=     500 IOpCl=  0
         NMat0=    1 NMatS0=    1 NMatT0=    0 NMatD0=    1 NMtDS0=    0 NMtDT0=    0
         I1Cent=           4 NGrid=           0.
 Petite list used in FoFCou.
 Initial guess orbital symmetries:
 Alpha Orbitals:
       Occupied  (SGG) (SGU) (SGG) (SGU) (SGG) (SGU) (PIU) (PIU)
                 (PIG) (PIG) (SGG) (SGU) (PIU) (PIU) (SGG)
       Virtual   (PIG) (PIG) (SGU) (SGG) (PIU) (PIU) (SGG) (SGU)
                 (DLTG) (DLTG) (PIU) (PIU) (PIG) (PIG) (DLTU) (DLTU)
                 (SGU) (SGG) (PIG) (PIG) (SGG) (SGU) (DLTG) (DLTG)
                 (PHIU) (PHIU) (SGU) (PIU) (PIU) (SGG) (PHIG) (PHIG)
                 (DLTU) (DLTU) (SGU) (PIG) (PIG) (DLTG) (DLTG)
                 (DLTU) (DLTU) (PIU) (PIU) (SGU) (PIG) (PIG) (SGG)
                 (SGG) (SGU)
 Beta  Orbitals:
       Occupied  (SGG) (SGU) (SGG) (SGU) (SGG) (SGU) (PIU) (PIU)
                 (PIG) (PIG) (SGG) (SGU)
       Virtual   (PIU) (PIU) (SGG) (PIG) (PIG) (SGU) (SGG) (PIU)
                 (PIU) (SGG) (SGU) (DLTG) (DLTG) (PIU) (PIU) (PIG)
                 (PIG) (DLTU) (DLTU) (SGU) (SGG) (PIG) (PIG) (SGG)
                 (SGU) (DLTG) (DLTG) (PHIU) (PHIU) (SGU) (PIU)
                 (PIU) (SGG) (PHIG) (PHIG) (DLTU) (DLTU) (SGU)
                 (PIG) (PIG) (DLTG) (DLTG) (DLTU) (DLTU) (PIU)
                 (PIU) (SGU) (PIG) (PIG) (SGG) (SGG) (SGU)
 The electronic state of the initial guess is 4-SGG.
 Initial guess <Sx>= 0.0000 <Sy>= 0.0000 <Sz>= 1.5000 <S**2>= 3.7500 S= 1.5000
 Requested convergence on RMS density matrix=1.00D-08 within 128 cycles.
 Requested convergence on MAX density matrix=1.00D-06.
 Requested convergence on             energy=1.00D-06.
 No special actions if energy rises.
 Keep R1 and R2 ints in memory in canonical form, NReq=8167363.
 Integral accuracy reduced to 1.0D-05 until final iterations.
 Initial convergence to 1.0D-05 achieved.  Increase integral accuracy.
 SCF Done:  E(UB3LYP) =  -578.569229318     A.U. after   10 cycles
             Convg  =    0.5372D-08             -V/T =  2.0030
 <Sx>= 0.0000 <Sy>= 0.0000 <Sz>= 1.5000 <S**2>= 3.7511 S= 1.5003
 <L.S>= 0.000000000000E+00
 Annihilation of the first spin contaminant:
 S**2 before annihilation     3.7511,   after     3.7500
 QCSCF skips out because SCF is already converged.

 **********************************************************************

            Population analysis using the SCF density.

 **********************************************************************

 Orbital symmetries:
 Alpha Orbitals:
       Occupied  (SGG) (SGU) (SGG) (SGU) (PIU) (PIU) (PIG) (PIG)
                 (SGG) (SGU) (SGG) (SGU) (SGG) (PIU) (PIU)
       Virtual   (PIG) (PIG) (SGU) (SGG) (PIU) (PIU) (DLTG) (DLTG)
                 (SGG) (SGU) (PIU) (PIU) (PIG) (PIG) (DLTU) (DLTU)
                 (SGU) (SGG) (PIG) (PIG) (SGG) (SGU) (DLTG) (DLTG)
                 (PHIU) (PHIU) (SGU) (PIU) (PIU) (PHIG) (PHIG)
                 (SGG) (DLTU) (DLTU) (SGU) (PIG) (PIG) (DLTG) (DLTG)
                 (DLTU) (DLTU) (PIU) (PIU) (SGU) (PIG) (PIG) (SGG)
                 (SGG) (SGU)
 Beta  Orbitals:
       Occupied  (SGG) (SGU) (SGG) (SGU) (PIU) (PIU) (PIG) (PIG)
                 (SGG) (SGU) (SGG) (SGU)
       Virtual   (SGG) (PIU) (PIU) (PIG) (PIG) (SGU) (SGG) (PIU)
                 (PIU) (SGG) (SGU) (DLTG) (DLTG) (PIU) (PIU) (PIG)
                 (PIG) (DLTU) (DLTU) (SGU) (SGG) (PIG) (PIG) (SGG)
                 (SGU) (DLTG) (DLTG) (PHIU) (PHIU) (SGU) (PIU)
                 (PIU) (PHIG) (PHIG) (SGG) (DLTU) (DLTU) (SGU)
                 (PIG) (PIG) (DLTG) (DLTG) (DLTU) (DLTU) (PIU)
                 (PIU) (SGU) (PIG) (PIG) (SGG) (SGG) (SGU)
 The electronic state is 4-SGG.
 Alpha  occ. eigenvalues --  -66.42361 -66.42360  -5.57025  -5.56995  -3.92958
 Alpha  occ. eigenvalues --   -3.92958  -3.92950  -3.92950  -3.92866  -3.92721
 Alpha  occ. eigenvalues --   -0.81349  -0.62587  -0.48095  -0.47615  -0.47615
 Alpha virt. eigenvalues --   -0.30901  -0.30901  -0.17239  -0.11519  -0.04928
 Alpha virt. eigenvalues --   -0.04928  -0.02020  -0.02020  -0.01593   0.00497
 Alpha virt. eigenvalues --    0.04161   0.04161   0.07426   0.07426   0.09701
 Alpha virt. eigenvalues --    0.09702   0.13782   0.23573   0.27171   0.27171
 Alpha virt. eigenvalues --    0.51348   0.52978   0.59948   0.59948   0.65403
 Alpha virt. eigenvalues --    0.65403   0.68567   0.72691   0.72691   0.76485
 Alpha virt. eigenvalues --    0.76485   0.77718   0.93860   0.93861   1.03898
 Alpha virt. eigenvalues --    1.09800   1.09800   1.32990   1.32991   1.40909
 Alpha virt. eigenvalues --    1.40911   1.42911   1.42911   1.45828   1.56774
 Alpha virt. eigenvalues --    1.56774   1.80611   2.20152   2.38443
  Beta  occ. eigenvalues --  -66.41827 -66.41826  -5.56430  -5.56408  -3.92146
  Beta  occ. eigenvalues --   -3.92146  -3.92139  -3.92139  -3.91914  -3.91780
  Beta  occ. eigenvalues --   -0.73918  -0.56468
  Beta virt. eigenvalues --   -0.37551  -0.37269  -0.37269  -0.26136  -0.26136
  Beta virt. eigenvalues --   -0.13429  -0.08708  -0.00407  -0.00407   0.00245
  Beta virt. eigenvalues --    0.02577   0.02963   0.02964   0.07068   0.07068
  Beta virt. eigenvalues --    0.09090   0.09090   0.13655   0.13656   0.15333
  Beta virt. eigenvalues --    0.27174   0.31371   0.31371   0.54293   0.56333
  Beta virt. eigenvalues --    0.64916   0.64917   0.69530   0.69530   0.70729
  Beta virt. eigenvalues --    0.77437   0.77437   0.80308   0.80308   0.81362
  Beta virt. eigenvalues --    0.98115   0.98115   1.07420   1.13626   1.13626
  Beta virt. eigenvalues --    1.34737   1.34738   1.42711   1.42713   1.45272
  Beta virt. eigenvalues --    1.45272   1.47703   1.58991   1.58991   1.82865
  Beta virt. eigenvalues --    2.22777   2.41071
          Condensed to atoms (all electrons):
              1          2
     1  Si  13.181167   0.318833
     2  Si   0.318833  13.181167
 Mulliken atomic charges:
              1
     1  Si   0.500000
     2  Si   0.500000
 Sum of Mulliken atomic charges =   1.00000
 Mulliken charges with hydrogens summed into heavy atoms:
              1
     1  Si   0.500000
     2  Si   0.500000
 Sum of Mulliken charges with hydrogens summed into heavy atoms =   1.00000
          Atomic-Atomic Spin Densities.
              1          2
     1  Si   1.197376   0.302624
     2  Si   0.302624   1.197376
 Mulliken atomic spin densities:
              1
     1  Si   1.500000
     2  Si   1.500000
 Sum of Mulliken atomic spin densities =   3.00000
 Electronic spatial extent (au):  <R**2>=            157.3506
 Charge=              1.0000 electrons
 Dipole moment (field-independent basis, Debye):
    X=              0.0000    Y=              0.0000    Z=              0.0000  Tot=              0.0000
 Quadrupole moment (field-independent basis, Debye-Ang):
   XX=            -21.0014   YY=            -21.0014   ZZ=            -13.4946
   XY=              0.0000   XZ=              0.0000   YZ=              0.0000
 Traceless Quadrupole moment (field-independent basis, Debye-Ang):
   XX=             -2.5022   YY=             -2.5022   ZZ=              5.0045
   XY=              0.0000   XZ=              0.0000   YZ=              0.0000
 Octapole moment (field-independent basis, Debye-Ang**2):
  XXX=              0.0000  YYY=              0.0000  ZZZ=              0.0000  XYY=              0.0000
  XXY=              0.0000  XXZ=              0.0000  XZZ=              0.0000  YZZ=              0.0000
  YYZ=              0.0000  XYZ=              0.0000
 Hexadecapole moment (field-independent basis, Debye-Ang**3):
 XXXX=            -33.1677 YYYY=            -33.1677 ZZZZ=           -170.5923 XXXY=              0.0000
 XXXZ=              0.0000 YYYX=              0.0000 YYYZ=              0.0000 ZZZX=              0.0000
 ZZZY=              0.0000 XXYY=            -11.0559 XXZZ=            -33.8972 YYZZ=            -33.8972
 XXYZ=              0.0000 YYXZ=              0.0000 ZZXY=              0.0000
 N-N= 4.812916373565D+01 E-N=-2.184555198264D+03  KE= 8.635405135326D+02
 Symmetry AG   KE= 3.583079711334D+02
 Symmetry B1G  KE= 8.976443183032D-35
 Symmetry B2G  KE= 3.643951363549D+01
 Symmetry B3G  KE= 3.643951363549D+01
 Symmetry AU   KE= 5.234216743154D-34
 Symmetry B1U  KE= 3.572911654489D+02
 Symmetry B2U  KE= 3.753117483965D+01
 Symmetry B3U  KE= 3.753117483965D+01
                          Isotropic Fermi Contact Couplings
        Atom                 a.u.       MegaHertz       Gauss      10(-4) cm-1
     1  Si(29)             0.07054     -20.89555      -7.45605      -6.97001
     2  Si(29)             0.07054     -20.89555      -7.45605      -6.97001
 --------------------------------------------------------
       Center         ----  Spin Dipole Couplings  ----
                      3XX-RR        3YY-RR        3ZZ-RR
 --------------------------------------------------------
     1   Atom       -0.153329     -0.153329      0.306658
     2   Atom       -0.153329     -0.153329      0.306658
 --------------------------------------------------------
                        XY            XZ            YZ
 --------------------------------------------------------
     1   Atom        0.000000      0.000000      0.000000
     2   Atom        0.000000      0.000000      0.000000
 --------------------------------------------------------


 ---------------------------------------------------------------------------------
              Anisotropic Spin Dipole Couplings in Principal Axis System
 ---------------------------------------------------------------------------------

       Atom             a.u.   MegaHertz   Gauss  10(-4) cm-1        Axes

              Baa    -0.1533    16.266     5.804     5.426  1.0000  0.0001  0.0000
     1 Si(29) Bbb    -0.1533    16.266     5.804     5.426 -0.0001  1.0000  0.0000
              Bcc     0.3067   -32.532   -11.608   -10.851  0.0000  0.0000  1.0000
 
              Baa    -0.1533    16.266     5.804     5.426  1.0000 -0.0001  0.0000
     2 Si(29) Bbb    -0.1533    16.266     5.804     5.426  0.0001  1.0000  0.0000
              Bcc     0.3067   -32.532   -11.608   -10.851  0.0000  0.0000  1.0000
 

 ---------------------------------------------------------------------------------

 Calling FoFJK, ICntrl=      2127 FMM=F ISym2X=1 I1Cent= 0 IOpClX= 1 NMat=1 NMatS=1 NMatT=0.
 ***** Axes restored to original set *****
 -------------------------------------------------------------------
 Center     Atomic                   Forces (Hartrees/Bohr)
 Number     Number              X              Y              Z
 -------------------------------------------------------------------
      1       14           0.000000000    0.000000000    0.037285247
      2       14           0.000000000    0.000000000   -0.037285247
 -------------------------------------------------------------------
 Cartesian Forces:  Max     0.037285247 RMS     0.021526647

 GradGradGradGradGradGradGradGradGradGradGradGradGradGradGradGradGradGrad
 Berny optimization.
 Internal  Forces:  Max     0.037285247 RMS     0.037285247
 Search for a local minimum.
 Step number   1 out of a maximum of   20
 All quantities printed in internal units (Hartrees-Bohrs-Radians)
 Mixed Optimization -- RFO/linear search
 Second derivative matrix not updated -- first step.
 The second derivative matrix:
                          R1
           R1           0.21533
     Eigenvalues ---    0.21533
 RFO step:  Lambda=-6.27322018D-03 EMin= 2.15333800D-01
 Linear search not attempted -- first point.
 Iteration  1 RMS(Cart)=  0.11897029 RMS(Int)=  0.00000000
 Iteration  2 RMS(Cart)=  0.00000000 RMS(Int)=  0.00000000
 ClnCor:  largest displacement from symmetrization is 5.15D-18 for atom     2.
 Variable       Old X    -DE/DX   Delta X   Delta X   Delta X     New X
                                 (Linear)    (Quad)   (Total)
    R1        4.07237   0.03729   0.00000   0.16825   0.16825   4.24062
         Item               Value     Threshold  Converged?
 Maximum Force            0.037285     0.000450     NO 
 RMS     Force            0.037285     0.000300     NO 
 Maximum Displacement     0.084125     0.001800     NO 
 RMS     Displacement     0.118970     0.001200     NO 
 Predicted change in Energy=-3.225401D-03
 GradGradGradGradGradGradGradGradGradGradGradGradGradGradGradGradGradGrad

                          Input orientation:                          
 ---------------------------------------------------------------------
 Center     Atomic      Atomic             Coordinates (Angstroms)
 Number     Number       Type             X           Y           Z
 ---------------------------------------------------------------------
      1         14           0        0.000000    0.000000    1.122021
      2         14           0        0.000000    0.000000   -1.122021
 ---------------------------------------------------------------------
 Stoichiometry    Si2(1+,4)
 Framework group  D*H[C*(Si.Si)]
 Deg. of freedom     1
 Full point group                 D*H     NOp   8
 Largest Abelian subgroup         D2H     NOp   8
 Largest concise Abelian subgroup C2      NOp   2
                         Standard orientation:                         
 ---------------------------------------------------------------------
 Center     Atomic      Atomic             Coordinates (Angstroms)
 Number     Number       Type             X           Y           Z
 ---------------------------------------------------------------------
      1         14           0        0.000000    0.000000    1.122021
      2         14           0        0.000000    0.000000   -1.122021
 ---------------------------------------------------------------------
 Rotational constants (GHZ):      0.0000000      7.1743952      7.1743952
 Standard basis: GTBas3 (6D, 7F)
 There are    15 symmetry adapted basis functions of AG  symmetry.
 There are     3 symmetry adapted basis functions of B1G symmetry.
 There are     7 symmetry adapted basis functions of B2G symmetry.
 There are     7 symmetry adapted basis functions of B3G symmetry.
 There are     3 symmetry adapted basis functions of AU  symmetry.
 There are    15 symmetry adapted basis functions of B1U symmetry.
 There are     7 symmetry adapted basis functions of B2U symmetry.
 There are     7 symmetry adapted basis functions of B3U symmetry.
 Integral buffers will be    131072 words long.
 Raffenetti 2 integral format.
 Two-electron integral symmetry is turned on.
    64 basis functions,   136 primitive gaussians,    70 cartesian basis functions
    15 alpha electrons       12 beta electrons
       nuclear repulsion energy        46.2196093866 Hartrees.
 NAtoms=    2 NActive=    2 NUniq=    1 SFac= 3.00D+00 NAtFMM=   80 NAOKFM=F Big=F
 One-electron integrals computed using PRISM.
 NBasis=    64 RedAO= T  NBF=    15     3     7     7     3    15     7     7
 NBsUse=    64 1.00D-06 NBFU=    15     3     7     7     3    15     7     7
 Initial guess read from the read-write file.
 B after Tr=     0.000000    0.000000    0.000000
         Rot=    1.000000    0.000000    0.000000    0.000000 Ang=   0.00 deg.
 Initial guess orbital symmetries:
 Alpha Orbitals:
       Occupied  (SGG) (SGU) (SGG) (SGU) (PIU) (PIU) (PIG) (PIG)
                 (SGG) (SGU) (SGG) (SGU) (SGG) (PIU) (PIU)
       Virtual   (PIG) (PIG) (SGU) (SGG) (PIU) (PIU) (DLTG) (DLTG)
                 (SGG) (SGU) (PIU) (PIU) (PIG) (PIG) (DLTU) (DLTU)
                 (SGU) (SGG) (PIG) (PIG) (SGG) (SGU) (DLTG) (DLTG)
                 (PHIU) (PHIU) (SGU) (PIU) (PIU) (PHIG) (PHIG)
                 (SGG) (DLTU) (DLTU) (SGU) (PIG) (PIG) (DLTG) (DLTG)
                 (DLTU) (DLTU) (PIU) (PIU) (SGU) (PIG) (PIG) (SGG)
                 (SGG) (SGU)
 Beta  Orbitals:
       Occupied  (SGG) (SGU) (SGG) (SGU) (PIU) (PIU) (PIG) (PIG)
                 (SGG) (SGU) (SGG) (SGU)
       Virtual   (SGG) (PIU) (PIU) (PIG) (PIG) (SGU) (SGG) (PIU)
                 (PIU) (SGG) (SGU) (DLTG) (DLTG) (PIU) (PIU) (PIG)
                 (PIG) (DLTU) (DLTU) (SGU) (SGG) (PIG) (PIG) (SGG)
                 (SGU) (DLTG) (DLTG) (PHIU) (PHIU) (SGU) (PIU)
                 (PIU) (PHIG) (PHIG) (SGG) (DLTU) (DLTU) (SGU)
                 (PIG) (PIG) (DLTG) (DLTG) (DLTU) (DLTU) (PIU)
                 (PIU) (SGU) (PIG) (PIG) (SGG) (SGG) (SGU)
 Initial guess <Sx>= 0.0000 <Sy>= 0.0000 <Sz>= 1.5000 <S**2>= 3.7511 S= 1.5003
 Harris functional with IExCor=  402 diagonalized for initial guess.
 ExpMin= 7.78D-02 ExpMax= 1.61D+04 ExpMxC= 2.43D+03 IAcc=2 IRadAn=         0 AccDes= 0.00D+00
 HarFok:  IExCor=  402 AccDes= 0.00D+00 IRadAn=         0 IDoV= 1
 ScaDFX=  1.000000  1.000000  1.000000  1.000000
 FoFCou: FMM=F IPFlag=           0 FMFlag=      100000 FMFlg1=           0
         NFxFlg=           0 DoJE=T BraDBF=F KetDBF=T FulRan=T
         Omega=  0.000000  0.000000  1.000000  0.000000  0.000000 ICntrl=     500 IOpCl=  0
         NMat0=    1 NMatS0=    1 NMatT0=    0 NMatD0=    1 NMtDS0=    0 NMtDT0=    0
         I1Cent=           4 NGrid=           0.
 Petite list used in FoFCou.
 Requested convergence on RMS density matrix=1.00D-08 within 128 cycles.
 Requested convergence on MAX density matrix=1.00D-06.
 Requested convergence on             energy=1.00D-06.
 No special actions if energy rises.
 Keep R1 and R2 ints in memory in canonical form, NReq=8167363.
 Integral accuracy reduced to 1.0D-05 until final iterations.
 Initial convergence to 1.0D-05 achieved.  Increase integral accuracy.
 SCF Done:  E(UB3LYP) =  -578.573166984     A.U. after    9 cycles
             Convg  =    0.2629D-08             -V/T =  2.0031
 <Sx>= 0.0000 <Sy>= 0.0000 <Sz>= 1.5000 <S**2>= 3.7512 S= 1.5003
 <L.S>= 0.000000000000E+00
 Annihilation of the first spin contaminant:
 S**2 before annihilation     3.7512,   after     3.7500
 QCSCF skips out because SCF is already converged.
 Calling FoFJK, ICntrl=      2127 FMM=F ISym2X=1 I1Cent= 0 IOpClX= 1 NMat=1 NMatS=1 NMatT=0.
 ***** Axes restored to original set *****
 -------------------------------------------------------------------
 Center     Atomic                   Forces (Hartrees/Bohr)
 Number     Number              X              Y              Z
 -------------------------------------------------------------------
      1       14           0.000000000    0.000000000    0.011086424
      2       14           0.000000000    0.000000000   -0.011086424
 -------------------------------------------------------------------
 Cartesian Forces:  Max     0.011086424 RMS     0.006400750

 GradGradGradGradGradGradGradGradGradGradGradGradGradGradGradGradGradGrad
 Berny optimization.
 Using GEDIIS/GDIIS optimizer.
 Internal  Forces:  Max     0.011086424 RMS     0.011086424
 Search for a local minimum.
 Step number   2 out of a maximum of   20
 All quantities printed in internal units (Hartrees-Bohrs-Radians)
 Mixed Optimization -- RFO/linear search
 Update second derivatives using D2CorX and points    1    2
 DE= -3.94D-03 DEPred=-3.23D-03 R= 1.22D+00
 SS=  1.41D+00  RLast= 1.68D-01 DXNew= 5.0454D-01 5.0475D-01
 Trust test= 1.22D+00 RLast= 1.68D-01 DXMaxT set to 5.05D-01
 The second derivative matrix:
                          R1
           R1           0.15571
 Use linear search instead of GDIIS.
     Eigenvalues ---    0.15571
 RFO step:  Lambda= 0.00000000D+00 EMin= 1.55714215D-01
 Quartic linear search produced a step of  0.57490.
 Iteration  1 RMS(Cart)=  0.06839612 RMS(Int)=  0.00000000
 Iteration  2 RMS(Cart)=  0.00000000 RMS(Int)=  0.00000000
 ClnCor:  largest displacement from symmetrization is 2.96D-18 for atom     1.
 Variable       Old X    -DE/DX   Delta X   Delta X   Delta X     New X
                                 (Linear)    (Quad)   (Total)
    R1        4.24062   0.01109   0.09673   0.00000   0.09673   4.33735
         Item               Value     Threshold  Converged?
 Maximum Force            0.011086     0.000450     NO 
 RMS     Force            0.011086     0.000300     NO 
 Maximum Displacement     0.048363     0.001800     NO 
 RMS     Displacement     0.068396     0.001200     NO 
 Predicted change in Energy=-3.439178D-04
 GradGradGradGradGradGradGradGradGradGradGradGradGradGradGradGradGradGrad

                          Input orientation:                          
 ---------------------------------------------------------------------
 Center     Atomic      Atomic             Coordinates (Angstroms)
 Number     Number       Type             X           Y           Z
 ---------------------------------------------------------------------
      1         14           0        0.000000    0.000000    1.147614
      2         14           0        0.000000    0.000000   -1.147614
 ---------------------------------------------------------------------
 Stoichiometry    Si2(1+,4)
 Framework group  D*H[C*(Si.Si)]
 Deg. of freedom     1
 Full point group                 D*H     NOp   8
 Largest Abelian subgroup         D2H     NOp   8
 Largest concise Abelian subgroup C2      NOp   2
                         Standard orientation:                         
 ---------------------------------------------------------------------
 Center     Atomic      Atomic             Coordinates (Angstroms)
 Number     Number       Type             X           Y           Z
 ---------------------------------------------------------------------
      1         14           0        0.000000    0.000000    1.147614
      2         14           0        0.000000    0.000000   -1.147614
 ---------------------------------------------------------------------
 Rotational constants (GHZ):      0.0000000      6.8579727      6.8579727
 Standard basis: GTBas3 (6D, 7F)
 There are    15 symmetry adapted basis functions of AG  symmetry.
 There are     3 symmetry adapted basis functions of B1G symmetry.
 There are     7 symmetry adapted basis functions of B2G symmetry.
 There are     7 symmetry adapted basis functions of B3G symmetry.
 There are     3 symmetry adapted basis functions of AU  symmetry.
 There are    15 symmetry adapted basis functions of B1U symmetry.
 There are     7 symmetry adapted basis functions of B2U symmetry.
 There are     7 symmetry adapted basis functions of B3U symmetry.
 Integral buffers will be    131072 words long.
 Raffenetti 2 integral format.
 Two-electron integral symmetry is turned on.
    64 basis functions,   136 primitive gaussians,    70 cartesian basis functions
    15 alpha electrons       12 beta electrons
       nuclear repulsion energy        45.1888716501 Hartrees.
 NAtoms=    2 NActive=    2 NUniq=    1 SFac= 3.00D+00 NAtFMM=   80 NAOKFM=F Big=F
 One-electron integrals computed using PRISM.
 NBasis=    64 RedAO= T  NBF=    15     3     7     7     3    15     7     7
 NBsUse=    64 1.00D-06 NBFU=    15     3     7     7     3    15     7     7
 Initial guess read from the read-write file.
 B after Tr=     0.000000    0.000000    0.000000
         Rot=    1.000000    0.000000    0.000000    0.000000 Ang=   0.00 deg.
 Initial guess orbital symmetries:
 Alpha Orbitals:
       Occupied  (SGG) (SGU) (SGG) (SGU) (PIU) (PIU) (PIG) (PIG)
                 (SGG) (SGU) (SGG) (SGU) (SGG) (PIU) (PIU)
       Virtual   (PIG) (PIG) (SGU) (SGG) (PIU) (PIU) (SGG) (DLTG)
                 (DLTG) (SGU) (PIU) (PIU) (PIG) (PIG) (DLTU) (DLTU)
                 (SGU) (SGG) (PIG) (PIG) (SGU) (SGG) (DLTG) (DLTG)
                 (PHIU) (PHIU) (SGU) (PIU) (PIU) (PHIG) (PHIG)
                 (SGG) (DLTU) (DLTU) (SGU) (PIG) (PIG) (DLTG) (DLTG)
                 (DLTU) (DLTU) (PIU) (PIU) (SGU) (PIG) (PIG) (SGG)
                 (SGG) (SGU)
 Beta  Orbitals:
       Occupied  (SGG) (SGU) (SGG) (SGU) (PIU) (PIU) (PIG) (PIG)
                 (SGG) (SGU) (SGG) (SGU)
       Virtual   (SGG) (PIU) (PIU) (PIG) (PIG) (SGU) (SGG) (PIU)
                 (PIU) (SGG) (SGU) (DLTG) (DLTG) (PIU) (PIU) (PIG)
                 (PIG) (DLTU) (DLTU) (SGU) (SGG) (PIG) (PIG) (SGU)
                 (SGG) (DLTG) (DLTG) (SGU) (PHIU) (PHIU) (PIU)
                 (PIU) (PHIG) (PHIG) (SGG) (DLTU) (DLTU) (SGU)
                 (PIG) (PIG) (DLTG) (DLTG) (DLTU) (DLTU) (PIU)
                 (PIU) (SGU) (PIG) (PIG) (SGG) (SGG) (SGU)
 Initial guess <Sx>= 0.0000 <Sy>= 0.0000 <Sz>= 1.5000 <S**2>= 3.7512 S= 1.5003
 Harris functional with IExCor=  402 diagonalized for initial guess.
 ExpMin= 7.78D-02 ExpMax= 1.61D+04 ExpMxC= 2.43D+03 IAcc=2 IRadAn=         0 AccDes= 0.00D+00
 HarFok:  IExCor=  402 AccDes= 0.00D+00 IRadAn=         0 IDoV= 1
 ScaDFX=  1.000000  1.000000  1.000000  1.000000
 FoFCou: FMM=F IPFlag=           0 FMFlag=      100000 FMFlg1=           0
         NFxFlg=           0 DoJE=T BraDBF=F KetDBF=T FulRan=T
         Omega=  0.000000  0.000000  1.000000  0.000000  0.000000 ICntrl=     500 IOpCl=  0
         NMat0=    1 NMatS0=    1 NMatT0=    0 NMatD0=    1 NMtDS0=    0 NMtDT0=    0
         I1Cent=           4 NGrid=           0.
 Petite list used in FoFCou.
 Requested convergence on RMS density matrix=1.00D-08 within 128 cycles.
 Requested convergence on MAX density matrix=1.00D-06.
 Requested convergence on             energy=1.00D-06.
 No special actions if energy rises.
 Keep R1 and R2 ints in memory in canonical form, NReq=8167363.
 Integral accuracy reduced to 1.0D-05 until final iterations.
 Initial convergence to 1.0D-05 achieved.  Increase integral accuracy.
 SCF Done:  E(UB3LYP) =  -578.573672405     A.U. after    9 cycles
             Convg  =    0.2730D-08             -V/T =  2.0032
 <Sx>= 0.0000 <Sy>= 0.0000 <Sz>= 1.5000 <S**2>= 3.7512 S= 1.5003
 <L.S>= 0.000000000000E+00
 Annihilation of the first spin contaminant:
 S**2 before annihilation     3.7512,   after     3.7500
 QCSCF skips out because SCF is already converged.
 Calling FoFJK, ICntrl=      2127 FMM=F ISym2X=1 I1Cent= 0 IOpClX= 1 NMat=1 NMatS=1 NMatT=0.
 ***** Axes restored to original set *****
 -------------------------------------------------------------------
 Center     Atomic                   Forces (Hartrees/Bohr)
 Number     Number              X              Y              Z
 -------------------------------------------------------------------
      1       14           0.000000000    0.000000000   -0.000252011
      2       14           0.000000000    0.000000000    0.000252011
 -------------------------------------------------------------------
 Cartesian Forces:  Max     0.000252011 RMS     0.000145499

 GradGradGradGradGradGradGradGradGradGradGradGradGradGradGradGradGradGrad
 Berny optimization.
 Using GEDIIS/GDIIS optimizer.
 Internal  Forces:  Max     0.000252011 RMS     0.000252011
 Search for a local minimum.
 Step number   3 out of a maximum of   20
 All quantities printed in internal units (Hartrees-Bohrs-Radians)
 Mixed Optimization -- En-DIIS/RFO-DIIS
 Update second derivatives using D2CorX and points    2    3
 DE= -5.05D-04 DEPred=-3.44D-04 R= 1.47D+00
 SS=  1.41D+00  RLast= 9.67D-02 DXNew= 8.4853D-01 2.9018D-01
 Trust test= 1.47D+00 RLast= 9.67D-02 DXMaxT set to 5.05D-01
 The second derivative matrix:
                          R1
           R1           0.11722
 Use linear search instead of GDIIS.
     Eigenvalues ---    0.11722
 RFO step:  Lambda= 0.00000000D+00 EMin= 1.17221336D-01
 Quartic linear search produced a step of -0.02463.
 Iteration  1 RMS(Cart)=  0.00168439 RMS(Int)=  0.00000000
 Iteration  2 RMS(Cart)=  0.00000000 RMS(Int)=  0.00000000
 ClnCor:  largest displacement from symmetrization is 7.29D-20 for atom     1.
 Variable       Old X    -DE/DX   Delta X   Delta X   Delta X     New X
                                 (Linear)    (Quad)   (Total)
    R1        4.33735  -0.00025  -0.00238   0.00000  -0.00238   4.33497
         Item               Value     Threshold  Converged?
 Maximum Force            0.000252     0.000450     YES
 RMS     Force            0.000252     0.000300     YES
 Maximum Displacement     0.001191     0.001800     YES
 RMS     Displacement     0.001684     0.001200     NO 
 Predicted change in Energy=-2.677363D-07
 GradGradGradGradGradGradGradGradGradGradGradGradGradGradGradGradGradGrad

                          Input orientation:                          
 ---------------------------------------------------------------------
 Center     Atomic      Atomic             Coordinates (Angstroms)
 Number     Number       Type             X           Y           Z
 ---------------------------------------------------------------------
      1         14           0        0.000000    0.000000    1.146983
      2         14           0        0.000000    0.000000   -1.146983
 ---------------------------------------------------------------------
 Stoichiometry    Si2(1+,4)
 Framework group  D*H[C*(Si.Si)]
 Deg. of freedom     1
 Full point group                 D*H     NOp   8
 Largest Abelian subgroup         D2H     NOp   8
 Largest concise Abelian subgroup C2      NOp   2
                         Standard orientation:                         
 ---------------------------------------------------------------------
 Center     Atomic      Atomic             Coordinates (Angstroms)
 Number     Number       Type             X           Y           Z
 ---------------------------------------------------------------------
      1         14           0        0.000000    0.000000    1.146983
      2         14           0        0.000000    0.000000   -1.146983
 ---------------------------------------------------------------------
 Rotational constants (GHZ):      0.0000000      6.8655117      6.8655117
 Standard basis: GTBas3 (6D, 7F)
 There are    15 symmetry adapted basis functions of AG  symmetry.
 There are     3 symmetry adapted basis functions of B1G symmetry.
 There are     7 symmetry adapted basis functions of B2G symmetry.
 There are     7 symmetry adapted basis functions of B3G symmetry.
 There are     3 symmetry adapted basis functions of AU  symmetry.
 There are    15 symmetry adapted basis functions of B1U symmetry.
 There are     7 symmetry adapted basis functions of B2U symmetry.
 There are     7 symmetry adapted basis functions of B3U symmetry.
 Integral buffers will be    131072 words long.
 Raffenetti 2 integral format.
 Two-electron integral symmetry is turned on.
    64 basis functions,   136 primitive gaussians,    70 cartesian basis functions
    15 alpha electrons       12 beta electrons
       nuclear repulsion energy        45.2137031367 Hartrees.
 NAtoms=    2 NActive=    2 NUniq=    1 SFac= 3.00D+00 NAtFMM=   80 NAOKFM=F Big=F
 One-electron integrals computed using PRISM.
 NBasis=    64 RedAO= T  NBF=    15     3     7     7     3    15     7     7
 NBsUse=    64 1.00D-06 NBFU=    15     3     7     7     3    15     7     7
 Initial guess read from the read-write file.
 B after Tr=     0.000000    0.000000    0.000000
         Rot=    1.000000    0.000000    0.000000    0.000000 Ang=   0.00 deg.
 Initial guess orbital symmetries:
 Alpha Orbitals:
       Occupied  (SGG) (SGU) (SGG) (SGU) (PIU) (PIU) (PIG) (PIG)
                 (SGG) (SGU) (SGG) (SGU) (SGG) (PIU) (PIU)
       Virtual   (PIG) (PIG) (SGU) (SGG) (PIU) (PIU) (SGG) (DLTG)
                 (DLTG) (SGU) (PIU) (PIU) (PIG) (PIG) (DLTU) (DLTU)
                 (SGU) (SGG) (PIG) (PIG) (SGU) (SGG) (DLTG) (DLTG)
                 (PHIU) (PHIU) (SGU) (PIU) (PIU) (PHIG) (PHIG)
                 (SGG) (DLTU) (DLTU) (SGU) (PIG) (PIG) (DLTG) (DLTG)
                 (PIU) (PIU) (DLTU) (DLTU) (SGU) (PIG) (PIG) (SGG)
                 (SGG) (SGU)
 Beta  Orbitals:
       Occupied  (SGG) (SGU) (SGG) (SGU) (PIU) (PIU) (PIG) (PIG)
                 (SGG) (SGU) (SGG) (SGU)
       Virtual   (SGG) (PIU) (PIU) (PIG) (PIG) (SGU) (SGG) (SGG)
                 (PIU) (PIU) (SGU) (DLTG) (DLTG) (PIU) (PIU) (PIG)
                 (PIG) (DLTU) (DLTU) (SGU) (SGG) (PIG) (PIG) (SGU)
                 (SGG) (DLTG) (DLTG) (SGU) (PHIU) (PHIU) (PIU)
                 (PIU) (PHIG) (PHIG) (SGG) (DLTU) (DLTU) (SGU)
                 (PIG) (PIG) (DLTG) (DLTG) (PIU) (PIU) (DLTU) (DLTU)
                 (SGU) (PIG) (PIG) (SGG) (SGG) (SGU)
 Initial guess <Sx>= 0.0000 <Sy>= 0.0000 <Sz>= 1.5000 <S**2>= 3.7512 S= 1.5003
 Requested convergence on RMS density matrix=1.00D-08 within 128 cycles.
 Requested convergence on MAX density matrix=1.00D-06.
 Requested convergence on             energy=1.00D-06.
 No special actions if energy rises.
 Keep R1 and R2 ints in memory in canonical form, NReq=8167363.
 SCF Done:  E(UB3LYP) =  -578.573672705     A.U. after    6 cycles
             Convg  =    0.1493D-08             -V/T =  2.0032
 <Sx>= 0.0000 <Sy>= 0.0000 <Sz>= 1.5000 <S**2>= 3.7512 S= 1.5003
 <L.S>= 0.000000000000E+00
 Annihilation of the first spin contaminant:
 S**2 before annihilation     3.7512,   after     3.7500
 QCSCF skips out because SCF is already converged.
 Calling FoFJK, ICntrl=      2127 FMM=F ISym2X=1 I1Cent= 0 IOpClX= 1 NMat=1 NMatS=1 NMatT=0.
 ***** Axes restored to original set *****
 -------------------------------------------------------------------
 Center     Atomic                   Forces (Hartrees/Bohr)
 Number     Number              X              Y              Z
 -------------------------------------------------------------------
      1       14           0.000000000    0.000000000    0.000000328
      2       14           0.000000000    0.000000000   -0.000000328
 -------------------------------------------------------------------
 Cartesian Forces:  Max     0.000000328 RMS     0.000000190

 GradGradGradGradGradGradGradGradGradGradGradGradGradGradGradGradGradGrad
 Berny optimization.
 Using GEDIIS/GDIIS optimizer.
 Internal  Forces:  Max     0.000000328 RMS     0.000000328
 Search for a local minimum.
 Step number   4 out of a maximum of   20
 All quantities printed in internal units (Hartrees-Bohrs-Radians)
 Mixed Optimization -- En-DIIS/RFO-DIIS
 Swaping is turned off.
 Update second derivatives using D2CorX and points    3    4
 DE= -3.00D-07 DEPred=-2.68D-07 R= 1.12D+00
 Trust test= 1.12D+00 RLast= 2.38D-03 DXMaxT set to 5.05D-01
 The second derivative matrix:
                          R1
           R1           0.10593
     Eigenvalues ---    0.10593
 En-DIIS/RFO-DIIS IScMMF=        0 using points:     4    3
 RFO step:  Lambda=-3.31012995D-13.
 DIIS coeffs:      0.99870      0.00130
 Iteration  1 RMS(Cart)=  0.00000219 RMS(Int)=  0.00000000
 Iteration  2 RMS(Cart)=  0.00000000 RMS(Int)=  0.00000000
 ClnCor:  largest displacement from symmetrization is 9.49D-23 for atom     1.
 Variable       Old X    -DE/DX   Delta X   Delta X   Delta X     New X
                                  (DIIS)     (GDIIS)  (Total)
    R1        4.33497   0.00000   0.00000   0.00000   0.00000   4.33497
         Item               Value     Threshold  Converged?
 Maximum Force            0.000000     0.000450     YES
 RMS     Force            0.000000     0.000300     YES
 Maximum Displacement     0.000002     0.001800     YES
 RMS     Displacement     0.000002     0.001200     YES
 Predicted change in Energy=-5.085119D-13
 Optimization completed.
    -- Stationary point found.
                           ----------------------------
                           !   Optimized Parameters   !
                           ! (Angstroms and Degrees)  !
 --------------------------                            --------------------------
 ! Name  Definition              Value          Derivative Info.                !
 --------------------------------------------------------------------------------
 ! R1    R(1,2)                  2.294          -DE/DX =    0.0                 !
 --------------------------------------------------------------------------------
 GradGradGradGradGradGradGradGradGradGradGradGradGradGradGradGradGradGrad

                          Input orientation:                          
 ---------------------------------------------------------------------
 Center     Atomic      Atomic             Coordinates (Angstroms)
 Number     Number       Type             X           Y           Z
 ---------------------------------------------------------------------
      1         14           0        0.000000    0.000000    1.146983
      2         14           0        0.000000    0.000000   -1.146983
 ---------------------------------------------------------------------
 Stoichiometry    Si2(1+,4)
 Framework group  D*H[C*(Si.Si)]
 Deg. of freedom     1
 Full point group                 D*H     NOp   8
 Largest Abelian subgroup         D2H     NOp   8
 Largest concise Abelian subgroup C2      NOp   2
                         Standard orientation:                         
 ---------------------------------------------------------------------
 Center     Atomic      Atomic             Coordinates (Angstroms)
 Number     Number       Type             X           Y           Z
 ---------------------------------------------------------------------
      1         14           0        0.000000    0.000000    1.146983
      2         14           0        0.000000    0.000000   -1.146983
 ---------------------------------------------------------------------
 Rotational constants (GHZ):      0.0000000      6.8655117      6.8655117

 **********************************************************************

            Population analysis using the SCF density.

 **********************************************************************

 Orbital symmetries:
 Alpha Orbitals:
       Occupied  (SGG) (SGU) (SGG) (SGU) (PIU) (PIU) (PIG) (PIG)
                 (SGG) (SGU) (SGG) (SGU) (SGG) (PIU) (PIU)
       Virtual   (PIG) (PIG) (SGU) (SGG) (PIU) (PIU) (SGG) (DLTG)
                 (DLTG) (SGU) (PIU) (PIU) (PIG) (PIG) (DLTU) (DLTU)
                 (SGU) (SGG) (PIG) (PIG) (SGU) (SGG) (DLTG) (DLTG)
                 (PHIU) (PHIU) (SGU) (PIU) (PIU) (PHIG) (PHIG)
                 (SGG) (DLTU) (DLTU) (SGU) (PIG) (PIG) (DLTG) (DLTG)
                 (PIU) (PIU) (DLTU) (DLTU) (SGU) (PIG) (PIG) (SGG)
                 (SGG) (SGU)
 Beta  Orbitals:
       Occupied  (SGG) (SGU) (SGG) (SGU) (PIU) (PIU) (PIG) (PIG)
                 (SGG) (SGU) (SGG) (SGU)
       Virtual   (SGG) (PIU) (PIU) (PIG) (PIG) (SGU) (SGG) (SGG)
                 (PIU) (PIU) (SGU) (DLTG) (DLTG) (PIU) (PIU) (PIG)
                 (PIG) (DLTU) (DLTU) (SGU) (SGG) (PIG) (PIG) (SGU)
                 (SGG) (DLTG) (DLTG) (SGU) (PHIU) (PHIU) (PIU)
                 (PIU) (PHIG) (PHIG) (SGG) (DLTU) (DLTU) (SGU)
                 (PIG) (PIG) (DLTG) (DLTG) (PIU) (PIU) (DLTU) (DLTU)
                 (SGU) (PIG) (PIG) (SGG) (SGG) (SGU)
 The electronic state is 4-SGG.
 Alpha  occ. eigenvalues --  -66.42677 -66.42677  -5.57119  -5.57104  -3.93062
 Alpha  occ. eigenvalues --   -3.93062  -3.93060  -3.93060  -3.92929  -3.92864
 Alpha  occ. eigenvalues --   -0.79106  -0.63259  -0.47861  -0.46164  -0.46164
 Alpha virt. eigenvalues --   -0.31618  -0.31618  -0.19274  -0.10719  -0.04220
 Alpha virt. eigenvalues --   -0.04220  -0.01526  -0.00816  -0.00815   0.00052
 Alpha virt. eigenvalues --    0.03845   0.03845   0.07148   0.07148   0.08937
 Alpha virt. eigenvalues --    0.08938   0.12301   0.21939   0.24591   0.24591
 Alpha virt. eigenvalues --    0.47643   0.52492   0.59903   0.59904   0.66849
 Alpha virt. eigenvalues --    0.66849   0.66928   0.70481   0.70481   0.75497
 Alpha virt. eigenvalues --    0.75497   0.77628   0.90515   0.90515   0.99830
 Alpha virt. eigenvalues --    1.05408   1.05408   1.33087   1.33088   1.39407
 Alpha virt. eigenvalues --    1.39407   1.40217   1.40218   1.44775   1.60415
 Alpha virt. eigenvalues --    1.60415   1.77973   2.19057   2.38237
  Beta  occ. eigenvalues --  -66.42160 -66.42160  -5.56543  -5.56534  -3.92271
  Beta  occ. eigenvalues --   -3.92271  -3.92270  -3.92270  -3.92019  -3.91962
  Beta  occ. eigenvalues --   -0.71986  -0.57224
  Beta virt. eigenvalues --   -0.37360  -0.36244  -0.36244  -0.26742  -0.26742
  Beta virt. eigenvalues --   -0.15171  -0.08034   0.00458   0.00529   0.00529
  Beta virt. eigenvalues --    0.01985   0.03986   0.03986   0.06470   0.06470
  Beta virt. eigenvalues --    0.08867   0.08867   0.12918   0.12918   0.13850
  Beta virt. eigenvalues --    0.25594   0.28713   0.28713   0.50968   0.55132
  Beta virt. eigenvalues --    0.64736   0.64737   0.69002   0.70876   0.70876
  Beta virt. eigenvalues --    0.75254   0.75254   0.79315   0.79315   0.81413
  Beta virt. eigenvalues --    0.94730   0.94730   1.03447   1.09202   1.09202
  Beta virt. eigenvalues --    1.34807   1.34808   1.41587   1.41587   1.41990
  Beta virt. eigenvalues --    1.41991   1.46548   1.62740   1.62740   1.80284
  Beta virt. eigenvalues --    2.21599   2.40857
          Condensed to atoms (all electrons):
              1          2
     1  Si  13.203928   0.296072
     2  Si   0.296072  13.203928
 Mulliken atomic charges:
              1
     1  Si   0.500000
     2  Si   0.500000
 Sum of Mulliken atomic charges =   1.00000
 Mulliken charges with hydrogens summed into heavy atoms:
              1
     1  Si   0.500000
     2  Si   0.500000
 Sum of Mulliken charges with hydrogens summed into heavy atoms =   1.00000
          Atomic-Atomic Spin Densities.
              1          2
     1  Si   1.216315   0.283685
     2  Si   0.283685   1.216315
 Mulliken atomic spin densities:
              1
     1  Si   1.500000
     2  Si   1.500000
 Sum of Mulliken atomic spin densities =   3.00000
 Electronic spatial extent (au):  <R**2>=            172.4200
 Charge=              1.0000 electrons
 Dipole moment (field-independent basis, Debye):
    X=              0.0000    Y=              0.0000    Z=              0.0000  Tot=              0.0000
 Quadrupole moment (field-independent basis, Debye-Ang):
   XX=            -21.3379   YY=            -21.3379   ZZ=            -12.3043
   XY=              0.0000   XZ=              0.0000   YZ=              0.0000
 Traceless Quadrupole moment (field-independent basis, Debye-Ang):
   XX=             -3.0112   YY=             -3.0112   ZZ=              6.0224
   XY=              0.0000   XZ=              0.0000   YZ=              0.0000
 Octapole moment (field-independent basis, Debye-Ang**2):
  XXX=              0.0000  YYY=              0.0000  ZZZ=              0.0000  XYY=              0.0000
  XXY=              0.0000  XXZ=              0.0000  XZZ=              0.0000  YZZ=              0.0000
  YYZ=              0.0000  XYZ=              0.0000
 Hexadecapole moment (field-independent basis, Debye-Ang**3):
 XXXX=            -34.5030 YYYY=            -34.5030 ZZZZ=           -185.5820 XXXY=              0.0000
 XXXZ=              0.0000 YYYX=              0.0000 YYYZ=              0.0000 ZZZX=              0.0000
 ZZZY=              0.0000 XXYY=            -11.5010 XXZZ=            -37.3559 YYZZ=            -37.3559
 XXYZ=              0.0000 YYXZ=              0.0000 ZZXY=              0.0000
 N-N= 4.521370313674D+01 E-N=-2.176090271886D+03  KE= 8.633740089997D+02
 Symmetry AG   KE= 3.581149264664D+02
 Symmetry B1G  KE= 6.661678847215D-35
 Symmetry B2G  KE= 3.645281649915D+01
 Symmetry B3G  KE= 3.645281649915D+01
 Symmetry AU   KE= 3.329106821564D-34
 Symmetry B1U  KE= 3.573271273828D+02
 Symmetry B2U  KE= 3.751316107607D+01
 Symmetry B3U  KE= 3.751316107607D+01
                          Isotropic Fermi Contact Couplings
        Atom                 a.u.       MegaHertz       Gauss      10(-4) cm-1
     1  Si(29)             0.07084     -20.98687      -7.48864      -7.00047
     2  Si(29)             0.07084     -20.98687      -7.48864      -7.00047
 --------------------------------------------------------
       Center         ----  Spin Dipole Couplings  ----
                      3XX-RR        3YY-RR        3ZZ-RR
 --------------------------------------------------------
     1   Atom       -0.131620     -0.131620      0.263241
     2   Atom       -0.131620     -0.131620      0.263241
 --------------------------------------------------------
                        XY            XZ            YZ
 --------------------------------------------------------
     1   Atom        0.000000      0.000000      0.000000
     2   Atom        0.000000      0.000000      0.000000
 --------------------------------------------------------


 ---------------------------------------------------------------------------------
              Anisotropic Spin Dipole Couplings in Principal Axis System
 ---------------------------------------------------------------------------------

       Atom             a.u.   MegaHertz   Gauss  10(-4) cm-1        Axes

              Baa    -0.1316    13.963     4.982     4.657  1.0000 -0.0003  0.0000
     1 Si(29) Bbb    -0.1316    13.963     4.982     4.657  0.0003  1.0000  0.0000
              Bcc     0.2632   -27.926    -9.965    -9.315  0.0000  0.0000  1.0000
 
              Baa    -0.1316    13.963     4.982     4.657  1.0000  0.0000  0.0000
     2 Si(29) Bbb    -0.1316    13.963     4.982     4.657  0.0000  1.0000  0.0000
              Bcc     0.2632   -27.926    -9.965    -9.315  0.0000  0.0000  1.0000
 

 ---------------------------------------------------------------------------------

 1\1\GINC-NODE190\FOpt\UB3LYP\GTBas3\Si2(1+,4)\TAM\07-Jan-2012\0\\# G4 
 scfcyc=500 scf=xqc\\si2-c-q\\1,4\Si,0.,0.,1.1469833888\Si,0.,0.,-1.146
 9833888\\Version=AM64L-G09RevA.02\State=4-SGG\HF=-578.5736727\S2=3.751
 182\S2-1=0.\S2A=3.75\RMSD=1.493e-09\RMSF=1.895e-07\Dipole=0.,0.,0.\Qua
 drupole=-2.2387533,-2.2387533,4.4775066,0.,0.,0.\PG=D*H [C*(Si1.Si1)]\
 \@


 BE NOT THE FIRST BY WHOM THE NEW ARE TRIED,
 NOR YET THE THE LAST TO LAY THE OLD ASIDE.

                          -- ALEXANDER POPE
 Job cpu time:  0 days  0 hours  1 minutes 43.3 seconds.
 File lengths (MBytes):  RWF=      9 Int=      0 D2E=      0 Chk=      4 Scr=      1
 Normal termination of Gaussian 09 at Sat Jan  7 10:07:02 2012.
 Link1:  Proceeding to internal job step number  2.
 ----------------------------------------------------------
 #N Geom=AllCheck Guess=TCheck SCRF=Check B3LYP/GTBas3 Freq
 ----------------------------------------------------------
 1/10=4,29=7,30=1,38=1,40=1/1,3;
 2/12=2,40=1/2;
 3/5=35,11=2,14=-4,16=1,25=1,30=1,70=2,71=2,74=-5,116=-2/1,2,3;
 4/5=101/1;
 5/5=2,7=500,8=3,13=1,98=1/2,8;
 8/6=4,10=90,11=11/1;
 11/6=1,8=1,9=11,15=111,16=1/1,2,10;
 10/6=1/2;
 6/7=2,8=2,9=2,10=2,18=1,28=1/1;
 7/8=1,10=1,25=1/1,2,3,16;
 1/10=4,30=1/3;
 99//99;
 -------
 si2-c-q
 -------
 Redundant internal coordinates taken from checkpoint file:
 S9L-ne-d-01.chk
 Charge =  1 Multiplicity = 4
 Si,0,0.,0.,1.1469833888
 Si,0,0.,0.,-1.1469833888
 Recover connectivity data from disk.

 GradGradGradGradGradGradGradGradGradGradGradGradGradGradGradGradGradGrad
 Berny optimization.
 Initialization pass.
                           ----------------------------
                           !    Initial Parameters    !
                           ! (Angstroms and Degrees)  !
 --------------------------                            --------------------------
 ! Name  Definition              Value          Derivative Info.                !
 --------------------------------------------------------------------------------
 ! R1    R(1,2)                  2.294          calculate D2E/DX2 analytically  !
 --------------------------------------------------------------------------------
 Trust Radius=3.00D-01 FncErr=1.00D-07 GrdErr=1.00D-07
 Number of steps in this run=   2 maximum allowed number of steps=   2.
 GradGradGradGradGradGradGradGradGradGradGradGradGradGradGradGradGradGrad

                          Input orientation:                          
 ---------------------------------------------------------------------
 Center     Atomic      Atomic             Coordinates (Angstroms)
 Number     Number       Type             X           Y           Z
 ---------------------------------------------------------------------
      1         14           0        0.000000    0.000000    1.146983
      2         14           0        0.000000    0.000000   -1.146983
 ---------------------------------------------------------------------
 Stoichiometry    Si2(1+,4)
 Framework group  D*H[C*(Si.Si)]
 Deg. of freedom     1
 Full point group                 D*H     NOp   8
 Largest Abelian subgroup         D2H     NOp   8
 Largest concise Abelian subgroup C2      NOp   2
                         Standard orientation:                         
 ---------------------------------------------------------------------
 Center     Atomic      Atomic             Coordinates (Angstroms)
 Number     Number       Type             X           Y           Z
 ---------------------------------------------------------------------
      1         14           0        0.000000    0.000000    1.146983
      2         14           0        0.000000    0.000000   -1.146983
 ---------------------------------------------------------------------
 Rotational constants (GHZ):      0.0000000      6.8655117      6.8655117
 Standard basis: GTBas3 (6D, 7F)
 There are    15 symmetry adapted basis functions of AG  symmetry.
 There are     3 symmetry adapted basis functions of B1G symmetry.
 There are     7 symmetry adapted basis functions of B2G symmetry.
 There are     7 symmetry adapted basis functions of B3G symmetry.
 There are     3 symmetry adapted basis functions of AU  symmetry.
 There are    15 symmetry adapted basis functions of B1U symmetry.
 There are     7 symmetry adapted basis functions of B2U symmetry.
 There are     7 symmetry adapted basis functions of B3U symmetry.
 Integral buffers will be    131072 words long.
 Raffenetti 2 integral format.
 Two-electron integral symmetry is turned on.
    64 basis functions,   136 primitive gaussians,    70 cartesian basis functions
    15 alpha electrons       12 beta electrons
       nuclear repulsion energy        45.2137031367 Hartrees.
 NAtoms=    2 NActive=    2 NUniq=    1 SFac= 3.00D+00 NAtFMM=   80 NAOKFM=F Big=F
 One-electron integrals computed using PRISM.
 NBasis=    64 RedAO= T  NBF=    15     3     7     7     3    15     7     7
 NBsUse=    64 1.00D-06 NBFU=    15     3     7     7     3    15     7     7
 Initial guess read from the checkpoint file:  S9L-ne-d-01.chk
 B after Tr=     0.000000    0.000000    0.000000
         Rot=    1.000000    0.000000    0.000000    0.000000 Ang=   0.00 deg.
 Initial guess orbital symmetries:
 Alpha Orbitals:
       Occupied  (SGG) (SGU) (SGG) (SGU) (PIU) (PIU) (PIG) (PIG)
                 (SGG) (SGU) (SGG) (SGU) (SGG) (PIU) (PIU)
       Virtual   (PIG) (PIG) (SGU) (SGG) (PIU) (PIU) (SGG) (DLTG)
                 (DLTG) (SGU) (PIU) (PIU) (PIG) (PIG) (DLTU) (DLTU)
                 (SGU) (SGG) (PIG) (PIG) (SGU) (SGG) (DLTG) (DLTG)
                 (PHIU) (PHIU) (SGU) (PIU) (PIU) (PHIG) (PHIG)
                 (SGG) (DLTU) (DLTU) (SGU) (PIG) (PIG) (DLTG) (DLTG)
                 (PIU) (PIU) (DLTU) (DLTU) (SGU) (PIG) (PIG) (SGG)
                 (SGG) (SGU)
 Beta  Orbitals:
       Occupied  (SGG) (SGU) (SGG) (SGU) (PIU) (PIU) (PIG) (PIG)
                 (SGG) (SGU) (SGG) (SGU)
       Virtual   (SGG) (PIU) (PIU) (PIG) (PIG) (SGU) (SGG) (SGG)
                 (PIU) (PIU) (SGU) (DLTG) (DLTG) (PIU) (PIU) (PIG)
                 (PIG) (DLTU) (DLTU) (SGU) (SGG) (PIG) (PIG) (SGU)
                 (SGG) (DLTG) (DLTG) (SGU) (PHIU) (PHIU) (PIU)
                 (PIU) (PHIG) (PHIG) (SGG) (DLTU) (DLTU) (SGU)
                 (PIG) (PIG) (DLTG) (DLTG) (PIU) (PIU) (DLTU) (DLTU)
                 (SGU) (PIG) (PIG) (SGG) (SGG) (SGU)
 Initial guess <Sx>= 0.0000 <Sy>= 0.0000 <Sz>= 1.5000 <S**2>= 3.7512 S= 1.5003
 Requested convergence on RMS density matrix=1.00D-08 within 128 cycles.
 Requested convergence on MAX density matrix=1.00D-06.
 Requested convergence on             energy=1.00D-06.
 No special actions if energy rises.
 Keep R1 and R2 ints in memory in canonical form, NReq=8167363.
 SCF Done:  E(UB3LYP) =  -578.573672705     A.U. after    1 cycles
             Convg  =    0.2621D-09             -V/T =  2.0032
 <Sx>= 0.0000 <Sy>= 0.0000 <Sz>= 1.5000 <S**2>= 3.7512 S= 1.5003
 <L.S>= 0.000000000000E+00
 Annihilation of the first spin contaminant:
 S**2 before annihilation     3.7512,   after     3.7500
 QCSCF skips out because SCF is already converged.
 Range of M.O.s used for correlation:     1    64
 NBasis=    64 NAE=    15 NBE=    12 NFC=     0 NFV=     0
 NROrb=     64 NOA=    15 NOB=    12 NVA=    49 NVB=    52
 Symmetrizing basis deriv contribution to polar:
 IMax=3 JMax=2 DiffMx= 0.00D+00
 G2DrvN: will do     3 centers at a time, making    1 passes doing MaxLOS=3.
 Calling FoFCou, ICntrl=  3107 FMM=F I1Cent=   0 AccDes= 0.00D+00.
 FoFDir/FoFCou used for L=0 through L=3.
 End of G2Drv Frequency-dependent properties file   721 does not exist.
 End of G2Drv Frequency-dependent properties file   722 does not exist.
          IDoAtm=11
          Differentiating once with respect to electric field.
                with respect to dipole field.
          Differentiating once with respect to nuclear coordinates.
          Keep R1 and R2 ints in memory in canonical form, NReq=8119329.
          There are     6 degrees of freedom in the 1st order CPHF.  IDoFFX=4.
      6 vectors produced by pass  0 Test12= 2.27D-14 1.67D-08 XBig12= 6.03D+02 1.42D+01.
 AX will form     6 AO Fock derivatives at one time.
      6 vectors produced by pass  1 Test12= 2.27D-14 1.67D-08 XBig12= 1.19D+02 4.95D+00.
      6 vectors produced by pass  2 Test12= 2.27D-14 1.67D-08 XBig12= 3.44D+00 8.36D-01.
      6 vectors produced by pass  3 Test12= 2.27D-14 1.67D-08 XBig12= 1.39D-01 1.83D-01.
      6 vectors produced by pass  4 Test12= 2.27D-14 1.67D-08 XBig12= 4.38D-03 3.54D-02.
      6 vectors produced by pass  5 Test12= 2.27D-14 1.67D-08 XBig12= 9.48D-05 3.39D-03.
      6 vectors produced by pass  6 Test12= 2.27D-14 1.67D-08 XBig12= 2.64D-06 6.08D-04.
      4 vectors produced by pass  7 Test12= 2.27D-14 1.67D-08 XBig12= 5.50D-08 7.18D-05.
      4 vectors produced by pass  8 Test12= 2.27D-14 1.67D-08 XBig12= 4.26D-10 9.29D-06.
      1 vectors produced by pass  9 Test12= 2.27D-14 1.67D-08 XBig12= 6.71D-13 2.79D-07.
 Inverted reduced A of dimension    51 with in-core refinement.
 Isotropic polarizability for W=    0.000000       50.84 Bohr**3.
 End of Minotr Frequency-dependent properties file   721 does not exist.
 End of Minotr Frequency-dependent properties file   722 does not exist.

 **********************************************************************

            Population analysis using the SCF density.

 **********************************************************************

 Orbital symmetries:
 Alpha Orbitals:
       Occupied  (SGG) (SGU) (SGG) (SGU) (PIU) (PIU) (PIG) (PIG)
                 (SGG) (SGU) (SGG) (SGU) (SGG) (PIU) (PIU)
       Virtual   (PIG) (PIG) (SGU) (SGG) (PIU) (PIU) (SGG) (DLTG)
                 (DLTG) (SGU) (PIU) (PIU) (PIG) (PIG) (DLTU) (DLTU)
                 (SGU) (SGG) (PIG) (PIG) (SGU) (SGG) (DLTG) (DLTG)
                 (PHIU) (PHIU) (SGU) (PIU) (PIU) (PHIG) (PHIG)
                 (SGG) (DLTU) (DLTU) (SGU) (PIG) (PIG) (DLTG) (DLTG)
                 (PIU) (PIU) (DLTU) (DLTU) (SGU) (PIG) (PIG) (SGG)
                 (SGG) (SGU)
 Beta  Orbitals:
       Occupied  (SGG) (SGU) (SGG) (SGU) (PIU) (PIU) (PIG) (PIG)
                 (SGG) (SGU) (SGG) (SGU)
       Virtual   (SGG) (PIU) (PIU) (PIG) (PIG) (SGU) (SGG) (SGG)
                 (PIU) (PIU) (SGU) (DLTG) (DLTG) (PIU) (PIU) (PIG)
                 (PIG) (DLTU) (DLTU) (SGU) (SGG) (PIG) (PIG) (SGU)
                 (SGG) (DLTG) (DLTG) (SGU) (PHIU) (PHIU) (PIU)
                 (PIU) (PHIG) (PHIG) (SGG) (DLTU) (DLTU) (SGU)
                 (PIG) (PIG) (DLTG) (DLTG) (PIU) (PIU) (DLTU) (DLTU)
                 (SGU) (PIG) (PIG) (SGG) (SGG) (SGU)
 The electronic state is 4-SGG.
 Alpha  occ. eigenvalues --  -66.42677 -66.42677  -5.57119  -5.57104  -3.93062
 Alpha  occ. eigenvalues --   -3.93062  -3.93060  -3.93060  -3.92929  -3.92864
 Alpha  occ. eigenvalues --   -0.79106  -0.63259  -0.47861  -0.46164  -0.46164
 Alpha virt. eigenvalues --   -0.31618  -0.31618  -0.19274  -0.10719  -0.04220
 Alpha virt. eigenvalues --   -0.04220  -0.01526  -0.00816  -0.00815   0.00052
 Alpha virt. eigenvalues --    0.03845   0.03845   0.07148   0.07148   0.08937
 Alpha virt. eigenvalues --    0.08938   0.12301   0.21939   0.24591   0.24591
 Alpha virt. eigenvalues --    0.47643   0.52492   0.59903   0.59904   0.66849
 Alpha virt. eigenvalues --    0.66849   0.66928   0.70481   0.70481   0.75497
 Alpha virt. eigenvalues --    0.75497   0.77628   0.90515   0.90515   0.99830
 Alpha virt. eigenvalues --    1.05408   1.05408   1.33087   1.33088   1.39407
 Alpha virt. eigenvalues --    1.39407   1.40217   1.40218   1.44775   1.60415
 Alpha virt. eigenvalues --    1.60415   1.77973   2.19057   2.38237
  Beta  occ. eigenvalues --  -66.42160 -66.42160  -5.56543  -5.56534  -3.92271
  Beta  occ. eigenvalues --   -3.92271  -3.92270  -3.92270  -3.92019  -3.91962
  Beta  occ. eigenvalues --   -0.71986  -0.57224
  Beta virt. eigenvalues --   -0.37360  -0.36244  -0.36244  -0.26742  -0.26742
  Beta virt. eigenvalues --   -0.15171  -0.08034   0.00458   0.00529   0.00529
  Beta virt. eigenvalues --    0.01985   0.03986   0.03986   0.06470   0.06470
  Beta virt. eigenvalues --    0.08867   0.08867   0.12918   0.12918   0.13850
  Beta virt. eigenvalues --    0.25594   0.28713   0.28713   0.50968   0.55132
  Beta virt. eigenvalues --    0.64736   0.64737   0.69002   0.70876   0.70876
  Beta virt. eigenvalues --    0.75254   0.75254   0.79315   0.79315   0.81413
  Beta virt. eigenvalues --    0.94730   0.94730   1.03447   1.09202   1.09202
  Beta virt. eigenvalues --    1.34807   1.34808   1.41587   1.41587   1.41990
  Beta virt. eigenvalues --    1.41991   1.46548   1.62740   1.62740   1.80284
  Beta virt. eigenvalues --    2.21599   2.40857
          Condensed to atoms (all electrons):
              1          2
     1  Si  13.203928   0.296072
     2  Si   0.296072  13.203928
 Mulliken atomic charges:
              1
     1  Si   0.500000
     2  Si   0.500000
 Sum of Mulliken atomic charges =   1.00000
 Mulliken charges with hydrogens summed into heavy atoms:
              1
     1  Si   0.500000
     2  Si   0.500000
 Sum of Mulliken charges with hydrogens summed into heavy atoms =   1.00000
          Atomic-Atomic Spin Densities.
              1          2
     1  Si   1.216315   0.283685
     2  Si   0.283685   1.216315
 Mulliken atomic spin densities:
              1
     1  Si   1.500000
     2  Si   1.500000
 Sum of Mulliken atomic spin densities =   3.00000
 APT atomic charges:
              1
     1  Si   0.500000
     2  Si   0.500000
 Sum of APT charges=   1.00000
 APT Atomic charges with hydrogens summed into heavy atoms:
              1
     1  Si   0.500000
     2  Si   0.500000
 Sum of APT charges=   1.00000
 Electronic spatial extent (au):  <R**2>=            172.4200
 Charge=              1.0000 electrons
 Dipole moment (field-independent basis, Debye):
    X=              0.0000    Y=              0.0000    Z=              0.0000  Tot=              0.0000
 Quadrupole moment (field-independent basis, Debye-Ang):
   XX=            -21.3379   YY=            -21.3379   ZZ=            -12.3043
   XY=              0.0000   XZ=              0.0000   YZ=              0.0000
 Traceless Quadrupole moment (field-independent basis, Debye-Ang):
   XX=             -3.0112   YY=             -3.0112   ZZ=              6.0224
   XY=              0.0000   XZ=              0.0000   YZ=              0.0000
 Octapole moment (field-independent basis, Debye-Ang**2):
  XXX=              0.0000  YYY=              0.0000  ZZZ=              0.0000  XYY=              0.0000
  XXY=              0.0000  XXZ=              0.0000  XZZ=              0.0000  YZZ=              0.0000
  YYZ=              0.0000  XYZ=              0.0000
 Hexadecapole moment (field-independent basis, Debye-Ang**3):
 XXXX=            -34.5030 YYYY=            -34.5030 ZZZZ=           -185.5820 XXXY=              0.0000
 XXXZ=              0.0000 YYYX=              0.0000 YYYZ=              0.0000 ZZZX=              0.0000
 ZZZY=              0.0000 XXYY=            -11.5010 XXZZ=            -37.3559 YYZZ=            -37.3559
 XXYZ=              0.0000 YYXZ=              0.0000 ZZXY=              0.0000
 N-N= 4.521370313674D+01 E-N=-2.176090271566D+03  KE= 8.633740088409D+02
 Symmetry AG   KE= 3.581149264196D+02
 Symmetry B1G  KE= 6.661678764500D-35
 Symmetry B2G  KE= 3.645281648703D+01
 Symmetry B3G  KE= 3.645281648703D+01
 Symmetry AU   KE= 3.329106699673D-34
 Symmetry B1U  KE= 3.573271273285D+02
 Symmetry B2U  KE= 3.751316105938D+01
 Symmetry B3U  KE= 3.751316105938D+01
  Exact polarizability:  33.547   0.000  33.547   0.000   0.000  85.437
 Approx polarizability:  54.600   0.000  54.600   0.000   0.000 209.066
                          Isotropic Fermi Contact Couplings
        Atom                 a.u.       MegaHertz       Gauss      10(-4) cm-1
     1  Si(29)             0.07084     -20.98687      -7.48864      -7.00047
     2  Si(29)             0.07084     -20.98687      -7.48864      -7.00047
 --------------------------------------------------------
       Center         ----  Spin Dipole Couplings  ----
                      3XX-RR        3YY-RR        3ZZ-RR
 --------------------------------------------------------
     1   Atom       -0.131620     -0.131620      0.263241
     2   Atom       -0.131620     -0.131620      0.263241
 --------------------------------------------------------
                        XY            XZ            YZ
 --------------------------------------------------------
     1   Atom        0.000000      0.000000      0.000000
     2   Atom        0.000000      0.000000      0.000000
 --------------------------------------------------------


 ---------------------------------------------------------------------------------
              Anisotropic Spin Dipole Couplings in Principal Axis System
 ---------------------------------------------------------------------------------

       Atom             a.u.   MegaHertz   Gauss  10(-4) cm-1        Axes

              Baa    -0.1316    13.963     4.982     4.657  1.0000  0.0000  0.0000
     1 Si(29) Bbb    -0.1316    13.963     4.982     4.657  0.0000  1.0000  0.0000
              Bcc     0.2632   -27.926    -9.965    -9.315  0.0000  0.0000  1.0000
 
              Baa    -0.1316    13.963     4.982     4.657  1.0000  0.0000  0.0000
     2 Si(29) Bbb    -0.1316    13.963     4.982     4.657  0.0000  1.0000  0.0000
              Bcc     0.2632   -27.926    -9.965    -9.315  0.0000  0.0000  1.0000
 

 ---------------------------------------------------------------------------------

 Calling FoFJK, ICntrl=    100127 FMM=F ISym2X=1 I1Cent= 0 IOpClX= 1 NMat=1 NMatS=1 NMatT=0.
 Full mass-weighted force constant matrix:
 Low frequencies ---   -0.0073   -0.0050   -0.0041    6.6757    6.6757  447.9017
 Diagonal vibrational polarizability:
        0.0000000       0.0000000       0.0000000
 Harmonic frequencies (cm**-1), IR intensities (KM/Mole), Raman scattering
 activities (A**4/AMU), depolarization ratios for plane and unpolarized
 incident light, reduced masses (AMU), force constants (mDyne/A),
 and normal coordinates:
                     1
                    SGG
 Frequencies --   447.9017
 Red. masses --    27.9769
 Frc consts  --     3.3069
 IR Inten    --     0.0000
  Atom  AN      X      Y      Z
     1  14     0.00   0.00   0.71
     2  14     0.00   0.00  -0.71

 -------------------
 - Thermochemistry -
 -------------------
 Temperature   298.150 Kelvin.  Pressure   1.00000 Atm.
 Atom     1 has atomic number 14 and mass  27.97693
 Atom     2 has atomic number 14 and mass  27.97693
 Molecular mass:    55.95386 amu.
 Principal axes and moments of inertia in atomic units:
                           1         2         3
     Eigenvalues --     0.00000 262.87060 262.87060
           X            0.00000   1.00000   0.00000
           Y            0.00000   0.00000   1.00000
           Z            1.00000   0.00000   0.00000
 This molecule is a prolate symmetric top.
 Rotational symmetry number  2.
 Rotational temperature (Kelvin)      0.32949
 Rotational constant (GHZ):           6.865512
 Zero-point vibrational energy       2679.0 (Joules/Mol)
                                    0.64031 (Kcal/Mol)
 Warning -- explicit consideration of   1 degrees of freedom as
           vibrations may cause significant error
 Vibrational temperatures:    644.43
          (Kelvin)
 
 Zero-point correction=                           0.001020 (Hartree/Particle)
 Thermal correction to Energy=                    0.003646
 Thermal correction to Enthalpy=                  0.004591
 Thermal correction to Gibbs Free Energy=        -0.021866
 Sum of electronic and zero-point Energies=           -578.572652
 Sum of electronic and thermal Energies=              -578.570026
 Sum of electronic and thermal Enthalpies=            -578.569082
 Sum of electronic and thermal Free Energies=         -578.595539
 
                     E (Thermal)             CV                S
                      KCal/Mol        Cal/Mol-Kelvin    Cal/Mol-Kelvin
 Total                    2.288              6.334             55.683
 Electronic               0.000              0.000              2.755
 Translational            0.889              2.981             37.987
 Rotational               0.592              1.987             14.138
 Vibrational              0.807              1.366              0.802
 Vibration     1          0.807              1.366              0.802
                       Q            Log10(Q)             Ln(Q)
 Total Bot       0.114185D+11         10.057607         23.158496
 Total V=0       0.336477D+11         10.526955         24.239211
 Vib (Bot)       0.383519D+00         -0.416213         -0.958365
 Vib (Bot)    1  0.383519D+00         -0.416213         -0.958365
 Vib (V=0)       0.113015D+01          0.053136          0.122349
 Vib (V=0)    1  0.113015D+01          0.053136          0.122349
 Electronic      0.400000D+01          0.602060          1.386294
 Translational   0.164513D+08          7.216200         16.615915
 Rotational      0.452439D+03          2.655560          6.114652
 ***** Axes restored to original set *****
 -------------------------------------------------------------------
 Center     Atomic                   Forces (Hartrees/Bohr)
 Number     Number              X              Y              Z
 -------------------------------------------------------------------
      1       14           0.000000000    0.000000000    0.000000327
      2       14           0.000000000    0.000000000   -0.000000327
 -------------------------------------------------------------------
 Cartesian Forces:  Max     0.000000327 RMS     0.000000189

 GradGradGradGradGradGradGradGradGradGradGradGradGradGradGradGradGradGrad
 Berny optimization.
 Internal  Forces:  Max     0.000000327 RMS     0.000000327
 Search for a local minimum.
 Step number   1 out of a maximum of    2
 All quantities printed in internal units (Hartrees-Bohrs-Radians)
 Second derivative matrix not updated -- analytic derivatives used.
 The second derivative matrix:
                          R1
           R1           0.10620
     Eigenvalues ---    0.10620
 Angle between quadratic step and forces=   0.00 degrees.
 Linear search not attempted -- first point.
 Iteration  1 RMS(Cart)=  0.00000218 RMS(Int)=  0.00000000
 Iteration  2 RMS(Cart)=  0.00000000 RMS(Int)=  0.00000000
 ClnCor:  largest displacement from symmetrization is 9.43D-23 for atom     1.
 Variable       Old X    -DE/DX   Delta X   Delta X   Delta X     New X
                                 (Linear)    (Quad)   (Total)
    R1        4.33497   0.00000   0.00000   0.00000   0.00000   4.33497
         Item               Value     Threshold  Converged?
 Maximum Force            0.000000     0.000450     YES
 RMS     Force            0.000000     0.000300     YES
 Maximum Displacement     0.000002     0.001800     YES
 RMS     Displacement     0.000002     0.001200     YES
 Predicted change in Energy=-5.035630D-13
 Optimization completed.
    -- Stationary point found.
                           ----------------------------
                           !   Optimized Parameters   !
                           ! (Angstroms and Degrees)  !
 --------------------------                            --------------------------
 ! Name  Definition              Value          Derivative Info.                !
 --------------------------------------------------------------------------------
 ! R1    R(1,2)                  2.294          -DE/DX =    0.0                 !
 --------------------------------------------------------------------------------
 GradGradGradGradGradGradGradGradGradGradGradGradGradGradGradGradGradGrad

 1\1\GINC-NODE190\Freq\UB3LYP\GTBas3\Si2(1+,4)\TAM\07-Jan-2012\0\\#N Ge
 om=AllCheck Guess=TCheck SCRF=Check B3LYP/GTBas3 Freq\\si2-c-q\\1,4\Si
 ,0.,0.,1.1469833888\Si,0.,0.,-1.1469833888\\Version=AM64L-G09RevA.02\S
 tate=4-SGG\HF=-578.5736727\S2=3.751182\S2-1=0.\S2A=3.75\RMSD=2.621e-10
 \RMSF=1.888e-07\ZeroPoint=0.0010204\Thermal=0.0036465\Dipole=0.,0.,0.\
 DipoleDeriv=0.5,0.,0.,0.,0.5,0.,0.,0.,0.5,0.5,0.,0.,0.,0.5,0.,0.,0.,0.
 5\Polar=33.5473858,0.,33.5473858,0.,0.,85.4369157\PG=D*H [C*(Si1.Si1)]
 \NImag=0\\0.00002359,0.,0.00002359,0.,0.,0.10620060,-0.00002359,0.,0.,
 0.00002359,0.,-0.00002359,0.,0.,0.00002359,0.,0.,-0.10620060,0.,0.,0.1
 0620060\\0.,0.,-0.00000033,0.,0.,0.00000033\\\@


 Any fool can criticize, condemn, and complain -- and most do.
 -- Dale Carnegie
 Job cpu time:  0 days  0 hours  1 minutes  8.9 seconds.
 File lengths (MBytes):  RWF=      9 Int=      0 D2E=      0 Chk=      4 Scr=      1
 Normal termination of Gaussian 09 at Sat Jan  7 10:07:12 2012.
 Link1:  Proceeding to internal job step number  3.
 -----------------------------------------------------------------
 #N Geom=AllCheck Guess=TCheck SCRF=Check CCSD(T,E4T,FrzG4)/GTBas1
 -----------------------------------------------------------------
 1/29=7,38=1,40=1/1;
 2/12=2,40=1/2;
 3/5=33,11=9,14=-4,16=1,25=1,30=1,70=2,116=-2/1,2,3;
 4/5=101/1;
 5/5=2,7=500,8=3,13=1/2,8;
 8/6=4,9=120000,10=6/1,4;
 9/5=7,14=4/13;
 6/7=2,8=2,9=2,10=2/1;
 99/5=1,9=1/99;
 -------
 si2-c-q
 -------
 Redundant internal coordinates taken from checkpoint file:
 S9L-ne-d-01.chk
 Charge =  1 Multiplicity = 4
 Si,0,0.,0.,1.1469833888
 Si,0,0.,0.,-1.1469833888
 Recover connectivity data from disk.
                          Input orientation:                          
 ---------------------------------------------------------------------
 Center     Atomic      Atomic             Coordinates (Angstroms)
 Number     Number       Type             X           Y           Z
 ---------------------------------------------------------------------
      1         14           0        0.000000    0.000000    1.146983
      2         14           0        0.000000    0.000000   -1.146983
 ---------------------------------------------------------------------
 Stoichiometry    Si2(1+,4)
 Framework group  D*H[C*(Si.Si)]
 Deg. of freedom     1
 Full point group                 D*H     NOp   8
 Largest Abelian subgroup         D2H     NOp   8
 Largest concise Abelian subgroup C2      NOp   2
                         Standard orientation:                         
 ---------------------------------------------------------------------
 Center     Atomic      Atomic             Coordinates (Angstroms)
 Number     Number       Type             X           Y           Z
 ---------------------------------------------------------------------
      1         14           0        0.000000    0.000000    1.146983
[...]
                 (DLTU) (DLTU) (SGG) (PHIG) (PHIG) (SGU) (PIG)
                 (PIG) (SGU) (PIU) (PIU) (DLTU) (DLTU) (SGG) (PIG)
                 (PIG) (SGU) (PIU) (PIU) (PIG) (PIG) (SGG) (SGU)
                 (SGG) (SGU) (SGG) (DLTG) (DLTG) (SGG) (DLTG) (SGG)
                 (DLTG) (SGG) (?A) (SGG) (?A) (SGG) (DLTG) (DLTG)
                 (DLTG) (DLTG) (?A) (?A) (PIG) (PHIG) (PIG) (?C)
                 (PHIG) (PIG) (PIG) (PHIG) (PIG) (PIG) (PHIG) (PIG)
                 (?C) (PHIG) (PIG) (PIG) (PHIG) (PIG) (DLTU) (DLTU)
                 (?B) (DLTU) (?B) (DLTU) (DLTU) (SGU) (SGU) (DLTU)
                 (?B) (SGU) (DLTU) (SGU) (SGU) (?B) (DLTU) (SGU)
                 (PIU) (PHIU) (PIU) (PIU) (PIU) (?D) (PIU) (PHIU)
                 (PHIU) (PIU) (PHIU) (PIU) (PIU) (PIU) (?D) (PIU)
                 (PHIU) (PHIU)
 Beta  Orbitals:
       Occupied  (SGU) (SGG) (SGG) (SGU) (PIU) (PIU) (PIG) (PIG)
                 (SGG) (SGU) (SGG) (SGU)
       Virtual   (SGG) (PIU) (PIU) (PIG) (PIG) (SGG) (SGU) (PIU)
                 (PIU) (SGG) (PIG) (PIG) (SGU) (SGU) (DLTG) (DLTG)
                 (SGG) (PIU) (PIU) (PIU) (PIU) (SGU) (SGG) (PIG)
                 (PIG) (DLTU) (DLTU) (SGU) (SGG) (PIG) (PIG) (SGU)
                 (PHIU) (PHIU) (DLTG) (DLTG) (PIU) (PIU) (SGG)
                 (DLTG) (DLTG) (PHIG) (PHIG) (DLTU) (DLTU) (PIG)
                 (PIG) (SGG) (SGU) (PIU) (PIU) (DLTU) (DLTU) (PIG)
                 (PIG) (PIU) (PIU) (SGU) (SGG) (SGU) (PIG) (PIG)
                 (SGG) (SGU) (DLTG) (DLTG) (PIU) (PIU) (SGG) (PHIU)
                 (PHIU) (?A) (?A) (DLTG) (DLTG) (DLTU) (DLTU) (PIU)
                 (PIU) (?B) (?B) (PHIU) (PHIU) (PHIG) (PHIG) (PIG)
                 (PIG) (DLTG) (DLTG) (DLTU) (DLTU) (SGG) (PHIG)
                 (PHIG) (SGU) (PIG) (PIG) (SGU) (PIU) (PIU) (DLTU)
                 (DLTU) (SGG) (PIG) (PIG) (SGU) (PIU) (PIU) (PIG)
                 (PIG) (SGG) (SGU) (SGG) (SGU) (SGG) (DLTG) (DLTG)
                 (SGG) (DLTG) (SGG) (DLTG) (SGG) (?A) (SGG) (?A)
                 (SGG) (DLTG) (DLTG) (DLTG) (DLTG) (?A) (?A) (PIG)
                 (PHIG) (PIG) (?C) (PHIG) (PIG) (PIG) (PHIG) (PIG)
                 (PIG) (PHIG) (PIG) (?C) (PHIG) (PIG) (PIG) (PHIG)
                 (PIG) (DLTU) (DLTU) (?B) (DLTU) (?B) (DLTU) (DLTU)
                 (SGU) (SGU) (DLTU) (?B) (SGU) (DLTU) (SGU) (SGU)
                 (?B) (DLTU) (SGU) (PIU) (PHIU) (PIU) (PIU) (PIU)
                 (?D) (PIU) (PHIU) (PHIU) (PIU) (PHIU) (PIU) (PIU)
                 (PIU) (?D) (PIU) (PHIU) (PHIU)
 Initial guess <Sx>= 0.0000 <Sy>= 0.0000 <Sz>= 1.5000 <S**2>= 3.7612 S= 1.5028
 Requested convergence on RMS density matrix=1.00D-08 within 128 cycles.
 Requested convergence on MAX density matrix=1.00D-06.
 Requested convergence on             energy=1.00D-06.
 No special actions if energy rises.
 Keep R1 and R2 ints in memory in canonical form, NReq=1316037435.
 SCF Done:  E(UHF) =  -577.522443323     A.U. after    9 cycles
             Convg  =    0.5391D-08             -V/T =  2.0001
 <Sx>= 0.0000 <Sy>= 0.0000 <Sz>= 1.5000 <S**2>= 3.7611 S= 1.5028
 <L.S>= 0.000000000000E+00
 Annihilation of the first spin contaminant:
 S**2 before annihilation     3.7611,   after     3.7500
 QCSCF skips out because SCF is already converged.

 **********************************************************************

            Population analysis using the SCF density.

 **********************************************************************

 Orbital symmetries:
 Alpha Orbitals:
       Occupied  (SGG) (SGU) (SGG) (SGU) (SGG) (SGU) (PIU) (PIU)
                 (PIG) (PIG) (SGG) (SGU) (SGG) (PIU) (PIU)
       Virtual   (PIG) (PIG) (SGG) (SGU) (PIU) (PIU) (SGG) (SGU)
                 (PIG) (PIG) (SGU) (DLTG) (DLTG) (SGG) (PIU) (PIU)
                 (PIU) (PIU) (SGU) (SGG) (PIG) (PIG) (DLTU) (DLTU)
                 (SGU) (SGG) (PIG) (PIG) (PHIU) (PHIU) (DLTG) (DLTG)
                 (SGU) (SGG) (PIU) (PIU) (PHIG) (PHIG) (DLTU) (DLTU)
                 (DLTG) (DLTG) (PIG) (PIG) (SGU) (SGG) (DLTU) (DLTU)
                 (PIU) (PIU) (PIG) (PIG) (PIU) (PIU) (SGG) (SGU)
                 (SGU) (PIG) (PIG) (SGG) (DLTG) (DLTG) (PHIU) (PHIU)
                 (?A) (?A) (PIU) (PIU) (PHIU) (PHIU) (?B) (?B)
                 (PHIG) (PHIG) (SGG) (SGU) (DLTG) (DLTG) (DLTU)
                 (DLTU) (PHIG) (PHIG) (SGU) (PIG) (PIG) (PIG) (PIG)
                 (SGG) (PIU) (PIU) (SGU) (DLTU) (DLTU) (DLTG) (DLTG)
                 (PIU) (PIU) (DLTU) (DLTU) (SGG) (SGU) (PIG) (PIG)
                 (PIU) (PIU) (PIG) (PIG) (PHIU) (PHIU) (PIU) (PIU)
                 (SGG) (DLTG) (DLTG) (?A) (?A) (SGG) (PHIU) (PHIU)
                 (DLTG) (DLTG) (?C) (?C) (PHIG) (PHIG) (?D) (?D)
                 (SGU) (DLTU) (DLTU) (?B) (?B) (PIG) (PIG) (PIU)
                 (PIU) (SGG) (PHIG) (PHIG) (?A) (?A) (PHIU) (PHIU)
                 (SGU) (?B) (?B) (SGG) (SGU) (PHIG) (PHIG) (DLTG)
                 (DLTG) (PIG) (PIG) (DLTU) (DLTU) (SGU) (DLTU)
                 (DLTU) (PIU) (PIU) (SGG) (PIG) (PIG) (SGU) (DLTG)
                 (DLTG) (DLTU) (DLTU) (PIU) (PIU) (SGU) (PIG) (PIG)
                 (SGG) (PIU) (PIU) (PIG) (PIG) (SGG) (SGU) (SGG)
                 (SGU)
 Beta  Orbitals:
       Occupied  (SGU) (SGG) (SGG) (SGU) (PIU) (PIU) (PIG) (PIG)
                 (SGG) (SGU) (SGG) (SGU)
       Virtual   (SGG) (PIU) (PIU) (PIG) (PIG) (SGG) (SGU) (PIU)
                 (PIU) (SGG) (PIG) (PIG) (SGU) (SGU) (SGG) (DLTG)
                 (DLTG) (PIU) (PIU) (SGG) (PIG) (PIG) (PIU) (PIU)
                 (SGU) (DLTU) (DLTU) (SGU) (SGG) (PIG) (PIG) (PHIU)
                 (PHIU) (SGU) (DLTG) (DLTG) (SGG) (PHIG) (PHIG)
                 (PIU) (PIU) (DLTU) (DLTU) (SGU) (PIG) (PIG) (DLTG)
                 (DLTG) (SGG) (DLTU) (DLTU) (PIU) (PIU) (PIG) (PIG)
                 (PIU) (PIU) (SGG) (SGU) (SGU) (PIG) (PIG) (SGG)
                 (PHIU) (PHIU) (DLTG) (DLTG) (?A) (?A) (PIU) (PIU)
                 (PHIU) (PHIU) (?B) (?B) (PHIG) (PHIG) (SGG) (SGU)
                 (DLTG) (DLTG) (DLTU) (DLTU) (PHIG) (PHIG) (SGU)
                 (PIG) (PIG) (PIG) (PIG) (SGG) (PIU) (PIU) (SGU)
                 (DLTU) (DLTU) (DLTG) (DLTG) (PIU) (PIU) (DLTU)
                 (DLTU) (SGG) (SGU) (PIG) (PIG) (PIU) (PIU) (PIG)
                 (PIG) (PHIU) (PHIU) (PIU) (PIU) (SGG) (DLTG) (DLTG)
                 (?A) (?A) (SGG) (PHIU) (PHIU) (DLTG) (DLTG) (?C)
                 (?C) (PHIG) (PHIG) (?D) (?D) (SGU) (DLTU) (DLTU)
                 (?B) (?B) (PIG) (PIG) (PIU) (PIU) (SGG) (PHIG)
                 (PHIG) (?A) (?A) (PHIU) (PHIU) (SGU) (?B) (?B)
                 (SGG) (SGU) (PHIG) (PHIG) (DLTG) (DLTG) (PIG)
                 (PIG) (DLTU) (DLTU) (SGU) (DLTU) (DLTU) (PIU)
                 (PIU) (SGG) (PIG) (PIG) (SGU) (DLTG) (DLTG) (DLTU)
                 (DLTU) (PIU) (PIU) (SGU) (PIG) (PIG) (SGG) (PIU)
                 (PIU) (PIG) (PIG) (SGG) (SGU) (SGG) (SGU)
 The electronic state is 4-SGG.
 Alpha  occ. eigenvalues --  -69.08084 -69.08084  -6.42270  -6.42242  -4.52828
 Alpha  occ. eigenvalues --   -4.52734  -4.52511  -4.52511  -4.52501  -4.52501
 Alpha  occ. eigenvalues --   -0.99294  -0.76216  -0.58419  -0.54687  -0.54687
 Alpha virt. eigenvalues --   -0.20778  -0.20778  -0.09663  -0.09190  -0.06855
 Alpha virt. eigenvalues --   -0.06855  -0.05564  -0.04397  -0.03804  -0.03804
 Alpha virt. eigenvalues --   -0.00043   0.01650   0.01650   0.03489   0.03898
 Alpha virt. eigenvalues --    0.03898   0.09448   0.09448   0.09761   0.10134
 Alpha virt. eigenvalues --    0.11167   0.11167   0.14109   0.14109   0.19362
 Alpha virt. eigenvalues --    0.24290   0.27744   0.27744   0.35484   0.35484
 Alpha virt. eigenvalues --    0.39481   0.39481   0.39558   0.40123   0.44356
 Alpha virt. eigenvalues --    0.44356   0.46995   0.46995   0.59154   0.59154
 Alpha virt. eigenvalues --    0.59785   0.59785   0.60181   0.60181   0.60359
 Alpha virt. eigenvalues --    0.66909   0.68342   0.68342   0.68827   0.68827
 Alpha virt. eigenvalues --    0.69757   0.69757   0.72213   0.72213   0.79879
 Alpha virt. eigenvalues --    0.82710   0.83901   0.96663   0.96663   1.07386
 Alpha virt. eigenvalues --    1.17903   1.17903   1.18135   1.18135   1.24020
 Alpha virt. eigenvalues --    1.24020   1.26111   1.26111   1.30583   1.30583
 Alpha virt. eigenvalues --    1.33753   1.33753   1.36433   1.36433   1.37786
 Alpha virt. eigenvalues --    1.39231   1.45373   1.45373   1.46996   1.46996
 Alpha virt. eigenvalues --    1.52766   1.52766   1.58651   1.60382   1.60382
 Alpha virt. eigenvalues --    1.67335   1.67335   1.73808   1.76854   1.76854
 Alpha virt. eigenvalues --    1.79304   1.81686   1.81686   2.08711   2.08711
 Alpha virt. eigenvalues --    2.11943   2.11943   2.17820   2.17820   2.37843
 Alpha virt. eigenvalues --    2.67859   2.73601   2.73601   2.88324   2.88324
 Alpha virt. eigenvalues --    2.92383   2.92383   3.02267   3.02267   3.04708
 Alpha virt. eigenvalues --    3.04708   3.06273   3.08461   3.08461   3.12456
 Alpha virt. eigenvalues --    3.12456   3.16073   3.17964   3.17964   3.20067
 Alpha virt. eigenvalues --    3.20067   3.20699   3.20699   3.21538   3.21538
 Alpha virt. eigenvalues --    3.23273   3.23273   3.26650   3.27714   3.27714
 Alpha virt. eigenvalues --    3.32866   3.32866   3.37912   3.37912   3.49226
 Alpha virt. eigenvalues --    3.49226   3.59179   3.60205   3.60205   3.69656
 Alpha virt. eigenvalues --    3.69656   3.70308   3.70308   3.70748   3.74099
 Alpha virt. eigenvalues --    3.74099   3.75942   3.83207   3.87276   3.87276
 Alpha virt. eigenvalues --    3.88614   3.88614   3.89843   3.89843   3.95684
 Alpha virt. eigenvalues --    3.95684   4.17646   4.24907   4.24907   4.32328
 Alpha virt. eigenvalues --    4.32328   4.40440   4.59095   4.59095   5.12403
 Alpha virt. eigenvalues --    5.88122   5.88122   5.97191   5.97191   5.97982
 Alpha virt. eigenvalues --    5.97982   6.59939   6.65959   6.65959   6.91614
 Alpha virt. eigenvalues --   12.69335  12.69335  12.99400  12.99400  13.19245
 Alpha virt. eigenvalues --   14.48661  36.40022  37.52880
  Beta  occ. eigenvalues --  -69.07274 -69.07274  -6.41409  -6.41402  -4.50979
  Beta  occ. eigenvalues --   -4.50979  -4.50972  -4.50972  -4.50725  -4.50649
  Beta  occ. eigenvalues --   -0.81442  -0.63205
  Beta virt. eigenvalues --   -0.23069  -0.21492  -0.21492  -0.12461  -0.12461
  Beta virt. eigenvalues --   -0.08041  -0.07562  -0.05909  -0.05909  -0.04717
  Beta virt. eigenvalues --   -0.03190  -0.03190  -0.00671   0.00958   0.06721
  Beta virt. eigenvalues --    0.07928   0.07928   0.09166   0.09166   0.12225
  Beta virt. eigenvalues --    0.12907   0.12907   0.12943   0.12943   0.13136
  Beta virt. eigenvalues --    0.17195   0.17195   0.20870   0.27814   0.30497
  Beta virt. eigenvalues --    0.30497   0.37723   0.37723   0.42253   0.42346
  Beta virt. eigenvalues --    0.42346   0.43713   0.48316   0.48316   0.48575
  Beta virt. eigenvalues --    0.48575   0.61251   0.61251   0.61828   0.62011
  Beta virt. eigenvalues --    0.62011   0.63355   0.63355   0.70167   0.70557
  Beta virt. eigenvalues --    0.70557   0.71467   0.71467   0.73358   0.73358
  Beta virt. eigenvalues --    0.75343   0.75343   0.82559   0.85706   0.87262
  Beta virt. eigenvalues --    0.98374   0.98374   1.11013   1.21174   1.21174
  Beta virt. eigenvalues --    1.22266   1.22266   1.25946   1.25946   1.30246
  Beta virt. eigenvalues --    1.30246   1.32881   1.32881   1.35330   1.35330
  Beta virt. eigenvalues --    1.38780   1.38780   1.40904   1.41006   1.47406
  Beta virt. eigenvalues --    1.47406   1.49642   1.49642   1.54465   1.54465
  Beta virt. eigenvalues --    1.61128   1.62957   1.62957   1.68920   1.68920
  Beta virt. eigenvalues --    1.75518   1.78838   1.78838   1.81087   1.83239
  Beta virt. eigenvalues --    1.83239   2.09959   2.09959   2.13590   2.13590
  Beta virt. eigenvalues --    2.19223   2.19223   2.40205   2.69616   2.75328
  Beta virt. eigenvalues --    2.75328   2.90150   2.90150   2.94118   2.94118
  Beta virt. eigenvalues --    3.04512   3.04512   3.07433   3.07433   3.08957
  Beta virt. eigenvalues --    3.11130   3.11130   3.14398   3.14398   3.18370
  Beta virt. eigenvalues --    3.19408   3.19408   3.21824   3.21824   3.22172
  Beta virt. eigenvalues --    3.22172   3.22904   3.22904   3.24702   3.24702
  Beta virt. eigenvalues --    3.28528   3.29439   3.29439   3.34579   3.34579
  Beta virt. eigenvalues --    3.39700   3.39700   3.51269   3.51269   3.61035
  Beta virt. eigenvalues --    3.62122   3.62122   3.71146   3.71146   3.72138
  Beta virt. eigenvalues --    3.72138   3.72809   3.75522   3.75522   3.77865
  Beta virt. eigenvalues --    3.84627   3.88823   3.88823   3.90409   3.90409
  Beta virt. eigenvalues --    3.91402   3.91402   3.97595   3.97595   4.19215
  Beta virt. eigenvalues --    4.26400   4.26400   4.33839   4.33839   4.41392
  Beta virt. eigenvalues --    4.60910   4.60910   5.14026   5.88856   5.88856
  Beta virt. eigenvalues --    5.97935   5.97935   5.98986   5.98986   6.60816
  Beta virt. eigenvalues --    6.66836   6.66836   6.92693  12.70421  12.70421
  Beta virt. eigenvalues --   13.00482  13.00482  13.20694  14.50012  36.40683
  Beta virt. eigenvalues --   37.53539
          Condensed to atoms (all electrons):
              1          2
     1  Si  13.016966   0.483034
     2  Si   0.483034  13.016966
 Mulliken atomic charges:
              1
     1  Si   0.500000
     2  Si   0.500000
 Sum of Mulliken atomic charges =   1.00000
 Mulliken charges with hydrogens summed into heavy atoms:
              1
     1  Si   0.500000
     2  Si   0.500000
 Sum of Mulliken charges with hydrogens summed into heavy atoms =   1.00000
          Atomic-Atomic Spin Densities.
              1          2
     1  Si   1.142923   0.357077
     2  Si   0.357077   1.142923
 Mulliken atomic spin densities:
              1
     1  Si   1.500000
     2  Si   1.500000
 Sum of Mulliken atomic spin densities =   3.00000
 Electronic spatial extent (au):  <R**2>=            173.0122
 Charge=              1.0000 electrons
 Dipole moment (field-independent basis, Debye):
    X=              0.0000    Y=              0.0000    Z=              0.0000  Tot=              0.0000
 Quadrupole moment (field-independent basis, Debye-Ang):
   XX=            -21.8230   YY=            -21.8230   ZZ=            -12.1305
   XY=              0.0000   XZ=              0.0000   YZ=              0.0000
 Traceless Quadrupole moment (field-independent basis, Debye-Ang):
   XX=             -3.2308   YY=             -3.2308   ZZ=              6.4616
   XY=              0.0000   XZ=              0.0000   YZ=              0.0000
 Octapole moment (field-independent basis, Debye-Ang**2):
  XXX=              0.0000  YYY=              0.0000  ZZZ=              0.0000  XYY=              0.0000
  XXY=              0.0000  XXZ=              0.0000  XZZ=              0.0000  YZZ=              0.0000
  YYZ=              0.0000  XYZ=              0.0000
 Hexadecapole moment (field-independent basis, Debye-Ang**3):
 XXXX=            -35.7466 YYYY=            -35.7466 ZZZZ=           -187.3174 XXXY=              0.0000
 XXXZ=              0.0000 YYYX=              0.0000 YYYZ=              0.0000 ZZZX=              0.0000
 ZZZY=              0.0000 XXYY=            -11.9155 XXZZ=            -36.8025 YYZZ=            -36.8025
 XXYZ=              0.0000 YYXZ=              0.0000 ZZXY=              0.0000
 N-N= 4.521370313674D+01 E-N=-2.177222475314D+03  KE= 8.646233560696D+02
 Symmetry AG   KE= 3.585979584536D+02
 Symmetry B1G  KE= 4.574105072569D-34
 Symmetry B2G  KE= 3.657409460077D+01
 Symmetry B3G  KE= 3.657409460077D+01
 Symmetry AU   KE= 2.014865984961D-32
 Symmetry B1U  KE= 3.579362686262D+02
 Symmetry B2U  KE= 3.747046989412D+01
 Symmetry B3U  KE= 3.747046989412D+01
                          Isotropic Fermi Contact Couplings
        Atom                 a.u.       MegaHertz       Gauss      10(-4) cm-1
     1  Si(29)            -0.19400      57.47034      20.50685      19.17004
     2  Si(29)            -0.19400      57.47034      20.50685      19.17004
 --------------------------------------------------------
       Center         ----  Spin Dipole Couplings  ----
                      3XX-RR        3YY-RR        3ZZ-RR
 --------------------------------------------------------
     1   Atom       -0.231747     -0.231747      0.463494
     2   Atom       -0.231747     -0.231747      0.463494
 --------------------------------------------------------
                        XY            XZ            YZ
 --------------------------------------------------------
     1   Atom        0.000000      0.000000      0.000000
     2   Atom        0.000000      0.000000      0.000000
 --------------------------------------------------------


 ---------------------------------------------------------------------------------
              Anisotropic Spin Dipole Couplings in Principal Axis System
 ---------------------------------------------------------------------------------

       Atom             a.u.   MegaHertz   Gauss  10(-4) cm-1        Axes

              Baa    -0.2317    24.585     8.772     8.201  0.0000  1.0000  0.0000
     1 Si(29) Bbb    -0.2317    24.585     8.772     8.201  1.0000  0.0000  0.0000
              Bcc     0.4635   -49.169   -17.545   -16.401  0.0000  0.0000  1.0000
 
              Baa    -0.2317    24.585     8.772     8.201  0.0000  1.0000  0.0000
     2 Si(29) Bbb    -0.2317    24.585     8.772     8.201  1.0000  0.0000  0.0000
              Bcc     0.4635   -49.169   -17.545   -16.401  0.0000  0.0000  1.0000
 

 ---------------------------------------------------------------------------------

 1\1\GINC-NODE190\SP\UHF\GFHFB2\Si2(1+,4)\TAM\07-Jan-2012\0\\#N Geom=Al
 lCheck Guess=TCheck SCRF=Check HF/GFHFB2 SCF=Tight\\si2-c-q\\1,4\Si,0,
 0.,0.,1.1469833888\Si,0,0.,0.,-1.1469833888\\Version=AM64L-G09RevA.02\
 State=4-SGG\HF=-577.5224433\S2=3.761129\S2-1=0.\S2A=3.750015\RMSD=5.39
 1e-09\Dipole=0.,0.,0.\Quadrupole=-2.4020362,-2.4020362,4.8040724,0.,0.
 ,0.\PG=D*H [C*(Si1.Si1)]\\@


 ALL OUR THINKING ABOUT NATURE MUST NECESSARILY MOVE IN CIRCLES OR SPIRALS;
 FOR WE CAN ONLY UNDERSTAND NATURE IF WE THINK ABOUT HER, AND WE CAN ONLY
 THINK BECAUSE OUR BRAIN IS BUILT IN ACCORDANCE WITH NATURE'S LAWS.

                                             -- TIMOTHY FERRIS, "GALAXIES"
 Diagonal vibrational polarizability:
        0.0000000       0.0000000       0.0000000

 Temperature=              298.150000 Pressure=                      1.000000
 E(ZPE)=                     0.001005 E(Thermal)=                    0.003637
 E(CCSD(T))=              -577.604630 E(Empiric)=                   -0.021579
 DE(Plus)=                  -0.002082 DE(2DF)=                      -0.036618
 E(Delta-G3XP)=             -0.624540 DE(HF)=                       -0.014213
 G4(0 K)=                 -578.302657 G4 Energy=                  -578.300025
 G4 Enthalpy=             -578.299081 G4 Free Energy=             -578.325547
 1\1\GINC-NODE190\Mixed\G4\G4\Si2(1+,4)\TAM\07-Jan-2012\0\\# G4 scfcyc=
 500 scf=xqc\\si2-c-q\\1,4\Si,0,0.,0.,1.1469833888\Si,0,0.,0.,-1.146983
 3888\\Version=AM64L-G09RevA.02\State=4-SGG\MP2/GTBas1=-577.5681116\MP4
 /GTBas1=-577.6028329\CCSD(T)/G3Bas1=-577.60463\MP2/GTBas2=-577.5701183
 \MP4/GTBas2=-577.6049149\MP2/GTBas3=-577.6022835\MP4/GTBas3=-577.63945
 12\HF/GTLargeXP=-577.5085488\MP2/GTLargeXP=-578.2288304\HF/GFHFB1=-577
 .521136\HF/GFHFB2=-577.5224433\G4=-578.302657\FreqCoord=0.,0.,2.167484
 4837,0.,0.,-2.1674844837\PG=D*H [C*(Si1.Si1)]\NImag=0\\0.00002359,0.,0
 .00002359,0.,0.,0.10620060,-0.00002359,0.,0.,0.00002359,0.,-0.00002359
 ,0.,0.,0.00002359,0.,0.,-0.10620060,0.,0.,0.10620060\\0.,0.,-0.0000003
 3,0.,0.,0.00000033\\\@
 Job cpu time:  0 days  0 hours 11 minutes 13.9 seconds.
 File lengths (MBytes):  RWF=     31 Int=      0 D2E=      0 Chk=      4 Scr=      1
 Normal termination of Gaussian 09 at Sat Jan  7 10:09:43 2012.
