 Entering Gaussian System, Link 0=g09
 Initial command:
 /usr/local/chem/g09A2/l1.exe /temp0/tam/Gau-19460.inp -scrdir=/temp0/tam/
 Entering Link 1 = /usr/local/chem/g09A2/l1.exe PID=     19461.
  
 Copyright (c) 1988,1990,1992,1993,1995,1998,2003,2009, Gaussian, Inc.
                  All Rights Reserved.
  
 This is part of the Gaussian(R) 09 program.  It is based on
 the Gaussian(R) 03 system (copyright 2003, Gaussian, Inc.),
 the Gaussian(R) 98 system (copyright 1998, Gaussian, Inc.),
 the Gaussian(R) 94 system (copyright 1995, Gaussian, Inc.),
 the Gaussian 92(TM) system (copyright 1992, Gaussian, Inc.),
 the Gaussian 90(TM) system (copyright 1990, Gaussian, Inc.),
 the Gaussian 88(TM) system (copyright 1988, Gaussian, Inc.),
 the Gaussian 86(TM) system (copyright 1986, Carnegie Mellon
 University), and the Gaussian 82(TM) system (copyright 1983,
 Carnegie Mellon University). Gaussian is a federally registered
 trademark of Gaussian, Inc.
  
 This software contains proprietary and confidential information,
 including trade secrets, belonging to Gaussian, Inc.
  
 This software is provided under written license and may be
 used, copied, transmitted, or stored only in accord with that
 written license.
  
 The following legend is applicable only to US Government
 contracts under FAR:
  
                    RESTRICTED RIGHTS LEGEND
  
 Use, reproduction and disclosure by the US Government is
 subject to restrictions as set forth in subparagraphs (a)
 and (c) of the Commercial Computer Software - Restricted
 Rights clause in FAR 52.227-19.
  
 Gaussian, Inc.
 340 Quinnipiac St., Bldg. 40, Wallingford CT 06492
  
  
 ---------------------------------------------------------------
 Warning -- This program may not be used in any manner that
 competes with the business of Gaussian, Inc. or will provide
 assistance to any competitor of Gaussian, Inc.  The licensee
 of this program is prohibited from giving any competitor of
 Gaussian, Inc. access to this program.  By using this program,
 the user acknowledges that Gaussian, Inc. is engaged in the
 business of creating and licensing software in the field of
 computational chemistry and represents and warrants to the
 licensee that it is not a competitor of Gaussian, Inc. and that
 it will not use this program in any manner prohibited above.
 ---------------------------------------------------------------
  

 Cite this work as:
 Gaussian 09, Revision A.02,
 M. J. Frisch, G. W. Trucks, H. B. Schlegel, G. E. Scuseria, 
 M. A. Robb, J. R. Cheeseman, G. Scalmani, V. Barone, B. Mennucci, 
 G. A. Petersson, H. Nakatsuji, M. Caricato, X. Li, H. P. Hratchian, 
 A. F. Izmaylov, J. Bloino, G. Zheng, J. L. Sonnenberg, M. Hada, 
 M. Ehara, K. Toyota, R. Fukuda, J. Hasegawa, M. Ishida, T. Nakajima, 
 Y. Honda, O. Kitao, H. Nakai, T. Vreven, J. A. Montgomery, Jr., 
 J. E. Peralta, F. Ogliaro, M. Bearpark, J. J. Heyd, E. Brothers, 
 K. N. Kudin, V. N. Staroverov, R. Kobayashi, J. Normand, 
 K. Raghavachari, A. Rendell, J. C. Burant, S. S. Iyengar, J. Tomasi, 
 M. Cossi, N. Rega, J. M. Millam, M. Klene, J. E. Knox, J. B. Cross, 
 V. Bakken, C. Adamo, J. Jaramillo, R. Gomperts, R. E. Stratmann, 
 O. Yazyev, A. J. Austin, R. Cammi, C. Pomelli, J. W. Ochterski, 
 R. L. Martin, K. Morokuma, V. G. Zakrzewski, G. A. Voth, 
 P. Salvador, J. J. Dannenberg, S. Dapprich, A. D. Daniels, 
 O. Farkas, J. B. Foresman, J. V. Ortiz, J. Cioslowski, 
 and D. J. Fox, Gaussian, Inc., Wallingford CT, 2009.
 
 ******************************************
 Gaussian 09:  AM64L-G09RevA.02 11-Jun-2009
                21-Dec-2011 
 ******************************************
 %NprocShared=6
 Will use up to    6 processors via shared memory.
 %mem=18050MB
 %chk=S9L-ne-d-01
 -----------------------
 # G4 scfcyc=500 scf=xqc
 -----------------------
 1/14=-1,18=20,19=15,26=3,38=1/1,3;
 2/9=110,12=2,17=6,18=5,40=1/2;
 3/5=35,7=104,11=2,16=1,25=1,30=1,71=1,74=-5/1,2,3;
 4//1;
 5/5=2,7=500,8=3,13=1,38=5/2,8;
 6/7=2,8=2,9=2,10=2,28=1/1;
 7//1,2,3,16;
 1/14=-1,18=20,19=15/3(2);
 2/9=110/2;
 99//99;
 2/9=110/2;
 3/5=35,7=104,11=2,16=1,25=1,30=1,71=1,74=-5/1,2,3;
 4/5=5,16=3/1;
 5/5=2,7=500,8=3,13=1,38=5/2,8;
 7//1,2,3,16;
 1/14=-1,18=20,19=15/3(-5);
 2/9=110/2;
 6/7=2,8=2,9=2,10=2,19=2,28=1/1;
 99/9=1/99;
 -----
 si5-c
 -----
 Symbolic Z-matrix:
 Charge =  1 Multiplicity = 2
 Si                    0.        1.60718  -0.83317 
 Si                    0.       -1.60718  -0.83317 
 Si                    0.        0.        1.64712 
 Si                    1.56652   0.        0.00961 
 Si                   -1.56652   0.        0.00961 
 

 GradGradGradGradGradGradGradGradGradGradGradGradGradGradGradGradGradGrad
 Berny optimization.
 Initialization pass.
                           ----------------------------
                           !    Initial Parameters    !
                           ! (Angstroms and Degrees)  !
 --------------------------                            --------------------------
 ! Name  Definition              Value          Derivative Info.                !
 --------------------------------------------------------------------------------
 ! R1    R(1,4)                  2.3973         estimate D2E/DX2                !
 ! R2    R(1,5)                  2.3973         estimate D2E/DX2                !
 ! R3    R(2,4)                  2.3973         estimate D2E/DX2                !
 ! R4    R(2,5)                  2.3973         estimate D2E/DX2                !
 ! R5    R(3,4)                  2.2661         estimate D2E/DX2                !
 ! R6    R(3,5)                  2.2661         estimate D2E/DX2                !
 ! A1    A(4,1,5)               81.6027         estimate D2E/DX2                !
 ! A2    A(4,2,5)               81.6027         estimate D2E/DX2                !
 ! A3    A(4,3,5)               87.4615         estimate D2E/DX2                !
 ! A4    A(1,4,2)               84.1955         estimate D2E/DX2                !
 ! A5    A(1,4,3)               78.5989         estimate D2E/DX2                !
 ! A6    A(2,4,3)               78.5989         estimate D2E/DX2                !
 ! A7    A(1,5,2)               84.1955         estimate D2E/DX2                !
 ! A8    A(1,5,3)               78.5989         estimate D2E/DX2                !
 ! A9    A(2,5,3)               78.5989         estimate D2E/DX2                !
 ! D1    D(5,1,4,2)             38.7472         estimate D2E/DX2                !
 ! D2    D(5,1,4,3)            -40.7552         estimate D2E/DX2                !
 ! D3    D(4,1,5,2)            -38.7472         estimate D2E/DX2                !
 ! D4    D(4,1,5,3)             40.7552         estimate D2E/DX2                !
 ! D5    D(5,2,4,1)            -38.7472         estimate D2E/DX2                !
 ! D6    D(5,2,4,3)             40.7552         estimate D2E/DX2                !
 ! D7    D(4,2,5,1)             38.7472         estimate D2E/DX2                !
 ! D8    D(4,2,5,3)            -40.7552         estimate D2E/DX2                !
 ! D9    D(5,3,4,1)             43.1486         estimate D2E/DX2                !
 ! D10   D(5,3,4,2)            -43.1486         estimate D2E/DX2                !
 ! D11   D(4,3,5,1)            -43.1486         estimate D2E/DX2                !
 ! D12   D(4,3,5,2)             43.1486         estimate D2E/DX2                !
 --------------------------------------------------------------------------------
 Trust Radius=3.00D-01 FncErr=1.00D-07 GrdErr=1.00D-06
 Number of steps in this run=  37 maximum allowed number of steps= 100.
 GradGradGradGradGradGradGradGradGradGradGradGradGradGradGradGradGradGrad

                          Input orientation:                          
 ---------------------------------------------------------------------
 Center     Atomic      Atomic             Coordinates (Angstroms)
 Number     Number       Type             X           Y           Z
 ---------------------------------------------------------------------
      1         14           0        0.000000    1.607175   -0.833170
      2         14           0        0.000000   -1.607175   -0.833170
      3         14           0        0.000000    0.000000    1.647118
      4         14           0        1.566518    0.000000    0.009611
      5         14           0       -1.566518    0.000000    0.009611
 ---------------------------------------------------------------------
                    Distance matrix (angstroms):
                    1          2          3          4          5
     1  Si   0.000000
     2  Si   3.214350   0.000000
     3  Si   2.955476   2.955476   0.000000
     4  Si   2.397346   2.397346   2.266144   0.000000
     5  Si   2.397346   2.397346   2.266144   3.133036   0.000000
 Stoichiometry    Si5(1+,2)
 Framework group  C2V[C2(Si),SGV(Si2),SGV'(Si2)]
 Deg. of freedom     4
 Full point group                 C2V     NOp   4
 Largest Abelian subgroup         C2V     NOp   4
 Largest concise Abelian subgroup C2V     NOp   4
                         Standard orientation:                         
 ---------------------------------------------------------------------
 Center     Atomic      Atomic             Coordinates (Angstroms)
 Number     Number       Type             X           Y           Z
 ---------------------------------------------------------------------
      1         14           0        0.000000    1.607175   -0.833170
      2         14           0        0.000000   -1.607175   -0.833170
      3         14           0        0.000000    0.000000    1.647118
      4         14           0        1.566518    0.000000    0.009611
      5         14           0       -1.566518    0.000000    0.009611
 ---------------------------------------------------------------------
 Rotational constants (GHZ):      2.0050132      1.9491813      1.7931477
 Standard basis: GTBas3 (6D, 7F)
 There are    59 symmetry adapted basis functions of A1  symmetry.
 There are    23 symmetry adapted basis functions of A2  symmetry.
 There are    39 symmetry adapted basis functions of B1  symmetry.
 There are    39 symmetry adapted basis functions of B2  symmetry.
 Integral buffers will be    131072 words long.
 Raffenetti 2 integral format.
 Two-electron integral symmetry is turned on.
   160 basis functions,   340 primitive gaussians,   175 cartesian basis functions
    35 alpha electrons       34 beta electrons
       nuclear repulsion energy       400.1532989055 Hartrees.
 NAtoms=    5 NActive=    5 NUniq=    3 SFac= 2.08D+00 NAtFMM=   80 NAOKFM=F Big=F
 One-electron integrals computed using PRISM.
 NBasis=   160 RedAO= T  NBF=    59    23    39    39
 NBsUse=   160 1.00D-06 NBFU=    59    23    39    39
 Harris functional with IExCor=  402 diagonalized for initial guess.
 ExpMin= 7.78D-02 ExpMax= 1.61D+04 ExpMxC= 2.43D+03 IAcc=2 IRadAn=         0 AccDes= 0.00D+00
 HarFok:  IExCor=  402 AccDes= 0.00D+00 IRadAn=         0 IDoV= 1
 ScaDFX=  1.000000  1.000000  1.000000  1.000000
 FoFCou: FMM=F IPFlag=           0 FMFlag=      100000 FMFlg1=           0
         NFxFlg=           0 DoJE=T BraDBF=F KetDBF=T FulRan=T
         Omega=  0.000000  0.000000  1.000000  0.000000  0.000000 ICntrl=     500 IOpCl=  0
         NMat0=    1 NMatS0=    1 NMatT0=    0 NMatD0=    1 NMtDS0=    0 NMtDT0=    0
         I1Cent=           4 NGrid=           0.
 Petite list used in FoFCou.
 Initial guess orbital symmetries:
 Alpha Orbitals:
       Occupied  (A1) (B1) (A1) (B2) (A1) (A1) (B1) (A1) (B2) (A1)
                 (A1) (B1) (A1) (B2) (A2) (B1) (A1) (B1) (B2) (B2)
                 (A1) (B1) (A2) (B2) (A1) (A1) (B1) (B2) (A1) (A1)
                 (A1) (B1) (A2) (B2) (A1)
       Virtual   (B1) (B2) (A1) (B2) (B1) (B2) (A1) (A2) (B1) (A1)
                 (A1) (B1) (A2) (B2) (A1) (A1) (A2) (B1) (B2) (A1)
                 (B1) (A1) (B2) (A1) (B2) (A1) (B1) (B2) (A2) (B2)
                 (A1) (B1) (A2) (A1) (B1) (B2) (A1) (A2) (B1) (B2)
                 (A1) (B1) (A2) (A1) (B2) (B1) (A1) (B2) (A1) (B1)
                 (A1) (B2) (A1) (A2) (B1) (A1) (B1) (B2) (A1) (A1)
                 (B2) (A2) (A2) (B1) (B1) (B2) (A2) (A1) (A1) (B2)
                 (A1) (B1) (A2) (B2) (A1) (B1) (A1) (B2) (B1) (B2)
                 (A1) (A2) (B1) (A1) (B1) (B2) (A2) (B2) (A1) (B2)
                 (A1) (B1) (A2) (A1) (B1) (A1) (B1) (A2) (B2) (B1)
                 (A2) (A1) (B2) (A1) (A2) (A1) (B2) (B1) (A1) (B1)
                 (B2) (A2) (B1) (B2) (A1) (A1) (B2) (A2) (B1) (A1)
                 (A1) (B2) (A1) (B1) (A1)
 Beta  Orbitals:
       Occupied  (A1) (B1) (A1) (B2) (A1) (A1) (B1) (A1) (B2) (A1)
                 (A1) (B1) (A1) (B2) (A2) (B1) (A1) (B1) (B2) (B2)
                 (A1) (B1) (A2) (B2) (A1) (A1) (B1) (B2) (A1) (A1)
                 (A1) (B1) (A2) (B2)
       Virtual   (A1) (B1) (B2) (A1) (B2) (B1) (B2) (A1) (A2) (B1)
                 (A1) (A1) (B1) (A2) (B2) (A1) (A1) (A2) (B1) (B2)
                 (A1) (B1) (A1) (B2) (A1) (B2) (A1) (B1) (B2) (A2)
                 (B2) (A1) (B1) (A2) (A1) (B1) (B2) (A1) (A2) (B1)
                 (B2) (A1) (B1) (A2) (A1) (B2) (B1) (A1) (B2) (A1)
                 (B1) (A1) (B2) (A1) (A2) (B1) (A1) (B1) (B2) (A1)
                 (A1) (B2) (A2) (A2) (B1) (B1) (B2) (A2) (A1) (A1)
                 (B2) (A1) (B1) (A2) (B2) (A1) (B1) (A1) (B2) (B1)
                 (B2) (A1) (A2) (B1) (A1) (B1) (B2) (A2) (B2) (A1)
                 (B2) (A1) (B1) (A2) (A1) (B1) (A1) (B1) (A2) (B2)
                 (B1) (A2) (A1) (B2) (A1) (A2) (A1) (B2) (B1) (A1)
                 (B1) (B2) (A2) (B1) (B2) (A1) (A1) (B2) (A2) (B1)
                 (A1) (A1) (B2) (A1) (B1) (A1)
 The electronic state of the initial guess is 2-A1.
 Initial guess <Sx>= 0.0000 <Sy>= 0.0000 <Sz>= 0.5000 <S**2>= 0.7500 S= 0.5000
 Requested convergence on RMS density matrix=1.00D-08 within 128 cycles.
 Requested convergence on MAX density matrix=1.00D-06.
 Requested convergence on             energy=1.00D-06.
 No special actions if energy rises.
 Keep R1 and R2 ints in memory in canonical form, NReq=240053621.
 Integral accuracy reduced to 1.0D-05 until final iterations.
 Initial convergence to 1.0D-05 achieved.  Increase integral accuracy.
 SCF Done:  E(UB3LYP) =  -1447.11823222     A.U. after   19 cycles
             Convg  =    0.7346D-08             -V/T =  2.0034
 <Sx>= 0.0000 <Sy>= 0.0000 <Sz>= 0.5000 <S**2>= 0.7655 S= 0.5077
 <L.S>= 0.000000000000E+00
 Annihilation of the first spin contaminant:
 S**2 before annihilation     0.7655,   after     0.7501
 QCSCF skips out because SCF is already converged.

 **********************************************************************

            Population analysis using the SCF density.

 **********************************************************************

 Orbital symmetries:
 Alpha Orbitals:
       Occupied  (B2) (A1) (A1) (A1) (B1) (A1) (B2) (A1) (A1) (B1)
                 (B2) (A1) (B2) (A1) (B1) (A2) (A1) (B2) (B1) (A1)
                 (B1) (A1) (B1) (B2) (A2) (A1) (B1) (B2) (A1) (A1)
                 (A1) (B1) (A2) (A1) (B2)
       Virtual   (B1) (B2) (A1) (B2) (B1) (B2) (A1) (A2) (B1) (A1)
                 (A1) (A2) (A1) (B1) (B2) (A1) (A2) (B1) (B2) (A1)
                 (B1) (A1) (A1) (B2) (B2) (A1) (B1) (B2) (A2) (B2)
                 (B1) (A1) (A2) (A1) (B1) (B2) (A1) (A2) (B1) (B2)
                 (B1) (A1) (B2) (A1) (A2) (B1) (A1) (B2) (A1) (B1)
                 (A1) (B2) (A1) (A2) (A1) (B1) (B1) (A1) (B2) (A1)
                 (B2) (A2) (A2) (B1) (B1) (B2) (A2) (A1) (A1) (A1)
                 (B2) (B1) (A2) (B2) (A1) (B1) (A1) (B2) (B1) (B2)
                 (A1) (B1) (A2) (A1) (B2) (B1) (B2) (A1) (A2) (B2)
                 (A1) (B1) (A2) (B1) (A1) (A1) (B1) (A2) (B2) (B1)
                 (A2) (A1) (B2) (A1) (A2) (B2) (B1) (A1) (A1) (B1)
                 (B2) (A2) (B2) (A1) (B1) (A1) (B2) (A2) (A1) (B1)
                 (A1) (B2) (A1) (B1) (A1)
 Beta  Orbitals:
       Occupied  (B2) (A1) (A1) (A1) (B1) (B2) (A1) (A1) (A1) (B1)
                 (B2) (A1) (B2) (A1) (B1) (A2) (B2) (A1) (B1) (B1)
                 (A1) (B2) (A2) (A1) (B1) (A1) (B1) (B2) (A1) (A1)
                 (A1) (A2) (B1) (B2)
       Virtual   (A1) (B1) (B2) (A1) (B2) (B1) (B2) (A1) (A2) (B1)
                 (A1) (A1) (A2) (B1) (A1) (B2) (A1) (A2) (B1) (B2)
                 (A1) (B1) (A1) (A1) (B2) (B2) (B1) (A1) (B2) (A2)
                 (B2) (B1) (A2) (A1) (A1) (B1) (B2) (A1) (A2) (B1)
                 (B2) (B1) (A1) (A1) (A2) (B2) (B1) (A1) (B2) (A1)
                 (B1) (A1) (B2) (A1) (A2) (A1) (B1) (B1) (A1) (B2)
                 (A1) (B2) (A2) (A2) (B1) (B1) (B2) (A2) (A1) (A1)
                 (A1) (B2) (B1) (A2) (B2) (A1) (B1) (A1) (B2) (B1)
                 (B2) (A1) (B1) (A2) (A1) (B2) (B1) (B2) (A1) (A2)
                 (B2) (A1) (B1) (A2) (A1) (B1) (A1) (B1) (A2) (B2)
                 (B1) (A2) (A1) (B2) (A1) (A2) (B2) (B1) (A1) (A1)
                 (B1) (B2) (A2) (B2) (B1) (A1) (A1) (B2) (A2) (A1)
                 (B1) (A1) (B2) (A1) (B1) (A1)
 The electronic state is 2-A1.
 Alpha  occ. eigenvalues --  -66.35170 -66.35170 -66.34220 -66.33543 -66.33543
 Alpha  occ. eigenvalues --   -5.49551  -5.49551  -5.48861  -5.48146  -5.48146
 Alpha  occ. eigenvalues --   -3.85686  -3.85686  -3.85205  -3.85205  -3.85138
 Alpha  occ. eigenvalues --   -3.85137  -3.84857  -3.84734  -3.84427  -3.84135
 Alpha  occ. eigenvalues --   -3.84135  -3.83902  -3.83899  -3.83816  -3.83815
 Alpha  occ. eigenvalues --   -0.81626  -0.65039  -0.64460  -0.63547  -0.48974
 Alpha  occ. eigenvalues --   -0.44864  -0.43809  -0.43733  -0.41609  -0.41418
 Alpha virt. eigenvalues --   -0.30376  -0.28290  -0.26897  -0.23367  -0.17966
 Alpha virt. eigenvalues --   -0.17680  -0.17012  -0.15499  -0.15102  -0.10950
 Alpha virt. eigenvalues --   -0.05006  -0.01515  -0.01505  -0.01440  -0.01098
 Alpha virt. eigenvalues --   -0.00188   0.02871   0.03436   0.03766   0.03830
 Alpha virt. eigenvalues --    0.04461   0.05338   0.06269   0.06464   0.10954
 Alpha virt. eigenvalues --    0.11562   0.11809   0.12185   0.14348   0.14961
 Alpha virt. eigenvalues --    0.15169   0.15213   0.15541   0.17266   0.19091
 Alpha virt. eigenvalues --    0.22687   0.23789   0.25869   0.26114   0.30335
 Alpha virt. eigenvalues --    0.31749   0.31792   0.34120   0.34263   0.34305
 Alpha virt. eigenvalues --    0.37246   0.42380   0.45421   0.46882   0.48234
 Alpha virt. eigenvalues --    0.50059   0.51098   0.54167   0.57086   0.60006
 Alpha virt. eigenvalues --    0.60598   0.68135   0.68375   0.68835   0.70371
 Alpha virt. eigenvalues --    0.72366   0.75040   0.76671   0.76860   0.77869
 Alpha virt. eigenvalues --    0.78402   0.80747   0.81770   0.83702   0.84229
 Alpha virt. eigenvalues --    0.85017   0.88415   0.88416   0.88575   0.90586
 Alpha virt. eigenvalues --    0.91594   0.97603   0.99224   1.03721   1.06004
 Alpha virt. eigenvalues --    1.07941   1.11351   1.11890   1.13378   1.14465
 Alpha virt. eigenvalues --    1.15898   1.19548   1.19731   1.20047   1.20611
 Alpha virt. eigenvalues --    1.22309   1.23780   1.26836   1.30121   1.30334
 Alpha virt. eigenvalues --    1.49401   1.50067   1.51806   1.51869   1.51902
 Alpha virt. eigenvalues --    1.53003   1.56109   1.56841   1.59221   1.62876
 Alpha virt. eigenvalues --    1.68508   1.69240   1.70436   1.72330   1.81536
 Alpha virt. eigenvalues --    1.81768   1.83916   1.85305   1.85830   1.86075
 Alpha virt. eigenvalues --    1.88555   1.89629   1.92153   2.00046   2.01029
 Alpha virt. eigenvalues --    2.30201   2.51021   2.51869   2.58499   2.72108
  Beta  occ. eigenvalues --  -66.35100 -66.35100 -66.34033 -66.33525 -66.33525
  Beta  occ. eigenvalues --   -5.49467  -5.49467  -5.48621  -5.48126  -5.48126
  Beta  occ. eigenvalues --   -3.85404  -3.85403  -3.85197  -3.85197  -3.85093
  Beta  occ. eigenvalues --   -3.85092  -3.84568  -3.84369  -3.84291  -3.84129
  Beta  occ. eigenvalues --   -3.84128  -3.83819  -3.83818  -3.83814  -3.83811
  Beta  occ. eigenvalues --   -0.80921  -0.64751  -0.63606  -0.61977  -0.47847
  Beta  occ. eigenvalues --   -0.44172  -0.43561  -0.43313  -0.41177
  Beta virt. eigenvalues --   -0.34785  -0.30253  -0.26934  -0.25548  -0.21938
  Beta virt. eigenvalues --   -0.17594  -0.17491  -0.16590  -0.15403  -0.13878
  Beta virt. eigenvalues --   -0.09861  -0.04797  -0.01467  -0.01134  -0.00678
  Beta virt. eigenvalues --   -0.00462   0.00715   0.03307   0.03465   0.03917
  Beta virt. eigenvalues --    0.04542   0.05183   0.05540   0.07342   0.07450
  Beta virt. eigenvalues --    0.11501   0.12038   0.12352   0.12550   0.14931
  Beta virt. eigenvalues --    0.15150   0.15528   0.15772   0.15894   0.17513
  Beta virt. eigenvalues --    0.19306   0.23710   0.24467   0.25932   0.27032
  Beta virt. eigenvalues --    0.30566   0.32337   0.32582   0.34786   0.34845
  Beta virt. eigenvalues --    0.35339   0.37629   0.42892   0.45827   0.47455
  Beta virt. eigenvalues --    0.48463   0.50627   0.51308   0.54744   0.57339
  Beta virt. eigenvalues --    0.60792   0.61284   0.68395   0.69383   0.69650
  Beta virt. eigenvalues --    0.70716   0.73013   0.75551   0.76788   0.77573
  Beta virt. eigenvalues --    0.78467   0.78850   0.81536   0.82533   0.84252
  Beta virt. eigenvalues --    0.85073   0.85330   0.88815   0.89077   0.89205
  Beta virt. eigenvalues --    0.91623   0.91945   0.98082   1.00349   1.03886
  Beta virt. eigenvalues --    1.06660   1.08529   1.11858   1.12352   1.13869
  Beta virt. eigenvalues --    1.15064   1.16365   1.19852   1.20299   1.20417
  Beta virt. eigenvalues --    1.20840   1.22919   1.24013   1.27094   1.30685
  Beta virt. eigenvalues --    1.30972   1.49928   1.50492   1.52011   1.52223
  Beta virt. eigenvalues --    1.52377   1.53164   1.56353   1.57326   1.59679
  Beta virt. eigenvalues --    1.63273   1.69016   1.69436   1.70727   1.72726
  Beta virt. eigenvalues --    1.81950   1.82194   1.84173   1.85590   1.86271
  Beta virt. eigenvalues --    1.86387   1.88908   1.89948   1.92230   2.00359
  Beta virt. eigenvalues --    2.01467   2.30623   2.51419   2.52628   2.58665
  Beta virt. eigenvalues --    2.72387
          Condensed to atoms (all electrons):
              1          2          3          4          5
     1  Si  13.368601   0.018636   0.048440   0.144984   0.144984
     2  Si   0.018636  13.368601   0.048440   0.144984   0.144984
     3  Si   0.048440   0.048440  13.300816   0.202716   0.202716
     4  Si   0.144984   0.144984   0.202716  13.359063   0.021045
     5  Si   0.144984   0.144984   0.202716   0.021045  13.359063
 Mulliken atomic charges:
              1
     1  Si   0.274355
     2  Si   0.274355
     3  Si   0.196872
     4  Si   0.127209
     5  Si   0.127209
 Sum of Mulliken atomic charges =   1.00000
 Mulliken charges with hydrogens summed into heavy atoms:
              1
     1  Si   0.274355
     2  Si   0.274355
     3  Si   0.196872
     4  Si   0.127209
     5  Si   0.127209
 Sum of Mulliken charges with hydrogens summed into heavy atoms =   1.00000
          Atomic-Atomic Spin Densities.
              1          2          3          4          5
     1  Si   0.175286   0.022260  -0.009257   0.020522   0.020522
     2  Si   0.022260   0.175286  -0.009257   0.020522   0.020522
     3  Si  -0.009257  -0.009257   0.442337  -0.010642  -0.010642
     4  Si   0.020522   0.020522  -0.010642   0.040123  -0.001127
     5  Si   0.020522   0.020522  -0.010642  -0.001127   0.040123
 Mulliken atomic spin densities:
              1
     1  Si   0.229333
     2  Si   0.229333
     3  Si   0.402539
     4  Si   0.069398
     5  Si   0.069398
 Sum of Mulliken atomic spin densities =   1.00000
 Electronic spatial extent (au):  <R**2>=            822.4857
 Charge=              1.0000 electrons
 Dipole moment (field-independent basis, Debye):
    X=              0.0000    Y=              0.0000    Z=              0.2951  Tot=              0.2951
 Quadrupole moment (field-independent basis, Debye-Ang):
   XX=            -50.3886   YY=            -50.6634   ZZ=            -51.9893
   XY=              0.0000   XZ=              0.0000   YZ=              0.0000
 Traceless Quadrupole moment (field-independent basis, Debye-Ang):
   XX=              0.6251   YY=              0.3504   ZZ=             -0.9755
   XY=              0.0000   XZ=              0.0000   YZ=              0.0000
 Octapole moment (field-independent basis, Debye-Ang**2):
  XXX=              0.0000  YYY=              0.0000  ZZZ=              8.9480  XYY=              0.0000
  XXY=              0.0000  XXZ=              0.9536  XZZ=              0.0000  YZZ=              0.0000
  YYZ=             -3.5023  XYZ=              0.0000
 Hexadecapole moment (field-independent basis, Debye-Ang**3):
 XXXX=           -382.9551 YYYY=           -423.1796 ZZZZ=           -354.6543 XXXY=              0.0000
 XXXZ=              0.0000 YYYX=              0.0000 YYYZ=              0.0000 ZZZX=              0.0000
 ZZZY=              0.0000 XXYY=           -154.3632 XXZZ=           -141.2689 YYZZ=           -137.6344
 XXYZ=              0.0000 YYXZ=              0.0000 ZZXY=              0.0000
 N-N= 4.001532989055D+02 E-N=-6.340389644862D+03  KE= 2.162709020019D+03
 Symmetry A1   KE= 1.147472507176D+03
 Symmetry A2   KE= 7.627348735348D+01
 Symmetry B1   KE= 4.695200039972D+02
 Symmetry B2   KE= 4.694430214920D+02
                          Isotropic Fermi Contact Couplings
        Atom                 a.u.       MegaHertz       Gauss      10(-4) cm-1
     1  Si(29)             0.05123     -45.52775     -16.24543     -15.18642
     2  Si(29)             0.05123     -45.52775     -16.24543     -15.18642
     3  Si(29)             0.44910    -399.13139    -142.42000    -133.13590
     4  Si(29)            -0.00473       4.20754       1.50135       1.40348
     5  Si(29)            -0.00473       4.20754       1.50135       1.40348
 --------------------------------------------------------
       Center         ----  Spin Dipole Couplings  ----
                      3XX-RR        3YY-RR        3ZZ-RR
 --------------------------------------------------------
     1   Atom       -0.188843      0.143238      0.045605
     2   Atom       -0.188843      0.143238      0.045605
     3   Atom       -0.363103     -0.280592      0.643695
     4   Atom       -0.065811     -0.097233      0.163044
     5   Atom       -0.065811     -0.097233      0.163044
 --------------------------------------------------------
                        XY            XZ            YZ
 --------------------------------------------------------
     1   Atom        0.000000      0.000000      0.401644
     2   Atom        0.000000      0.000000     -0.401644
     3   Atom        0.000000      0.000000      0.000000
     4   Atom        0.000000     -0.018402      0.000000
     5   Atom        0.000000      0.018402      0.000000
 --------------------------------------------------------


 ---------------------------------------------------------------------------------
              Anisotropic Spin Dipole Couplings in Principal Axis System
 ---------------------------------------------------------------------------------

       Atom             a.u.   MegaHertz   Gauss  10(-4) cm-1        Axes

              Baa    -0.3102    32.905    11.741    10.976  0.0000 -0.6631  0.7486
     1 Si(29) Bbb    -0.1888    20.033     7.148     6.682  1.0000  0.0000  0.0000
              Bcc     0.4990   -52.938   -18.890   -17.658  0.0000  0.7486  0.6631
 
              Baa    -0.3102    32.905    11.741    10.976  0.0000  0.6631  0.7486
     2 Si(29) Bbb    -0.1888    20.033     7.148     6.682  1.0000  0.0000  0.0000
              Bcc     0.4990   -52.938   -18.890   -17.658  0.0000  0.7486 -0.6631
 
              Baa    -0.3631    38.519    13.745    12.849  1.0000  0.0000  0.0000
     3 Si(29) Bbb    -0.2806    29.766    10.621     9.929  0.0000  1.0000  0.0000
              Bcc     0.6437   -68.286   -24.366   -22.778  0.0000  0.0000  1.0000
 
              Baa    -0.0972    10.315     3.681     3.441  0.0000  1.0000  0.0000
     4 Si(29) Bbb    -0.0673     7.137     2.547     2.381  0.9968  0.0000  0.0796
              Bcc     0.1645   -17.452    -6.227    -5.821 -0.0796  0.0000  0.9968
 
              Baa    -0.0972    10.315     3.681     3.441  0.0000  1.0000  0.0000
     5 Si(29) Bbb    -0.0673     7.137     2.547     2.381  0.9968  0.0000 -0.0796
              Bcc     0.1645   -17.452    -6.227    -5.821  0.0796  0.0000  0.9968
 

 ---------------------------------------------------------------------------------

 Calling FoFJK, ICntrl=      2127 FMM=F ISym2X=1 I1Cent= 0 IOpClX= 1 NMat=1 NMatS=1 NMatT=0.
 ***** Axes restored to original set *****
 -------------------------------------------------------------------
 Center     Atomic                   Forces (Hartrees/Bohr)
 Number     Number              X              Y              Z
 -------------------------------------------------------------------
      1       14           0.000000000   -0.001475591    0.000882340
      2       14           0.000000000    0.001475591    0.000882340
      3       14           0.000000000    0.000000000   -0.000320229
      4       14          -0.000122245    0.000000000   -0.000722225
      5       14           0.000122245    0.000000000   -0.000722225
 -------------------------------------------------------------------
 Cartesian Forces:  Max     0.001475591 RMS     0.000687383

 GradGradGradGradGradGradGradGradGradGradGradGradGradGradGradGradGradGrad
 Berny optimization.
 Internal  Forces:  Max     0.000778213 RMS     0.000472374
 Search for a local minimum.
 Step number   1 out of a maximum of   37
 All quantities printed in internal units (Hartrees-Bohrs-Radians)
 Mixed Optimization -- En-DIIS/RFO-DIIS
 Second derivative matrix not updated -- first step.
     Eigenvalues ---    0.06235   0.07028   0.11461   0.11995   0.12333
     Eigenvalues ---    0.12856   0.15750   0.16336   0.219181000.00000
     Eigenvalues --- 1000.000001000.000001000.000001000.000001000.00000
     Eigenvalues --- 1000.000001000.000001000.000001000.000001000.00000
     Eigenvalues --- 1000.000001000.000001000.000001000.000001000.00000
     Eigenvalues --- 1000.000001000.00000
 RFO step:  Lambda=-3.87600963D-05 EMin= 6.23505309D-02
 Linear search not attempted -- first point.
 Iteration  1 RMS(Cart)=  0.00304340 RMS(Int)=  0.00000614
 Iteration  2 RMS(Cart)=  0.00000436 RMS(Int)=  0.00000338
 Iteration  3 RMS(Cart)=  0.00000000 RMS(Int)=  0.00000338
 ClnCor:  largest displacement from symmetrization is 7.92D-13 for atom     2.
 Variable       Old X    -DE/DX   Delta X   Delta X   Delta X     New X
                                 (Linear)    (Quad)   (Total)
    R1        4.53033  -0.00078   0.00000  -0.00674  -0.00673   4.52359
    R2        4.53033  -0.00078   0.00000  -0.00674  -0.00673   4.52359
    R3        4.53033  -0.00078   0.00000  -0.00674  -0.00673   4.52359
    R4        4.53033  -0.00078   0.00000  -0.00674  -0.00673   4.52359
    R5        4.28239   0.00007   0.00000   0.00051   0.00050   4.28290
    R6        4.28239   0.00007   0.00000   0.00051   0.00050   4.28290
    A1        1.42424   0.00078   0.00000   0.00399   0.00399   1.42823
    A2        1.42424   0.00078   0.00000   0.00399   0.00399   1.42823
    A3        1.52649   0.00050   0.00000   0.00135   0.00134   1.52783
    A4        1.46949  -0.00055   0.00000  -0.00159  -0.00159   1.46789
    A5        1.37181  -0.00050   0.00000  -0.00280  -0.00280   1.36901
    A6        1.37181  -0.00050   0.00000  -0.00280  -0.00280   1.36901
    A7        1.46949  -0.00055   0.00000  -0.00159  -0.00159   1.46789
    A8        1.37181  -0.00050   0.00000  -0.00280  -0.00280   1.36901
    A9        1.37181  -0.00050   0.00000  -0.00280  -0.00280   1.36901
    D1        0.67627  -0.00029   0.00000  -0.00304  -0.00304   0.67323
    D2       -0.71131   0.00009   0.00000  -0.00066  -0.00066  -0.71198
    D3       -0.67627   0.00029   0.00000   0.00304   0.00304  -0.67323
    D4        0.71131  -0.00009   0.00000   0.00066   0.00066   0.71198
    D5       -0.67627   0.00029   0.00000   0.00304   0.00304  -0.67323
    D6        0.71131  -0.00009   0.00000   0.00066   0.00066   0.71198
    D7        0.67627  -0.00029   0.00000  -0.00304  -0.00304   0.67323
    D8       -0.71131   0.00009   0.00000  -0.00066  -0.00066  -0.71198
    D9        0.75308  -0.00019   0.00000  -0.00029  -0.00029   0.75279
   D10       -0.75308   0.00019   0.00000   0.00029   0.00029  -0.75279
   D11       -0.75308   0.00019   0.00000   0.00029   0.00029  -0.75279
   D12        0.75308  -0.00019   0.00000  -0.00029  -0.00029   0.75279
         Item               Value     Threshold  Converged?
 Maximum Force            0.000778     0.000450     NO 
 RMS     Force            0.000472     0.000300     NO 
 Maximum Displacement     0.007191     0.001800     NO 
 RMS     Displacement     0.003043     0.001200     NO 
 Predicted change in Energy=-1.938672D-05
 GradGradGradGradGradGradGradGradGradGradGradGradGradGradGradGradGradGrad

                          Input orientation:                          
 ---------------------------------------------------------------------
 Center     Atomic      Atomic             Coordinates (Angstroms)
 Number     Number       Type             X           Y           Z
 ---------------------------------------------------------------------
      1         14           0        0.000000    1.603370   -0.829827
      2         14           0        0.000000   -1.603370   -0.829827
      3         14           0        0.000000    0.000000    1.644316
      4         14           0        1.567802    0.000000    0.007669
      5         14           0       -1.567802    0.000000    0.007669
 ---------------------------------------------------------------------
                    Distance matrix (angstroms):
                    1          2          3          4          5
     1  Si   0.000000
     2  Si   3.206740   0.000000
     3  Si   2.948250   2.948250   0.000000
     4  Si   2.393783   2.393783   2.266411   0.000000
     5  Si   2.393783   2.393783   2.266411   3.135603   0.000000
 Stoichiometry    Si5(1+,2)
 Framework group  C2V[C2(Si),SGV(Si2),SGV'(Si2)]
 Deg. of freedom     4
 Full point group                 C2V     NOp   4
 Largest Abelian subgroup         C2V     NOp   4
 Largest concise Abelian subgroup C2V     NOp   4
                         Standard orientation:                         
 ---------------------------------------------------------------------
 Center     Atomic      Atomic             Coordinates (Angstroms)
 Number     Number       Type             X           Y           Z
 ---------------------------------------------------------------------
      1         14           0        0.000000    1.603370   -0.829827
      2         14           0        0.000000   -1.603370   -0.829827
      3         14           0        0.000000    0.000000    1.644316
      4         14           0        1.567802    0.000000    0.007669
      5         14           0       -1.567802    0.000000    0.007669
 ---------------------------------------------------------------------
 Rotational constants (GHZ):      2.0077681      1.9586581      1.7960693
 Standard basis: GTBas3 (6D, 7F)
 There are    59 symmetry adapted basis functions of A1  symmetry.
 There are    23 symmetry adapted basis functions of A2  symmetry.
 There are    39 symmetry adapted basis functions of B1  symmetry.
 There are    39 symmetry adapted basis functions of B2  symmetry.
 Integral buffers will be    131072 words long.
 Raffenetti 2 integral format.
 Two-electron integral symmetry is turned on.
   160 basis functions,   340 primitive gaussians,   175 cartesian basis functions
    35 alpha electrons       34 beta electrons
       nuclear repulsion energy       400.6216607501 Hartrees.
 NAtoms=    5 NActive=    5 NUniq=    3 SFac= 2.08D+00 NAtFMM=   80 NAOKFM=F Big=F
 One-electron integrals computed using PRISM.
 NBasis=   160 RedAO= T  NBF=    59    23    39    39
 NBsUse=   160 1.00D-06 NBFU=    59    23    39    39
 Initial guess read from the read-write file.
 B after Tr=     0.000000    0.000000    0.000000
         Rot=    1.000000    0.000000    0.000000    0.000000 Ang=   0.00 deg.
 Initial guess orbital symmetries:
 Alpha Orbitals:
       Occupied  (B2) (A1) (A1) (A1) (B1) (A1) (B2) (A1) (A1) (B1)
                 (B2) (A1) (B2) (A1) (B1) (A2) (A1) (B2) (B1) (A1)
                 (B1) (A1) (B1) (B2) (A2) (A1) (B1) (B2) (A1) (A1)
                 (A1) (B1) (A2) (A1) (B2)
       Virtual   (B1) (B2) (A1) (B2) (B1) (B2) (A1) (A2) (B1) (A1)
                 (A1) (A2) (A1) (B1) (B2) (A1) (A2) (B1) (B2) (A1)
                 (B1) (A1) (A1) (B2) (B2) (A1) (B1) (B2) (A2) (B2)
                 (B1) (A1) (A2) (A1) (B1) (B2) (A1) (A2) (B1) (B2)
                 (B1) (A1) (B2) (A1) (A2) (B1) (A1) (B2) (A1) (B1)
                 (A1) (B2) (A1) (A2) (A1) (B1) (B1) (A1) (B2) (A1)
                 (B2) (A2) (A2) (B1) (B1) (B2) (A2) (A1) (A1) (A1)
                 (B2) (B1) (A2) (B2) (A1) (B1) (A1) (B2) (B1) (B2)
                 (A1) (B1) (A2) (A1) (B2) (B1) (B2) (A1) (A2) (B2)
                 (A1) (B1) (A2) (B1) (A1) (A1) (B1) (A2) (B2) (B1)
                 (A2) (A1) (B2) (A1) (A2) (B2) (B1) (A1) (A1) (B1)
                 (B2) (A2) (B2) (A1) (B1) (A1) (B2) (A2) (A1) (B1)
                 (A1) (B2) (A1) (B1) (A1)
 Beta  Orbitals:
       Occupied  (B2) (A1) (A1) (A1) (B1) (B2) (A1) (A1) (A1) (B1)
                 (B2) (A1) (B2) (A1) (B1) (A2) (B2) (A1) (B1) (B1)
                 (A1) (B2) (A2) (A1) (B1) (A1) (B1) (B2) (A1) (A1)
                 (A1) (A2) (B1) (B2)
       Virtual   (A1) (B1) (B2) (A1) (B2) (B1) (B2) (A1) (A2) (B1)
                 (A1) (A1) (A2) (B1) (A1) (B2) (A1) (A2) (B1) (B2)
                 (A1) (B1) (A1) (A1) (B2) (B2) (B1) (A1) (B2) (A2)
                 (B2) (B1) (A2) (A1) (A1) (B1) (B2) (A1) (A2) (B1)
                 (B2) (B1) (A1) (A1) (A2) (B2) (B1) (A1) (B2) (A1)
                 (B1) (A1) (B2) (A1) (A2) (A1) (B1) (B1) (A1) (B2)
                 (A1) (B2) (A2) (A2) (B1) (B1) (B2) (A2) (A1) (A1)
                 (A1) (B2) (B1) (A2) (B2) (A1) (B1) (A1) (B2) (B1)
                 (B2) (A1) (B1) (A2) (A1) (B2) (B1) (B2) (A1) (A2)
                 (B2) (A1) (B1) (A2) (A1) (B1) (A1) (B1) (A2) (B2)
                 (B1) (A2) (A1) (B2) (A1) (A2) (B2) (B1) (A1) (A1)
                 (B1) (B2) (A2) (B2) (B1) (A1) (A1) (B2) (A2) (A1)
                 (B1) (A1) (B2) (A1) (B1) (A1)
 Initial guess <Sx>= 0.0000 <Sy>= 0.0000 <Sz>= 0.5000 <S**2>= 0.7654 S= 0.5077
 Requested convergence on RMS density matrix=1.00D-08 within 128 cycles.
 Requested convergence on MAX density matrix=1.00D-06.
 Requested convergence on             energy=1.00D-06.
 No special actions if energy rises.
 Keep R1 and R2 ints in memory in canonical form, NReq=240053621.
 SCF Done:  E(UB3LYP) =  -1447.11826066     A.U. after   12 cycles
             Convg  =    0.6430D-08             -V/T =  2.0034
 <Sx>= 0.0000 <Sy>= 0.0000 <Sz>= 0.5000 <S**2>= 0.7654 S= 0.5077
 <L.S>= 0.000000000000E+00
 Annihilation of the first spin contaminant:
 S**2 before annihilation     0.7654,   after     0.7501
 QCSCF skips out because SCF is already converged.
 Calling FoFJK, ICntrl=      2127 FMM=F ISym2X=1 I1Cent= 0 IOpClX= 1 NMat=1 NMatS=1 NMatT=0.
 ***** Axes restored to original set *****
 -------------------------------------------------------------------
 Center     Atomic                   Forces (Hartrees/Bohr)
 Number     Number              X              Y              Z
 -------------------------------------------------------------------
      1       14           0.000000000   -0.000639915    0.000399961
      2       14           0.000000000    0.000639915    0.000399961
      3       14           0.000000000    0.000000000   -0.000237087
      4       14           0.000107284    0.000000000   -0.000281418
      5       14          -0.000107284    0.000000000   -0.000281418
 -------------------------------------------------------------------
 Cartesian Forces:  Max     0.000639915 RMS     0.000302935

 GradGradGradGradGradGradGradGradGradGradGradGradGradGradGradGradGradGrad
 Berny optimization.
 Using GEDIIS/GDIIS optimizer.
 Internal  Forces:  Max     0.000424130 RMS     0.000237747
 Search for a local minimum.
 Step number   2 out of a maximum of   37
 All quantities printed in internal units (Hartrees-Bohrs-Radians)
 Mixed Optimization -- En-DIIS/RFO-DIIS
 Swaping is turned off.
 Update second derivatives using D2CorX and points    1    2
 DE= -2.84D-05 DEPred=-1.94D-05 R= 1.47D+00
 SS=  1.41D+00  RLast= 1.71D-02 DXNew= 5.0454D-01 5.1171D-02
 Trust test= 1.47D+00 RLast= 1.71D-02 DXMaxT set to 3.00D-01
     Eigenvalues ---    0.05398   0.07024   0.09009   0.11461   0.12335
     Eigenvalues ---    0.12865   0.15750   0.16277   0.179461000.00000
     Eigenvalues --- 1000.000001000.000001000.000001000.000001000.00000
     Eigenvalues --- 1000.000001000.000001000.000001000.000001000.00000
     Eigenvalues --- 1000.000001000.000001000.000001000.000001000.00000
     Eigenvalues --- 1000.000001000.00000
 En-DIIS/RFO-DIIS IScMMF=        0 using points:     2    1
 RFO step:  Lambda=-4.97577072D-06.
 DIIS coeffs:      1.87596     -0.87596
 Iteration  1 RMS(Cart)=  0.00297851 RMS(Int)=  0.00000785
 Iteration  2 RMS(Cart)=  0.00000395 RMS(Int)=  0.00000599
 Iteration  3 RMS(Cart)=  0.00000000 RMS(Int)=  0.00000599
 ClnCor:  largest displacement from symmetrization is 1.68D-12 for atom     2.
 Variable       Old X    -DE/DX   Delta X   Delta X   Delta X     New X
                                  (DIIS)     (GDIIS)  (Total)
    R1        4.52359  -0.00030  -0.00590   0.00078  -0.00511   4.51848
    R2        4.52359  -0.00030  -0.00590   0.00078  -0.00511   4.51848
    R3        4.52359  -0.00030  -0.00590   0.00078  -0.00511   4.51848
    R4        4.52359  -0.00030  -0.00590   0.00078  -0.00511   4.51848
    R5        4.28290   0.00002   0.00044  -0.00006   0.00037   4.28327
    R6        4.28290   0.00002   0.00044  -0.00006   0.00037   4.28327
    A1        1.42823   0.00042   0.00350   0.00059   0.00408   1.43231
    A2        1.42823   0.00042   0.00350   0.00059   0.00408   1.43231
    A3        1.52783   0.00033   0.00118   0.00100   0.00217   1.53001
    A4        1.46789  -0.00030  -0.00140  -0.00031  -0.00172   1.46617
    A5        1.36901  -0.00030  -0.00245  -0.00066  -0.00311   1.36590
    A6        1.36901  -0.00030  -0.00245  -0.00066  -0.00311   1.36590
    A7        1.46789  -0.00030  -0.00140  -0.00031  -0.00172   1.46617
    A8        1.36901  -0.00030  -0.00245  -0.00066  -0.00311   1.36590
    A9        1.36901  -0.00030  -0.00245  -0.00066  -0.00311   1.36590
    D1        0.67323  -0.00016  -0.00266  -0.00035  -0.00301   0.67022
    D2       -0.71198   0.00007  -0.00058   0.00023  -0.00036  -0.71234
    D3       -0.67323   0.00016   0.00266   0.00035   0.00301  -0.67022
    D4        0.71198  -0.00007   0.00058  -0.00023   0.00036   0.71234
    D5       -0.67323   0.00016   0.00266   0.00035   0.00301  -0.67022
    D6        0.71198  -0.00007   0.00058  -0.00023   0.00036   0.71234
    D7        0.67323  -0.00016  -0.00266  -0.00035  -0.00301   0.67022
    D8       -0.71198   0.00007  -0.00058   0.00023  -0.00036  -0.71234
    D9        0.75279  -0.00010  -0.00026  -0.00003  -0.00029   0.75250
   D10       -0.75279   0.00010   0.00026   0.00003   0.00029  -0.75250
   D11       -0.75279   0.00010   0.00026   0.00003   0.00029  -0.75250
   D12        0.75279  -0.00010  -0.00026  -0.00003  -0.00029   0.75250
         Item               Value     Threshold  Converged?
 Maximum Force            0.000424     0.000450     YES
 RMS     Force            0.000238     0.000300     YES
 Maximum Displacement     0.006313     0.001800     NO 
 RMS     Displacement     0.002978     0.001200     NO 
 Predicted change in Energy=-8.509257D-06
 GradGradGradGradGradGradGradGradGradGradGradGradGradGradGradGradGradGrad

                          Input orientation:                          
 ---------------------------------------------------------------------
 Center     Atomic      Atomic             Coordinates (Angstroms)
 Number     Number       Type             X           Y           Z
 ---------------------------------------------------------------------
      1         14           0        0.000000    1.600029   -0.826550
      2         14           0        0.000000   -1.600029   -0.826550
      3         14           0        0.000000    0.000000    1.641092
      4         14           0        1.569715    0.000000    0.006004
      5         14           0       -1.569715    0.000000    0.006004
 ---------------------------------------------------------------------
                    Distance matrix (angstroms):
                    1          2          3          4          5
     1  Si   0.000000
     2  Si   3.200058   0.000000
     3  Si   2.940978   2.940978   0.000000
     4  Si   2.391076   2.391076   2.266609   0.000000
     5  Si   2.391076   2.391076   2.266609   3.139429   0.000000
 Stoichiometry    Si5(1+,2)
 Framework group  C2V[C2(Si),SGV(Si2),SGV'(Si2)]
 Deg. of freedom     4
 Full point group                 C2V     NOp   4
 Largest Abelian subgroup         C2V     NOp   4
 Largest concise Abelian subgroup C2V     NOp   4
                         Standard orientation:                         
 ---------------------------------------------------------------------
 Center     Atomic      Atomic             Coordinates (Angstroms)
 Number     Number       Type             X           Y           Z
 ---------------------------------------------------------------------
      1         14           0        0.000000    1.600029   -0.826550
      2         14           0        0.000000   -1.600029   -0.826550
      3         14           0        0.000000    0.000000    1.641092
      4         14           0        1.569715    0.000000    0.006004
      5         14           0       -1.569715    0.000000    0.006004
 ---------------------------------------------------------------------
 Rotational constants (GHZ):      2.0098875      1.9678110      1.7977494
 Standard basis: GTBas3 (6D, 7F)
 There are    59 symmetry adapted basis functions of A1  symmetry.
 There are    23 symmetry adapted basis functions of A2  symmetry.
 There are    39 symmetry adapted basis functions of B1  symmetry.
 There are    39 symmetry adapted basis functions of B2  symmetry.
 Integral buffers will be    131072 words long.
 Raffenetti 2 integral format.
 Two-electron integral symmetry is turned on.
   160 basis functions,   340 primitive gaussians,   175 cartesian basis functions
    35 alpha electrons       34 beta electrons
       nuclear repulsion energy       401.0110460581 Hartrees.
 NAtoms=    5 NActive=    5 NUniq=    3 SFac= 2.08D+00 NAtFMM=   80 NAOKFM=F Big=F
 One-electron integrals computed using PRISM.
 NBasis=   160 RedAO= T  NBF=    59    23    39    39
 NBsUse=   160 1.00D-06 NBFU=    59    23    39    39
 Initial guess read from the read-write file.
 B after Tr=     0.000000    0.000000    0.000000
         Rot=    1.000000    0.000000    0.000000    0.000000 Ang=   0.00 deg.
 Initial guess orbital symmetries:
 Alpha Orbitals:
       Occupied  (B2) (A1) (A1) (A1) (B1) (A1) (B2) (A1) (A1) (B1)
                 (B2) (A1) (B2) (A1) (B1) (A2) (A1) (B2) (B1) (A1)
                 (B1) (A1) (B1) (B2) (A2) (A1) (B1) (B2) (A1) (A1)
                 (A1) (B1) (A2) (A1) (B2)
       Virtual   (B1) (B2) (A1) (B2) (B1) (B2) (A1) (A2) (B1) (A1)
                 (A1) (A2) (A1) (B1) (B2) (A1) (A2) (B1) (B2) (A1)
                 (B1) (A1) (A1) (B2) (B2) (A1) (B1) (B2) (A2) (B2)
                 (B1) (A1) (A2) (A1) (B1) (B2) (A1) (A2) (B1) (B2)
                 (A1) (B1) (B2) (A1) (A2) (B1) (A1) (B2) (A1) (B1)
                 (A1) (B2) (A1) (A2) (A1) (B1) (B1) (A1) (B2) (A1)
                 (B2) (A2) (A2) (B1) (B1) (B2) (A2) (A1) (A1) (A1)
                 (B2) (B1) (A2) (B2) (A1) (B1) (A1) (B2) (B1) (B2)
                 (A1) (B1) (A2) (A1) (B2) (B1) (B2) (A1) (A2) (B2)
                 (A1) (B1) (A2) (B1) (A1) (A1) (B1) (A2) (B1) (B2)
                 (A2) (A1) (B2) (A1) (A2) (B2) (B1) (A1) (A1) (B1)
                 (B2) (A2) (B2) (A1) (B1) (A1) (B2) (A2) (A1) (B1)
                 (A1) (B2) (A1) (B1) (A1)
 Beta  Orbitals:
       Occupied  (B2) (A1) (A1) (A1) (B1) (B2) (A1) (A1) (A1) (B1)
                 (B2) (A1) (B2) (A1) (B1) (A2) (B2) (A1) (B1) (B1)
                 (A1) (B2) (A2) (A1) (B1) (A1) (B1) (B2) (A1) (A1)
                 (A1) (A2) (B1) (B2)
       Virtual   (A1) (B1) (B2) (A1) (B2) (B1) (B2) (A1) (A2) (B1)
                 (A1) (A1) (A2) (B1) (A1) (B2) (A1) (A2) (B1) (B2)
                 (A1) (B1) (A1) (A1) (B2) (B2) (B1) (A1) (B2) (A2)
                 (B2) (B1) (A2) (A1) (A1) (B1) (B2) (A1) (A2) (B1)
                 (B2) (B1) (A1) (A1) (A2) (B2) (B1) (A1) (B2) (A1)
                 (B1) (A1) (B2) (A1) (A2) (A1) (B1) (B1) (A1) (B2)
                 (A1) (B2) (A2) (A2) (B1) (B1) (B2) (A2) (A1) (A1)
                 (A1) (B2) (B1) (A2) (B2) (A1) (B1) (A1) (B2) (B1)
                 (B2) (A1) (B1) (A2) (A1) (B2) (B1) (B2) (A1) (A2)
                 (B2) (A1) (B1) (A2) (A1) (B1) (A1) (B1) (A2) (B2)
                 (B1) (A2) (A1) (B2) (A1) (A2) (B2) (B1) (A1) (A1)
                 (B1) (B2) (A2) (B2) (B1) (A1) (A1) (B2) (A2) (A1)
                 (B1) (A1) (B2) (A1) (B1) (A1)
 Initial guess <Sx>= 0.0000 <Sy>= 0.0000 <Sz>= 0.5000 <S**2>= 0.7654 S= 0.5077
 Requested convergence on RMS density matrix=1.00D-08 within 128 cycles.
 Requested convergence on MAX density matrix=1.00D-06.
 Requested convergence on             energy=1.00D-06.
 No special actions if energy rises.
 Keep R1 and R2 ints in memory in canonical form, NReq=240053621.
 SCF Done:  E(UB3LYP) =  -1447.11826943     A.U. after   12 cycles
             Convg  =    0.7850D-08             -V/T =  2.0034
 <Sx>= 0.0000 <Sy>= 0.0000 <Sz>= 0.5000 <S**2>= 0.7653 S= 0.5076
 <L.S>= 0.000000000000E+00
 Annihilation of the first spin contaminant:
 S**2 before annihilation     0.7653,   after     0.7501
 QCSCF skips out because SCF is already converged.
 Calling FoFJK, ICntrl=      2127 FMM=F ISym2X=1 I1Cent= 0 IOpClX= 1 NMat=1 NMatS=1 NMatT=0.
 ***** Axes restored to original set *****
 -------------------------------------------------------------------
 Center     Atomic                   Forces (Hartrees/Bohr)
 Number     Number              X              Y              Z
 -------------------------------------------------------------------
      1       14           0.000000000    0.000061884   -0.000009718
      2       14           0.000000000   -0.000061884   -0.000009718
      3       14           0.000000000    0.000000000   -0.000098636
      4       14           0.000164118    0.000000000    0.000059036
      5       14          -0.000164118    0.000000000    0.000059036
 -------------------------------------------------------------------
 Cartesian Forces:  Max     0.000164118 RMS     0.000072304

 GradGradGradGradGradGradGradGradGradGradGradGradGradGradGradGradGradGrad
 Berny optimization.
 Using GEDIIS/GDIIS optimizer.
 Internal  Forces:  Max     0.000099561 RMS     0.000047092
 Search for a local minimum.
 Step number   3 out of a maximum of   37
 All quantities printed in internal units (Hartrees-Bohrs-Radians)
 Mixed Optimization -- En-DIIS/RFO-DIIS
 Swaping is turned off.
 Update second derivatives using D2CorX and points    1    2    3
 DE= -8.77D-06 DEPred=-8.51D-06 R= 1.03D+00
 SS=  1.41D+00  RLast= 1.50D-02 DXNew= 5.0454D-01 4.4981D-02
 Trust test= 1.03D+00 RLast= 1.50D-02 DXMaxT set to 3.00D-01
     Eigenvalues ---    0.05311   0.07016   0.09546   0.11462   0.12336
     Eigenvalues ---    0.12873   0.15750   0.16226   0.169771000.00000
     Eigenvalues --- 1000.000001000.000001000.000001000.000001000.00000
     Eigenvalues --- 1000.000001000.000001000.000001000.000001000.00000
     Eigenvalues --- 1000.000001000.000001000.000001000.000001000.00000
     Eigenvalues --- 1000.000001000.00000
 En-DIIS/RFO-DIIS IScMMF=        0 using points:     3    2    1
 RFO step:  Lambda=-1.47347195D-07.
 DIIS coeffs:      2.16540     -2.20028      1.03489
 Iteration  1 RMS(Cart)=  0.00064431 RMS(Int)=  0.00000671
 Iteration  2 RMS(Cart)=  0.00000019 RMS(Int)=  0.00000670
 ClnCor:  largest displacement from symmetrization is 1.58D-12 for atom     5.
 Variable       Old X    -DE/DX   Delta X   Delta X   Delta X     New X
                                  (DIIS)     (GDIIS)  (Total)
    R1        4.51848   0.00007   0.00101   0.00000   0.00101   4.51949
    R2        4.51848   0.00007   0.00101   0.00000   0.00101   4.51949
    R3        4.51848   0.00007   0.00101   0.00000   0.00101   4.51949
    R4        4.51848   0.00007   0.00101   0.00000   0.00101   4.51949
    R5        4.28327  -0.00002  -0.00008  -0.00007  -0.00014   4.28313
    R6        4.28327  -0.00002  -0.00008  -0.00007  -0.00014   4.28313
    A1        1.43231   0.00006   0.00063  -0.00002   0.00061   1.43291
    A2        1.43231   0.00006   0.00063  -0.00002   0.00061   1.43291
    A3        1.53001   0.00010   0.00114   0.00001   0.00116   1.53117
    A4        1.46617  -0.00003  -0.00036   0.00015  -0.00019   1.46598
    A5        1.36590  -0.00006  -0.00073  -0.00007  -0.00080   1.36510
    A6        1.36590  -0.00006  -0.00073  -0.00007  -0.00080   1.36510
    A7        1.46617  -0.00003  -0.00036   0.00015  -0.00019   1.46598
    A8        1.36590  -0.00006  -0.00073  -0.00007  -0.00080   1.36510
    A9        1.36590  -0.00006  -0.00073  -0.00007  -0.00080   1.36510
    D1        0.67022  -0.00003  -0.00037  -0.00016  -0.00053   0.66969
    D2       -0.71234   0.00002   0.00026  -0.00007   0.00020  -0.71214
    D3       -0.67022   0.00003   0.00037   0.00016   0.00053  -0.66969
    D4        0.71234  -0.00002  -0.00026   0.00007  -0.00020   0.71214
    D5       -0.67022   0.00003   0.00037   0.00016   0.00053  -0.66969
    D6        0.71234  -0.00002  -0.00026   0.00007  -0.00020   0.71214
    D7        0.67022  -0.00003  -0.00037  -0.00016  -0.00053   0.66969
    D8       -0.71234   0.00002   0.00026  -0.00007   0.00020  -0.71214
    D9        0.75250  -0.00001  -0.00004   0.00009   0.00006   0.75255
   D10       -0.75250   0.00001   0.00004  -0.00009  -0.00006  -0.75255
   D11       -0.75250   0.00001   0.00004  -0.00009  -0.00006  -0.75255
   D12        0.75250  -0.00001  -0.00004   0.00009   0.00006   0.75255
         Item               Value     Threshold  Converged?
 Maximum Force            0.000100     0.000450     YES
 RMS     Force            0.000047     0.000300     YES
 Maximum Displacement     0.001851     0.001800     NO 
 RMS     Displacement     0.000644     0.001200     YES
 Predicted change in Energy=-4.532673D-08
 GradGradGradGradGradGradGradGradGradGradGradGradGradGradGradGradGradGrad

                          Input orientation:                          
 ---------------------------------------------------------------------
 Center     Atomic      Atomic             Coordinates (Angstroms)
 Number     Number       Type             X           Y           Z
 ---------------------------------------------------------------------
      1         14           0        0.000000    1.600215   -0.826047
      2         14           0        0.000000   -1.600215   -0.826047
      3         14           0        0.000000    0.000000    1.640112
      4         14           0        1.570610    0.000000    0.005991
      5         14           0       -1.570610    0.000000    0.005991
 ---------------------------------------------------------------------
                    Distance matrix (angstroms):
                    1          2          3          4          5
     1  Si   0.000000
     2  Si   3.200429   0.000000
     3  Si   2.939835   2.939835   0.000000
     4  Si   2.391609   2.391609   2.266532   0.000000
     5  Si   2.391609   2.391609   2.266532   3.141221   0.000000
 Stoichiometry    Si5(1+,2)
 Framework group  C2V[C2(Si),SGV(Si2),SGV'(Si2)]
 Deg. of freedom     4
 Full point group                 C2V     NOp   4
 Largest Abelian subgroup         C2V     NOp   4
 Largest concise Abelian subgroup C2V     NOp   4
                         Standard orientation:                         
 ---------------------------------------------------------------------
 Center     Atomic      Atomic             Coordinates (Angstroms)
 Number     Number       Type             X           Y           Z
 ---------------------------------------------------------------------
      1         14           0        0.000000    1.600215   -0.826047
      2         14           0        0.000000   -1.600215   -0.826047
      3         14           0        0.000000    0.000000    1.640112
      4         14           0        1.570610    0.000000    0.005991
      5         14           0       -1.570610    0.000000    0.005991
 ---------------------------------------------------------------------
 Rotational constants (GHZ):      2.0097205      1.9686021      1.7965312
 Standard basis: GTBas3 (6D, 7F)
 There are    59 symmetry adapted basis functions of A1  symmetry.
 There are    23 symmetry adapted basis functions of A2  symmetry.
 There are    39 symmetry adapted basis functions of B1  symmetry.
 There are    39 symmetry adapted basis functions of B2  symmetry.
 Integral buffers will be    131072 words long.
 Raffenetti 2 integral format.
 Two-electron integral symmetry is turned on.
   160 basis functions,   340 primitive gaussians,   175 cartesian basis functions
    35 alpha electrons       34 beta electrons
       nuclear repulsion energy       400.9803181506 Hartrees.
 NAtoms=    5 NActive=    5 NUniq=    3 SFac= 2.08D+00 NAtFMM=   80 NAOKFM=F Big=F
 One-electron integrals computed using PRISM.
 NBasis=   160 RedAO= T  NBF=    59    23    39    39
 NBsUse=   160 1.00D-06 NBFU=    59    23    39    39
 Initial guess read from the read-write file.
 B after Tr=     0.000000    0.000000    0.000000
         Rot=    1.000000    0.000000    0.000000    0.000000 Ang=   0.00 deg.
 Initial guess orbital symmetries:
 Alpha Orbitals:
       Occupied  (B2) (A1) (A1) (A1) (B1) (A1) (B2) (A1) (A1) (B1)
                 (B2) (A1) (B2) (A1) (B1) (A2) (A1) (B2) (B1) (A1)
                 (B1) (A1) (B1) (B2) (A2) (A1) (B1) (B2) (A1) (A1)
                 (A1) (A2) (B1) (A1) (B2)
       Virtual   (B1) (B2) (A1) (B2) (B1) (B2) (A1) (A2) (B1) (A1)
                 (A1) (A2) (A1) (B1) (B2) (A1) (A2) (B1) (B2) (A1)
                 (B1) (A1) (A1) (B2) (B2) (A1) (B1) (B2) (A2) (B2)
                 (B1) (A1) (A2) (A1) (B1) (B2) (A1) (A2) (B1) (B2)
                 (A1) (B1) (A1) (A2) (B2) (B1) (A1) (B2) (A1) (B1)
                 (A1) (B2) (A1) (A2) (A1) (B1) (B1) (A1) (B2) (A1)
                 (B2) (A2) (A2) (B1) (B1) (B2) (A2) (A1) (A1) (A1)
                 (B2) (B1) (A2) (B2) (A1) (B1) (A1) (B2) (B1) (B2)
                 (A1) (B1) (A2) (A1) (B2) (B1) (B2) (A1) (A2) (B2)
                 (A1) (B1) (A2) (B1) (A1) (A1) (B1) (A2) (B1) (B2)
                 (A2) (A1) (B2) (A1) (A2) (B2) (B1) (A1) (A1) (B1)
                 (B2) (A2) (B2) (A1) (B1) (A1) (B2) (A2) (A1) (B1)
                 (A1) (B2) (A1) (B1) (A1)
 Beta  Orbitals:
       Occupied  (B2) (A1) (A1) (A1) (B1) (B2) (A1) (A1) (A1) (B1)
                 (B2) (A1) (B2) (A1) (B1) (A2) (B2) (A1) (B1) (A1)
                 (B1) (B2) (A2) (A1) (B1) (A1) (B1) (B2) (A1) (A1)
                 (A1) (A2) (B1) (B2)
       Virtual   (A1) (B1) (B2) (A1) (B2) (B2) (B1) (A1) (A2) (B1)
                 (A1) (A1) (A2) (B1) (A1) (B2) (A1) (A2) (B1) (B2)
                 (A1) (B1) (A1) (A1) (B2) (B2) (B1) (A1) (B2) (A2)
                 (B2) (B1) (A2) (A1) (A1) (B1) (B2) (A1) (A2) (B1)
                 (B2) (B1) (A1) (A1) (A2) (B2) (B1) (A1) (B2) (A1)
                 (B1) (A1) (B2) (A1) (A2) (A1) (B1) (B1) (A1) (B2)
                 (A1) (B2) (A2) (A2) (B1) (B1) (B2) (A2) (A1) (A1)
                 (A1) (B2) (B1) (A2) (B2) (A1) (B1) (A1) (B2) (B1)
                 (B2) (A1) (B1) (A2) (A1) (B2) (B1) (B2) (A1) (A2)
                 (B2) (A1) (B1) (A2) (A1) (B1) (A1) (B1) (A2) (B2)
                 (B1) (A2) (A1) (B2) (A1) (A2) (B2) (B1) (A1) (A1)
                 (B1) (B2) (A2) (B2) (B1) (A1) (A1) (B2) (A2) (A1)
                 (B1) (A1) (B2) (A1) (B1) (A1)
 Initial guess <Sx>= 0.0000 <Sy>= 0.0000 <Sz>= 0.5000 <S**2>= 0.7653 S= 0.5076
 Requested convergence on RMS density matrix=1.00D-08 within 128 cycles.
 Requested convergence on MAX density matrix=1.00D-06.
 Requested convergence on             energy=1.00D-06.
 No special actions if energy rises.
 Keep R1 and R2 ints in memory in canonical form, NReq=240053621.
 SCF Done:  E(UB3LYP) =  -1447.11826982     A.U. after   10 cycles
             Convg  =    0.6111D-08             -V/T =  2.0034
 <Sx>= 0.0000 <Sy>= 0.0000 <Sz>= 0.5000 <S**2>= 0.7653 S= 0.5076
 <L.S>= 0.000000000000E+00
 Annihilation of the first spin contaminant:
 S**2 before annihilation     0.7653,   after     0.7501
 QCSCF skips out because SCF is already converged.
 Calling FoFJK, ICntrl=      2127 FMM=F ISym2X=1 I1Cent= 0 IOpClX= 1 NMat=1 NMatS=1 NMatT=0.
 ***** Axes restored to original set *****
 -------------------------------------------------------------------
 Center     Atomic                   Forces (Hartrees/Bohr)
 Number     Number              X              Y              Z
 -------------------------------------------------------------------
      1       14           0.000000000   -0.000001004    0.000008607
      2       14           0.000000000    0.000001004    0.000008607
      3       14           0.000000000    0.000000000   -0.000017764
      4       14          -0.000010688    0.000000000    0.000000275
      5       14           0.000010688    0.000000000    0.000000275
 -------------------------------------------------------------------
 Cartesian Forces:  Max     0.000017764 RMS     0.000006804

 GradGradGradGradGradGradGradGradGradGradGradGradGradGradGradGradGradGrad
 Berny optimization.
 Using GEDIIS/GDIIS optimizer.
 Internal  Forces:  Max     0.000010788 RMS     0.000004364
 Search for a local minimum.
 Step number   4 out of a maximum of   37
 All quantities printed in internal units (Hartrees-Bohrs-Radians)
 Mixed Optimization -- En-DIIS/RFO-DIIS
 Swaping is turned off.
 Update second derivatives using D2CorX and points    1    2    3    4
 DE= -3.86D-07 DEPred=-4.53D-08 R= 8.52D+00
 Trust test= 8.52D+00 RLast= 3.18D-03 DXMaxT set to 3.00D-01
     Eigenvalues ---    0.05093   0.07013   0.07278   0.11090   0.11463
     Eigenvalues ---    0.12336   0.12874   0.15750   0.164351000.00000
     Eigenvalues --- 1000.000001000.000001000.000001000.000001000.00000
     Eigenvalues --- 1000.000001000.000001000.000001000.000001000.00000
     Eigenvalues --- 1000.000001000.000001000.000001000.000001000.00000
     Eigenvalues --- 1000.000001000.00000
 En-DIIS/RFO-DIIS IScMMF=        0 using points:     4    3    2    1
 RFO step:  Lambda= 0.00000000D+00.
 DIIS coeffs:      1.81249     -1.76578      1.81496     -0.86167
 Iteration  1 RMS(Cart)=  0.00011042 RMS(Int)=  0.00000565
 Iteration  2 RMS(Cart)=  0.00000001 RMS(Int)=  0.00000565
 ClnCor:  largest displacement from symmetrization is 1.40D-12 for atom     2.
 Variable       Old X    -DE/DX   Delta X   Delta X   Delta X     New X
                                  (DIIS)     (GDIIS)  (Total)
    R1        4.51949   0.00000  -0.00011  -0.00001  -0.00011   4.51937
    R2        4.51949   0.00000  -0.00011  -0.00001  -0.00011   4.51937
    R3        4.51949   0.00000  -0.00011  -0.00001  -0.00011   4.51937
    R4        4.51949   0.00000  -0.00011  -0.00001  -0.00011   4.51937
    R5        4.28313  -0.00001  -0.00004  -0.00005  -0.00010   4.28303
    R6        4.28313  -0.00001  -0.00004  -0.00005  -0.00010   4.28303
    A1        1.43291   0.00000   0.00004  -0.00001   0.00003   1.43295
    A2        1.43291   0.00000   0.00004  -0.00001   0.00003   1.43295
    A3        1.53117   0.00000   0.00003   0.00001   0.00003   1.53120
    A4        1.46598   0.00000   0.00011   0.00000   0.00010   1.46608
    A5        1.36510   0.00000  -0.00009   0.00000  -0.00009   1.36501
    A6        1.36510   0.00000  -0.00009   0.00000  -0.00009   1.36501
    A7        1.46598   0.00000   0.00011   0.00000   0.00010   1.46608
    A8        1.36510   0.00000  -0.00009   0.00000  -0.00009   1.36501
    A9        1.36510   0.00000  -0.00009   0.00000  -0.00009   1.36501
    D1        0.66969  -0.00001  -0.00018   0.00001  -0.00017   0.66952
    D2       -0.71214   0.00000  -0.00006   0.00001  -0.00006  -0.71220
    D3       -0.66969   0.00001   0.00018  -0.00001   0.00017  -0.66952
    D4        0.71214   0.00000   0.00006  -0.00001   0.00006   0.71220
    D5       -0.66969   0.00001   0.00018  -0.00001   0.00017  -0.66952
    D6        0.71214   0.00000   0.00006  -0.00001   0.00006   0.71220
    D7        0.66969  -0.00001  -0.00018   0.00001  -0.00017   0.66952
    D8       -0.71214   0.00000  -0.00006   0.00001  -0.00006  -0.71220
    D9        0.75255   0.00000   0.00007   0.00000   0.00007   0.75262
   D10       -0.75255   0.00000  -0.00007   0.00000  -0.00007  -0.75262
   D11       -0.75255   0.00000  -0.00007   0.00000  -0.00007  -0.75262
   D12        0.75255   0.00000   0.00007   0.00000   0.00007   0.75262
         Item               Value     Threshold  Converged?
 Maximum Force            0.000011     0.000450     YES
 RMS     Force            0.000004     0.000300     YES
 Maximum Displacement     0.000302     0.001800     YES
 RMS     Displacement     0.000110     0.001200     YES
 Predicted change in Energy=-9.792721D-10
 Optimization completed.
    -- Stationary point found.
                           ----------------------------
                           !   Optimized Parameters   !
                           ! (Angstroms and Degrees)  !
 --------------------------                            --------------------------
 ! Name  Definition              Value          Derivative Info.                !
 --------------------------------------------------------------------------------
 ! R1    R(1,4)                  2.3916         -DE/DX =    0.0                 !
 ! R2    R(1,5)                  2.3916         -DE/DX =    0.0                 !
 ! R3    R(2,4)                  2.3916         -DE/DX =    0.0                 !
 ! R4    R(2,5)                  2.3916         -DE/DX =    0.0                 !
 ! R5    R(3,4)                  2.2665         -DE/DX =    0.0                 !
 ! R6    R(3,5)                  2.2665         -DE/DX =    0.0                 !
 ! A1    A(4,1,5)               82.1            -DE/DX =    0.0                 !
 ! A2    A(4,2,5)               82.1            -DE/DX =    0.0                 !
 ! A3    A(4,3,5)               87.7293         -DE/DX =    0.0                 !
 ! A4    A(1,4,2)               83.9946         -DE/DX =    0.0                 !
 ! A5    A(1,4,3)               78.2144         -DE/DX =    0.0                 !
 ! A6    A(2,4,3)               78.2144         -DE/DX =    0.0                 !
 ! A7    A(1,5,2)               83.9946         -DE/DX =    0.0                 !
 ! A8    A(1,5,3)               78.2144         -DE/DX =    0.0                 !
 ! A9    A(2,5,3)               78.2144         -DE/DX =    0.0                 !
 ! D1    D(5,1,4,2)             38.3703         -DE/DX =    0.0                 !
 ! D2    D(5,1,4,3)            -40.8024         -DE/DX =    0.0                 !
 ! D3    D(4,1,5,2)            -38.3703         -DE/DX =    0.0                 !
 ! D4    D(4,1,5,3)             40.8024         -DE/DX =    0.0                 !
 ! D5    D(5,2,4,1)            -38.3703         -DE/DX =    0.0                 !
 ! D6    D(5,2,4,3)             40.8024         -DE/DX =    0.0                 !
 ! D7    D(4,2,5,1)             38.3703         -DE/DX =    0.0                 !
 ! D8    D(4,2,5,3)            -40.8024         -DE/DX =    0.0                 !
 ! D9    D(5,3,4,1)             43.1181         -DE/DX =    0.0                 !
 ! D10   D(5,3,4,2)            -43.1181         -DE/DX =    0.0                 !
 ! D11   D(4,3,5,1)            -43.1181         -DE/DX =    0.0                 !
 ! D12   D(4,3,5,2)             43.1181         -DE/DX =    0.0                 !
 --------------------------------------------------------------------------------
 GradGradGradGradGradGradGradGradGradGradGradGradGradGradGradGradGradGrad

                          Input orientation:                          
 ---------------------------------------------------------------------
 Center     Atomic      Atomic             Coordinates (Angstroms)
 Number     Number       Type             X           Y           Z
 ---------------------------------------------------------------------
      1         14           0        0.000000    1.600215   -0.826047
      2         14           0        0.000000   -1.600215   -0.826047
      3         14           0        0.000000    0.000000    1.640112
      4         14           0        1.570610    0.000000    0.005991
      5         14           0       -1.570610    0.000000    0.005991
 ---------------------------------------------------------------------
                    Distance matrix (angstroms):
                    1          2          3          4          5
     1  Si   0.000000
     2  Si   3.200429   0.000000
     3  Si   2.939835   2.939835   0.000000
     4  Si   2.391609   2.391609   2.266532   0.000000
     5  Si   2.391609   2.391609   2.266532   3.141221   0.000000
 Stoichiometry    Si5(1+,2)
 Framework group  C2V[C2(Si),SGV(Si2),SGV'(Si2)]
 Deg. of freedom     4
 Full point group                 C2V     NOp   4
 Largest Abelian subgroup         C2V     NOp   4
 Largest concise Abelian subgroup C2V     NOp   4
                         Standard orientation:                         
 ---------------------------------------------------------------------
 Center     Atomic      Atomic             Coordinates (Angstroms)
 Number     Number       Type             X           Y           Z
 ---------------------------------------------------------------------
      1         14           0        0.000000    1.600215   -0.826047
      2         14           0        0.000000   -1.600215   -0.826047
      3         14           0        0.000000    0.000000    1.640112
      4         14           0        1.570610    0.000000    0.005991
      5         14           0       -1.570610    0.000000    0.005991
 ---------------------------------------------------------------------
 Rotational constants (GHZ):      2.0097205      1.9686021      1.7965312

 **********************************************************************

            Population analysis using the SCF density.

 **********************************************************************

 Orbital symmetries:
 Alpha Orbitals:
       Occupied  (B2) (A1) (A1) (A1) (B1) (A1) (B2) (A1) (A1) (B1)
                 (B2) (A1) (B2) (A1) (B1) (A2) (A1) (B2) (B1) (A1)
                 (B1) (A1) (B1) (B2) (A2) (A1) (B1) (B2) (A1) (A1)
                 (A1) (A2) (B1) (A1) (B2)
       Virtual   (B1) (B2) (A1) (B2) (B1) (B2) (A1) (A2) (B1) (A1)
                 (A1) (A2) (A1) (B1) (B2) (A1) (A2) (B1) (B2) (A1)
                 (B1) (A1) (A1) (B2) (B2) (A1) (B1) (B2) (A2) (B2)
                 (B1) (A1) (A2) (A1) (B1) (B2) (A1) (A2) (B1) (B2)
                 (A1) (B1) (A1) (A2) (B2) (B1) (A1) (B2) (A1) (B1)
                 (A1) (B2) (A1) (A2) (A1) (B1) (B1) (A1) (B2) (A1)
                 (B2) (A2) (A2) (B1) (B1) (B2) (A2) (A1) (A1) (A1)
                 (B2) (B1) (A2) (B2) (A1) (B1) (A1) (B2) (B1) (B2)
                 (A1) (B1) (A2) (A1) (B2) (B1) (B2) (A1) (A2) (B2)
                 (A1) (B1) (A2) (B1) (A1) (A1) (B1) (A2) (B1) (B2)
                 (A2) (A1) (B2) (A1) (A2) (B2) (B1) (A1) (A1) (B1)
                 (B2) (A2) (A1) (B2) (B1) (A1) (B2) (A2) (A1) (B1)
                 (A1) (B2) (A1) (B1) (A1)
 Beta  Orbitals:
       Occupied  (B2) (A1) (A1) (A1) (B1) (B2) (A1) (A1) (A1) (B1)
                 (B2) (A1) (B2) (A1) (B1) (A2) (B2) (A1) (B1) (A1)
                 (B1) (B2) (A2) (A1) (B1) (A1) (B1) (B2) (A1) (A1)
                 (A1) (A2) (B1) (B2)
       Virtual   (A1) (B1) (B2) (A1) (B2) (B2) (B1) (A1) (A2) (B1)
                 (A1) (A1) (A2) (B1) (A1) (B2) (A1) (A2) (B1) (B2)
                 (A1) (B1) (A1) (A1) (B2) (B2) (B1) (A1) (B2) (A2)
                 (B2) (B1) (A2) (A1) (A1) (B1) (B2) (A1) (A2) (B1)
                 (B2) (B1) (A1) (A1) (A2) (B2) (B1) (A1) (B2) (A1)
                 (B1) (A1) (B2) (A1) (A2) (A1) (B1) (B1) (A1) (B2)
                 (A1) (B2) (A2) (A2) (B1) (B1) (B2) (A2) (A1) (A1)
                 (A1) (B2) (B1) (A2) (B2) (A1) (B1) (A1) (B2) (B1)
                 (B2) (A1) (B1) (A2) (A1) (B2) (B1) (B2) (A1) (A2)
                 (B2) (A1) (B1) (A2) (A1) (B1) (A1) (B1) (A2) (B2)
                 (B1) (A2) (A1) (B2) (A1) (A2) (B2) (B1) (A1) (A1)
                 (B1) (B2) (A2) (B2) (B1) (A1) (A1) (B2) (A2) (A1)
                 (B1) (A1) (B2) (A1) (B1) (A1)
 The electronic state is 2-A1.
 Alpha  occ. eigenvalues --  -66.35105 -66.35104 -66.34197 -66.33631 -66.33631
 Alpha  occ. eigenvalues --   -5.49498  -5.49498  -5.48840  -5.48233  -5.48233
 Alpha  occ. eigenvalues --   -3.85631  -3.85630  -3.85152  -3.85152  -3.85087
 Alpha  occ. eigenvalues --   -3.85086  -3.84838  -3.84709  -3.84409  -3.84224
 Alpha  occ. eigenvalues --   -3.84223  -3.83987  -3.83983  -3.83903  -3.83902
 Alpha  occ. eigenvalues --   -0.81775  -0.65186  -0.64489  -0.63509  -0.48946
 Alpha  occ. eigenvalues --   -0.44966  -0.43846  -0.43838  -0.41627  -0.41388
 Alpha virt. eigenvalues --   -0.30542  -0.28243  -0.26770  -0.23245  -0.17915
 Alpha virt. eigenvalues --   -0.17764  -0.17060  -0.15407  -0.15135  -0.10882
 Alpha virt. eigenvalues --   -0.05198  -0.01585  -0.01472  -0.01455  -0.01016
 Alpha virt. eigenvalues --   -0.00135   0.02742   0.03352   0.03793   0.03865
 Alpha virt. eigenvalues --    0.04412   0.05296   0.06350   0.06546   0.11014
 Alpha virt. eigenvalues --    0.11609   0.11804   0.12244   0.14461   0.14934
 Alpha virt. eigenvalues --    0.15137   0.15270   0.15584   0.17357   0.19130
 Alpha virt. eigenvalues --    0.22819   0.23929   0.25942   0.26107   0.30264
 Alpha virt. eigenvalues --    0.31743   0.31824   0.34316   0.34325   0.34375
 Alpha virt. eigenvalues --    0.37121   0.42329   0.45541   0.46950   0.48490
 Alpha virt. eigenvalues --    0.50210   0.51128   0.54215   0.57341   0.59966
 Alpha virt. eigenvalues --    0.60587   0.68067   0.68648   0.69099   0.70234
 Alpha virt. eigenvalues --    0.72486   0.75056   0.76415   0.76968   0.77660
 Alpha virt. eigenvalues --    0.78640   0.80841   0.81902   0.83714   0.84274
 Alpha virt. eigenvalues --    0.85048   0.88533   0.88692   0.88819   0.90816
 Alpha virt. eigenvalues --    0.91891   0.97557   0.99559   1.03311   1.06373
 Alpha virt. eigenvalues --    1.08191   1.11345   1.11862   1.13149   1.14670
 Alpha virt. eigenvalues --    1.16197   1.19393   1.19543   1.20381   1.20651
 Alpha virt. eigenvalues --    1.22694   1.23933   1.26830   1.30197   1.30508
 Alpha virt. eigenvalues --    1.49601   1.50122   1.51841   1.51963   1.52035
 Alpha virt. eigenvalues --    1.52717   1.56283   1.57155   1.59425   1.63177
 Alpha virt. eigenvalues --    1.68584   1.69219   1.70558   1.72038   1.81572
 Alpha virt. eigenvalues --    1.82034   1.83925   1.85700   1.85707   1.85974
 Alpha virt. eigenvalues --    1.88723   1.89493   1.92564   2.00692   2.01101
 Alpha virt. eigenvalues --    2.30113   2.51034   2.52180   2.58470   2.71902
  Beta  occ. eigenvalues --  -66.35034 -66.35034 -66.34008 -66.33614 -66.33613
  Beta  occ. eigenvalues --   -5.49414  -5.49414  -5.48597  -5.48214  -5.48213
  Beta  occ. eigenvalues --   -3.85347  -3.85346  -3.85145  -3.85145  -3.85041
  Beta  occ. eigenvalues --   -3.85040  -3.84541  -3.84352  -3.84276  -3.84215
  Beta  occ. eigenvalues --   -3.84213  -3.83907  -3.83906  -3.83899  -3.83896
  Beta  occ. eigenvalues --   -0.81072  -0.64900  -0.63632  -0.61929  -0.47862
  Beta  occ. eigenvalues --   -0.44239  -0.43673  -0.43343  -0.41142
  Beta virt. eigenvalues --   -0.34787  -0.30420  -0.26903  -0.25424  -0.21806
  Beta virt. eigenvalues --   -0.17574  -0.17542  -0.16640  -0.15312  -0.13909
  Beta virt. eigenvalues --   -0.09787  -0.04982  -0.01541  -0.01148  -0.00652
  Beta virt. eigenvalues --   -0.00385   0.00770   0.03182   0.03381   0.03942
  Beta virt. eigenvalues --    0.04582   0.05134   0.05502   0.07413   0.07533
  Beta virt. eigenvalues --    0.11555   0.12038   0.12390   0.12616   0.15025
  Beta virt. eigenvalues --    0.15129   0.15493   0.15839   0.15943   0.17620
  Beta virt. eigenvalues --    0.19340   0.23838   0.24612   0.26000   0.27024
  Beta virt. eigenvalues --    0.30507   0.32418   0.32555   0.34818   0.34866
  Beta virt. eigenvalues --    0.35592   0.37507   0.42817   0.45940   0.47533
  Beta virt. eigenvalues --    0.48717   0.50785   0.51338   0.54795   0.57599
  Beta virt. eigenvalues --    0.60765   0.61266   0.68329   0.69627   0.69922
  Beta virt. eigenvalues --    0.70601   0.73134   0.75588   0.76500   0.77690
  Beta virt. eigenvalues --    0.78260   0.79086   0.81643   0.82612   0.84317
  Beta virt. eigenvalues --    0.85108   0.85359   0.88925   0.89347   0.89457
  Beta virt. eigenvalues --    0.91865   0.92249   0.98027   1.00676   1.03472
  Beta virt. eigenvalues --    1.07025   1.08768   1.11850   1.12332   1.13671
  Beta virt. eigenvalues --    1.15269   1.16668   1.19632   1.20112   1.20753
  Beta virt. eigenvalues --    1.20944   1.23310   1.24172   1.27081   1.30845
  Beta virt. eigenvalues --    1.31045   1.50124   1.50549   1.51991   1.52392
  Beta virt. eigenvalues --    1.52437   1.52929   1.56528   1.57632   1.59890
  Beta virt. eigenvalues --    1.63582   1.69101   1.69419   1.70852   1.72429
  Beta virt. eigenvalues --    1.81976   1.82462   1.84183   1.85978   1.86181
  Beta virt. eigenvalues --    1.86260   1.89077   1.89825   1.92639   2.01008
  Beta virt. eigenvalues --    2.01537   2.30531   2.51433   2.52944   2.58635
  Beta virt. eigenvalues --    2.72179
          Condensed to atoms (all electrons):
              1          2          3          4          5
     1  Si  13.370474   0.018509   0.048972   0.145216   0.145216
     2  Si   0.018509  13.370474   0.048972   0.145216   0.145216
     3  Si   0.048972   0.048972  13.301190   0.202948   0.202948
     4  Si   0.145216   0.145216   0.202948  13.354831   0.020887
     5  Si   0.145216   0.145216   0.202948   0.020887  13.354831
 Mulliken atomic charges:
              1
     1  Si   0.271613
     2  Si   0.271613
     3  Si   0.194969
     4  Si   0.130903
     5  Si   0.130903
 Sum of Mulliken atomic charges =   1.00000
 Mulliken charges with hydrogens summed into heavy atoms:
              1
     1  Si   0.271613
     2  Si   0.271613
     3  Si   0.194969
     4  Si   0.130903
     5  Si   0.130903
 Sum of Mulliken charges with hydrogens summed into heavy atoms =   1.00000
          Atomic-Atomic Spin Densities.
              1          2          3          4          5
     1  Si   0.175626   0.022272  -0.009659   0.020619   0.020619
     2  Si   0.022272   0.175626  -0.009659   0.020619   0.020619
     3  Si  -0.009659  -0.009659   0.445459  -0.011115  -0.011115
     4  Si   0.020619   0.020619  -0.011115   0.039490  -0.001045
     5  Si   0.020619   0.020619  -0.011115  -0.001045   0.039490
 Mulliken atomic spin densities:
              1
     1  Si   0.229477
     2  Si   0.229477
     3  Si   0.403911
     4  Si   0.068567
     5  Si   0.068567
 Sum of Mulliken atomic spin densities =   1.00000
[...]
 Alpha virt. eigenvalues --    3.77647   3.78799   3.79023   3.80367   3.81547
 Alpha virt. eigenvalues --    3.86257   3.87823   3.88539   3.89969   3.92452
 Alpha virt. eigenvalues --    3.93511   3.95188   3.95541   3.97588   3.97776
 Alpha virt. eigenvalues --    3.98115   3.99730   4.01653   4.01728   4.02216
 Alpha virt. eigenvalues --    4.02792   4.03162   4.04384   4.07636   4.10448
 Alpha virt. eigenvalues --    4.11043   4.14108   4.15689   4.15876   4.19431
 Alpha virt. eigenvalues --    4.21027   4.22508   4.22859   4.23807   4.24874
 Alpha virt. eigenvalues --    4.28236   4.28269   4.29202   4.30487   4.30665
 Alpha virt. eigenvalues --    4.31954   4.32757   4.37844   4.38433   4.40013
 Alpha virt. eigenvalues --    4.43403   4.43544   4.43962   4.44814   4.45116
 Alpha virt. eigenvalues --    4.49273   4.50941   4.51325   4.52599   4.53034
 Alpha virt. eigenvalues --    4.55657   4.56170   4.56535   4.57423   4.60804
 Alpha virt. eigenvalues --    4.61722   4.65678   4.65788   4.65835   4.68869
 Alpha virt. eigenvalues --    4.72278   4.75385   4.80391   4.80516   4.81077
 Alpha virt. eigenvalues --    4.84604   4.85154   4.85321   4.89395   4.95357
 Alpha virt. eigenvalues --    4.96018   4.98461   5.15705   5.19242   5.19272
 Alpha virt. eigenvalues --    5.20324   5.22025   5.49294   5.52868   5.67625
 Alpha virt. eigenvalues --    6.17649   6.21482   6.22221   6.23748   6.26448
 Alpha virt. eigenvalues --    6.56552   6.57391   6.62216   6.65461   6.66429
 Alpha virt. eigenvalues --    6.79245   6.80483   6.80544   6.82731   6.87890
 Alpha virt. eigenvalues --    6.87972   6.91565   6.93610   6.94188   6.97270
 Alpha virt. eigenvalues --    7.00672   7.06038   7.12105   7.13219   7.19665
 Alpha virt. eigenvalues --   13.26777  13.42509  13.57896  13.59753  13.68625
 Alpha virt. eigenvalues --   13.75606  13.76776  13.77468  13.86023  14.46454
 Alpha virt. eigenvalues --   14.47677  14.54035  14.54940  14.85654  15.10838
 Alpha virt. eigenvalues --   39.21019  40.03134  41.59123  42.46031  42.70393
  Beta  occ. eigenvalues --  -69.00117 -69.00117 -68.98932 -68.97994 -68.97994
  Beta  occ. eigenvalues --   -6.34367  -6.34367  -6.33312  -6.32612  -6.32611
  Beta  occ. eigenvalues --   -4.44760  -4.44759  -4.44339  -4.44339  -4.44166
  Beta  occ. eigenvalues --   -4.44164  -4.43802  -4.43490  -4.43116  -4.42870
  Beta  occ. eigenvalues --   -4.42870  -4.42856  -4.42856  -4.42674  -4.42672
  Beta  occ. eigenvalues --   -1.00356  -0.79440  -0.77496  -0.73683  -0.54308
  Beta  occ. eigenvalues --   -0.51424  -0.51078  -0.50838  -0.48490
  Beta virt. eigenvalues --   -0.21067  -0.20022  -0.15070  -0.13457  -0.07990
  Beta virt. eigenvalues --   -0.07916  -0.07646  -0.07255  -0.06496  -0.04519
  Beta virt. eigenvalues --   -0.04388  -0.04215  -0.04146  -0.03780  -0.03592
  Beta virt. eigenvalues --   -0.03517  -0.03515  -0.03074  -0.02760  -0.01646
  Beta virt. eigenvalues --   -0.00545  -0.00511  -0.00436  -0.00299   0.00444
  Beta virt. eigenvalues --    0.01066   0.02370   0.03148   0.04006   0.04760
  Beta virt. eigenvalues --    0.04959   0.06769   0.07059   0.07085   0.08042
  Beta virt. eigenvalues --    0.09106   0.11697   0.12065   0.12360   0.12372
  Beta virt. eigenvalues --    0.13598   0.14488   0.14517   0.14843   0.15531
  Beta virt. eigenvalues --    0.15838   0.15979   0.16237   0.17034   0.17777
  Beta virt. eigenvalues --    0.19438   0.21579   0.21675   0.23459   0.25017
  Beta virt. eigenvalues --    0.25800   0.28119   0.28703   0.29724   0.29749
  Beta virt. eigenvalues --    0.30608   0.33447   0.34382   0.34743   0.34979
  Beta virt. eigenvalues --    0.35098   0.35327   0.35776   0.37353   0.39357
  Beta virt. eigenvalues --    0.43141   0.44585   0.44732   0.46814   0.46822
  Beta virt. eigenvalues --    0.46899   0.47244   0.48539   0.48981   0.49000
  Beta virt. eigenvalues --    0.49874   0.52245   0.52685   0.53746   0.53944
  Beta virt. eigenvalues --    0.57302   0.57907   0.59337   0.59671   0.61107
  Beta virt. eigenvalues --    0.61251   0.61764   0.62701   0.63188   0.65673
  Beta virt. eigenvalues --    0.66713   0.68552   0.69188   0.69366   0.69538
  Beta virt. eigenvalues --    0.70856   0.70976   0.73013   0.73014   0.73105
  Beta virt. eigenvalues --    0.74170   0.74343   0.75114   0.75652   0.76713
  Beta virt. eigenvalues --    0.76828   0.78185   0.78297   0.78346   0.78399
  Beta virt. eigenvalues --    0.80128   0.82954   0.84053   0.84341   0.84526
  Beta virt. eigenvalues --    0.84795   0.85540   0.85908   0.86410   0.86667
  Beta virt. eigenvalues --    0.89102   0.89149   0.90007   0.91456   0.91712
  Beta virt. eigenvalues --    0.94368   0.95268   0.96774   0.97796   1.00109
  Beta virt. eigenvalues --    1.00440   1.01911   1.01932   1.03813   1.04333
  Beta virt. eigenvalues --    1.08390   1.13560   1.15349   1.18030   1.19760
  Beta virt. eigenvalues --    1.19939   1.20973   1.21165   1.21939   1.27379
  Beta virt. eigenvalues --    1.28292   1.30339   1.30816   1.32083   1.33160
  Beta virt. eigenvalues --    1.34952   1.36022   1.36067   1.37834   1.38843
  Beta virt. eigenvalues --    1.38990   1.39339   1.40351   1.41192   1.45396
  Beta virt. eigenvalues --    1.46737   1.46994   1.47418   1.49686   1.49807
  Beta virt. eigenvalues --    1.51219   1.52297   1.55318   1.55798   1.55979
  Beta virt. eigenvalues --    1.58651   1.58838   1.60064   1.60388   1.60566
  Beta virt. eigenvalues --    1.62346   1.63294   1.64080   1.66464   1.67221
  Beta virt. eigenvalues --    1.67374   1.67422   1.68783   1.69214   1.69988
  Beta virt. eigenvalues --    1.70023   1.71721   1.71895   1.72380   1.73467
  Beta virt. eigenvalues --    1.75431   1.76558   1.76562   1.77381   1.77601
  Beta virt. eigenvalues --    1.77794   1.80091   1.81565   1.82474   1.82603
  Beta virt. eigenvalues --    1.83066   1.83154   1.83930   1.85344   1.85464
  Beta virt. eigenvalues --    1.88318   1.89110   1.89282   1.89344   1.91991
  Beta virt. eigenvalues --    1.94930   1.95841   1.97530   1.98309   2.03551
  Beta virt. eigenvalues --    2.04340   2.04363   2.04411   2.04989   2.05357
  Beta virt. eigenvalues --    2.06348   2.06520   2.08795   2.10255   2.10915
  Beta virt. eigenvalues --    2.13631   2.15111   2.16997   2.22601   2.24890
  Beta virt. eigenvalues --    2.26139   2.36210   2.37870   2.40418   2.41159
  Beta virt. eigenvalues --    2.44762   2.49829   2.50683   2.50746   2.52516
  Beta virt. eigenvalues --    2.61404   2.65304   2.66262   2.69699   2.71864
  Beta virt. eigenvalues --    2.71934   2.73799   2.78390   2.79759   2.80192
  Beta virt. eigenvalues --    2.81066   2.83874   2.84638   2.85172   2.97431
  Beta virt. eigenvalues --    2.98718   3.00415   3.01622   3.01713   3.06276
  Beta virt. eigenvalues --    3.08256   3.11159   3.12558   3.13630   3.14295
  Beta virt. eigenvalues --    3.14914   3.15607   3.16161   3.16354   3.20552
  Beta virt. eigenvalues --    3.22747   3.22971   3.24016   3.26501   3.26797
  Beta virt. eigenvalues --    3.26891   3.27206   3.29431   3.30355   3.31295
  Beta virt. eigenvalues --    3.31451   3.31957   3.32927   3.33561   3.34244
  Beta virt. eigenvalues --    3.34936   3.35737   3.36508   3.37690   3.37702
  Beta virt. eigenvalues --    3.39196   3.39269   3.39818   3.43628   3.43735
  Beta virt. eigenvalues --    3.44777   3.47173   3.47472   3.48161   3.50042
  Beta virt. eigenvalues --    3.50347   3.51145   3.51305   3.52946   3.53042
  Beta virt. eigenvalues --    3.53340   3.54166   3.56066   3.56561   3.57683
  Beta virt. eigenvalues --    3.58009   3.58806   3.59018   3.59159   3.59690
  Beta virt. eigenvalues --    3.61687   3.64057   3.64165   3.67167   3.68226
  Beta virt. eigenvalues --    3.71655   3.71886   3.72149   3.73607   3.74941
  Beta virt. eigenvalues --    3.77116   3.77835   3.78777   3.79313   3.80744
  Beta virt. eigenvalues --    3.81768   3.86433   3.88360   3.88651   3.90153
  Beta virt. eigenvalues --    3.92545   3.93771   3.95494   3.95751   3.97865
  Beta virt. eigenvalues --    3.98129   3.98518   4.00003   4.01806   4.02169
  Beta virt. eigenvalues --    4.02455   4.02992   4.03768   4.04651   4.08137
  Beta virt. eigenvalues --    4.10660   4.11143   4.14392   4.15889   4.15895
  Beta virt. eigenvalues --    4.19750   4.21388   4.22563   4.22934   4.24082
  Beta virt. eigenvalues --    4.25002   4.28277   4.28435   4.29172   4.30584
  Beta virt. eigenvalues --    4.30606   4.32226   4.33097   4.38065   4.38653
  Beta virt. eigenvalues --    4.40102   4.43674   4.43848   4.44088   4.44747
  Beta virt. eigenvalues --    4.45257   4.49527   4.51096   4.51540   4.52901
  Beta virt. eigenvalues --    4.53148   4.55872   4.56561   4.56674   4.57789
  Beta virt. eigenvalues --    4.60870   4.61845   4.65685   4.65858   4.66053
  Beta virt. eigenvalues --    4.69071   4.72520   4.75362   4.80574   4.80971
  Beta virt. eigenvalues --    4.81274   4.84811   4.85126   4.85308   4.89356
  Beta virt. eigenvalues --    4.95450   4.96142   4.98520   5.15656   5.19333
  Beta virt. eigenvalues --    5.19420   5.20500   5.22168   5.49481   5.53081
  Beta virt. eigenvalues --    5.67742   6.17853   6.21543   6.22376   6.23859
  Beta virt. eigenvalues --    6.26505   6.56615   6.57600   6.62536   6.65735
  Beta virt. eigenvalues --    6.66491   6.79248   6.80374   6.80559   6.82859
  Beta virt. eigenvalues --    6.87994   6.88195   6.91610   6.93725   6.94191
  Beta virt. eigenvalues --    6.97205   7.00762   7.06294   7.12056   7.13309
  Beta virt. eigenvalues --    7.19908  13.27020  13.42820  13.58447  13.59886
  Beta virt. eigenvalues --   13.68587  13.76323  13.76821  13.77283  13.85796
  Beta virt. eigenvalues --   14.46324  14.47491  14.54054  14.54881  14.86211
  Beta virt. eigenvalues --   15.10965  39.21105  40.03181  41.59500  42.46065
  Beta virt. eigenvalues --   42.70408
          Condensed to atoms (all electrons):
              1          2          3          4          5
     1  Si  13.001648   0.034753   0.077234   0.303853   0.303853
     2  Si   0.034753  13.001648   0.077234   0.303853   0.303853
     3  Si   0.077234   0.077234  12.860674   0.384863   0.384863
     4  Si   0.303853   0.303853   0.384863  12.872111   0.021543
     5  Si   0.303853   0.303853   0.384863   0.021543  12.872111
 Mulliken atomic charges:
              1
     1  Si   0.278659
     2  Si   0.278659
     3  Si   0.215132
     4  Si   0.113775
     5  Si   0.113775
 Sum of Mulliken atomic charges =   1.00000
 Mulliken charges with hydrogens summed into heavy atoms:
              1
     1  Si   0.278659
     2  Si   0.278659
     3  Si   0.215132
     4  Si   0.113775
     5  Si   0.113775
 Sum of Mulliken charges with hydrogens summed into heavy atoms =   1.00000
          Atomic-Atomic Spin Densities.
              1          2          3          4          5
     1  Si   0.006799   0.024812  -0.001134   0.011679   0.011679
     2  Si   0.024812   0.006799  -0.001134   0.011679   0.011679
     3  Si  -0.001134  -0.001134   0.864815   0.004188   0.004188
     4  Si   0.011679   0.011679   0.004188  -0.013836  -0.003005
     5  Si   0.011679   0.011679   0.004188  -0.003005  -0.013836
 Mulliken atomic spin densities:
              1
     1  Si   0.053834
     2  Si   0.053834
     3  Si   0.870924
     4  Si   0.010704
     5  Si   0.010704
 Sum of Mulliken atomic spin densities =   1.00000
 Electronic spatial extent (au):  <R**2>=            822.4132
 Charge=              1.0000 electrons
 Dipole moment (field-independent basis, Debye):
    X=              0.0000    Y=              0.0000    Z=              0.6875  Tot=              0.6875
 Quadrupole moment (field-independent basis, Debye-Ang):
   XX=            -51.1498   YY=            -53.4404   ZZ=            -52.7750
   XY=              0.0000   XZ=              0.0000   YZ=              0.0000
 Traceless Quadrupole moment (field-independent basis, Debye-Ang):
   XX=              1.3053   YY=             -0.9853   ZZ=             -0.3199
   XY=              0.0000   XZ=              0.0000   YZ=              0.0000
 Octapole moment (field-independent basis, Debye-Ang**2):
  XXX=              0.0000  YYY=              0.0000  ZZZ=              9.2259  XYY=              0.0000
  XXY=              0.0000  XXZ=              1.4597  XZZ=              0.0000  YZZ=              0.0000
  YYZ=              0.7867  XYZ=              0.0000
 Hexadecapole moment (field-independent basis, Debye-Ang**3):
 XXXX=           -387.7244 YYYY=           -447.6911 ZZZZ=           -356.9367 XXXY=              0.0000
 XXXZ=              0.0000 YYYX=              0.0000 YYYZ=              0.0000 ZZZX=              0.0000
 ZZZY=              0.0000 XXYY=           -159.2955 XXZZ=           -144.4762 YYZZ=           -143.5617
 XXYZ=              0.0000 YYXZ=              0.0000 ZZXY=              0.0000
 N-N= 4.009803181506D+02 E-N=-6.345605916620D+03  KE= 2.165993919070D+03
 Symmetry A1   KE= 1.148894660411D+03
 Symmetry A2   KE= 7.647936372212D+01
 Symmetry B1   KE= 4.703961052817D+02
 Symmetry B2   KE= 4.702237896559D+02
                          Isotropic Fermi Contact Couplings
        Atom                 a.u.       MegaHertz       Gauss      10(-4) cm-1
     1  Si(29)             0.13447    -119.50306     -42.64166     -39.86193
     2  Si(29)             0.13447    -119.50306     -42.64166     -39.86193
     3  Si(29)             0.62837    -558.44686    -199.26772    -186.27782
     4  Si(29)            -0.00059       0.52047       0.18572       0.17361
     5  Si(29)            -0.00059       0.52047       0.18572       0.17361
 --------------------------------------------------------
       Center         ----  Spin Dipole Couplings  ----
                      3XX-RR        3YY-RR        3ZZ-RR
 --------------------------------------------------------
     1   Atom        0.105935      0.076357     -0.182292
     2   Atom        0.105935      0.076357     -0.182292
     3   Atom       -0.880602     -0.001214      0.881816
     4   Atom        0.026818     -0.239662      0.212844
     5   Atom        0.026818     -0.239662      0.212844
 --------------------------------------------------------
                        XY            XZ            YZ
 --------------------------------------------------------
     1   Atom        0.000000      0.000000      0.723141
     2   Atom        0.000000      0.000000     -0.723141
     3   Atom        0.000000      0.000000      0.000000
     4   Atom        0.000000     -0.078755      0.000000
     5   Atom        0.000000      0.078755      0.000000
 --------------------------------------------------------


 ---------------------------------------------------------------------------------
              Anisotropic Spin Dipole Couplings in Principal Axis System
 ---------------------------------------------------------------------------------

       Atom             a.u.   MegaHertz   Gauss  10(-4) cm-1        Axes

              Baa    -0.7876    83.550    29.813    27.869  0.0000 -0.6419  0.7668
     1 Si(29) Bbb     0.1059   -11.238    -4.010    -3.749  1.0000  0.0000  0.0000
              Bcc     0.6816   -72.312   -25.803   -24.121  0.0000  0.7668  0.6419
 
              Baa    -0.7876    83.550    29.813    27.869  0.0000  0.6419  0.7668
     2 Si(29) Bbb     0.1059   -11.238    -4.010    -3.749  1.0000  0.0000  0.0000
              Bcc     0.6816   -72.312   -25.803   -24.121  0.0000  0.7668 -0.6419
 
              Baa    -0.8806    93.418    33.334    31.161  1.0000  0.0000  0.0000
     3 Si(29) Bbb    -0.0012     0.129     0.046     0.043  0.0000  1.0000  0.0000
              Bcc     0.8818   -93.547   -33.380   -31.204  0.0000  0.0000  1.0000
 
              Baa    -0.2397    25.424     9.072     8.481  0.0000  1.0000  0.0000
     4 Si(29) Bbb    -0.0020     0.217     0.077     0.072  0.9389  0.0000  0.3441
              Bcc     0.2417   -25.641    -9.149    -8.553 -0.3441  0.0000  0.9389
 
              Baa    -0.2397    25.424     9.072     8.481  0.0000  1.0000  0.0000
     5 Si(29) Bbb    -0.0020     0.217     0.077     0.072  0.9389  0.0000 -0.3441
              Bcc     0.2417   -25.641    -9.149    -8.553  0.3441  0.0000  0.9389
 

 ---------------------------------------------------------------------------------

 1\1\GINC-NODE45\SP\UHF\GFHFB2\Si5(1+,2)\TAM\21-Dec-2011\0\\#N Geom=All
 Check Guess=TCheck SCRF=Check HF/GFHFB2 SCF=Tight\\si5-c\\1,2\Si,0,0.,
 1.6002147403,-0.8260471766\Si,0,0.,-1.6002147403,-0.8260471766\Si,0,0.
 ,0.,1.6401123791\Si,0,1.5706102791,0.,0.0059909871\Si,0,-1.5706102791,
 0.,0.0059909871\\Version=AM64L-G09RevA.02\State=2-A1\HF=-1444.3444517\
 S2=1.026712\S2-1=0.\S2A=0.806064\RMSD=7.289e-09\Dipole=0.,0.,0.2704748
 \Quadrupole=0.9704226,-0.7325797,-0.2378429,0.,0.,0.\PG=C02V [C2(Si1),
 SGV(Si2),SGV'(Si2)]\\@


 ERWIN WITH HIS PSI CAN DO
 CALCULATIONS QUITE A FEW.
 BUT ONE THING HAS NOT BEEN SEEN
 JUST WHAT DOES PSI REALLY MEAN.
 -- WALTER HUCKEL, TRANS. BY FELIX BLOCH
 Diagonal vibrational polarizability:
        0.0000000       0.0000000       0.0000000

 Temperature=              298.150000 Pressure=                      1.000000
 E(ZPE)=                     0.006033 E(Thermal)=                    0.012870
 E(CCSD(T))=             -1444.661743 E(Empiric)=                   -0.066593
 DE(Plus)=                  -0.007775 DE(2DF)=                      -0.154882
 E(Delta-G3XP)=             -1.567114 DE(HF)=                       -0.033559
 G4(0 K)=                -1446.485633 G4 Energy=                 -1446.478796
 G4 Enthalpy=            -1446.477852 G4 Free Energy=            -1446.517502
 1\1\GINC-NODE45\Mixed\G4\G4\Si5(1+,2)\TAM\21-Dec-2011\0\\# G4 scfcyc=5
 00 scf=xqc\\si5-c\\1,2\Si,0,0.,1.6002147403,-0.8260471766\Si,0,0.,-1.6
 002147403,-0.8260471766\Si,0,0.,0.,1.6401123791\Si,0,1.5706102791,0.,0
 .0059909871\Si,0,-1.5706102791,0.,0.0059909871\\Version=AM64L-G09RevA.
 02\State=2-A1\MP2/GTBas1=-1444.5921994\MP4/GTBas1=-1444.6587519\CCSD(T
 )/G3Bas1=-1444.6617425\MP2/GTBas2=-1444.5992917\MP4/GTBas2=-1444.66652
 73\MP2/GTBas3=-1444.7379648\MP4/GTBas3=-1444.8136344\HF/GTLargeXP=-144
 4.3120068\MP2/GTLargeXP=-1446.3121711\HF/GFHFB1=-1444.3398816\HF/GFHFB
 2=-1444.3444517\G4=-1446.4856333\FreqCoord=0.,3.0239676131,-1.56100293
 66,0.,-3.0239676131,-1.5610029366,0.,0.,3.0993632237,2.968023289,0.,0.
 0113213248,-2.968023289,0.,0.0113213248\PG=C02V [C2(Si1),SGV(Si2),SGV'
 (Si2)]\NImag=0\\0.04434719,0.,0.05529287,0.,-0.02682857,0.02639379,-0.
 00122857,0.,0.,0.04434719,0.,-0.02875541,0.00739002,0.,0.05529287,0.,-
 0.00739002,0.00235680,0.,0.02682857,0.02639379,0.00225681,0.,0.,0.0022
 5681,0.,0.,0.09609814,0.,-0.00555324,0.01366209,0.,-0.00555324,-0.0136
 6209,0.,0.02121265,0.,0.00362522,-0.00247355,0.00000001,-0.00362522,-0
 .00247355,0.,0.,0.12444976,-0.02268771,0.02165127,-0.01147070,-0.02268
 773,-0.02165126,-0.01147070,-0.05030589,0.,0.04392222,0.12526093,0.023
 28865,-0.01049211,0.00288823,-0.02328865,-0.01049211,-0.00288823,0.,-0
 .00505308,0.,0.00000001,0.03674826,-0.01024759,0.01529668,-0.01313852,
 -0.01024760,-0.01529668,-0.01313852,0.04881658,0.,-0.05975132,-0.02465
 110,0.,0.07382996,-0.02268773,-0.02165126,0.01147070,-0.02268771,0.021
 65127,0.01147070,-0.05030589,0.,-0.04392223,-0.02957960,-0.00000001,-0
 .00367029,0.12526093,-0.02328865,-0.01049211,0.00288823,0.02328865,-0.
 01049211,-0.00288823,0.,-0.00505309,0.,-0.00000001,-0.01071095,0.,0.00
 000001,0.03674826,0.01024760,0.01529668,-0.01313852,0.01024759,-0.0152
 9668,-0.01313852,-0.04881658,0.,-0.05975132,0.00367029,0.,0.01219840,0
 .02465110,0.,0.07382996\\0.,0.00000100,-0.00000862,0.,-0.00000100,-0.0
 0000862,0.,0.,0.00001779,0.00001068,0.,-0.00000028,-0.00001068,0.,-0.0
 0000028\\\@
 Job cpu time:  0 days  3 hours 23 minutes 41.1 seconds.
 File lengths (MBytes):  RWF=    373 Int=      0 D2E=      0 Chk=     20 Scr=      1
 Normal termination of Gaussian 09 at Wed Dec 21 11:06:48 2011.
