 Entering Gaussian System, Link 0=g09
 Initial command:
 /usr/local/chem/g09A2/l1.exe /temp0/tam/Gau-5597.inp -scrdir=/temp0/tam/
 Entering Link 1 = /usr/local/chem/g09A2/l1.exe PID=      5598.
  
 Copyright (c) 1988,1990,1992,1993,1995,1998,2003,2009, Gaussian, Inc.
                  All Rights Reserved.
  
 This is part of the Gaussian(R) 09 program.  It is based on
 the Gaussian(R) 03 system (copyright 2003, Gaussian, Inc.),
 the Gaussian(R) 98 system (copyright 1998, Gaussian, Inc.),
 the Gaussian(R) 94 system (copyright 1995, Gaussian, Inc.),
 the Gaussian 92(TM) system (copyright 1992, Gaussian, Inc.),
 the Gaussian 90(TM) system (copyright 1990, Gaussian, Inc.),
 the Gaussian 88(TM) system (copyright 1988, Gaussian, Inc.),
 the Gaussian 86(TM) system (copyright 1986, Carnegie Mellon
 University), and the Gaussian 82(TM) system (copyright 1983,
 Carnegie Mellon University). Gaussian is a federally registered
 trademark of Gaussian, Inc.
  
 This software contains proprietary and confidential information,
 including trade secrets, belonging to Gaussian, Inc.
  
 This software is provided under written license and may be
 used, copied, transmitted, or stored only in accord with that
 written license.
  
 The following legend is applicable only to US Government
 contracts under FAR:
  
                    RESTRICTED RIGHTS LEGEND
  
 Use, reproduction and disclosure by the US Government is
 subject to restrictions as set forth in subparagraphs (a)
 and (c) of the Commercial Computer Software - Restricted
 Rights clause in FAR 52.227-19.
  
 Gaussian, Inc.
 340 Quinnipiac St., Bldg. 40, Wallingford CT 06492
  
  
 ---------------------------------------------------------------
 Warning -- This program may not be used in any manner that
 competes with the business of Gaussian, Inc. or will provide
 assistance to any competitor of Gaussian, Inc.  The licensee
 of this program is prohibited from giving any competitor of
 Gaussian, Inc. access to this program.  By using this program,
 the user acknowledges that Gaussian, Inc. is engaged in the
 business of creating and licensing software in the field of
 computational chemistry and represents and warrants to the
 licensee that it is not a competitor of Gaussian, Inc. and that
 it will not use this program in any manner prohibited above.
 ---------------------------------------------------------------
  

 Cite this work as:
 Gaussian 09, Revision A.02,
 M. J. Frisch, G. W. Trucks, H. B. Schlegel, G. E. Scuseria, 
 M. A. Robb, J. R. Cheeseman, G. Scalmani, V. Barone, B. Mennucci, 
 G. A. Petersson, H. Nakatsuji, M. Caricato, X. Li, H. P. Hratchian, 
 A. F. Izmaylov, J. Bloino, G. Zheng, J. L. Sonnenberg, M. Hada, 
 M. Ehara, K. Toyota, R. Fukuda, J. Hasegawa, M. Ishida, T. Nakajima, 
 Y. Honda, O. Kitao, H. Nakai, T. Vreven, J. A. Montgomery, Jr., 
 J. E. Peralta, F. Ogliaro, M. Bearpark, J. J. Heyd, E. Brothers, 
 K. N. Kudin, V. N. Staroverov, R. Kobayashi, J. Normand, 
 K. Raghavachari, A. Rendell, J. C. Burant, S. S. Iyengar, J. Tomasi, 
 M. Cossi, N. Rega, J. M. Millam, M. Klene, J. E. Knox, J. B. Cross, 
 V. Bakken, C. Adamo, J. Jaramillo, R. Gomperts, R. E. Stratmann, 
 O. Yazyev, A. J. Austin, R. Cammi, C. Pomelli, J. W. Ochterski, 
 R. L. Martin, K. Morokuma, V. G. Zakrzewski, G. A. Voth, 
 P. Salvador, J. J. Dannenberg, S. Dapprich, A. D. Daniels, 
 O. Farkas, J. B. Foresman, J. V. Ortiz, J. Cioslowski, 
 and D. J. Fox, Gaussian, Inc., Wallingford CT, 2009.
 
 ******************************************
 Gaussian 09:  AM64L-G09RevA.02 11-Jun-2009
                21-Dec-2011 
 ******************************************
 %NprocShared=6
 Will use up to    6 processors via shared memory.
 %mem=17750MB
 %chk=S9L-ne-d-01
 -----------------------
 # G4 scfcyc=500 scf=xqc
 -----------------------
 1/14=-1,18=20,19=15,26=3,38=1/1,3;
 2/9=110,12=2,17=6,18=5,40=1/2;
 3/5=35,7=104,11=2,16=1,25=1,30=1,71=1,74=-5/1,2,3;
 4//1;
 5/5=2,7=500,8=3,13=1,38=5/2,8;
 6/7=2,8=2,9=2,10=2,28=1/1;
 7//1,2,3,16;
 1/14=-1,18=20,19=15/3(2);
 2/9=110/2;
 99//99;
 2/9=110/2;
 3/5=35,7=104,11=2,16=1,25=1,30=1,71=1,74=-5/1,2,3;
 4/5=5,16=3/1;
 5/5=2,7=500,8=3,13=1,38=5/2,8;
 7//1,2,3,16;
 1/14=-1,18=20,19=15/3(-5);
 2/9=110/2;
 6/7=2,8=2,9=2,10=2,19=2,28=1/1;
 99/9=1/99;
 -----
 si8-c
 -----
 Symbolic Z-matrix:
 Charge =  1 Multiplicity = 2
 Si                    0.        0.       -2.55691 
 Si                    1.34312   0.       -0.51256 
 Si                    0.       -1.23702   1.20814 
 Si                    0.        1.23702   1.20814 
 Si                    0.        0.        3.29565 
 Si                    0.        2.10553  -1.06472 
 Si                   -1.34312   0.       -0.51256 
 Si                    0.       -2.10553  -1.06472 
 

 GradGradGradGradGradGradGradGradGradGradGradGradGradGradGradGradGradGrad
 Berny optimization.
 Initialization pass.
                           ----------------------------
                           !    Initial Parameters    !
                           ! (Angstroms and Degrees)  !
 --------------------------                            --------------------------
 ! Name  Definition              Value          Derivative Info.                !
 --------------------------------------------------------------------------------
 ! R1    R(1,2)                  2.4461         estimate D2E/DX2                !
 ! R2    R(1,6)                  2.5807         estimate D2E/DX2                !
 ! R3    R(1,7)                  2.4461         estimate D2E/DX2                !
 ! R4    R(1,8)                  2.5807         estimate D2E/DX2                !
 ! R5    R(2,3)                  2.509          estimate D2E/DX2                !
 ! R6    R(2,4)                  2.509          estimate D2E/DX2                !
 ! R7    R(2,6)                  2.5578         estimate D2E/DX2                !
 ! R8    R(2,7)                  2.6862         estimate D2E/DX2                !
 ! R9    R(2,8)                  2.5578         estimate D2E/DX2                !
 ! R10   R(3,4)                  2.474          estimate D2E/DX2                !
 ! R11   R(3,5)                  2.4265         estimate D2E/DX2                !
 ! R12   R(3,7)                  2.509          estimate D2E/DX2                !
 ! R13   R(3,8)                  2.4331         estimate D2E/DX2                !
 ! R14   R(4,5)                  2.4265         estimate D2E/DX2                !
 ! R15   R(4,6)                  2.4331         estimate D2E/DX2                !
 ! R16   R(4,7)                  2.509          estimate D2E/DX2                !
 ! R17   R(6,7)                  2.5578         estimate D2E/DX2                !
 ! R18   R(7,8)                  2.5578         estimate D2E/DX2                !
 ! A1    A(6,1,8)              109.3495         estimate D2E/DX2                !
 ! A2    A(1,2,3)              106.215          estimate D2E/DX2                !
 ! A3    A(1,2,4)              106.215          estimate D2E/DX2                !
 ! A4    A(3,2,6)              105.8315         estimate D2E/DX2                !
 ! A5    A(4,2,8)              105.8315         estimate D2E/DX2                !
 ! A6    A(6,2,8)              110.812          estimate D2E/DX2                !
 ! A7    A(2,3,5)              109.7952         estimate D2E/DX2                !
 ! A8    A(4,3,8)              110.913          estimate D2E/DX2                !
 ! A9    A(5,3,7)              109.7952         estimate D2E/DX2                !
 ! A10   A(5,3,8)              170.2628         estimate D2E/DX2                !
 ! A11   A(2,4,5)              109.7952         estimate D2E/DX2                !
 ! A12   A(3,4,6)              110.913          estimate D2E/DX2                !
 ! A13   A(5,4,6)              170.2628         estimate D2E/DX2                !
 ! A14   A(5,4,7)              109.7952         estimate D2E/DX2                !
 ! A15   A(1,6,4)              104.4122         estimate D2E/DX2                !
 ! A16   A(1,7,3)              106.215          estimate D2E/DX2                !
 ! A17   A(1,7,4)              106.215          estimate D2E/DX2                !
 ! A18   A(3,7,6)              105.8315         estimate D2E/DX2                !
 ! A19   A(4,7,8)              105.8315         estimate D2E/DX2                !
 ! A20   A(6,7,8)              110.812          estimate D2E/DX2                !
 ! A21   A(1,8,3)              104.4122         estimate D2E/DX2                !
 ! D1    D(8,1,6,4)              0.0            estimate D2E/DX2                !
 ! D2    D(6,1,8,3)              0.0            estimate D2E/DX2                !
 ! D3    D(1,2,3,5)           -133.7208         estimate D2E/DX2                !
 ! D4    D(6,2,3,5)            -68.8688         estimate D2E/DX2                !
 ! D5    D(1,2,4,5)            133.7208         estimate D2E/DX2                !
 ! D6    D(8,2,4,5)             68.8688         estimate D2E/DX2                !
 ! D7    D(8,3,4,6)              0.0            estimate D2E/DX2                !
 ! D8    D(5,3,7,1)            133.7208         estimate D2E/DX2                !
 ! D9    D(5,3,7,6)             68.8688         estimate D2E/DX2                !
 ! D10   D(4,3,8,1)              0.0            estimate D2E/DX2                !
 ! D11   D(5,3,8,1)              0.0            estimate D2E/DX2                !
 ! D12   D(3,4,6,1)              0.0            estimate D2E/DX2                !
 ! D13   D(5,4,6,1)              0.0            estimate D2E/DX2                !
 ! D14   D(5,4,7,1)           -133.7208         estimate D2E/DX2                !
 ! D15   D(5,4,7,8)            -68.8688         estimate D2E/DX2                !
 --------------------------------------------------------------------------------
 Trust Radius=3.00D-01 FncErr=1.00D-07 GrdErr=1.00D-06
 Number of steps in this run=  64 maximum allowed number of steps= 100.
 GradGradGradGradGradGradGradGradGradGradGradGradGradGradGradGradGradGrad

                          Input orientation:                          
 ---------------------------------------------------------------------
 Center     Atomic      Atomic             Coordinates (Angstroms)
 Number     Number       Type             X           Y           Z
 ---------------------------------------------------------------------
      1         14           0        0.000000    0.000000   -2.556909
      2         14           0        1.343115    0.000000   -0.512564
      3         14           0        0.000000   -1.237018    1.208140
      4         14           0        0.000000    1.237018    1.208140
      5         14           0        0.000000    0.000000    3.295646
      6         14           0        0.000000    2.105530   -1.064716
      7         14           0       -1.343115    0.000000   -0.512564
      8         14           0        0.000000   -2.105530   -1.064716
 ---------------------------------------------------------------------
                    Distance matrix (angstroms):
                    1          2          3          4          5
     1  Si   0.000000
     2  Si   2.446080   0.000000
     3  Si   3.963055   2.508983   0.000000
     4  Si   3.963055   2.508983   2.474036   0.000000
     5  Si   5.852555   4.038121   2.426498   2.426498   0.000000
     6  Si   2.580678   2.557750   4.042091   2.433144   4.842108
     7  Si   2.446080   2.686230   2.508983   2.508983   4.038121
     8  Si   2.580678   2.557750   2.433144   4.042091   4.842108
                    6          7          8
     6  Si   0.000000
     7  Si   2.557750   0.000000
     8  Si   4.211060   2.557750   0.000000
 Stoichiometry    Si8(1+,2)
 Framework group  C2V[C2(SiSi),SGV(Si4),SGV'(Si2)]
 Deg. of freedom     7
 Full point group                 C2V     NOp   4
 Largest Abelian subgroup         C2V     NOp   4
 Largest concise Abelian subgroup C2V     NOp   4
                         Standard orientation:                         
 ---------------------------------------------------------------------
 Center     Atomic      Atomic             Coordinates (Angstroms)
 Number     Number       Type             X           Y           Z
 ---------------------------------------------------------------------
      1         14           0        0.000000    0.000000   -2.556966
      2         14           0       -1.343115    0.000000   -0.512621
      3         14           0        0.000000    1.237018    1.208083
      4         14           0        0.000000   -1.237018    1.208083
      5         14           0        0.000000    0.000000    3.295589
      6         14           0        0.000000   -2.105530   -1.064773
      7         14           0        1.343115    0.000000   -0.512621
      8         14           0        0.000000    2.105530   -1.064773
 ---------------------------------------------------------------------
 Rotational constants (GHZ):      1.1628131      0.6760815      0.5155599
 Standard basis: GTBas3 (6D, 7F)
 There are    96 symmetry adapted basis functions of A1  symmetry.
 There are    36 symmetry adapted basis functions of A2  symmetry.
 There are    56 symmetry adapted basis functions of B1  symmetry.
 There are    68 symmetry adapted basis functions of B2  symmetry.
 Integral buffers will be    131072 words long.
 Raffenetti 2 integral format.
 Two-electron integral symmetry is turned on.
   256 basis functions,   544 primitive gaussians,   280 cartesian basis functions
    56 alpha electrons       55 beta electrons
       nuclear repulsion energy       984.2457424704 Hartrees.
 NAtoms=    8 NActive=    8 NUniq=    5 SFac= 1.92D+00 NAtFMM=   80 NAOKFM=F Big=F
 One-electron integrals computed using PRISM.
 NBasis=   256 RedAO= T  NBF=    96    36    56    68
 NBsUse=   256 1.00D-06 NBFU=    96    36    56    68
 Harris functional with IExCor=  402 diagonalized for initial guess.
 ExpMin= 7.78D-02 ExpMax= 1.61D+04 ExpMxC= 2.43D+03 IAcc=2 IRadAn=         0 AccDes= 0.00D+00
 HarFok:  IExCor=  402 AccDes= 0.00D+00 IRadAn=         0 IDoV= 1
 ScaDFX=  1.000000  1.000000  1.000000  1.000000
 FoFCou: FMM=F IPFlag=           0 FMFlag=      100000 FMFlg1=           0
         NFxFlg=           0 DoJE=T BraDBF=F KetDBF=T FulRan=T
         Omega=  0.000000  0.000000  1.000000  0.000000  0.000000 ICntrl=     500 IOpCl=  0
         NMat0=    1 NMatS0=    1 NMatT0=    0 NMatD0=    1 NMtDS0=    0 NMtDT0=    0
         I1Cent=           4 NGrid=           0.
 Petite list used in FoFCou.
 Initial guess orbital symmetries:
 Alpha Orbitals:
       Occupied  (A1) (B2) (A1) (B1) (A1) (B2) (A1) (A1) (A1) (A1)
                 (B1) (B2) (A1) (B2) (A1) (A1) (A1) (B2) (A1) (A1)
                 (B1) (B2) (B1) (A1) (A2) (B2) (A2) (B1) (A1) (B2)
                 (A1) (B2) (B1) (A1) (B2) (B1) (A2) (A1) (B2) (B1)
                 (A1) (A1) (B2) (B1) (A1) (B2) (A1) (A1) (B1) (A2)
                 (B2) (A1) (B2) (A1) (A1) (B1)
       Virtual   (B1) (B2) (A2) (A1) (B1) (A1) (B2) (A1) (B1) (B2)
                 (A1) (A2) (B2) (B1) (A1) (B2) (A2) (B2) (B1) (A1)
                 (A1) (A1) (B1) (A2) (B2) (A1) (A1) (B1) (A1) (B2)
                 (A1) (B1) (A2) (A1) (B2) (A1) (B1) (B1) (B2) (A2)
                 (B2) (A1) (B2) (A1) (A2) (B1) (A1) (B2) (B1) (B1)
                 (A2) (B1) (A1) (B2) (A2) (B2) (A1) (B2) (A1) (A1)
                 (B2) (B1) (A2) (A1) (A1) (A2) (B1) (B2) (A1) (B1)
                 (B2) (A1) (B2) (A2) (A1) (A1) (B1) (A2) (A1) (B2)
                 (B1) (B2) (B1) (B2) (A1) (A1) (B2) (A1) (B1) (B2)
                 (A2) (B2) (A1) (A1) (B2) (B1) (A1) (A1) (B1) (A2)
                 (A1) (B1) (B1) (A2) (B2) (A1) (A2) (B1) (A1) (B2)
                 (A1) (B2) (B1) (A2) (A1) (B2) (B1) (A1) (B2) (A2)
                 (A1) (B2) (A1) (A1) (B2) (B1) (A2) (A1) (B2) (B2)
                 (A1) (A2) (B1) (B2) (A1) (B1) (A2) (B1) (A2) (B1)
                 (B2) (A1) (A1) (B1) (A1) (A2) (B2) (A1) (B2) (B1)
                 (B2) (A2) (B1) (A2) (A1) (B1) (A1) (B2) (A1) (B1)
                 (A1) (A1) (A2) (B2) (B2) (B1) (A2) (A1) (B1) (B2)
                 (A1) (B1) (A2) (B2) (A1) (A2) (B2) (B2) (A1) (A1)
                 (A2) (B1) (A1) (B2) (B1) (A2) (A1) (B1) (B2) (A1)
                 (B2) (A1) (A1) (A1) (A1) (B2) (B2) (B1) (A1) (A1)
 Beta  Orbitals:
       Occupied  (A1) (B2) (A1) (B1) (A1) (B2) (A1) (A1) (A1) (A1)
                 (B1) (B2) (A1) (B2) (A1) (A1) (A1) (B2) (A1) (A1)
                 (B1) (B2) (B1) (A1) (A2) (B2) (A2) (B1) (A1) (B2)
                 (A1) (B2) (B1) (A1) (B2) (B1) (A2) (A1) (B2) (B1)
                 (A1) (A1) (B2) (B1) (A1) (B2) (A1) (A1) (B1) (A2)
                 (B2) (A1) (B2) (A1) (A1)
       Virtual   (B1) (B1) (B2) (A2) (A1) (B1) (A1) (B2) (A1) (B1)
                 (B2) (A1) (A2) (B2) (B1) (A1) (B2) (A2) (B2) (B1)
                 (A1) (A1) (A1) (B1) (A2) (B2) (A1) (A1) (B1) (A1)
                 (B2) (A1) (B1) (A2) (A1) (B2) (A1) (B1) (B1) (B2)
                 (A2) (B2) (A1) (B2) (A1) (A2) (B1) (A1) (B2) (B1)
                 (B1) (A2) (B1) (A1) (B2) (A2) (B2) (A1) (B2) (A1)
                 (A1) (B2) (B1) (A2) (A1) (A1) (A2) (B1) (B2) (A1)
                 (B1) (B2) (A1) (B2) (A2) (A1) (A1) (B1) (A2) (A1)
                 (B2) (B1) (B2) (B1) (B2) (A1) (A1) (B2) (A1) (B1)
                 (B2) (A2) (B2) (A1) (A1) (B2) (B1) (A1) (A1) (B1)
                 (A2) (A1) (B1) (B1) (A2) (B2) (A1) (A2) (B1) (A1)
                 (B2) (A1) (B2) (B1) (A2) (A1) (B2) (B1) (A1) (B2)
                 (A2) (A1) (B2) (A1) (A1) (B2) (B1) (A2) (A1) (B2)
                 (B2) (A1) (A2) (B1) (B2) (A1) (B1) (A2) (B1) (A2)
                 (B1) (B2) (A1) (A1) (B1) (A1) (A2) (B2) (A1) (B2)
                 (B1) (B2) (A2) (B1) (A2) (A1) (B1) (A1) (B2) (A1)
                 (B1) (A1) (A1) (A2) (B2) (B2) (B1) (A2) (A1) (B1)
                 (B2) (A1) (B1) (A2) (B2) (A1) (A2) (B2) (B2) (A1)
                 (A1) (A2) (B1) (A1) (B2) (B1) (A2) (A1) (B1) (B2)
                 (A1) (B2) (A1) (A1) (A1) (A1) (B2) (B2) (B1) (A1)
                 (A1)
 The electronic state of the initial guess is 2-B1.
 Initial guess <Sx>= 0.0000 <Sy>= 0.0000 <Sz>= 0.5000 <S**2>= 0.7500 S= 0.5000
 Requested convergence on RMS density matrix=1.00D-08 within 128 cycles.
 Requested convergence on MAX density matrix=1.00D-06.
 Requested convergence on             energy=1.00D-06.
 No special actions if energy rises.
 Keep R1 and R2 ints in memory in canonical form, NReq=1559090547.
 Integral accuracy reduced to 1.0D-05 until final iterations.
 EnCoef did     5 forward-backward iterations
 Initial convergence to 1.0D-05 achieved.  Increase integral accuracy.
 SCF Done:  E(UB3LYP) =  -2315.65435951     A.U. after   18 cycles
             Convg  =    0.5782D-08             -V/T =  2.0035
 <Sx>= 0.0000 <Sy>= 0.0000 <Sz>= 0.5000 <S**2>= 0.7593 S= 0.5047
 <L.S>= 0.000000000000E+00
 Annihilation of the first spin contaminant:
 S**2 before annihilation     0.7593,   after     0.7501
 QCSCF skips out because SCF is already converged.

 **********************************************************************

            Population analysis using the SCF density.

 **********************************************************************

 Orbital symmetries:
 Alpha Orbitals:
       Occupied  (B2) (A1) (A1) (B2) (A1) (A1) (A1) (B1) (B2) (A1)
                 (A1) (B2) (A1) (A1) (B1) (A1) (B1) (A2) (A1) (B2)
                 (A1) (B2) (B1) (A2) (A1) (B2) (A1) (B2) (B1) (B2)
                 (A1) (B1) (B1) (A1) (B2) (A2) (B2) (A1) (B1) (A1)
                 (A1) (A1) (B2) (A1) (B1) (B2) (A1) (A1) (B1) (A2)
                 (B2) (A1) (A1) (B2) (A1) (B1)
       Virtual   (B1) (B2) (A2) (A1) (B1) (A1) (B2) (B1) (A1) (B2)
                 (A1) (A2) (B2) (B1) (B2) (A1) (A2) (B2) (B1) (A1)
                 (A1) (A1) (B1) (A2) (A1) (B2) (A1) (A1) (B1) (B2)
                 (A1) (B1) (A2) (B2) (A1) (B1) (A1) (B1) (B2) (A2)
                 (B2) (A1) (B2) (A1) (A2) (B1) (B1) (A1) (B2) (B1)
                 (A2) (B2) (A1) (B1) (A2) (B2) (A1) (B2) (A1) (A1)
                 (B1) (B2) (A2) (A1) (A1) (A2) (B1) (B2) (B1) (A1)
                 (B2) (A1) (B2) (A2) (A1) (A1) (B1) (A1) (A2) (B2)
                 (B1) (B2) (B1) (B2) (A1) (A1) (B2) (A1) (B1) (B2)
                 (A2) (A1) (B2) (A1) (B2) (B1) (A1) (A1) (B1) (A2)
                 (A1) (B1) (B1) (B2) (A1) (A2) (A1) (B2) (A2) (B1)
                 (A1) (B2) (B1) (A2) (A1) (B2) (B1) (A1) (B2) (A2)
                 (A1) (B2) (A1) (A1) (B1) (B2) (A2) (B2) (A1) (B2)
                 (A1) (A2) (B1) (B2) (A1) (B1) (A2) (B1) (B1) (B2)
                 (A2) (A1) (B1) (A1) (A2) (A1) (B2) (B1) (A1) (B2)
                 (B2) (A2) (B1) (A2) (A1) (A1) (B1) (B2) (A1) (B1)
                 (A2) (A1) (A1) (B2) (B2) (B1) (A2) (A1) (B1) (B2)
                 (A1) (B1) (A2) (B2) (A1) (B2) (A2) (B2) (A1) (A1)
                 (A2) (B1) (A1) (B2) (A2) (B1) (A1) (B1) (B2) (A1)
                 (B2) (A1) (A1) (A1) (A1) (B2) (B2) (B1) (A1) (A1)
 Beta  Orbitals:
       Occupied  (B2) (A1) (A1) (B2) (A1) (A1) (A1) (B1) (B2) (A1)
                 (A1) (B2) (A1) (A1) (B1) (A1) (B1) (A2) (A1) (B2)
                 (A1) (B2) (B1) (A2) (A1) (B2) (A1) (B2) (B2) (A1)
                 (B1) (A1) (B2) (A2) (B2) (B1) (A1) (B1) (A1) (B1)
                 (A1) (A1) (B2) (B1) (A1) (B2) (A1) (A1) (B1) (A2)
                 (B2) (A1) (A1) (B2) (A1)
       Virtual   (B1) (B1) (B2) (A2) (A1) (B1) (A1) (B2) (A1) (B1)
                 (B2) (A1) (A2) (B2) (B1) (B2) (A1) (B2) (A1) (A2)
                 (B1) (A1) (A1) (A2) (B1) (A1) (B2) (A1) (A1) (B1)
                 (B2) (A1) (B1) (A2) (B2) (A1) (A1) (B1) (B1) (B2)
                 (B2) (A2) (A1) (B2) (A1) (A2) (B1) (B1) (B2) (A1)
                 (B1) (A2) (B2) (A1) (B1) (B2) (A2) (A1) (B2) (A1)
                 (A1) (B2) (B1) (A2) (A1) (A1) (A2) (B1) (B2) (B1)
                 (A1) (B2) (A1) (B2) (A2) (A1) (A1) (B1) (A2) (A1)
                 (B2) (B1) (B2) (B1) (B2) (A1) (A1) (B2) (A1) (B2)
                 (B1) (A2) (A1) (B2) (A1) (B2) (B1) (A1) (A1) (B1)
                 (A1) (A2) (B1) (B1) (B2) (A2) (A1) (A1) (B2) (A2)
                 (B1) (A1) (B2) (B1) (A1) (A2) (B2) (B1) (A1) (B2)
                 (A2) (A1) (B2) (A1) (A1) (B1) (B2) (A2) (B2) (A1)
                 (B2) (A1) (A2) (B1) (B2) (A1) (A2) (B1) (B1) (B1)
                 (B2) (A2) (A1) (A1) (B1) (A1) (A2) (B2) (B1) (A1)
                 (B2) (B2) (A2) (B1) (A2) (A1) (A1) (B1) (B2) (A1)
                 (B1) (A1) (A2) (A1) (B2) (B2) (B1) (A2) (A1) (B2)
                 (B1) (A1) (B1) (A2) (B2) (A1) (B2) (A2) (B2) (A1)
                 (A1) (A2) (B1) (A1) (B2) (A2) (B1) (A1) (B1) (B2)
                 (A1) (B2) (A1) (A1) (A1) (A1) (B2) (B2) (B1) (A1)
                 (A1)
 The electronic state is 2-B1.
 Alpha  occ. eigenvalues --  -66.32971 -66.32970 -66.32197 -66.32197 -66.31925
 Alpha  occ. eigenvalues --  -66.31613 -66.31456 -66.31454  -5.47182  -5.47181
 Alpha  occ. eigenvalues --   -5.46697  -5.46692  -5.46252  -5.45992  -5.45989
 Alpha  occ. eigenvalues --   -5.45960  -3.83150  -3.83147  -3.82906  -3.82906
 Alpha  occ. eigenvalues --   -3.82857  -3.82855  -3.82738  -3.82737  -3.82520
 Alpha  occ. eigenvalues --   -3.82497  -3.82307  -3.82303  -3.82252  -3.82084
 Alpha  occ. eigenvalues --   -3.81929  -3.81923  -3.81892  -3.81890  -3.81774
 Alpha  occ. eigenvalues --   -3.81759  -3.81758  -3.81731  -3.81730  -3.81626
 Alpha  occ. eigenvalues --   -0.83974  -0.72768  -0.70229  -0.62649  -0.62199
 Alpha  occ. eigenvalues --   -0.55139  -0.55013  -0.49185  -0.44976  -0.43809
 Alpha  occ. eigenvalues --   -0.42778  -0.42222  -0.40456  -0.40272  -0.38943
 Alpha  occ. eigenvalues --   -0.34793
 Alpha virt. eigenvalues --   -0.26748  -0.25150  -0.24278  -0.23357  -0.23355
 Alpha virt. eigenvalues --   -0.19916  -0.18964  -0.17597  -0.17237  -0.15873
 Alpha virt. eigenvalues --   -0.14989  -0.13061  -0.12728  -0.10739  -0.06569
 Alpha virt. eigenvalues --   -0.06231  -0.01468  -0.01348  -0.01163  -0.01119
 Alpha virt. eigenvalues --   -0.00638   0.00198   0.01898   0.01903   0.02486
 Alpha virt. eigenvalues --    0.02668   0.04522   0.04925   0.05207   0.06688
 Alpha virt. eigenvalues --    0.07408   0.08237   0.08515   0.09061   0.09515
 Alpha virt. eigenvalues --    0.10750   0.11577   0.12384   0.12960   0.13609
 Alpha virt. eigenvalues --    0.14545   0.14617   0.15686   0.16307   0.16787
 Alpha virt. eigenvalues --    0.18095   0.19127   0.19290   0.19673   0.21364
 Alpha virt. eigenvalues --    0.22489   0.23003   0.23324   0.23441   0.23874
 Alpha virt. eigenvalues --    0.24401   0.24983   0.28378   0.29827   0.30611
 Alpha virt. eigenvalues --    0.32676   0.32893   0.33245   0.34274   0.36023
 Alpha virt. eigenvalues --    0.36389   0.36606   0.38305   0.42253   0.42694
 Alpha virt. eigenvalues --    0.44598   0.45275   0.46495   0.46759   0.46913
 Alpha virt. eigenvalues --    0.49389   0.50235   0.51065   0.51446   0.51789
 Alpha virt. eigenvalues --    0.53556   0.54012   0.54911   0.59048   0.60139
 Alpha virt. eigenvalues --    0.63475   0.63959   0.64730   0.68662   0.68743
 Alpha virt. eigenvalues --    0.71168   0.71306   0.71635   0.72257   0.73536
 Alpha virt. eigenvalues --    0.73664   0.75152   0.75643   0.77239   0.78036
 Alpha virt. eigenvalues --    0.78277   0.80801   0.85149   0.86010   0.88357
 Alpha virt. eigenvalues --    0.88392   0.89591   0.90402   0.90818   0.91169
 Alpha virt. eigenvalues --    0.93155   0.94462   0.95628   0.97583   0.97734
 Alpha virt. eigenvalues --    0.98494   0.99645   1.01560   1.02869   1.03505
 Alpha virt. eigenvalues --    1.03643   1.05840   1.06400   1.08637   1.08822
 Alpha virt. eigenvalues --    1.09666   1.10016   1.11686   1.12252   1.13114
 Alpha virt. eigenvalues --    1.15112   1.16013   1.16968   1.19135   1.19196
 Alpha virt. eigenvalues --    1.21509   1.21909   1.25894   1.26438   1.26538
 Alpha virt. eigenvalues --    1.26565   1.27668   1.33060   1.33301   1.34213
 Alpha virt. eigenvalues --    1.34441   1.36187   1.39201   1.39323   1.41675
 Alpha virt. eigenvalues --    1.44661   1.52632   1.54219   1.55481   1.59572
 Alpha virt. eigenvalues --    1.60109   1.61155   1.61737   1.63915   1.65892
 Alpha virt. eigenvalues --    1.65919   1.66024   1.66478   1.67731   1.68773
 Alpha virt. eigenvalues --    1.69379   1.70815   1.75696   1.75728   1.76185
 Alpha virt. eigenvalues --    1.78084   1.79955   1.80965   1.82403   1.82413
 Alpha virt. eigenvalues --    1.82994   1.83463   1.85246   1.85875   1.90604
 Alpha virt. eigenvalues --    1.92289   1.92373   1.94117   1.94376   1.95654
 Alpha virt. eigenvalues --    1.96558   1.97519   2.04717   2.07312   2.08412
 Alpha virt. eigenvalues --    2.12711   2.18334   2.34008   2.50683   2.65047
 Alpha virt. eigenvalues --    2.66325   2.74573   2.80667   2.83621   3.09717
  Beta  occ. eigenvalues --  -66.32974 -66.32974 -66.32198 -66.32198 -66.31728
  Beta  occ. eigenvalues --  -66.31556 -66.31417 -66.31415  -5.47186  -5.47185
  Beta  occ. eigenvalues --   -5.46699  -5.46693  -5.46033  -5.45940  -5.45937
  Beta  occ. eigenvalues --   -5.45896  -3.83154  -3.83150  -3.82914  -3.82913
  Beta  occ. eigenvalues --   -3.82862  -3.82861  -3.82723  -3.82723  -3.82526
  Beta  occ. eigenvalues --   -3.82502  -3.82310  -3.82306  -3.81960  -3.81889
  Beta  occ. eigenvalues --   -3.81882  -3.81778  -3.81742  -3.81724  -3.81723
  Beta  occ. eigenvalues --   -3.81680  -3.81657  -3.81649  -3.81593  -3.81533
  Beta  occ. eigenvalues --   -0.83835  -0.71963  -0.70253  -0.61838  -0.61346
  Beta  occ. eigenvalues --   -0.54996  -0.54931  -0.48396  -0.43911  -0.43761
  Beta  occ. eigenvalues --   -0.42451  -0.41767  -0.40331  -0.40250  -0.38596
  Beta virt. eigenvalues --   -0.28364  -0.26013  -0.24831  -0.24038  -0.23144
  Beta virt. eigenvalues --   -0.21773  -0.19756  -0.18866  -0.17128  -0.16789
  Beta virt. eigenvalues --   -0.15825  -0.14804  -0.12843  -0.12573  -0.09999
  Beta virt. eigenvalues --   -0.06460  -0.05740  -0.01350  -0.00852  -0.00779
  Beta virt. eigenvalues --   -0.00557   0.00322   0.00332   0.02030   0.02202
  Beta virt. eigenvalues --    0.02606   0.02657   0.04616   0.05174   0.05500
  Beta virt. eigenvalues --    0.06730   0.07817   0.08745   0.08942   0.09106
  Beta virt. eigenvalues --    0.09702   0.11940   0.12275   0.12818   0.13146
  Beta virt. eigenvalues --    0.14639   0.14729   0.15042   0.15718   0.16530
  Beta virt. eigenvalues --    0.16888   0.18717   0.19375   0.19740   0.19819
  Beta virt. eigenvalues --    0.21772   0.22642   0.23030   0.23448   0.23711
  Beta virt. eigenvalues --    0.24532   0.24815   0.25217   0.28562   0.30329
  Beta virt. eigenvalues --    0.30900   0.32975   0.33449   0.33492   0.34567
  Beta virt. eigenvalues --    0.36236   0.36856   0.37493   0.38395   0.42524
  Beta virt. eigenvalues --    0.43458   0.44691   0.45578   0.46668   0.46954
  Beta virt. eigenvalues --    0.47099   0.49566   0.50439   0.51504   0.51530
  Beta virt. eigenvalues --    0.51804   0.54036   0.54081   0.55031   0.59139
  Beta virt. eigenvalues --    0.60488   0.63775   0.64062   0.64844   0.68911
  Beta virt. eigenvalues --    0.69012   0.71444   0.71775   0.72032   0.72452
  Beta virt. eigenvalues --    0.73792   0.74464   0.75255   0.75742   0.78042
  Beta virt. eigenvalues --    0.78460   0.78661   0.81874   0.85279   0.87456
  Beta virt. eigenvalues --    0.88436   0.88895   0.90202   0.90641   0.91267
  Beta virt. eigenvalues --    0.91649   0.93317   0.94646   0.96845   0.97872
  Beta virt. eigenvalues --    0.97988   0.98572   1.00288   1.01894   1.03027
  Beta virt. eigenvalues --    1.03999   1.04147   1.05963   1.06554   1.08861
  Beta virt. eigenvalues --    1.09175   1.09852   1.10253   1.12110   1.12439
  Beta virt. eigenvalues --    1.13184   1.15444   1.16159   1.17284   1.19194
  Beta virt. eigenvalues --    1.19473   1.22021   1.22051   1.26087   1.26700
  Beta virt. eigenvalues --    1.26709   1.26850   1.27836   1.33437   1.33491
  Beta virt. eigenvalues --    1.34600   1.34690   1.36291   1.39403   1.39541
  Beta virt. eigenvalues --    1.41681   1.44689   1.52936   1.54696   1.56247
  Beta virt. eigenvalues --    1.60055   1.60798   1.61306   1.61771   1.64025
  Beta virt. eigenvalues --    1.66000   1.66079   1.66163   1.66698   1.67749
  Beta virt. eigenvalues --    1.68844   1.69593   1.70970   1.75946   1.76242
  Beta virt. eigenvalues --    1.76435   1.78166   1.80203   1.81074   1.82408
  Beta virt. eigenvalues --    1.82511   1.83018   1.83680   1.85270   1.85918
  Beta virt. eigenvalues --    1.90667   1.92316   1.92506   1.94276   1.94428
  Beta virt. eigenvalues --    1.95981   1.96766   1.97646   2.04910   2.07355
  Beta virt. eigenvalues --    2.08461   2.12800   2.18468   2.34211   2.51447
  Beta virt. eigenvalues --    2.65186   2.66388   2.74609   2.80810   2.83805
  Beta virt. eigenvalues --    3.09829
          Condensed to atoms (all electrons):
              1          2          3          4          5          6
     1  Si  13.537117   0.076095   0.002615   0.002615  -0.000474   0.086609
     2  Si   0.076095  13.601634   0.070957   0.070957  -0.004693   0.048396
     3  Si   0.002615   0.070957  13.300859   0.112042   0.145735   0.001300
     4  Si   0.002615   0.070957   0.112042  13.300859   0.145735   0.165333
     5  Si  -0.000474  -0.004693   0.145735   0.145735  13.570317  -0.005899
     6  Si   0.086609   0.048396   0.001300   0.165333  -0.005899  13.497101
     7  Si   0.076095   0.018924   0.070957   0.070957  -0.004693   0.048396
     8  Si   0.086609   0.048396   0.165333   0.001300  -0.005899   0.004597
              7          8
     1  Si   0.076095   0.086609
     2  Si   0.018924   0.048396
     3  Si   0.070957   0.165333
     4  Si   0.070957   0.001300
     5  Si  -0.004693  -0.005899
     6  Si   0.048396   0.004597
     7  Si  13.601634   0.048396
     8  Si   0.048396  13.497101
 Mulliken atomic charges:
              1
     1  Si   0.132721
     2  Si   0.069334
     3  Si   0.130202
     4  Si   0.130202
     5  Si   0.159871
     6  Si   0.154168
     7  Si   0.069334
     8  Si   0.154168
 Sum of Mulliken atomic charges =   1.00000
 Mulliken charges with hydrogens summed into heavy atoms:
              1
     1  Si   0.132721
     2  Si   0.069334
     3  Si   0.130202
     4  Si   0.130202
     5  Si   0.159871
     6  Si   0.154168
     7  Si   0.069334
     8  Si   0.154168
 Sum of Mulliken charges with hydrogens summed into heavy atoms =   1.00000
          Atomic-Atomic Spin Densities.
              1          2          3          4          5          6
     1  Si   0.151709   0.000845   0.002253   0.002253   0.000427   0.003150
     2  Si   0.000845   0.130765  -0.021049  -0.021049  -0.013282  -0.002395
     3  Si   0.002253  -0.021049   0.034957   0.009980   0.042010   0.000564
     4  Si   0.002253  -0.021049   0.009980   0.034957   0.042010   0.002141
     5  Si   0.000427  -0.013282   0.042010   0.042010   0.574855   0.000182
     6  Si   0.003150  -0.002395   0.000564   0.002141   0.000182  -0.007900
     7  Si   0.000845  -0.013725  -0.021049  -0.021049  -0.013282  -0.002395
     8  Si   0.003150  -0.002395   0.002141   0.000564   0.000182   0.000264
              7          8
     1  Si   0.000845   0.003150
     2  Si  -0.013725  -0.002395
     3  Si  -0.021049   0.002141
     4  Si  -0.021049   0.000564
     5  Si  -0.013282   0.000182
     6  Si  -0.002395   0.000264
     7  Si   0.130765  -0.002395
     8  Si  -0.002395  -0.007900
 Mulliken atomic spin densities:
              1
     1  Si   0.164633
     2  Si   0.057715
     3  Si   0.049807
     4  Si   0.049807
     5  Si   0.633102
     6  Si  -0.006390
     7  Si   0.057715
     8  Si  -0.006390
 Sum of Mulliken atomic spin densities =   1.00000
 Electronic spatial extent (au):  <R**2>=           2123.1423
 Charge=              1.0000 electrons
 Dipole moment (field-independent basis, Debye):
    X=              0.0000    Y=              0.0000    Z=              0.3605  Tot=              0.3605
 Quadrupole moment (field-independent basis, Debye-Ang):
   XX=            -92.6271   YY=            -86.0539   ZZ=            -78.2857
   XY=              0.0000   XZ=              0.0000   YZ=              0.0000
 Traceless Quadrupole moment (field-independent basis, Debye-Ang):
   XX=             -6.9715   YY=             -0.3984   ZZ=              7.3699
   XY=              0.0000   XZ=              0.0000   YZ=              0.0000
 Octapole moment (field-independent basis, Debye-Ang**2):
  XXX=              0.0000  YYY=              0.0000  ZZZ=             22.4993  XYY=              0.0000
  XXY=              0.0000  XXZ=             -4.1620  XZZ=              0.0000  YZZ=              0.0000
  YYZ=             -4.1843  XYZ=              0.0000
 Hexadecapole moment (field-independent basis, Debye-Ang**3):
 XXXX=           -412.3729 YYYY=           -995.4266 ZZZZ=          -1701.6244 XXXY=              0.0000
 XXXZ=              0.0000 YYYX=              0.0000 YYYZ=              0.0000 ZZZX=              0.0000
 ZZZY=              0.0000 XXYY=           -235.2343 XXZZ=           -379.5173 YYZZ=           -460.3444
 XXYZ=              0.0000 YYXZ=              0.0000 ZZXY=              0.0000
 N-N= 9.842457424704D+02 E-N=-1.118351774531D+04  KE= 3.460747280190D+03
 Symmetry A1   KE= 1.903400870923D+03
 Symmetry A2   KE= 1.123565118191D+02
 Symmetry B1   KE= 5.426819740082D+02
 Symmetry B2   KE= 9.023079234394D+02
                          Isotropic Fermi Contact Couplings
        Atom                 a.u.       MegaHertz       Gauss      10(-4) cm-1
     1  Si(29)             0.00383      -3.40190      -1.21388      -1.13475
     2  Si(29)             0.13006    -115.58788     -41.24463     -38.55597
     3  Si(29)            -0.02314      20.56404       7.33776       6.85943
     4  Si(29)            -0.02314      20.56404       7.33776       6.85943
     5  Si(29)             0.01536     -13.65492      -4.87241      -4.55479
     6  Si(29)            -0.00153       1.35878       0.48484       0.45324
     7  Si(29)             0.13006    -115.58788     -41.24463     -38.55597
     8  Si(29)            -0.00153       1.35878       0.48484       0.45324
 --------------------------------------------------------
       Center         ----  Spin Dipole Couplings  ----
                      3XX-RR        3YY-RR        3ZZ-RR
 --------------------------------------------------------
     1   Atom        0.345945     -0.172795     -0.173150
     2   Atom       -0.000433     -0.049153      0.049587
     3   Atom        0.031751     -0.016482     -0.015269
     4   Atom        0.031751     -0.016482     -0.015269
     5   Atom        1.133474     -0.548800     -0.584674
     6   Atom        0.004550      0.000479     -0.005029
     7   Atom       -0.000433     -0.049153      0.049587
     8   Atom        0.004550      0.000479     -0.005029
 --------------------------------------------------------
                        XY            XZ            YZ
 --------------------------------------------------------
     1   Atom        0.000000      0.000000      0.000000
     2   Atom        0.000000     -0.122756      0.000000
     3   Atom        0.000000      0.000000     -0.012743
     4   Atom        0.000000      0.000000      0.012743
     5   Atom        0.000000      0.000000      0.000000
     6   Atom        0.000000      0.000000     -0.000075
     7   Atom        0.000000      0.122756      0.000000
     8   Atom        0.000000      0.000000      0.000075
 --------------------------------------------------------


 ---------------------------------------------------------------------------------
              Anisotropic Spin Dipole Couplings in Principal Axis System
 ---------------------------------------------------------------------------------

       Atom             a.u.   MegaHertz   Gauss  10(-4) cm-1        Axes

              Baa    -0.1731    18.368     6.554     6.127  0.0000  0.0000  1.0000
     1 Si(29) Bbb    -0.1728    18.331     6.541     6.115  0.0000  1.0000  0.0000
              Bcc     0.3459   -36.699   -13.095   -12.242  1.0000  0.0000  0.0000
 
              Baa    -0.1007    10.683     3.812     3.563  0.7745  0.0000  0.6326
     2 Si(29) Bbb    -0.0492     5.214     1.861     1.739  0.0000  1.0000  0.0000
              Bcc     0.1499   -15.897    -5.673    -5.303 -0.6326  0.0000  0.7745
 
              Baa    -0.0286     3.037     1.084     1.013  0.0000  0.7237  0.6901
     3 Si(29) Bbb    -0.0031     0.331     0.118     0.110  0.0000 -0.6901  0.7237
              Bcc     0.0318    -3.368    -1.202    -1.124  1.0000  0.0000  0.0000
 
              Baa    -0.0286     3.037     1.084     1.013  0.0000  0.7237 -0.6901
     4 Si(29) Bbb    -0.0031     0.331     0.118     0.110  0.0000  0.6901  0.7237
              Bcc     0.0318    -3.368    -1.202    -1.124  1.0000  0.0000  0.0000
 
              Baa    -0.5847    62.025    22.132    20.689  0.0000  0.0000  1.0000
     5 Si(29) Bbb    -0.5488    58.219    20.774    19.420  0.0000  1.0000  0.0000
              Bcc     1.1335  -120.243   -42.906   -40.109  1.0000  0.0000  0.0000
 
              Baa    -0.0050     0.534     0.190     0.178  0.0000  0.0136  0.9999
     6 Si(29) Bbb     0.0005    -0.051    -0.018    -0.017  0.0000  0.9999 -0.0136
              Bcc     0.0046    -0.483    -0.172    -0.161  1.0000  0.0000  0.0000
 
              Baa    -0.1007    10.683     3.812     3.563  0.7745  0.0000 -0.6326
     7 Si(29) Bbb    -0.0492     5.214     1.861     1.739  0.0000  1.0000  0.0000
              Bcc     0.1499   -15.897    -5.673    -5.303  0.6326  0.0000  0.7745
 
              Baa    -0.0050     0.534     0.190     0.178  0.0000 -0.0136  0.9999
     8 Si(29) Bbb     0.0005    -0.051    -0.018    -0.017  0.0000  0.9999  0.0136
              Bcc     0.0046    -0.483    -0.172    -0.161  1.0000  0.0000  0.0000
 

 ---------------------------------------------------------------------------------

 Calling FoFJK, ICntrl=      2127 FMM=F ISym2X=1 I1Cent= 0 IOpClX= 1 NMat=1 NMatS=1 NMatT=0.
 ***** Axes restored to original set *****
 -------------------------------------------------------------------
 Center     Atomic                   Forces (Hartrees/Bohr)
 Number     Number              X              Y              Z
 -------------------------------------------------------------------
      1       14           0.000000000    0.000000000    0.003038694
      2       14          -0.001011833    0.000000000   -0.000726908
      3       14           0.000000000    0.001798226   -0.000847863
      4       14           0.000000000   -0.001798226   -0.000847863
      5       14           0.000000000    0.000000000   -0.002904154
      6       14           0.000000000   -0.001911891    0.001507502
      7       14           0.001011833    0.000000000   -0.000726908
      8       14           0.000000000    0.001911891    0.001507502
 -------------------------------------------------------------------
 Cartesian Forces:  Max     0.003038694 RMS     0.001299566

 GradGradGradGradGradGradGradGradGradGradGradGradGradGradGradGradGradGrad
 Berny optimization.
 Internal  Forces:  Max     0.001636701 RMS     0.000591891
 Search for a local minimum.
 Step number   1 out of a maximum of   64
 All quantities printed in internal units (Hartrees-Bohrs-Radians)
 Mixed Optimization -- En-DIIS/RFO-DIIS
 Second derivative matrix not updated -- first step.
     Eigenvalues ---    0.00580   0.01006   0.04920   0.07705   0.08415
     Eigenvalues ---    0.08445   0.08839   0.09050   0.09648   0.09931
     Eigenvalues ---    0.10606   0.10767   0.11734   0.12068   0.12487
     Eigenvalues ---    0.12789   0.14480   0.147631000.000001000.00000
     Eigenvalues --- 1000.000001000.000001000.000001000.000001000.00000
     Eigenvalues --- 1000.000001000.000001000.000001000.000001000.00000
     Eigenvalues --- 1000.000001000.000001000.000001000.000001000.00000
     Eigenvalues --- 1000.000001000.000001000.000001000.000001000.00000
     Eigenvalues --- 1000.000001000.000001000.000001000.000001000.00000
     Eigenvalues --- 1000.000001000.000001000.000001000.000001000.00000
     Eigenvalues --- 1000.000001000.000001000.000001000.00000
 RFO step:  Lambda=-1.77496029D-04 EMin= 5.79743318D-03
 Linear search not attempted -- first point.
 Iteration  1 RMS(Cart)=  0.00418835 RMS(Int)=  0.00000395
 Iteration  2 RMS(Cart)=  0.00000156 RMS(Int)=  0.00000273
 Iteration  3 RMS(Cart)=  0.00000000 RMS(Int)=  0.00000273
 ClnCor:  largest displacement from symmetrization is 6.63D-11 for atom     5.
 Variable       Old X    -DE/DX   Delta X   Delta X   Delta X     New X
                                 (Linear)    (Quad)   (Total)
    R1        4.62242  -0.00125   0.00000  -0.01198  -0.01198   4.61044
    R2        4.87677  -0.00063   0.00000  -0.00730  -0.00730   4.86947
    R3        4.62242  -0.00125   0.00000  -0.01198  -0.01198   4.61044
    R4        4.87677  -0.00063   0.00000  -0.00730  -0.00730   4.86947
    R5        4.74129  -0.00049   0.00000  -0.00510  -0.00510   4.73619
    R6        4.74129  -0.00049   0.00000  -0.00510  -0.00510   4.73619
    R7        4.83345  -0.00054   0.00000  -0.00690  -0.00690   4.82655
    R8        5.07624   0.00042   0.00000   0.00071   0.00070   5.07694
    R9        4.83345  -0.00054   0.00000  -0.00690  -0.00690   4.82655
   R10        4.67525  -0.00100   0.00000  -0.00905  -0.00906   4.66620
   R11        4.58542  -0.00164   0.00000  -0.01520  -0.01520   4.57022
   R12        4.74129  -0.00049   0.00000  -0.00510  -0.00510   4.73619
   R13        4.59797  -0.00162   0.00000  -0.01427  -0.01427   4.58370
   R14        4.58542  -0.00164   0.00000  -0.01520  -0.01520   4.57022
   R15        4.59797  -0.00162   0.00000  -0.01427  -0.01427   4.58370
   R16        4.74129  -0.00049   0.00000  -0.00510  -0.00510   4.73619
   R17        4.83345  -0.00054   0.00000  -0.00690  -0.00690   4.82655
   R18        4.83345  -0.00054   0.00000  -0.00690  -0.00690   4.82655
    A1        1.90851   0.00003   0.00000   0.00003   0.00003   1.90854
    A2        1.85380  -0.00029   0.00000  -0.00209  -0.00209   1.85171
    A3        1.85380  -0.00029   0.00000  -0.00209  -0.00209   1.85171
    A4        1.84711  -0.00033   0.00000  -0.00254  -0.00255   1.84456
    A5        1.84711  -0.00033   0.00000  -0.00254  -0.00255   1.84456
    A6        1.93404  -0.00002   0.00000  -0.00017  -0.00017   1.93386
    A7        1.91629  -0.00008   0.00000  -0.00063  -0.00063   1.91566
    A8        1.93580   0.00014   0.00000   0.00086   0.00087   1.93666
    A9        1.91629  -0.00008   0.00000  -0.00063  -0.00063   1.91566
   A10        2.97165   0.00006   0.00000   0.00005   0.00005   2.97169
   A11        1.91629  -0.00008   0.00000  -0.00063  -0.00063   1.91566
   A12        1.93580   0.00014   0.00000   0.00086   0.00087   1.93666
   A13        2.97165   0.00006   0.00000   0.00005   0.00005   2.97169
   A14        1.91629  -0.00008   0.00000  -0.00063  -0.00063   1.91566
   A15        1.82234  -0.00015   0.00000  -0.00088  -0.00088   1.82146
   A16        1.85380  -0.00029   0.00000  -0.00209  -0.00209   1.85171
   A17        1.85380  -0.00029   0.00000  -0.00209  -0.00209   1.85171
   A18        1.84711  -0.00033   0.00000  -0.00254  -0.00255   1.84456
   A19        1.84711  -0.00033   0.00000  -0.00254  -0.00255   1.84456
   A20        1.93404  -0.00002   0.00000  -0.00017  -0.00017   1.93386
   A21        1.82234  -0.00015   0.00000  -0.00088  -0.00088   1.82146
    D1        0.00000   0.00000   0.00000   0.00000   0.00000   0.00000
    D2        0.00000   0.00000   0.00000   0.00000   0.00000   0.00000
    D3       -2.33387   0.00016   0.00000   0.00134   0.00134  -2.33253
    D4       -1.20199   0.00011   0.00000   0.00108   0.00108  -1.20090
    D5        2.33387  -0.00016   0.00000  -0.00134  -0.00134   2.33253
    D6        1.20199  -0.00011   0.00000  -0.00108  -0.00108   1.20090
    D7        0.00000   0.00000   0.00000   0.00000   0.00000   0.00000
    D8        2.33387  -0.00016   0.00000  -0.00134  -0.00134   2.33253
    D9        1.20199  -0.00011   0.00000  -0.00108  -0.00108   1.20090
   D10        0.00000   0.00000   0.00000   0.00000   0.00000   0.00000
   D11        0.00000   0.00000   0.00000   0.00000   0.00000   0.00000
   D12        0.00000   0.00000   0.00000   0.00000   0.00000   0.00000
   D13        0.00000   0.00000   0.00000   0.00000   0.00000   0.00000
   D14       -2.33387   0.00016   0.00000   0.00134   0.00134  -2.33253
   D15       -1.20199   0.00011   0.00000   0.00108   0.00108  -1.20090
         Item               Value     Threshold  Converged?
 Maximum Force            0.001637     0.000450     NO 
 RMS     Force            0.000592     0.000300     NO 
 Maximum Displacement     0.020294     0.001800     NO 
 RMS     Displacement     0.004189     0.001200     NO 
 Predicted change in Energy=-8.889188D-05
 GradGradGradGradGradGradGradGradGradGradGradGradGradGradGradGradGradGrad

                          Input orientation:                          
 ---------------------------------------------------------------------
 Center     Atomic      Atomic             Coordinates (Angstroms)
 Number     Number       Type             X           Y           Z
 ---------------------------------------------------------------------
      1         14           0        0.000000    0.000000   -2.549649
      2         14           0        1.343300    0.000000   -0.513015
      3         14           0        0.000000   -1.234622    1.205333
      4         14           0        0.000000    1.234622    1.205333
      5         14           0        0.000000    0.000000    3.284907
      6         14           0        0.000000    2.102399   -1.059718
      7         14           0       -1.343300    0.000000   -0.513015
      8         14           0        0.000000   -2.102399   -1.059718
 ---------------------------------------------------------------------
                    Distance matrix (angstroms):
                    1          2          3          4          5
     1  Si   0.000000
     2  Si   2.439741   0.000000
     3  Si   3.952744   2.506285   0.000000
     4  Si   3.952744   2.506285   2.469244   0.000000
     5  Si   5.834556   4.028482   2.418454   2.418454   0.000000
     6  Si   2.576815   2.554099   4.033134   2.425591   4.826578
     7  Si   2.439741   2.686600   2.506285   2.506285   4.028482
     8  Si   2.576815   2.554099   2.425591   4.033134   4.826578
                    6          7          8
     6  Si   0.000000
     7  Si   2.554099   0.000000
     8  Si   4.204798   2.554099   0.000000
 Stoichiometry    Si8(1+,2)
 Framework group  C2V[C2(SiSi),SGV(Si4),SGV'(Si2)]
 Deg. of freedom     7
 Full point group                 C2V     NOp   4
 Largest Abelian subgroup         C2V     NOp   4
 Largest concise Abelian subgroup C2V     NOp   4
                         Standard orientation:                         
 ---------------------------------------------------------------------
 Center     Atomic      Atomic             Coordinates (Angstroms)
 Number     Number       Type             X           Y           Z
 ---------------------------------------------------------------------
      1         14           0        0.000000    0.000000   -2.549706
      2         14           0       -1.343300    0.000000   -0.513072
      3         14           0        0.000000    1.234622    1.205276
      4         14           0        0.000000   -1.234622    1.205276
      5         14           0        0.000000    0.000000    3.284850
      6         14           0        0.000000   -2.102399   -1.059776
      7         14           0        1.343300    0.000000   -0.513072
      8         14           0        0.000000    2.102399   -1.059776
 ---------------------------------------------------------------------
 Rotational constants (GHZ):      1.1656044      0.6796582      0.5182191
 Standard basis: GTBas3 (6D, 7F)
 There are    96 symmetry adapted basis functions of A1  symmetry.
 There are    36 symmetry adapted basis functions of A2  symmetry.
 There are    56 symmetry adapted basis functions of B1  symmetry.
 There are    68 symmetry adapted basis functions of B2  symmetry.
 Integral buffers will be    131072 words long.
 Raffenetti 2 integral format.
 Two-electron integral symmetry is turned on.
   256 basis functions,   544 primitive gaussians,   280 cartesian basis functions
    56 alpha electrons       55 beta electrons
       nuclear repulsion energy       986.2249415635 Hartrees.
 NAtoms=    8 NActive=    8 NUniq=    5 SFac= 1.92D+00 NAtFMM=   80 NAOKFM=F Big=F
 One-electron integrals computed using PRISM.
 NBasis=   256 RedAO= T  NBF=    96    36    56    68
 NBsUse=   256 1.00D-06 NBFU=    96    36    56    68
 Initial guess read from the read-write file.
 B after Tr=     0.000000    0.000000    0.000000
         Rot=    1.000000    0.000000    0.000000    0.000000 Ang=   0.00 deg.
 Initial guess orbital symmetries:
 Alpha Orbitals:
       Occupied  (B2) (A1) (A1) (B2) (A1) (A1) (A1) (B1) (B2) (A1)
                 (A1) (B2) (A1) (A1) (B1) (A1) (B1) (A2) (A1) (B2)
                 (A1) (B2) (B1) (A2) (A1) (B2) (A1) (B2) (B1) (B2)
                 (A1) (B1) (B1) (A1) (B2) (A2) (B2) (A1) (B1) (A1)
                 (A1) (A1) (B2) (A1) (B1) (B2) (A1) (A1) (B1) (A2)
                 (B2) (A1) (A1) (B2) (A1) (B1)
       Virtual   (B1) (B2) (A2) (A1) (B1) (A1) (B2) (B1) (A1) (B2)
                 (A1) (A2) (B2) (B1) (B2) (A1) (A2) (B2) (B1) (A1)
                 (A1) (A1) (B1) (A2) (A1) (B2) (A1) (A1) (B1) (B2)
                 (A1) (B1) (A2) (B2) (A1) (B1) (A1) (B1) (B2) (A2)
                 (B2) (A1) (B2) (A1) (A2) (B1) (B1) (A1) (B2) (B1)
                 (A2) (B2) (A1) (B1) (A2) (B2) (A1) (B2) (A1) (A1)
                 (B1) (B2) (A2) (A1) (A1) (A2) (B1) (B2) (B1) (A1)
                 (B2) (A1) (B2) (A2) (A1) (A1) (B1) (A1) (A2) (B2)
                 (B1) (B2) (B1) (B2) (A1) (A1) (B2) (A1) (B1) (B2)
                 (A2) (A1) (B2) (A1) (B2) (B1) (A1) (A1) (B1) (A2)
                 (A1) (B1) (B1) (B2) (A1) (A2) (A1) (B2) (A2) (B1)
                 (A1) (B2) (B1) (A2) (A1) (B2) (B1) (A1) (B2) (A2)
                 (A1) (B2) (A1) (A1) (B1) (B2) (A2) (B2) (A1) (B2)
                 (A1) (A2) (B1) (B2) (A1) (B1) (A2) (B1) (B1) (B2)
                 (A2) (A1) (B1) (A1) (A2) (A1) (B2) (B1) (A1) (B2)
                 (B2) (A2) (B1) (A2) (A1) (A1) (B1) (B2) (A1) (B1)
                 (A2) (A1) (A1) (B2) (B2) (B1) (A2) (A1) (B1) (B2)
                 (A1) (B1) (A2) (B2) (A1) (B2) (A2) (B2) (A1) (A1)
                 (A2) (B1) (A1) (B2) (A2) (B1) (A1) (B1) (B2) (A1)
                 (B2) (A1) (A1) (A1) (A1) (B2) (B2) (B1) (A1) (A1)
 Beta  Orbitals:
       Occupied  (B2) (A1) (A1) (B2) (A1) (A1) (A1) (B1) (B2) (A1)
                 (A1) (B2) (A1) (A1) (B1) (A1) (B1) (A2) (A1) (B2)
                 (A1) (B2) (B1) (A2) (A1) (B2) (A1) (B2) (B2) (A1)
                 (B1) (A1) (B2) (A2) (B2) (B1) (A1) (B1) (A1) (B1)
                 (A1) (A1) (B2) (B1) (A1) (B2) (A1) (A1) (B1) (A2)
                 (B2) (A1) (A1) (B2) (A1)
       Virtual   (B1) (B1) (B2) (A2) (A1) (B1) (A1) (B2) (A1) (B1)
                 (B2) (A1) (A2) (B2) (B1) (B2) (A1) (B2) (A1) (A2)
                 (B1) (A1) (A1) (A2) (B1) (A1) (B2) (A1) (A1) (B1)
                 (B2) (A1) (B1) (A2) (B2) (A1) (A1) (B1) (B1) (B2)
                 (B2) (A2) (A1) (B2) (A1) (A2) (B1) (B1) (B2) (A1)
                 (B1) (A2) (B2) (A1) (B1) (B2) (A2) (A1) (B2) (A1)
                 (A1) (B2) (B1) (A2) (A1) (A1) (A2) (B1) (B2) (B1)
                 (A1) (B2) (A1) (B2) (A2) (A1) (A1) (B1) (A2) (A1)
                 (B2) (B1) (B2) (B1) (B2) (A1) (A1) (B2) (A1) (B2)
                 (B1) (A2) (A1) (B2) (A1) (B2) (B1) (A1) (A1) (B1)
                 (A1) (A2) (B1) (B1) (B2) (A2) (A1) (A1) (B2) (A2)
                 (B1) (A1) (B2) (B1) (A1) (A2) (B2) (B1) (A1) (B2)
                 (A2) (A1) (B2) (A1) (A1) (B1) (B2) (A2) (B2) (A1)
                 (B2) (A1) (A2) (B1) (B2) (A1) (A2) (B1) (B1) (B1)
                 (B2) (A2) (A1) (A1) (B1) (A1) (A2) (B2) (B1) (A1)
                 (B2) (B2) (A2) (B1) (A2) (A1) (A1) (B1) (B2) (A1)
                 (B1) (A1) (A2) (A1) (B2) (B2) (B1) (A2) (A1) (B2)
                 (B1) (A1) (B1) (A2) (B2) (A1) (B2) (A2) (B2) (A1)
                 (A1) (A2) (B1) (A1) (B2) (A2) (B1) (A1) (B1) (B2)
                 (A1) (B2) (A1) (A1) (A1) (A1) (B2) (B2) (B1) (A1)
                 (A1)
 Initial guess <Sx>= 0.0000 <Sy>= 0.0000 <Sz>= 0.5000 <S**2>= 0.7593 S= 0.5046
 Harris functional with IExCor=  402 diagonalized for initial guess.
 ExpMin= 7.78D-02 ExpMax= 1.61D+04 ExpMxC= 2.43D+03 IAcc=2 IRadAn=         0 AccDes= 0.00D+00
 HarFok:  IExCor=  402 AccDes= 0.00D+00 IRadAn=         0 IDoV= 1
 ScaDFX=  1.000000  1.000000  1.000000  1.000000
 FoFCou: FMM=F IPFlag=           0 FMFlag=      100000 FMFlg1=           0
         NFxFlg=           0 DoJE=T BraDBF=F KetDBF=T FulRan=T
         Omega=  0.000000  0.000000  1.000000  0.000000  0.000000 ICntrl=     500 IOpCl=  0
         NMat0=    1 NMatS0=    1 NMatT0=    0 NMatD0=    1 NMtDS0=    0 NMtDT0=    0
         I1Cent=           4 NGrid=           0.
 Petite list used in FoFCou.
 Requested convergence on RMS density matrix=1.00D-08 within 128 cycles.
 Requested convergence on MAX density matrix=1.00D-06.
 Requested convergence on             energy=1.00D-06.
 No special actions if energy rises.
 Keep R1 and R2 ints in memory in canonical form, NReq=1559090547.
 Integral accuracy reduced to 1.0D-05 until final iterations.
 EnCoef did     7 forward-backward iterations
 Initial convergence to 1.0D-05 achieved.  Increase integral accuracy.
 SCF Done:  E(UB3LYP) =  -2315.65449126     A.U. after   13 cycles
             Convg  =    0.6652D-08             -V/T =  2.0035
 <Sx>= 0.0000 <Sy>= 0.0000 <Sz>= 0.5000 <S**2>= 0.7593 S= 0.5046
 <L.S>= 0.000000000000E+00
 Annihilation of the first spin contaminant:
 S**2 before annihilation     0.7593,   after     0.7501
 QCSCF skips out because SCF is already converged.
 Calling FoFJK, ICntrl=      2127 FMM=F ISym2X=1 I1Cent= 0 IOpClX= 1 NMat=1 NMatS=1 NMatT=0.
 ***** Axes restored to original set *****
 -------------------------------------------------------------------
 Center     Atomic                   Forces (Hartrees/Bohr)
 Number     Number              X              Y              Z
 -------------------------------------------------------------------
      1       14           0.000000000    0.000000000    0.001268538
      2       14          -0.000584958    0.000000000   -0.000507821
      3       14           0.000000000    0.001069087   -0.000349892
      4       14           0.000000000   -0.001069087   -0.000349892
      5       14           0.000000000    0.000000000   -0.001302610
      6       14           0.000000000   -0.000958300    0.000874750
      7       14           0.000584958    0.000000000   -0.000507821
      8       14           0.000000000    0.000958300    0.000874750
 -------------------------------------------------------------------
 Cartesian Forces:  Max     0.001302610 RMS     0.000658404

 GradGradGradGradGradGradGradGradGradGradGradGradGradGradGradGradGradGrad
 Berny optimization.
 Using GEDIIS/GDIIS optimizer.
 Internal  Forces:  Max     0.000785527 RMS     0.000289864
 Search for a local minimum.
 Step number   2 out of a maximum of   64
 All quantities printed in internal units (Hartrees-Bohrs-Radians)
 Mixed Optimization -- En-DIIS/RFO-DIIS
 Swaping is turned off.
 Update second derivatives using D2CorX and points    1    2
 DE= -1.32D-04 DEPred=-8.89D-05 R= 1.48D+00
 SS=  1.41D+00  RLast= 4.12D-02 DXNew= 5.0454D-01 1.2369D-01
 Trust test= 1.48D+00 RLast= 4.12D-02 DXMaxT set to 3.00D-01
     Eigenvalues ---    0.00580   0.01003   0.04924   0.05128   0.07701
     Eigenvalues ---    0.08447   0.08662   0.08839   0.09657   0.09932
     Eigenvalues ---    0.09943   0.10610   0.11168   0.12077   0.12487
     Eigenvalues ---    0.12909   0.14550   0.147731000.000001000.00000
     Eigenvalues --- 1000.000001000.000001000.000001000.000001000.00000
     Eigenvalues --- 1000.000001000.000001000.000001000.000001000.00000
     Eigenvalues --- 1000.000001000.000001000.000001000.000001000.00000
     Eigenvalues --- 1000.000001000.000001000.000001000.000001000.00000
     Eigenvalues --- 1000.000001000.000001000.000001000.000001000.00000
     Eigenvalues --- 1000.000001000.000001000.000001000.000001000.00000
     Eigenvalues --- 1000.000001000.000001000.000001000.00000
 En-DIIS/RFO-DIIS IScMMF=        0 using points:     2    1
 RFO step:  Lambda=-1.95026059D-05.
 DIIS coeffs:      1.93092     -0.93092
 Iteration  1 RMS(Cart)=  0.00391629 RMS(Int)=  0.00000692
 Iteration  2 RMS(Cart)=  0.00000230 RMS(Int)=  0.00000555
 Iteration  3 RMS(Cart)=  0.00000000 RMS(Int)=  0.00000555
 ClnCor:  largest displacement from symmetrization is 1.69D-10 for atom     5.
 Variable       Old X    -DE/DX   Delta X   Delta X   Delta X     New X
                                  (DIIS)     (GDIIS)  (Total)
    R1        4.61044  -0.00060  -0.01115  -0.00039  -0.01154   4.59890
    R2        4.86947  -0.00019  -0.00679   0.00173  -0.00507   4.86441
    R3        4.61044  -0.00060  -0.01115  -0.00039  -0.01154   4.59890
    R4        4.86947  -0.00019  -0.00679   0.00173  -0.00507   4.86441
    R5        4.73619  -0.00018  -0.00475   0.00086  -0.00388   4.73231
    R6        4.73619  -0.00018  -0.00475   0.00086  -0.00388   4.73231
    R7        4.82655  -0.00034  -0.00642  -0.00149  -0.00791   4.81864
    R8        5.07694   0.00015   0.00065  -0.00114  -0.00051   5.07642
    R9        4.82655  -0.00034  -0.00642  -0.00149  -0.00791   4.81864
   R10        4.66620  -0.00069  -0.00843  -0.00291  -0.01134   4.65485
   R11        4.57022  -0.00075  -0.01415  -0.00006  -0.01421   4.55600
   R12        4.73619  -0.00018  -0.00475   0.00086  -0.00388   4.73231
   R13        4.58370  -0.00079  -0.01329  -0.00058  -0.01387   4.56983
   R14        4.57022  -0.00075  -0.01415  -0.00006  -0.01421   4.55600
   R15        4.58370  -0.00079  -0.01329  -0.00058  -0.01387   4.56983
   R16        4.73619  -0.00018  -0.00475   0.00086  -0.00388   4.73231
   R17        4.82655  -0.00034  -0.00642  -0.00149  -0.00791   4.81864
   R18        4.82655  -0.00034  -0.00642  -0.00149  -0.00791   4.81864
    A1        1.90854  -0.00007   0.00003  -0.00134  -0.00132   1.90722
    A2        1.85171  -0.00010  -0.00195   0.00060  -0.00135   1.85036
    A3        1.85171  -0.00010  -0.00195   0.00060  -0.00135   1.85036
    A4        1.84456  -0.00020  -0.00237  -0.00057  -0.00295   1.84161
    A5        1.84456  -0.00020  -0.00237  -0.00057  -0.00295   1.84161
    A6        1.93386   0.00002  -0.00016   0.00055   0.00038   1.93424
    A7        1.91566   0.00003  -0.00058   0.00093   0.00034   1.91600
    A8        1.93666   0.00009   0.00081   0.00028   0.00109   1.93775
    A9        1.91566   0.00003  -0.00058   0.00093   0.00034   1.91600
   A10        2.97169   0.00008   0.00004   0.00064   0.00068   2.97238
   A11        1.91566   0.00003  -0.00058   0.00093   0.00034   1.91600
   A12        1.93666   0.00009   0.00081   0.00028   0.00109   1.93775
   A13        2.97169   0.00008   0.00004   0.00064   0.00068   2.97238
   A14        1.91566   0.00003  -0.00058   0.00093   0.00034   1.91600
   A15        1.82146  -0.00005  -0.00082   0.00039  -0.00043   1.82103
   A16        1.85171  -0.00010  -0.00195   0.00060  -0.00135   1.85036
   A17        1.85171  -0.00010  -0.00195   0.00060  -0.00135   1.85036
   A18        1.84456  -0.00020  -0.00237  -0.00057  -0.00295   1.84161
   A19        1.84456  -0.00020  -0.00237  -0.00057  -0.00295   1.84161
   A20        1.93386   0.00002  -0.00016   0.00055   0.00038   1.93424
   A21        1.82146  -0.00005  -0.00082   0.00039  -0.00043   1.82103
    D1        0.00000   0.00000   0.00000   0.00000   0.00000   0.00000
    D2        0.00000   0.00000   0.00000   0.00000   0.00000   0.00000
    D3       -2.33253   0.00006   0.00125  -0.00012   0.00113  -2.33140
    D4       -1.20090   0.00008   0.00101   0.00060   0.00161  -1.19929
    D5        2.33253  -0.00006  -0.00125   0.00012  -0.00113   2.33140
    D6        1.20090  -0.00008  -0.00101  -0.00060  -0.00161   1.19929
    D7        0.00000   0.00000   0.00000   0.00000   0.00000   0.00000
    D8        2.33253  -0.00006  -0.00125   0.00012  -0.00113   2.33140
    D9        1.20090  -0.00008  -0.00101  -0.00060  -0.00161   1.19929
   D10        0.00000   0.00000   0.00000   0.00000   0.00000   0.00000
   D11        0.00000   0.00000   0.00000   0.00000   0.00000   0.00000
   D12        0.00000   0.00000   0.00000   0.00000   0.00000   0.00000
   D13        0.00000   0.00000   0.00000   0.00000   0.00000   0.00000
   D14       -2.33253   0.00006   0.00125  -0.00012   0.00113  -2.33140
   D15       -1.20090   0.00008   0.00101   0.00060   0.00161  -1.19929
         Item               Value     Threshold  Converged?
 Maximum Force            0.000786     0.000450     NO 
 RMS     Force            0.000290     0.000300     YES
 Maximum Displacement     0.017431     0.001800     NO 
 RMS     Displacement     0.003917     0.001200     NO 
 Predicted change in Energy=-4.224429D-05
 GradGradGradGradGradGradGradGradGradGradGradGradGradGradGradGradGradGrad

                          Input orientation:                          
 ---------------------------------------------------------------------
 Center     Atomic      Atomic             Coordinates (Angstroms)
 Number     Number       Type             X           Y           Z
 ---------------------------------------------------------------------
      1         14           0        0.000000    0.000000   -2.543945
      2         14           0        1.343164    0.000000   -0.514538
      3         14           0        0.000000   -1.231621    1.203076
      4         14           0        0.000000    1.231621    1.203076
      5         14           0        0.000000    0.000000    3.275683
      6         14           0        0.000000    2.099228   -1.054178
      7         14           0       -1.343164    0.000000   -0.514538
      8         14           0        0.000000   -2.099228   -1.054178
 ---------------------------------------------------------------------
                    Distance matrix (angstroms):
                    1          2          3          4          5
     1  Si   0.000000
     2  Si   2.433635   0.000000
     3  Si   3.944243   2.504232   0.000000
     4  Si   3.944243   2.504232   2.463243   0.000000
     5  Si   5.819628   4.021177   2.410932   2.410932   0.000000
     6  Si   2.574133   2.549913   4.023649   2.418251   4.811908
     7  Si   2.433635   2.686328   2.504232   2.504232   4.021177
     8  Si   2.574133   2.549913   2.418251   4.023649   4.811908
                    6          7          8
     6  Si   0.000000
     7  Si   2.549913   0.000000
     8  Si   4.198455   2.549913   0.000000
 Stoichiometry    Si8(1+,2)
 Framework group  C2V[C2(SiSi),SGV(Si4),SGV'(Si2)]
 Deg. of freedom     7
 Full point group                 C2V     NOp   4
 Largest Abelian subgroup         C2V     NOp   4
 Largest concise Abelian subgroup C2V     NOp   4
                         Standard orientation:                         
 ---------------------------------------------------------------------
 Center     Atomic      Atomic             Coordinates (Angstroms)
 Number     Number       Type             X           Y           Z
 ---------------------------------------------------------------------
      1         14           0        0.000000    0.000000   -2.544002
      2         14           0       -1.343164    0.000000   -0.514595
      3         14           0        0.000000    1.231621    1.203018
      4         14           0        0.000000   -1.231621    1.203018
      5         14           0        0.000000    0.000000    3.275626
      6         14           0        0.000000   -2.099228   -1.054236
      7         14           0        1.343164    0.000000   -0.514595
      8         14           0        0.000000    2.099228   -1.054236
 ---------------------------------------------------------------------
 Rotational constants (GHZ):      1.1687855      0.6827786      0.5206416
 Standard basis: GTBas3 (6D, 7F)
 There are    96 symmetry adapted basis functions of A1  symmetry.
 There are    36 symmetry adapted basis functions of A2  symmetry.
 There are    56 symmetry adapted basis functions of B1  symmetry.
 There are    68 symmetry adapted basis functions of B2  symmetry.
 Integral buffers will be    131072 words long.
 Raffenetti 2 integral format.
 Two-electron integral symmetry is turned on.
   256 basis functions,   544 primitive gaussians,   280 cartesian basis functions
    56 alpha electrons       55 beta electrons
       nuclear repulsion energy       988.0996936642 Hartrees.
 NAtoms=    8 NActive=    8 NUniq=    5 SFac= 1.92D+00 NAtFMM=   80 NAOKFM=F Big=F
 One-electron integrals computed using PRISM.
 NBasis=   256 RedAO= T  NBF=    96    36    56    68
 NBsUse=   256 1.00D-06 NBFU=    96    36    56    68
 Initial guess read from the read-write file.
 B after Tr=     0.000000    0.000000    0.000000
         Rot=    1.000000    0.000000    0.000000    0.000000 Ang=   0.00 deg.
 Initial guess orbital symmetries:
 Alpha Orbitals:
       Occupied  (B2) (A1) (A1) (B2) (A1) (A1) (A1) (B1) (B2) (A1)
                 (A1) (B2) (A1) (A1) (B1) (A1) (B1) (A2) (A1) (B2)
                 (A1) (B2) (B1) (A2) (A1) (B2) (A1) (B2) (B1) (B2)
                 (A1) (B1) (B1) (A1) (A2) (B2) (A1) (B1) (B2) (A1)
                 (A1) (A1) (B2) (A1) (B1) (B2) (A1) (A1) (B1) (A2)
                 (B2) (A1) (A1) (B2) (A1) (B1)
       Virtual   (B1) (B2) (A2) (B1) (A1) (A1) (B2) (B1) (A1) (B2)
                 (A1) (A2) (B2) (B1) (B2) (A1) (A2) (B2) (B1) (A1)
                 (A1) (A1) (A2) (B1) (A1) (B2) (A1) (A1) (B1) (B2)
                 (A1) (B1) (A2) (B2) (A1) (B1) (A1) (B1) (B2) (A2)
                 (B2) (A1) (B2) (A1) (A2) (B1) (B1) (A1) (B2) (B1)
                 (A2) (B2) (A1) (B1) (A2) (B2) (A1) (B2) (A1) (A1)
                 (B1) (B2) (A2) (A1) (A1) (A2) (B1) (B2) (B1) (A1)
                 (B2) (A1) (B2) (A2) (A1) (A1) (B1) (A1) (A2) (B2)
                 (B1) (B2) (B1) (B2) (A1) (A1) (B2) (A1) (B1) (B2)
                 (A2) (A1) (B2) (A1) (B2) (B1) (A1) (A1) (B1) (A2)
                 (A1) (B1) (B1) (B2) (A1) (A2) (A1) (B2) (A2) (B1)
                 (A1) (B2) (B1) (A2) (A1) (B2) (B1) (A1) (B2) (A2)
                 (A1) (B2) (A1) (A1) (B1) (B2) (A2) (B2) (A1) (B2)
                 (A1) (A2) (B1) (A1) (B2) (B1) (A2) (B1) (B1) (A2)
                 (B2) (A1) (B1) (A1) (A2) (A1) (B2) (B1) (A1) (B2)
                 (B2) (A2) (B1) (A2) (A1) (A1) (B1) (B2) (A1) (A2)
                 (B1) (A1) (A1) (B2) (B2) (B1) (A2) (B1) (A1) (B2)
                 (A1) (B1) (A2) (A1) (B2) (B2) (A2) (B2) (A1) (A1)
                 (A2) (B1) (A1) (B2) (A2) (B1) (A1) (B1) (B2) (A1)
                 (B2) (A1) (A1) (A1) (A1) (B2) (B2) (B1) (A1) (A1)
 Beta  Orbitals:
       Occupied  (B2) (A1) (A1) (B2) (A1) (A1) (A1) (B1) (B2) (A1)
                 (A1) (B2) (A1) (B1) (A1) (A1) (B1) (A2) (A1) (B2)
                 (A1) (B2) (B1) (A2) (A1) (B2) (A1) (B2) (A1) (B1)
                 (B2) (A2) (B2) (A1) (B2) (A1) (B1) (B1) (A1) (B1)
                 (A1) (A1) (B2) (B1) (A1) (B2) (A1) (A1) (B1) (A2)
                 (B2) (A1) (A1) (B2) (A1)
       Virtual   (B1) (B1) (B2) (A2) (A1) (B1) (A1) (B2) (A1) (B1)
                 (B2) (A1) (A2) (B2) (B1) (B2) (A1) (B2) (A2) (A1)
                 (B1) (A1) (A1) (A2) (B1) (A1) (B2) (A1) (A1) (B1)
                 (B2) (A1) (B1) (A2) (B2) (A1) (A1) (B1) (B1) (B2)
                 (B2) (A2) (A1) (B2) (A1) (A2) (B1) (B1) (B2) (A1)
                 (B1) (A2) (B2) (A1) (B1) (B2) (A2) (A1) (B2) (A1)
                 (A1) (B2) (A2) (B1) (A1) (A1) (A2) (B1) (B2) (B1)
                 (A1) (B2) (A1) (B2) (A2) (A1) (A1) (B1) (A2) (A1)
                 (B2) (B1) (B2) (B1) (B2) (A1) (A1) (B2) (A1) (B1)
                 (B2) (A2) (A1) (B2) (A1) (B2) (B1) (A1) (A1) (B1)
                 (A1) (A2) (B1) (B1) (B2) (A2) (A1) (A1) (B2) (A2)
                 (B1) (A1) (B2) (B1) (A1) (A2) (B2) (B1) (A1) (B2)
                 (A2) (A1) (B2) (A1) (A1) (B1) (B2) (A2) (B2) (A1)
                 (B2) (A1) (A2) (B1) (B2) (A1) (A2) (B1) (B1) (B1)
                 (B2) (A2) (A1) (B1) (A1) (A1) (A2) (B2) (B1) (A1)
                 (B2) (B2) (A2) (B1) (A2) (A1) (A1) (B1) (B2) (A1)
                 (A2) (A1) (B1) (A1) (B2) (B2) (B1) (A2) (B2) (A1)
                 (B1) (A1) (B1) (A2) (A1) (B2) (B2) (A2) (B2) (A1)
                 (A1) (A2) (B1) (A1) (B2) (A2) (B1) (A1) (B1) (B2)
                 (A1) (B2) (A1) (A1) (A1) (A1) (B2) (B2) (B1) (A1)
                 (A1)
 Initial guess <Sx>= 0.0000 <Sy>= 0.0000 <Sz>= 0.5000 <S**2>= 0.7593 S= 0.5046
 Requested convergence on RMS density matrix=1.00D-08 within 128 cycles.
 Requested convergence on MAX density matrix=1.00D-06.
 Requested convergence on             energy=1.00D-06.
 No special actions if energy rises.
 Keep R1 and R2 ints in memory in canonical form, NReq=1559090547.
 EnCoef did     7 forward-backward iterations
 SCF Done:  E(UB3LYP) =  -2315.65453433     A.U. after   11 cycles
             Convg  =    0.6755D-08             -V/T =  2.0035
 <Sx>= 0.0000 <Sy>= 0.0000 <Sz>= 0.5000 <S**2>= 0.7593 S= 0.5046
 <L.S>= 0.000000000000E+00
 Annihilation of the first spin contaminant:
 S**2 before annihilation     0.7593,   after     0.7501
 QCSCF skips out because SCF is already converged.
 Calling FoFJK, ICntrl=      2127 FMM=F ISym2X=1 I1Cent= 0 IOpClX= 1 NMat=1 NMatS=1 NMatT=0.
 ***** Axes restored to original set *****
 -------------------------------------------------------------------
 Center     Atomic                   Forces (Hartrees/Bohr)
 Number     Number              X              Y              Z
 -------------------------------------------------------------------
      1       14           0.000000000    0.000000000   -0.000311088
      2       14          -0.000122817    0.000000000   -0.000228612
      3       14           0.000000000    0.000250504    0.000085423
      4       14           0.000000000   -0.000250504    0.000085423
      5       14           0.000000000    0.000000000    0.000165540
      6       14           0.000000000    0.000041156    0.000215964
      7       14           0.000122817    0.000000000   -0.000228612
      8       14           0.000000000   -0.000041156    0.000215964
 -------------------------------------------------------------------
 Cartesian Forces:  Max     0.000311088 RMS     0.000143707

 GradGradGradGradGradGradGradGradGradGradGradGradGradGradGradGradGradGrad
 Berny optimization.
 Using GEDIIS/GDIIS optimizer.
 Internal  Forces:  Max     0.000274304 RMS     0.000079312
 Search for a local minimum.
 Step number   3 out of a maximum of   64
 All quantities printed in internal units (Hartrees-Bohrs-Radians)
 Mixed Optimization -- En-DIIS/RFO-DIIS
 Swaping is turned off.
 Update second derivatives using D2CorX and points    1    2    3
 DE= -4.31D-05 DEPred=-4.22D-05 R= 1.02D+00
 SS=  1.41D+00  RLast= 4.01D-02 DXNew= 5.0454D-01 1.2036D-01
 Trust test= 1.02D+00 RLast= 4.01D-02 DXMaxT set to 3.00D-01
     Eigenvalues ---    0.00578   0.00995   0.04863   0.04930   0.07697
     Eigenvalues ---    0.08448   0.08656   0.08839   0.09674   0.09933
     Eigenvalues ---    0.10047   0.10615   0.11195   0.12086   0.12488
     Eigenvalues ---    0.13159   0.14786   0.149661000.000001000.00000
     Eigenvalues --- 1000.000001000.000001000.000001000.000001000.00000
     Eigenvalues --- 1000.000001000.000001000.000001000.000001000.00000
     Eigenvalues --- 1000.000001000.000001000.000001000.000001000.00000
     Eigenvalues --- 1000.000001000.000001000.000001000.000001000.00000
     Eigenvalues --- 1000.000001000.000001000.000001000.000001000.00000
     Eigenvalues --- 1000.000001000.000001000.000001000.000001000.00000
     Eigenvalues --- 1000.000001000.000001000.000001000.00000
 En-DIIS/RFO-DIIS IScMMF=        0 using points:     3    2    1
 RFO step:  Lambda=-9.37923149D-07.
 DIIS coeffs:      3.08147     -4.09021      2.00874
 Iteration  1 RMS(Cart)=  0.00162303 RMS(Int)=  0.00001031
 Iteration  2 RMS(Cart)=  0.00000135 RMS(Int)=  0.00001002
 Iteration  3 RMS(Cart)=  0.00000000 RMS(Int)=  0.00001002
 ClnCor:  largest displacement from symmetrization is 1.11D-11 for atom     4.
 Variable       Old X    -DE/DX   Delta X   Delta X   Delta X     New X
                                  (DIIS)     (GDIIS)  (Total)
    R1        4.59890   0.00000   0.00005  -0.00053  -0.00050   4.59841
    R2        4.86441   0.00020   0.00411   0.00132   0.00545   4.86985
    R3        4.59890   0.00000   0.00005  -0.00053  -0.00050   4.59841
    R4        4.86441   0.00020   0.00411   0.00132   0.00545   4.86985
    R5        4.73231   0.00009   0.00216   0.00026   0.00242   4.73474
    R6        4.73231   0.00009   0.00216   0.00026   0.00242   4.73474
    R7        4.81864  -0.00009  -0.00260   0.00041  -0.00220   4.81644
    R8        5.07642  -0.00008  -0.00247  -0.00037  -0.00281   5.07361
    R9        4.81864  -0.00009  -0.00260   0.00041  -0.00220   4.81644
   R10        4.65485  -0.00027  -0.00541   0.00006  -0.00535   4.64950
   R11        4.55600   0.00007   0.00095  -0.00019   0.00076   4.55676
   R12        4.73231   0.00009   0.00216   0.00026   0.00242   4.73474
   R13        4.56983   0.00000  -0.00021  -0.00051  -0.00072   4.56911
   R14        4.55600   0.00007   0.00095  -0.00019   0.00076   4.55676
   R15        4.56983   0.00000  -0.00021  -0.00051  -0.00072   4.56911
   R16        4.73231   0.00009   0.00216   0.00026   0.00242   4.73474
   R17        4.81864  -0.00009  -0.00260   0.00041  -0.00220   4.81644
   R18        4.81864  -0.00009  -0.00260   0.00041  -0.00220   4.81644
    A1        1.90722  -0.00011  -0.00280  -0.00007  -0.00286   1.90435
    A2        1.85036   0.00006   0.00139   0.00007   0.00148   1.85183
    A3        1.85036   0.00006   0.00139   0.00007   0.00148   1.85183
    A4        1.84161  -0.00005  -0.00102  -0.00007  -0.00109   1.84053
    A5        1.84161  -0.00005  -0.00102  -0.00007  -0.00109   1.84053
    A6        1.93424   0.00005   0.00113   0.00047   0.00162   1.93586
    A7        1.91600   0.00010   0.00198   0.00005   0.00203   1.91803
    A8        1.93775   0.00003   0.00053   0.00027   0.00078   1.93853
    A9        1.91600   0.00010   0.00198   0.00005   0.00203   1.91803
   A10        2.97238   0.00008   0.00133   0.00024   0.00156   2.97394
   A11        1.91600   0.00010   0.00198   0.00005   0.00203   1.91803
   A12        1.93775   0.00003   0.00053   0.00027   0.00078   1.93853
   A13        2.97238   0.00008   0.00133   0.00024   0.00156   2.97394
   A14        1.91600   0.00010   0.00198   0.00005   0.00203   1.91803
   A15        1.82103   0.00002   0.00088  -0.00023   0.00065   1.82168
   A16        1.85036   0.00006   0.00139   0.00007   0.00148   1.85183
   A17        1.85036   0.00006   0.00139   0.00007   0.00148   1.85183
   A18        1.84161  -0.00005  -0.00102  -0.00007  -0.00109   1.84053
   A19        1.84161  -0.00005  -0.00102  -0.00007  -0.00109   1.84053
   A20        1.93424   0.00005   0.00113   0.00047   0.00162   1.93586
   A21        1.82103   0.00002   0.00088  -0.00023   0.00065   1.82168
    D1        0.00000   0.00000   0.00000   0.00000   0.00000   0.00000
    D2        0.00000   0.00000   0.00000   0.00000   0.00000   0.00000
    D3       -2.33140  -0.00002  -0.00033   0.00006  -0.00028  -2.33168
    D4       -1.19929   0.00005   0.00118   0.00041   0.00157  -1.19772
    D5        2.33140   0.00002   0.00033  -0.00006   0.00028   2.33168
    D6        1.19929  -0.00005  -0.00118  -0.00041  -0.00157   1.19772
    D7        0.00000   0.00000   0.00000   0.00000   0.00000   0.00000
    D8        2.33140   0.00002   0.00033  -0.00006   0.00028   2.33168
    D9        1.19929  -0.00005  -0.00118  -0.00041  -0.00157   1.19772
   D10        0.00000   0.00000   0.00000   0.00000   0.00000   0.00000
   D11        0.00000   0.00000   0.00000   0.00000   0.00000   0.00000
   D12        0.00000   0.00000   0.00000   0.00000   0.00000   0.00000
   D13        0.00000   0.00000   0.00000   0.00000   0.00000   0.00000
   D14       -2.33140  -0.00002  -0.00033   0.00006  -0.00028  -2.33168
   D15       -1.19929   0.00005   0.00118   0.00041   0.00157  -1.19772
         Item               Value     Threshold  Converged?
 Maximum Force            0.000274     0.000450     YES
 RMS     Force            0.000079     0.000300     YES
 Maximum Displacement     0.005180     0.001800     NO 
 RMS     Displacement     0.001623     0.001200     NO 
 Predicted change in Energy=-4.596609D-06
 GradGradGradGradGradGradGradGradGradGradGradGradGradGradGradGradGradGrad

                          Input orientation:                          
 ---------------------------------------------------------------------
 Center     Atomic      Atomic             Coordinates (Angstroms)
 Number     Number       Type             X           Y           Z
 ---------------------------------------------------------------------
      1         14           0        0.000000    0.000000   -2.546685
      2         14           0        1.342421    0.000000   -0.517102
      3         14           0        0.000000   -1.230206    1.203974
      4         14           0        0.000000    1.230206    1.203974
      5         14           0        0.000000    0.000000    3.277889
      6         14           0        0.000000    2.099442   -1.052245
      7         14           0       -1.342421    0.000000   -0.517102
[...]
  Beta virt. eigenvalues --    2.96223   2.96625   3.00834   3.01840   3.01972
  Beta virt. eigenvalues --    3.04411   3.06548   3.08105   3.08831   3.09299
  Beta virt. eigenvalues --    3.10761   3.11417   3.11537   3.13163   3.13904
  Beta virt. eigenvalues --    3.15309   3.15502   3.15552   3.15962   3.17073
  Beta virt. eigenvalues --    3.17088   3.17271   3.17835   3.18179   3.21154
  Beta virt. eigenvalues --    3.21197   3.22074   3.22260   3.23115   3.24893
  Beta virt. eigenvalues --    3.26058   3.26973   3.27120   3.27429   3.28806
  Beta virt. eigenvalues --    3.29664   3.31672   3.32000   3.32434   3.32668
  Beta virt. eigenvalues --    3.33508   3.33545   3.34484   3.35020   3.35565
  Beta virt. eigenvalues --    3.35922   3.36093   3.36213   3.37320   3.37468
  Beta virt. eigenvalues --    3.38551   3.38944   3.40151   3.40245   3.40782
  Beta virt. eigenvalues --    3.41182   3.42164   3.42643   3.43558   3.43816
  Beta virt. eigenvalues --    3.43984   3.44324   3.44649   3.45724   3.46423
  Beta virt. eigenvalues --    3.46587   3.46679   3.47559   3.47789   3.48888
  Beta virt. eigenvalues --    3.49566   3.49988   3.51574   3.52559   3.52774
  Beta virt. eigenvalues --    3.53402   3.53756   3.54384   3.54770   3.55008
  Beta virt. eigenvalues --    3.55152   3.55552   3.56977   3.57225   3.57317
  Beta virt. eigenvalues --    3.57491   3.60176   3.61176   3.61597   3.62156
  Beta virt. eigenvalues --    3.62494   3.63059   3.64782   3.66114   3.66875
  Beta virt. eigenvalues --    3.67967   3.68199   3.70532   3.71053   3.71116
  Beta virt. eigenvalues --    3.72372   3.72616   3.72944   3.73824   3.77388
  Beta virt. eigenvalues --    3.78409   3.78570   3.78824   3.80116   3.83282
  Beta virt. eigenvalues --    3.84036   3.85157   3.87305   3.87839   3.88036
  Beta virt. eigenvalues --    3.88554   3.89552   3.89616   3.89834   3.91725
  Beta virt. eigenvalues --    3.92092   3.94968   3.95239   3.96185   3.96274
  Beta virt. eigenvalues --    3.96380   3.98268   3.99771   4.00236   4.00616
  Beta virt. eigenvalues --    4.01778   4.04764   4.06225   4.06438   4.07536
  Beta virt. eigenvalues --    4.08219   4.08281   4.08676   4.08914   4.10505
  Beta virt. eigenvalues --    4.12721   4.12746   4.12956   4.13003   4.13824
  Beta virt. eigenvalues --    4.15042   4.15998   4.16483   4.18827   4.19261
  Beta virt. eigenvalues --    4.20703   4.20900   4.21083   4.21771   4.22714
  Beta virt. eigenvalues --    4.22792   4.23296   4.23392   4.24564   4.25573
  Beta virt. eigenvalues --    4.25788   4.26010   4.26584   4.28086   4.28903
  Beta virt. eigenvalues --    4.29675   4.30037   4.30895   4.31409   4.32791
  Beta virt. eigenvalues --    4.33969   4.34927   4.35901   4.36789   4.37257
  Beta virt. eigenvalues --    4.37277   4.38505   4.38725   4.38943   4.39825
  Beta virt. eigenvalues --    4.42042   4.42224   4.42497   4.42792   4.43575
  Beta virt. eigenvalues --    4.43590   4.48755   4.49119   4.49188   4.49339
  Beta virt. eigenvalues --    4.52639   4.53220   4.53879   4.55860   4.56544
  Beta virt. eigenvalues --    4.56735   4.57170   4.58058   4.59869   4.60663
  Beta virt. eigenvalues --    4.62033   4.62766   4.64479   4.64495   4.65171
  Beta virt. eigenvalues --    4.65815   4.65845   4.67159   4.68596   4.70304
  Beta virt. eigenvalues --    4.70829   4.72548   4.73986   4.75151   4.76167
  Beta virt. eigenvalues --    4.76232   4.76304   4.78254   4.78939   4.80186
  Beta virt. eigenvalues --    4.83359   4.83902   4.84206   4.89735   4.90430
  Beta virt. eigenvalues --    4.91280   4.92872   4.93553   4.94563   4.95991
  Beta virt. eigenvalues --    4.99713   5.03363   5.04011   5.05866   5.06478
  Beta virt. eigenvalues --    5.08832   5.10001   5.10420   5.12005   5.12371
  Beta virt. eigenvalues --    5.15492   5.18071   5.18767   5.21357   5.21944
  Beta virt. eigenvalues --    5.22303   5.26038   5.28318   5.31115   5.32049
  Beta virt. eigenvalues --    5.37197   5.40419   5.42833   5.44586   5.47185
  Beta virt. eigenvalues --    5.48793   5.60729   5.63289   5.64678   5.73034
  Beta virt. eigenvalues --    6.23563   6.26895   6.36766   6.42587   6.45843
  Beta virt. eigenvalues --    6.54056   6.55684   6.57985   6.62053   6.66563
  Beta virt. eigenvalues --    6.69929   6.73461   6.75123   6.78302   6.79609
  Beta virt. eigenvalues --    6.82268   6.83410   6.84043   6.84513   6.85916
  Beta virt. eigenvalues --    6.87152   6.87609   6.88949   6.93146   6.94027
  Beta virt. eigenvalues --    6.96868   7.00108   7.04083   7.09578   7.14450
  Beta virt. eigenvalues --    7.19514   7.20899   7.22351   7.31388   7.33976
  Beta virt. eigenvalues --    7.39182   7.42512   7.55130   7.57260   7.63533
  Beta virt. eigenvalues --   13.16098  13.71955  13.75196  13.81472  13.84602
  Beta virt. eigenvalues --   13.87916  13.90025  13.98131  14.04136  14.05934
  Beta virt. eigenvalues --   14.09607  14.12575  14.17499  14.25419  14.27582
  Beta virt. eigenvalues --   14.30945  14.34840  14.38911  14.47637  14.51422
  Beta virt. eigenvalues --   14.53972  14.59276  14.92619  14.97465  39.13197
  Beta virt. eigenvalues --   40.89260  41.21415  41.83119  42.50373  42.51377
  Beta virt. eigenvalues --   44.39592  44.43315
          Condensed to atoms (all electrons):
              1          2          3          4          5          6
     1  Si  13.076198   0.233605  -0.010310  -0.010310   0.001915   0.170567
     2  Si   0.233605  12.909940   0.208004   0.208004  -0.023544   0.164950
     3  Si  -0.010310   0.208004  12.747208   0.161541   0.277040  -0.014664
     4  Si  -0.010310   0.208004   0.161541  12.747208   0.277040   0.306405
     5  Si   0.001915  -0.023544   0.277040   0.277040  13.422938  -0.009443
     6  Si   0.170567   0.164950  -0.014664   0.306405  -0.009443  13.064669
     7  Si   0.233605   0.019056   0.208004   0.208004  -0.023544   0.164950
     8  Si   0.170567   0.164950   0.306405  -0.014664  -0.009443  -0.005026
              7          8
     1  Si   0.233605   0.170567
     2  Si   0.019056   0.164950
     3  Si   0.208004   0.306405
     4  Si   0.208004  -0.014664
     5  Si  -0.023544  -0.009443
     6  Si   0.164950  -0.005026
     7  Si  12.909940   0.164950
     8  Si   0.164950  13.064669
 Mulliken atomic charges:
              1
     1  Si   0.134162
     2  Si   0.115035
     3  Si   0.116771
     4  Si   0.116771
     5  Si   0.087041
     6  Si   0.157592
     7  Si   0.115035
     8  Si   0.157592
 Sum of Mulliken atomic charges =   1.00000
 Mulliken charges with hydrogens summed into heavy atoms:
              1
     1  Si   0.134162
     2  Si   0.115035
     3  Si   0.116771
     4  Si   0.116771
     5  Si   0.087041
     6  Si   0.157592
     7  Si   0.115035
     8  Si   0.157592
 Sum of Mulliken charges with hydrogens summed into heavy atoms =   1.00000
          Atomic-Atomic Spin Densities.
              1          2          3          4          5          6
     1  Si   0.139354   0.015853   0.001104   0.001104   0.001267  -0.003422
     2  Si   0.015853   0.062269  -0.012435  -0.012435  -0.011174  -0.000385
     3  Si   0.001104  -0.012435  -0.019762   0.003755   0.010132   0.001932
     4  Si   0.001104  -0.012435   0.003755  -0.019762   0.010132   0.004471
     5  Si   0.001267  -0.011174   0.010132   0.010132   0.813967  -0.000962
     6  Si  -0.003422  -0.000385   0.001932   0.004471  -0.000962  -0.010429
     7  Si   0.015853   0.000837  -0.012435  -0.012435  -0.011174  -0.000385
     8  Si  -0.003422  -0.000385   0.004471   0.001932  -0.000962   0.000815
              7          8
     1  Si   0.015853  -0.003422
     2  Si   0.000837  -0.000385
     3  Si  -0.012435   0.004471
     4  Si  -0.012435   0.001932
     5  Si  -0.011174  -0.000962
     6  Si  -0.000385   0.000815
     7  Si   0.062269  -0.000385
     8  Si  -0.000385  -0.010429
 Mulliken atomic spin densities:
              1
     1  Si   0.167692
     2  Si   0.042144
     3  Si  -0.023239
     4  Si  -0.023239
     5  Si   0.811226
     6  Si  -0.008365
     7  Si   0.042144
     8  Si  -0.008365
 Sum of Mulliken atomic spin densities =   1.00000
 Electronic spatial extent (au):  <R**2>=           2114.7025
 Charge=              1.0000 electrons
 Dipole moment (field-independent basis, Debye):
    X=              0.0000    Y=              0.0000    Z=             -0.0230  Tot=              0.0230
 Quadrupole moment (field-independent basis, Debye-Ang):
   XX=            -93.9939   YY=            -88.6098   ZZ=            -84.8421
   XY=              0.0000   XZ=              0.0000   YZ=              0.0000
 Traceless Quadrupole moment (field-independent basis, Debye-Ang):
   XX=             -4.8453   YY=              0.5388   ZZ=              4.3065
   XY=              0.0000   XZ=              0.0000   YZ=              0.0000
 Octapole moment (field-independent basis, Debye-Ang**2):
  XXX=              0.0000  YYY=              0.0000  ZZZ=             11.8472  XYY=              0.0000
  XXY=              0.0000  XXZ=             -6.0628  XZZ=              0.0000  YZZ=              0.0000
  YYZ=              1.0557  XYZ=              0.0000
 Hexadecapole moment (field-independent basis, Debye-Ang**3):
 XXXX=           -418.2508 YYYY=          -1030.8953 ZZZZ=          -1810.0721 XXXY=              0.0000
 XXXZ=              0.0000 YYYX=              0.0000 YYYZ=              0.0000 ZZZX=              0.0000
 ZZZY=              0.0000 XXYY=           -238.0287 XXZZ=           -390.3668 YYZZ=           -471.1676
 XXYZ=              0.0000 YYXZ=              0.0000 ZZXY=              0.0000
 N-N= 9.880504755806D+02 E-N=-1.119881256287D+04  KE= 3.466250761465D+03
 Symmetry A1   KE= 1.905969062011D+03
 Symmetry A2   KE= 1.125981105174D+02
 Symmetry B1   KE= 5.436688672171D+02
 Symmetry B2   KE= 9.040147217200D+02
                          Isotropic Fermi Contact Couplings
        Atom                 a.u.       MegaHertz       Gauss      10(-4) cm-1
     1  Si(29)             0.00402      -3.57423      -1.27537      -1.19223
     2  Si(29)             0.09058     -80.49928     -28.72414     -26.85167
     3  Si(29)            -0.05822      51.74314      18.46324      17.25966
     4  Si(29)            -0.05822      51.74314      18.46324      17.25966
     5  Si(29)             0.06715     -59.67565     -21.29376     -19.90566
     6  Si(29)            -0.00463       4.11495       1.46831       1.37260
     7  Si(29)             0.09058     -80.49928     -28.72414     -26.85167
     8  Si(29)            -0.00463       4.11495       1.46831       1.37260
 --------------------------------------------------------
       Center         ----  Spin Dipole Couplings  ----
                      3XX-RR        3YY-RR        3ZZ-RR
 --------------------------------------------------------
     1   Atom        0.330885     -0.190209     -0.140676
     2   Atom       -0.017635     -0.023738      0.041373
     3   Atom       -0.052100      0.033530      0.018571
     4   Atom       -0.052100      0.033530      0.018571
     5   Atom        1.449367     -0.627468     -0.821899
     6   Atom        0.009349     -0.015242      0.005893
     7   Atom       -0.017635     -0.023738      0.041373
     8   Atom        0.009349     -0.015242      0.005893
 --------------------------------------------------------
                        XY            XZ            YZ
 --------------------------------------------------------
     1   Atom        0.000000      0.000000      0.000000
     2   Atom        0.000000     -0.210474      0.000000
     3   Atom        0.000000      0.000000     -0.036421
     4   Atom        0.000000      0.000000      0.036421
     5   Atom        0.000000      0.000000      0.000000
     6   Atom        0.000000      0.000000      0.009420
     7   Atom        0.000000      0.210474      0.000000
     8   Atom        0.000000      0.000000     -0.009420
 --------------------------------------------------------


 ---------------------------------------------------------------------------------
              Anisotropic Spin Dipole Couplings in Principal Axis System
 ---------------------------------------------------------------------------------

       Atom             a.u.   MegaHertz   Gauss  10(-4) cm-1        Axes

              Baa    -0.1902    20.178     7.200     6.731  0.0000  1.0000  0.0000
     1 Si(29) Bbb    -0.1407    14.924     5.325     4.978  0.0000  0.0000  1.0000
              Bcc     0.3309   -35.102   -12.525   -11.709  1.0000  0.0000  0.0000
 
              Baa    -0.2007    21.287     7.596     7.101  0.7546  0.0000  0.6562
     2 Si(29) Bbb    -0.0237     2.518     0.899     0.840  0.0000  1.0000  0.0000
              Bcc     0.2244   -23.805    -8.494    -7.941 -0.6562  0.0000  0.7546
 
              Baa    -0.0521     5.527     1.972     1.844  1.0000  0.0000  0.0000
     3 Si(29) Bbb    -0.0111     1.181     0.421     0.394  0.0000  0.6320  0.7750
              Bcc     0.0632    -6.708    -2.394    -2.237  0.0000  0.7750 -0.6320
 
              Baa    -0.0521     5.527     1.972     1.844  1.0000  0.0000  0.0000
     4 Si(29) Bbb    -0.0111     1.181     0.421     0.394  0.0000 -0.6320  0.7750
              Bcc     0.0632    -6.708    -2.394    -2.237  0.0000  0.7750  0.6320
 
              Baa    -0.8219    87.190    31.112    29.084  0.0000  0.0000  1.0000
     5 Si(29) Bbb    -0.6275    66.564    23.752    22.203  0.0000  1.0000  0.0000
              Bcc     1.4494  -153.755   -54.863   -51.287  1.0000  0.0000  0.0000
 
              Baa    -0.0188     1.998     0.713     0.666  0.0000  0.9345 -0.3560
     6 Si(29) Bbb     0.0093    -0.992    -0.354    -0.331  1.0000  0.0000  0.0000
              Bcc     0.0095    -1.006    -0.359    -0.336  0.0000  0.3560  0.9345
 
              Baa    -0.2007    21.287     7.596     7.101  0.7546  0.0000 -0.6562
     7 Si(29) Bbb    -0.0237     2.518     0.899     0.840  0.0000  1.0000  0.0000
              Bcc     0.2244   -23.805    -8.494    -7.941  0.6562  0.0000  0.7546
 
              Baa    -0.0188     1.998     0.713     0.666  0.0000  0.9345  0.3560
     8 Si(29) Bbb     0.0093    -0.992    -0.354    -0.331  1.0000  0.0000  0.0000
              Bcc     0.0095    -1.006    -0.359    -0.336  0.0000 -0.3560  0.9345
 

 ---------------------------------------------------------------------------------

 1\1\GINC-NODE48\SP\UHF\GFHFB2\Si8(1+,2)\TAM\21-Dec-2011\0\\#N Geom=All
 Check Guess=TCheck SCRF=Check HF/GFHFB2 SCF=Tight\\si8-c\\1,2\Si,0,0.,
 0.,-2.5472382392\Si,0,1.3420983652,0.,-0.5183284883\Si,0,0.,-1.2295661
 047,1.2040856877\Si,0,0.,1.2295661047,1.2040856877\Si,0,0.,0.,3.277670
 7582\Si,0,0.,2.0998083914,-1.0507448889\Si,0,-1.3420983652,0.,-0.51832
 84883\Si,0,0.,-2.0998083914,-1.0507448889\\Version=AM64L-G09RevA.02\St
 ate=2-B1\HF=-2311.1923069\S2=0.807921\S2-1=0.\S2A=0.752446\RMSD=7.879e
 -09\Dipole=0.,0.,-0.0090582\Quadrupole=-3.6023515,0.4006007,3.2017508,
 0.,0.,0.\PG=C02V [C2(Si1Si1),SGV(Si4),SGV'(Si2)]\\@


 The number of Unix installations has grown to 10,
  with more expected.
                  -- The Unix Programmer's Manual,
                     2nd Edition, June, 1972.
 Diagonal vibrational polarizability:
        0.0000000       0.0000000       0.0000000

 Temperature=              298.150000 Pressure=                      1.000000
 E(ZPE)=                     0.010879 E(Thermal)=                    0.022401
 E(CCSD(T))=             -2311.732645 E(Empiric)=                   -0.109361
 DE(Plus)=                  -0.012884 DE(2DF)=                      -0.264971
 E(Delta-G3XP)=             -2.512395 DE(HF)=                       -0.052992
 G4(0 K)=                -2314.674367 G4 Energy=                 -2314.662845
 G4 Enthalpy=            -2314.661901 G4 Free Energy=            -2314.712426
 1\1\GINC-NODE48\Mixed\G4\G4\Si8(1+,2)\TAM\21-Dec-2011\0\\# G4 scfcyc=5
 00 scf=xqc\\si8-c\\1,2\Si,0,0.,0.,-2.5472382392\Si,0,1.3420983652,0.,-
 0.5183284883\Si,0,0.,-1.2295661047,1.2040856877\Si,0,0.,1.2295661047,1
 .2040856877\Si,0,0.,0.,3.2776707582\Si,0,0.,2.0998083914,-1.0507448889
 \Si,0,-1.3420983652,0.,-0.5183284883\Si,0,0.,-2.0998083914,-1.05074488
 89\\Version=AM64L-G09RevA.02\State=2-B1\MP2/GTBas1=-2311.6641416\MP4/G
 TBas1=-2311.7640312\CCSD(T)/G3Bas1=-2311.7326451\MP2/GTBas2=-2311.6756
 047\MP4/GTBas2=-2311.7769148\MP2/GTBas3=-2311.9090851\MP4/GTBas3=-2312
 .0290018\HF/GTLargeXP=-2311.1412357\MP2/GTLargeXP=-2314.4329428\HF/GFH
 FB1=-2311.1844253\HF/GFHFB2=-2311.1923069\G4=-2314.6743672\FreqCoord=0
 .,0.,-4.8135826673,2.5361983536,0.,-0.9794988898,0.,-2.3235432003,2.27
 53921903,0.,2.3235432003,2.2753921903,0.,0.,6.1939000868,0.,3.96806279
 13,-1.9856200756,-2.5361983536,0.,-0.9794988898,0.,-3.9680627913,-1.98
 56200756\PG=C02V [C2(Si1Si1),SGV(Si4),SGV'(Si2)]\NImag=0\\0.03241135,0
 .,0.03029683,0.,0.,0.11782895,-0.01427573,0.,-0.01818365,0.08518754,0.
 ,-0.00293504,0.,0.,0.07746662,-0.02620881,0.,-0.03944623,0.00231895,0.
 ,0.07659556,-0.00410363,0.,0.,-0.00848865,-0.01163644,0.01365377,0.022
 06328,0.,0.00362213,-0.00539766,-0.00771416,-0.00942503,0.01192061,0.,
 0.08758003,0.,-0.00211035,-0.01029001,0.00519701,0.00889395,-0.0156305
 8,0.,0.01291274,0.13156928,-0.00410363,0.,0.,-0.00848866,0.01163644,0.
 01365377,-0.00024298,0.,0.,0.02206328,0.,0.00362213,0.00539766,0.00771
 416,-0.00942503,-0.01192061,0.,-0.04698294,0.00266340,0.,0.08758003,0.
 ,0.00211035,-0.01029001,0.00519701,-0.00889395,-0.01563058,0.,-0.00266
 340,0.00248358,0.,-0.01291274,0.13156928,0.00262191,0.,0.,-0.00014161,
 0.,0.00138734,-0.00227418,0.,0.,-0.00227419,0.,0.,0.00418851,0.,-0.002
 04751,0.,0.,0.00192335,0.,0.,-0.00982546,-0.02271106,0.,-0.00982546,0.
 02271106,0.,0.02247173,0.,0.,-0.00610435,0.00361055,0.,-0.00595285,0.,
 -0.01813046,-0.04236850,0.,0.01813046,-0.04236850,0.,0.,0.09724973,0.0
 0086273,0.,0.,-0.00462594,0.01992548,-0.00266411,-0.00010869,0.,0.,0.0
 0164352,0.,0.,-0.00098942,0.,0.,0.01610280,0.,-0.01481175,-0.00698010,
 0.00521527,-0.02556435,0.00574164,0.,-0.01027705,0.00521498,0.,-0.0052
 6665,0.01375761,0.,-0.00231000,-0.00195610,0.,0.09186311,0.,-0.0109062
 4,-0.00612606,0.00119167,0.00707493,0.00213454,0.,0.00722472,0.0007170
 4,0.,0.01778716,-0.05085023,0.,0.00052417,0.00274865,0.,-0.02514967,0.
 05930589,-0.01427573,0.,0.01818365,-0.04454100,0.,0.00052321,-0.008488
 66,0.00771416,-0.00519701,-0.00848865,-0.00771416,-0.00519701,-0.00014
 161,0.,-0.00361055,-0.00462595,-0.00521527,-0.00119167,0.08518754,0.,-
 0.00293504,0.,0.,-0.00647618,0.,0.01163644,-0.00942503,0.00889395,-0.0
 1163644,-0.00942503,-0.00889395,0.,0.00192335,0.,-0.01992548,-0.025564
 35,0.00707493,0.,0.07746662,0.02620881,0.,-0.03944623,-0.00052321,0.,-
 0.00420439,-0.01365377,0.01192061,-0.01563058,-0.01365377,-0.01192061,
 -0.01563058,-0.00138734,0.,-0.00595285,0.00266411,0.00574164,0.0021345
 4,-0.00231895,0.,0.07659556,0.00086274,0.,0.,-0.00462595,-0.01992548,-
 0.00266411,0.00164352,0.,0.,-0.00010869,0.,0.,-0.00098942,0.,0.,-0.008
 25905,0.,0.,-0.00462594,0.01992548,0.00266411,0.01610280,0.,-0.0148117
 5,0.00698011,-0.00521527,-0.02556435,-0.00574164,0.,-0.00526665,-0.013
 75761,0.,-0.01027705,-0.00521498,0.,-0.00231000,0.00195610,0.,-0.00806
 896,-0.00363000,0.00521527,-0.02556435,-0.00574164,0.,0.09186311,0.,0.
 01090624,-0.00612606,0.00119167,-0.00707493,0.00213454,0.,-0.01778716,
 -0.05085023,0.,-0.00722472,0.00071704,0.,-0.00052417,0.00274865,0.,0.0
 0363000,-0.01006438,-0.00119167,-0.00707493,0.00213454,0.,0.02514967,0
 .05930589\\0.,0.,0.00001533,-0.00003586,0.,0.00000236,0.,0.00003935,0.
 00001432,0.,-0.00003935,0.00001432,0.,0.,0.00003653,0.,-0.00012005,-0.
 00004261,0.00003586,0.,0.00000236,0.,0.00012005,-0.00004261\\\@
 Job cpu time:  0 days 12 hours  5 minutes 57.2 seconds.
 File lengths (MBytes):  RWF=   2374 Int=      0 D2E=      0 Chk=     42 Scr=      1
 Normal termination of Gaussian 09 at Wed Dec 21 10:12:10 2011.
