 Entering Gaussian System, Link 0=g09
 Initial command:
 /usr/local/chem/g09A2/l1.exe /temp0/tam/Gau-21666.inp -scrdir=/temp0/tam/
 Entering Link 1 = /usr/local/chem/g09A2/l1.exe PID=     21667.
  
 Copyright (c) 1988,1990,1992,1993,1995,1998,2003,2009, Gaussian, Inc.
                  All Rights Reserved.
  
 This is part of the Gaussian(R) 09 program.  It is based on
 the Gaussian(R) 03 system (copyright 2003, Gaussian, Inc.),
 the Gaussian(R) 98 system (copyright 1998, Gaussian, Inc.),
 the Gaussian(R) 94 system (copyright 1995, Gaussian, Inc.),
 the Gaussian 92(TM) system (copyright 1992, Gaussian, Inc.),
 the Gaussian 90(TM) system (copyright 1990, Gaussian, Inc.),
 the Gaussian 88(TM) system (copyright 1988, Gaussian, Inc.),
 the Gaussian 86(TM) system (copyright 1986, Carnegie Mellon
 University), and the Gaussian 82(TM) system (copyright 1983,
 Carnegie Mellon University). Gaussian is a federally registered
 trademark of Gaussian, Inc.
  
 This software contains proprietary and confidential information,
 including trade secrets, belonging to Gaussian, Inc.
  
 This software is provided under written license and may be
 used, copied, transmitted, or stored only in accord with that
 written license.
  
 The following legend is applicable only to US Government
 contracts under FAR:
  
                    RESTRICTED RIGHTS LEGEND
  
 Use, reproduction and disclosure by the US Government is
 subject to restrictions as set forth in subparagraphs (a)
 and (c) of the Commercial Computer Software - Restricted
 Rights clause in FAR 52.227-19.
  
 Gaussian, Inc.
 340 Quinnipiac St., Bldg. 40, Wallingford CT 06492
  
  
 ---------------------------------------------------------------
 Warning -- This program may not be used in any manner that
 competes with the business of Gaussian, Inc. or will provide
 assistance to any competitor of Gaussian, Inc.  The licensee
 of this program is prohibited from giving any competitor of
 Gaussian, Inc. access to this program.  By using this program,
 the user acknowledges that Gaussian, Inc. is engaged in the
 business of creating and licensing software in the field of
 computational chemistry and represents and warrants to the
 licensee that it is not a competitor of Gaussian, Inc. and that
 it will not use this program in any manner prohibited above.
 ---------------------------------------------------------------
  

 Cite this work as:
 Gaussian 09, Revision A.02,
 M. J. Frisch, G. W. Trucks, H. B. Schlegel, G. E. Scuseria, 
 M. A. Robb, J. R. Cheeseman, G. Scalmani, V. Barone, B. Mennucci, 
 G. A. Petersson, H. Nakatsuji, M. Caricato, X. Li, H. P. Hratchian, 
 A. F. Izmaylov, J. Bloino, G. Zheng, J. L. Sonnenberg, M. Hada, 
 M. Ehara, K. Toyota, R. Fukuda, J. Hasegawa, M. Ishida, T. Nakajima, 
 Y. Honda, O. Kitao, H. Nakai, T. Vreven, J. A. Montgomery, Jr., 
 J. E. Peralta, F. Ogliaro, M. Bearpark, J. J. Heyd, E. Brothers, 
 K. N. Kudin, V. N. Staroverov, R. Kobayashi, J. Normand, 
 K. Raghavachari, A. Rendell, J. C. Burant, S. S. Iyengar, J. Tomasi, 
 M. Cossi, N. Rega, J. M. Millam, M. Klene, J. E. Knox, J. B. Cross, 
 V. Bakken, C. Adamo, J. Jaramillo, R. Gomperts, R. E. Stratmann, 
 O. Yazyev, A. J. Austin, R. Cammi, C. Pomelli, J. W. Ochterski, 
 R. L. Martin, K. Morokuma, V. G. Zakrzewski, G. A. Voth, 
 P. Salvador, J. J. Dannenberg, S. Dapprich, A. D. Daniels, 
 O. Farkas, J. B. Foresman, J. V. Ortiz, J. Cioslowski, 
 and D. J. Fox, Gaussian, Inc., Wallingford CT, 2009.
 
 ******************************************
 Gaussian 09:  AM64L-G09RevA.02 11-Jun-2009
                20-Dec-2011 
 ******************************************
 %NprocShared=6
 Will use up to    6 processors via shared memory.
 %mem=18050MB
 %chk=S9L-ne-d-01
 -----------------------
 # G4 scfcyc=500 scf=xqc
 -----------------------
 1/14=-1,18=20,19=15,26=3,38=1/1,3;
 2/9=110,12=2,17=6,18=5,40=1/2;
 3/5=35,7=104,11=2,16=1,25=1,30=1,71=1,74=-5/1,2,3;
 4//1;
 5/5=2,7=500,8=3,13=1,38=5/2,8;
 6/7=2,8=2,9=2,10=2,28=1/1;
 7//1,2,3,16;
 1/14=-1,18=20,19=15/3(2);
 2/9=110/2;
 99//99;
 2/9=110/2;
 3/5=35,7=104,11=2,16=1,25=1,30=1,71=1,74=-5/1,2,3;
 4/5=5,16=3/1;
 5/5=2,7=500,8=3,13=1,38=5/2,8;
 7//1,2,3,16;
 1/14=-1,18=20,19=15/3(-5);
 2/9=110/2;
 6/7=2,8=2,9=2,10=2,19=2,28=1/1;
 99/9=1/99;
 -----
 si6-n
 -----
 Symbolic Z-matrix:
 Charge =  0 Multiplicity = 1
 Si                   -1.35121   0.       -0.1765 
 Si                    0.        0.       -2.08955 
 Si                    0.        0.        1.85232 
 Si                    0.        1.94989   0.29453 
 Si                    0.       -1.94989   0.29453 
 Si                    1.35121   0.       -0.1765 
 

 GradGradGradGradGradGradGradGradGradGradGradGradGradGradGradGradGradGrad
 Berny optimization.
 Initialization pass.
                           ----------------------------
                           !    Initial Parameters    !
                           ! (Angstroms and Degrees)  !
 --------------------------                            --------------------------
 ! Name  Definition              Value          Derivative Info.                !
 --------------------------------------------------------------------------------
 ! R1    R(1,2)                  2.3421         estimate D2E/DX2                !
 ! R2    R(1,3)                  2.4376         estimate D2E/DX2                !
 ! R3    R(1,4)                  2.4186         estimate D2E/DX2                !
 ! R4    R(1,5)                  2.4186         estimate D2E/DX2                !
 ! R5    R(1,6)                  2.7024         estimate D2E/DX2                !
 ! R6    R(2,6)                  2.3421         estimate D2E/DX2                !
 ! R7    R(3,4)                  2.4958         estimate D2E/DX2                !
 ! R8    R(3,5)                  2.4958         estimate D2E/DX2                !
 ! R9    R(3,6)                  2.4376         estimate D2E/DX2                !
 ! R10   R(4,6)                  2.4186         estimate D2E/DX2                !
 ! R11   R(5,6)                  2.4186         estimate D2E/DX2                !
 ! A1    A(2,1,3)              111.1022         estimate D2E/DX2                !
 ! A2    A(2,1,4)               80.6054         estimate D2E/DX2                !
 ! A3    A(2,1,5)               80.6054         estimate D2E/DX2                !
 ! A4    A(4,1,5)              107.453          estimate D2E/DX2                !
 ! A5    A(4,3,5)              102.7565         estimate D2E/DX2                !
 ! A6    A(2,6,3)              111.1022         estimate D2E/DX2                !
 ! A7    A(2,6,4)               80.6054         estimate D2E/DX2                !
 ! A8    A(2,6,5)               80.6054         estimate D2E/DX2                !
 ! A9    A(4,6,5)              107.453          estimate D2E/DX2                !
 ! D1    D(2,1,4,3)           -120.1594         estimate D2E/DX2                !
 ! D2    D(2,1,5,3)            120.1594         estimate D2E/DX2                !
 ! D3    D(2,1,5,4)             76.9704         estimate D2E/DX2                !
 --------------------------------------------------------------------------------
 Trust Radius=3.00D-01 FncErr=1.00D-07 GrdErr=1.00D-06
 Number of steps in this run=  33 maximum allowed number of steps= 100.
 GradGradGradGradGradGradGradGradGradGradGradGradGradGradGradGradGradGrad

                          Input orientation:                          
 ---------------------------------------------------------------------
 Center     Atomic      Atomic             Coordinates (Angstroms)
 Number     Number       Type             X           Y           Z
 ---------------------------------------------------------------------
      1         14           0       -1.351205    0.000000   -0.176499
      2         14           0        0.000000    0.000000   -2.089546
      3         14           0        0.000000    0.000000    1.852317
      4         14           0        0.000000    1.949892    0.294527
      5         14           0        0.000000   -1.949892    0.294527
      6         14           0        1.351205    0.000000   -0.176499
 ---------------------------------------------------------------------
                    Distance matrix (angstroms):
                    1          2          3          4          5
     1  Si   0.000000
     2  Si   2.342115   0.000000
     3  Si   2.437591   3.941863   0.000000
     4  Si   2.418615   3.079916   2.495754   0.000000
     5  Si   2.418615   3.079916   2.495754   3.899783   0.000000
     6  Si   2.702410   2.342115   2.437591   2.418615   2.418615
                    6
     6  Si   0.000000
 Stoichiometry    Si6
 Framework group  C2V[C2(SiSi),SGV(Si2),SGV'(Si2)]
 Deg. of freedom     5
 Full point group                 C2V     NOp   4
 Largest Abelian subgroup         C2V     NOp   4
 Largest concise Abelian subgroup C2V     NOp   4
                         Standard orientation:                         
 ---------------------------------------------------------------------
 Center     Atomic      Atomic             Coordinates (Angstroms)
 Number     Number       Type             X           Y           Z
 ---------------------------------------------------------------------
      1         14           0        0.000000    1.351205    0.176304
      2         14           0        0.000000    0.000000    2.089350
      3         14           0        0.000000    0.000000   -1.852512
      4         14           0       -1.949892    0.000000   -0.294723
      5         14           0        1.949892    0.000000   -0.294723
      6         14           0        0.000000   -1.351205    0.176304
 ---------------------------------------------------------------------
 Rotational constants (GHZ):      1.6048929      1.5459799      1.1552004
 Standard basis: GTBas3 (6D, 7F)
 There are    74 symmetry adapted basis functions of A1  symmetry.
 There are    26 symmetry adapted basis functions of A2  symmetry.
 There are    46 symmetry adapted basis functions of B1  symmetry.
 There are    46 symmetry adapted basis functions of B2  symmetry.
 Integral buffers will be    131072 words long.
 Raffenetti 2 integral format.
 Two-electron integral symmetry is turned on.
   192 basis functions,   408 primitive gaussians,   210 cartesian basis functions
    42 alpha electrons       42 beta electrons
       nuclear repulsion energy       586.9579783370 Hartrees.
 NAtoms=    6 NActive=    6 NUniq=    4 SFac= 1.69D+00 NAtFMM=   80 NAOKFM=F Big=F
 One-electron integrals computed using PRISM.
 NBasis=   192 RedAO= T  NBF=    74    26    46    46
 NBsUse=   192 1.00D-06 NBFU=    74    26    46    46
 Harris functional with IExCor=  402 diagonalized for initial guess.
 ExpMin= 7.78D-02 ExpMax= 1.61D+04 ExpMxC= 2.43D+03 IAcc=2 IRadAn=         0 AccDes= 0.00D+00
 HarFok:  IExCor=  402 AccDes= 0.00D+00 IRadAn=         0 IDoV= 1
 ScaDFX=  1.000000  1.000000  1.000000  1.000000
 FoFCou: FMM=F IPFlag=           0 FMFlag=      100000 FMFlg1=           0
         NFxFlg=           0 DoJE=T BraDBF=F KetDBF=T FulRan=T
         Omega=  0.000000  0.000000  1.000000  0.000000  0.000000 ICntrl=     500 IOpCl=  0
         NMat0=    1 NMatS0=    1 NMatT0=    0 NMatD0=    1 NMtDS0=    0 NMtDT0=    0
         I1Cent=           4 NGrid=           0.
 Petite list used in FoFCou.
 Initial guess orbital symmetries:
       Occupied  (A1) (B2) (A1) (B1) (A1) (A1) (A1) (B2) (A1) (B1)
                 (A1) (A1) (A1) (B2) (B2) (A1) (A2) (B1) (A1) (B1)
                 (B2) (A1) (B1) (B2) (A2) (A1) (A1) (B1) (B2) (B1)
                 (A1) (A1) (B1) (B2) (A1) (A1) (B2) (B1) (A2) (A1)
                 (A1) (B1)
       Virtual   (B2) (A1) (B2) (B1) (B2) (A1) (A1) (B1) (A1) (A2)
                 (B1) (B2) (A2) (B1) (A1) (A1) (B2) (B1) (A2) (A1)
                 (B2) (B2) (A1) (A1) (B1) (A1) (A1) (B1) (A2) (B2)
                 (A1) (B1) (A1) (B2) (B1) (A2) (A1) (B2) (B1) (B2)
                 (A1) (B2) (B1) (A2) (A2) (A1) (B1) (A1) (B2) (B1)
                 (A1) (A2) (B2) (A1) (B1) (A1) (A1) (B2) (A1) (B1)
                 (B2) (A2) (B1) (B2) (A1) (A1) (B1) (A1) (A2) (B2)
                 (B1) (A1) (B1) (A2) (B2) (A1) (B2) (A1) (B1) (A1)
                 (A2) (B1) (B2) (A1) (A1) (B2) (B2) (A2) (B1) (B1)
                 (A1) (B1) (A1) (A1) (B2) (A2) (A2) (A1) (B1) (A1)
                 (B2) (A2) (B1) (B2) (A1) (B1) (B2) (A2) (A1) (B2)
                 (B2) (A1) (B1) (A1) (A2) (B1) (A1) (B2) (A2) (A1)
                 (B1) (A2) (B2) (A1) (B2) (B1) (B2) (A2) (A1) (A1)
                 (B1) (A1) (B1) (B1) (A1) (A2) (B2) (A1) (B1) (B2)
                 (A2) (A1) (B2) (A1) (A1) (A1) (B1) (A1) (B2) (A1)
 The electronic state of the initial guess is 1-A1.
 Requested convergence on RMS density matrix=1.00D-08 within 128 cycles.
 Requested convergence on MAX density matrix=1.00D-06.
 Requested convergence on             energy=1.00D-06.
 No special actions if energy rises.
 Keep R1 ints in memory in canonical form, NReq=250331148.
 Integral accuracy reduced to 1.0D-05 until final iterations.
 Initial convergence to 1.0D-05 achieved.  Increase integral accuracy.
 SCF Done:  E(RB3LYP) =  -1736.92649169     A.U. after   15 cycles
             Convg  =    0.2004D-08             -V/T =  2.0035
 QCSCF skips out because SCF is already converged.

 **********************************************************************

            Population analysis using the SCF density.

 **********************************************************************

 Orbital symmetries:
       Occupied  (A1) (B1) (A1) (A1) (A1) (B2) (A1) (B1) (A1) (A1)
                 (A1) (B2) (B1) (B2) (A1) (A1) (B1) (B2) (B2) (A2)
                 (B1) (A1) (B1) (A1) (A1) (B2) (B2) (A1) (A2) (B1)
                 (A1) (A1) (B1) (B2) (A1) (A1) (B2) (A1) (B1) (A2)
                 (A1) (B1)
       Virtual   (B2) (B1) (A1) (B2) (B2) (A1) (A1) (B1) (A1) (A2)
                 (B1) (B2) (B1) (A2) (A1) (A1) (B1) (B2) (A1) (A2)
                 (A1) (B2) (A1) (B2) (B1) (A1) (A1) (B1) (B2) (A2)
                 (B1) (A1) (B2) (A1) (B1) (A2) (B2) (A1) (B1) (A1)
                 (B2) (B2) (B1) (A2) (A1) (A2) (B1) (A1) (B2) (B1)
                 (A1) (A2) (A1) (B2) (B1) (A1) (A1) (B2) (A1) (B1)
                 (B2) (A2) (B1) (B2) (A1) (A1) (B1) (A1) (B2) (A2)
                 (B1) (A1) (B1) (A2) (B2) (A1) (A1) (B2) (A1) (B1)
                 (B1) (A2) (A1) (B2) (A1) (B2) (B2) (A2) (B1) (B1)
                 (A1) (B1) (A1) (B2) (A1) (A2) (A1) (A2) (B1) (A1)
                 (B2) (A2) (B1) (A1) (B2) (B1) (B2) (A2) (B2) (A1)
                 (B2) (A1) (B1) (A1) (A2) (B1) (A1) (B2) (A2) (A2)
                 (B1) (A1) (B2) (A1) (B2) (B1) (B2) (A2) (A1) (A1)
                 (B1) (A1) (B1) (A1) (B1) (B2) (A2) (A1) (B1) (A1)
                 (B2) (A2) (B2) (A1) (A1) (A1) (B1) (A1) (B2) (A1)
 The electronic state is 1-A1.
 Alpha  occ. eigenvalues --  -66.16475 -66.15493 -66.15493 -66.15307 -66.14450
 Alpha  occ. eigenvalues --  -66.14449  -5.30968  -5.29930  -5.29929  -5.29786
 Alpha  occ. eigenvalues --   -5.29182  -5.29180  -3.66984  -3.66764  -3.66498
 Alpha  occ. eigenvalues --   -3.65858  -3.65855  -3.65792  -3.65787  -3.65782
 Alpha  occ. eigenvalues --   -3.65515  -3.65510  -3.65496  -3.65456  -3.65155
 Alpha  occ. eigenvalues --   -3.65151  -3.64913  -3.64912  -3.64910  -3.64909
 Alpha  occ. eigenvalues --   -0.66397  -0.50775  -0.49767  -0.45933  -0.36604
 Alpha  occ. eigenvalues --   -0.33632  -0.27506  -0.26705  -0.26539  -0.26292
 Alpha  occ. eigenvalues --   -0.22948  -0.22437
 Alpha virt. eigenvalues --   -0.10555  -0.09287  -0.09092  -0.08861  -0.02689
 Alpha virt. eigenvalues --   -0.01760  -0.00476   0.00178   0.02222   0.02771
 Alpha virt. eigenvalues --    0.03038   0.04760   0.11716   0.11896   0.13393
 Alpha virt. eigenvalues --    0.14614   0.15251   0.15796   0.16371   0.18087
 Alpha virt. eigenvalues --    0.18731   0.19472   0.21185   0.21330   0.22526
 Alpha virt. eigenvalues --    0.24086   0.24258   0.25747   0.26783   0.27662
 Alpha virt. eigenvalues --    0.28246   0.28734   0.28754   0.30061   0.31312
 Alpha virt. eigenvalues --    0.31404   0.32351   0.33463   0.35818   0.37229
 Alpha virt. eigenvalues --    0.37756   0.39710   0.40348   0.41381   0.45991
 Alpha virt. eigenvalues --    0.46315   0.46418   0.47280   0.48766   0.50927
 Alpha virt. eigenvalues --    0.51788   0.52236   0.59685   0.59700   0.61131
 Alpha virt. eigenvalues --    0.63523   0.64883   0.65684   0.65905   0.68643
 Alpha virt. eigenvalues --    0.69185   0.69937   0.72087   0.73140   0.73966
 Alpha virt. eigenvalues --    0.74686   0.81635   0.83747   0.87424   0.87760
 Alpha virt. eigenvalues --    0.89223   0.90368   0.91826   0.92695   0.92813
 Alpha virt. eigenvalues --    0.96104   0.98693   0.99683   1.00011   1.00037
 Alpha virt. eigenvalues --    1.02194   1.03229   1.03234   1.04357   1.04865
 Alpha virt. eigenvalues --    1.08438   1.10268   1.11211   1.11962   1.15196
 Alpha virt. eigenvalues --    1.18988   1.21176   1.22286   1.25368   1.25544
 Alpha virt. eigenvalues --    1.26746   1.28604   1.30029   1.32200   1.32898
 Alpha virt. eigenvalues --    1.35093   1.36307   1.37035   1.40460   1.41161
 Alpha virt. eigenvalues --    1.41794   1.43014   1.43648   1.46967   1.48998
 Alpha virt. eigenvalues --    1.49665   1.50840   1.51493   1.57281   1.64262
 Alpha virt. eigenvalues --    1.70111   1.71327   1.72176   1.75503   1.76668
 Alpha virt. eigenvalues --    1.76849   1.77258   1.80037   1.81483   1.81668
 Alpha virt. eigenvalues --    1.84177   1.87802   1.88580   1.91145   1.97025
 Alpha virt. eigenvalues --    1.99428   2.01478   2.03097   2.03618   2.04008
 Alpha virt. eigenvalues --    2.06302   2.06438   2.09447   2.10351   2.12101
 Alpha virt. eigenvalues --    2.12459   2.12541   2.17872   2.28113   2.43944
 Alpha virt. eigenvalues --    2.73687   2.82182   2.84426   2.88821   2.94784
          Condensed to atoms (all electrons):
              1          2          3          4          5          6
     1  Si  13.437479   0.209024   0.107703   0.143262   0.143262  -0.020669
     2  Si   0.209024  13.472216  -0.016478   0.039630   0.039630   0.209024
     3  Si   0.107703  -0.016478  13.508149   0.145381   0.145381   0.107703
     4  Si   0.143262   0.039630   0.145381  13.547170  -0.014209   0.143262
     5  Si   0.143262   0.039630   0.145381  -0.014209  13.547170   0.143262
     6  Si  -0.020669   0.209024   0.107703   0.143262   0.143262  13.437479
 Mulliken atomic charges:
              1
     1  Si  -0.020061
     2  Si   0.046955
     3  Si   0.002160
     4  Si  -0.004497
     5  Si  -0.004497
     6  Si  -0.020061
 Sum of Mulliken atomic charges =   0.00000
 Mulliken charges with hydrogens summed into heavy atoms:
              1
     1  Si  -0.020061
     2  Si   0.046955
     3  Si   0.002160
     4  Si  -0.004497
     5  Si  -0.004497
     6  Si  -0.020061
 Sum of Mulliken charges with hydrogens summed into heavy atoms =   0.00000
 Electronic spatial extent (au):  <R**2>=           1140.9093
 Charge=              0.0000 electrons
 Dipole moment (field-independent basis, Debye):
    X=              0.0000    Y=              0.0000    Z=              0.1642  Tot=              0.1642
 Quadrupole moment (field-independent basis, Debye-Ang):
   XX=            -81.8288   YY=            -75.9111   ZZ=            -79.7535
   XY=              0.0000   XZ=              0.0000   YZ=              0.0000
 Traceless Quadrupole moment (field-independent basis, Debye-Ang):
   XX=             -2.6644   YY=              3.2534   ZZ=             -0.5890
   XY=              0.0000   XZ=              0.0000   YZ=              0.0000
 Octapole moment (field-independent basis, Debye-Ang**2):
  XXX=              0.0000  YYY=              0.0000  ZZZ=             -1.6248  XYY=              0.0000
  XXY=              0.0000  XXZ=              1.3189  XZZ=              0.0000  YZZ=              0.0000
  YYZ=             -1.1944  XYZ=              0.0000
 Hexadecapole moment (field-independent basis, Debye-Ang**3):
 XXXX=           -818.3839 YYYY=           -410.9302 ZZZZ=           -834.5584 XXXY=              0.0000
 XXXZ=              0.0000 YYYX=              0.0000 YYYZ=              0.0000 ZZZX=              0.0000
 ZZZY=              0.0000 XXYY=           -195.7028 XXZZ=           -249.0838 YYZZ=           -197.7869
 XXYZ=              0.0000 YYXZ=              0.0000 ZZXY=              0.0000
 N-N= 5.869579783370D+02 E-N=-5.308946896875D+03  KE= 1.730886438222D+03
 Symmetry A1   KE= 1.004166264341D+03
 Symmetry A2   KE= 5.069566693427D+01
 Symmetry B1   KE= 3.391231838580D+02
 Symmetry B2   KE= 3.369013230885D+02
 Calling FoFJK, ICntrl=      2127 FMM=F ISym2X=1 I1Cent= 0 IOpClX= 0 NMat=1 NMatS=1 NMatT=0.
 ***** Axes restored to original set *****
 -------------------------------------------------------------------
 Center     Atomic                   Forces (Hartrees/Bohr)
 Number     Number              X              Y              Z
 -------------------------------------------------------------------
      1       14           0.001857746    0.000000000    0.001254551
      2       14           0.000000000    0.000000000    0.000544359
      3       14           0.000000000    0.000000000   -0.001777256
      4       14           0.000000000   -0.001381892   -0.000638103
      5       14           0.000000000    0.001381892   -0.000638103
      6       14          -0.001857746    0.000000000    0.001254551
 -------------------------------------------------------------------
 Cartesian Forces:  Max     0.001857746 RMS     0.001003848

 GradGradGradGradGradGradGradGradGradGradGradGradGradGradGradGradGradGrad
 Berny optimization.
 Internal  Forces:  Max     0.001149064 RMS     0.000542199
 Search for a local minimum.
 Step number   1 out of a maximum of   33
 All quantities printed in internal units (Hartrees-Bohrs-Radians)
 Mixed Optimization -- En-DIIS/RFO-DIIS
 Second derivative matrix not updated -- first step.
     Eigenvalues ---    0.09138   0.09366   0.10264   0.10881   0.10963
     Eigenvalues ---    0.11118   0.11666   0.12691   0.13204   0.13488
     Eigenvalues ---    0.15146   0.192521000.000001000.000001000.00000
     Eigenvalues --- 1000.000001000.000001000.000001000.000001000.00000
     Eigenvalues --- 1000.000001000.000001000.00000
 RFO step:  Lambda=-5.86770679D-05 EMin= 9.13836675D-02
 Linear search not attempted -- first point.
 Iteration  1 RMS(Cart)=  0.00374333 RMS(Int)=  0.00000933
 Iteration  2 RMS(Cart)=  0.00000510 RMS(Int)=  0.00000537
 Iteration  3 RMS(Cart)=  0.00000000 RMS(Int)=  0.00000537
 ClnCor:  largest displacement from symmetrization is 2.45D-05 for atom     5.
 Variable       Old X    -DE/DX   Delta X   Delta X   Delta X     New X
                                 (Linear)    (Quad)   (Total)
    R1        4.42596  -0.00027   0.00000  -0.00163  -0.00162   4.42433
    R2        4.60638  -0.00114   0.00000  -0.01056  -0.01056   4.59582
    R3        4.57052  -0.00088   0.00000  -0.00745  -0.00744   4.56308
    R4        4.57052  -0.00086   0.00000  -0.00745  -0.00744   4.56308
    R5        5.10681  -0.00033   0.00000  -0.00541  -0.00543   5.10139
    R6        4.42596  -0.00016   0.00000  -0.00161  -0.00162   4.42433
    R7        4.71629   0.00003   0.00000  -0.00067  -0.00068   4.71561
    R8        4.71629   0.00004   0.00000  -0.00067  -0.00068   4.71561
    R9        4.60638  -0.00115   0.00000  -0.01056  -0.01056   4.59582
   R10        4.57052  -0.00084   0.00000  -0.00744  -0.00744   4.56308
   R11        4.57052  -0.00086   0.00000  -0.00745  -0.00744   4.56308
    A1        1.93910  -0.00009   0.00000  -0.00033  -0.00033   1.93877
    A2        1.40683  -0.00027   0.00000  -0.00228  -0.00229   1.40454
    A3        1.40683  -0.00041   0.00000  -0.00229  -0.00229   1.40454
    A4        1.87541   0.00016   0.00000   0.00161   0.00160   1.87700
    A5        1.79344  -0.00035   0.00000  -0.00225  -0.00225   1.79119
    A6        1.93910  -0.00013   0.00000  -0.00033  -0.00033   1.93877
    A7        1.40683  -0.00030   0.00000  -0.00228  -0.00229   1.40454
    A8        1.40683  -0.00043   0.00000  -0.00229  -0.00229   1.40454
    A9        1.87541   0.00015   0.00000   0.00160   0.00160   1.87700
    D1       -2.09718   0.00006   0.00000  -0.00012  -0.00013  -2.09730
    D2        2.09718   0.00004   0.00000   0.00013   0.00013   2.09730
    D3        1.34339  -0.00048   0.00000  -0.00367  -0.00368   1.33970
         Item               Value     Threshold  Converged?
 Maximum Force            0.001149     0.000450     NO 
 RMS     Force            0.000542     0.000300     NO 
 Maximum Displacement     0.007929     0.001800     NO 
 RMS     Displacement     0.003743     0.001200     NO 
 Predicted change in Energy=-2.935794D-05
 GradGradGradGradGradGradGradGradGradGradGradGradGradGradGradGradGradGrad

                          Input orientation:                          
 ---------------------------------------------------------------------
 Center     Atomic      Atomic             Coordinates (Angstroms)
 Number     Number       Type             X           Y           Z
 ---------------------------------------------------------------------
      1         14           0       -1.349769    0.000000   -0.172969
      2         14           0        0.000000    0.000000   -2.085978
      3         14           0        0.000000    0.000000    1.850088
      4         14           0        0.000000    1.947858    0.290331
      5         14           0        0.000000   -1.947858    0.290331
      6         14           0        1.349769    0.000000   -0.172969
 ---------------------------------------------------------------------
                    Distance matrix (angstroms):
                    1          2          3          4          5
     1  Si   0.000000
     2  Si   2.341257   0.000000
     3  Si   2.432003   3.936067   0.000000
     4  Si   2.414679   3.072621   2.495395   0.000000
     5  Si   2.414679   3.072621   2.495395   3.895717   0.000000
     6  Si   2.699538   2.341257   2.432003   2.414679   2.414679
                    6
     6  Si   0.000000
 Stoichiometry    Si6
 Framework group  C2V[C2(SiSi),SGV(Si2),SGV'(Si2)]
 Deg. of freedom     5
 Full point group                 C2V     NOp   4
 Largest Abelian subgroup         C2V     NOp   4
 Largest concise Abelian subgroup C2V     NOp   4
                         Standard orientation:                         
 ---------------------------------------------------------------------
 Center     Atomic      Atomic             Coordinates (Angstroms)
 Number     Number       Type             X           Y           Z
 ---------------------------------------------------------------------
      1         14           0        0.000000    1.349769    0.172775
      2         14           0        0.000000    0.000000    2.085784
      3         14           0        0.000000    0.000000   -1.850282
      4         14           0       -1.947858    0.000000   -0.290526
      5         14           0        1.947858    0.000000   -0.290526
      6         14           0        0.000000   -1.349769    0.172775
 ---------------------------------------------------------------------
 Rotational constants (GHZ):      1.6082657      1.5510612      1.1586363
 Standard basis: GTBas3 (6D, 7F)
 There are    74 symmetry adapted basis functions of A1  symmetry.
 There are    26 symmetry adapted basis functions of A2  symmetry.
 There are    46 symmetry adapted basis functions of B1  symmetry.
 There are    46 symmetry adapted basis functions of B2  symmetry.
 Integral buffers will be    131072 words long.
 Raffenetti 2 integral format.
 Two-electron integral symmetry is turned on.
   192 basis functions,   408 primitive gaussians,   210 cartesian basis functions
    42 alpha electrons       42 beta electrons
       nuclear repulsion energy       587.7447437760 Hartrees.
 NAtoms=    6 NActive=    6 NUniq=    4 SFac= 1.69D+00 NAtFMM=   80 NAOKFM=F Big=F
 One-electron integrals computed using PRISM.
 NBasis=   192 RedAO= T  NBF=    74    26    46    46
 NBsUse=   192 1.00D-06 NBFU=    74    26    46    46
 Initial guess read from the read-write file.
 B after Tr=     0.000000    0.000000    0.000000
         Rot=    1.000000    0.000000    0.000000    0.000000 Ang=   0.00 deg.
 Initial guess orbital symmetries:
       Occupied  (A1) (B1) (A1) (A1) (A1) (B2) (A1) (B1) (A1) (A1)
                 (A1) (B2) (B1) (B2) (A1) (A1) (B1) (B2) (B2) (A2)
                 (B1) (A1) (B1) (A1) (A1) (B2) (B2) (A1) (A2) (B1)
                 (A1) (A1) (B1) (B2) (A1) (A1) (B2) (A1) (B1) (A2)
                 (A1) (B1)
       Virtual   (B2) (B1) (A1) (B2) (B2) (A1) (A1) (B1) (A1) (A2)
                 (B1) (B2) (B1) (A2) (A1) (A1) (B1) (B2) (A1) (A2)
                 (A1) (B2) (A1) (B2) (B1) (A1) (A1) (B1) (B2) (A2)
                 (B1) (A1) (B2) (A1) (B1) (A2) (B2) (A1) (B1) (A1)
                 (B2) (B2) (B1) (A2) (A1) (A2) (B1) (A1) (B2) (B1)
                 (A1) (A2) (A1) (B2) (B1) (A1) (A1) (B2) (A1) (B1)
                 (B2) (A2) (B1) (B2) (A1) (A1) (B1) (A1) (B2) (A2)
                 (B1) (A1) (B1) (A2) (B2) (A1) (A1) (B2) (A1) (B1)
                 (B1) (A2) (A1) (B2) (A1) (B2) (B2) (A2) (B1) (B1)
                 (A1) (B1) (A1) (B2) (A1) (A2) (A1) (A2) (B1) (A1)
                 (B2) (A2) (B1) (A1) (B2) (B1) (B2) (A2) (B2) (A1)
                 (B2) (A1) (B1) (A1) (A2) (B1) (A1) (B2) (A2) (A2)
                 (B1) (A1) (B2) (A1) (B2) (B1) (B2) (A2) (A1) (A1)
                 (B1) (A1) (B1) (A1) (B1) (B2) (A2) (A1) (B1) (A1)
                 (B2) (A2) (B2) (A1) (A1) (A1) (B1) (A1) (B2) (A1)
 Requested convergence on RMS density matrix=1.00D-08 within 128 cycles.
 Requested convergence on MAX density matrix=1.00D-06.
 Requested convergence on             energy=1.00D-06.
 No special actions if energy rises.
 Keep R1 ints in memory in canonical form, NReq=250331148.
 SCF Done:  E(RB3LYP) =  -1736.92653783     A.U. after    9 cycles
             Convg  =    0.4408D-08             -V/T =  2.0035
 QCSCF skips out because SCF is already converged.
 Calling FoFJK, ICntrl=      2127 FMM=F ISym2X=1 I1Cent= 0 IOpClX= 0 NMat=1 NMatS=1 NMatT=0.
 ***** Axes restored to original set *****
 -------------------------------------------------------------------
 Center     Atomic                   Forces (Hartrees/Bohr)
 Number     Number              X              Y              Z
 -------------------------------------------------------------------
      1       14           0.001020840    0.000000000    0.000770290
      2       14           0.000000000    0.000000000    0.000193009
      3       14           0.000000000    0.000000000   -0.000577602
      4       14           0.000000000   -0.000626038   -0.000577993
      5       14           0.000000000    0.000626038   -0.000577993
      6       14          -0.001020840    0.000000000    0.000770290
 -------------------------------------------------------------------
 Cartesian Forces:  Max     0.001020840 RMS     0.000531967

 GradGradGradGradGradGradGradGradGradGradGradGradGradGradGradGradGradGrad
 Berny optimization.
 Using GEDIIS/GDIIS optimizer.
 Internal  Forces:  Max     0.000618998 RMS     0.000328800
 Search for a local minimum.
 Step number   2 out of a maximum of   33
 All quantities printed in internal units (Hartrees-Bohrs-Radians)
 Mixed Optimization -- En-DIIS/RFO-DIIS
 Swaping is turned off.
 Update second derivatives using D2CorX and points    1    2
 DE= -4.61D-05 DEPred=-2.94D-05 R= 1.57D+00
 SS=  1.41D+00  RLast= 2.29D-02 DXNew= 5.0454D-01 6.8727D-02
 Trust test= 1.57D+00 RLast= 2.29D-02 DXMaxT set to 3.00D-01
     Eigenvalues ---    0.04395   0.09138   0.09963   0.10870   0.11039
     Eigenvalues ---    0.11184   0.11480   0.12676   0.12760   0.13610
     Eigenvalues ---    0.14832   0.191131000.000001000.000001000.00000
     Eigenvalues --- 1000.000001000.000001000.000001000.000001000.00000
     Eigenvalues --- 1000.000001000.000001000.00000
 En-DIIS/RFO-DIIS IScMMF=        0 using points:     2    1
 RFO step:  Lambda=-1.14480240D-05.
 DIIS coeffs:      2.33757     -1.33757
 Iteration  1 RMS(Cart)=  0.00635224 RMS(Int)=  0.00003787
 Iteration  2 RMS(Cart)=  0.00001896 RMS(Int)=  0.00002547
 Iteration  3 RMS(Cart)=  0.00000000 RMS(Int)=  0.00002547
 ClnCor:  largest displacement from symmetrization is 2.87D-05 for atom     5.
 Variable       Old X    -DE/DX   Delta X   Delta X   Delta X     New X
                                  (DIIS)     (GDIIS)  (Total)
    R1        4.42433  -0.00008  -0.00217   0.00117  -0.00100   4.42334
    R2        4.59582  -0.00060  -0.01412  -0.00039  -0.01452   4.58130
    R3        4.56308  -0.00053  -0.00995  -0.00110  -0.01102   4.55206
    R4        4.56308  -0.00051  -0.00995  -0.00110  -0.01102   4.55206
    R5        5.10139  -0.00020  -0.00726  -0.00119  -0.00850   5.09289
    R6        4.42433  -0.00001  -0.00217   0.00117  -0.00100   4.42334
    R7        4.71561   0.00027  -0.00091   0.00534   0.00441   4.72002
    R8        4.71561   0.00028  -0.00091   0.00534   0.00441   4.72002
    R9        4.59582  -0.00062  -0.01412  -0.00040  -0.01452   4.58130
   R10        4.56308  -0.00049  -0.00995  -0.00110  -0.01102   4.55206
   R11        4.56308  -0.00051  -0.00995  -0.00110  -0.01102   4.55206
    A1        1.93877  -0.00003  -0.00044   0.00045   0.00002   1.93879
    A2        1.40454  -0.00019  -0.00306  -0.00113  -0.00421   1.40033
    A3        1.40454  -0.00029  -0.00306  -0.00114  -0.00421   1.40033
    A4        1.87700   0.00014   0.00214   0.00129   0.00337   1.88038
    A5        1.79119  -0.00030  -0.00301  -0.00225  -0.00528   1.78591
    A6        1.93877  -0.00005  -0.00044   0.00045   0.00002   1.93879
    A7        1.40454  -0.00021  -0.00306  -0.00113  -0.00421   1.40033
    A8        1.40454  -0.00030  -0.00306  -0.00114  -0.00421   1.40033
    A9        1.87700   0.00013   0.00214   0.00129   0.00337   1.88038
    D1       -2.09730   0.00002  -0.00017  -0.00058  -0.00075  -2.09805
    D2        2.09730   0.00005   0.00017   0.00058   0.00075   2.09805
    D3        1.33970  -0.00034  -0.00493  -0.00195  -0.00694   1.33277
         Item               Value     Threshold  Converged?
 Maximum Force            0.000619     0.000450     NO 
 RMS     Force            0.000329     0.000300     NO 
 Maximum Displacement     0.015329     0.001800     NO 
 RMS     Displacement     0.006355     0.001200     NO 
 Predicted change in Energy=-2.673773D-05
 GradGradGradGradGradGradGradGradGradGradGradGradGradGradGradGradGradGrad

                          Input orientation:                          
 ---------------------------------------------------------------------
 Center     Atomic      Atomic             Coordinates (Angstroms)
 Number     Number       Type             X           Y           Z
 ---------------------------------------------------------------------
      1         14           0       -1.347520    0.000000   -0.166742
      2         14           0        0.000000    0.000000   -2.080691
      3         14           0        0.000000    0.000000    1.848580
      4         14           0        0.000000    1.945551    0.282220
      5         14           0        0.000000   -1.945551    0.282220
      6         14           0        1.347520    0.000000   -0.166742
 ---------------------------------------------------------------------
                    Distance matrix (angstroms):
                    1          2          3          4          5
     1  Si   0.000000
     2  Si   2.340729   0.000000
     3  Si   2.424321   3.929271   0.000000
     4  Si   2.408847   3.060803   2.497730   0.000000
     5  Si   2.408847   3.060803   2.497730   3.891102   0.000000
     6  Si   2.695040   2.340729   2.424321   2.408847   2.408847
                    6
     6  Si   0.000000
 Stoichiometry    Si6
 Framework group  C2V[C2(SiSi),SGV(Si2),SGV'(Si2)]
 Deg. of freedom     5
 Full point group                 C2V     NOp   4
 Largest Abelian subgroup         C2V     NOp   4
 Largest concise Abelian subgroup C2V     NOp   4
                         Standard orientation:                         
 ---------------------------------------------------------------------
 Center     Atomic      Atomic             Coordinates (Angstroms)
 Number     Number       Type             X           Y           Z
 ---------------------------------------------------------------------
      1         14           0        0.000000    1.347520    0.166549
      2         14           0        0.000000    0.000000    2.080498
      3         14           0        0.000000    0.000000   -1.848772
      4         14           0       -1.945551    0.000000   -0.282412
      5         14           0        1.945551    0.000000   -0.282412
      6         14           0        0.000000   -1.347520    0.166549
 ---------------------------------------------------------------------
 Rotational constants (GHZ):      1.6125873      1.5581874      1.1630448
 Standard basis: GTBas3 (6D, 7F)
 There are    74 symmetry adapted basis functions of A1  symmetry.
 There are    26 symmetry adapted basis functions of A2  symmetry.
 There are    46 symmetry adapted basis functions of B1  symmetry.
 There are    46 symmetry adapted basis functions of B2  symmetry.
 Integral buffers will be    131072 words long.
 Raffenetti 2 integral format.
 Two-electron integral symmetry is turned on.
   192 basis functions,   408 primitive gaussians,   210 cartesian basis functions
    42 alpha electrons       42 beta electrons
       nuclear repulsion energy       588.7752139429 Hartrees.
 NAtoms=    6 NActive=    6 NUniq=    4 SFac= 1.69D+00 NAtFMM=   80 NAOKFM=F Big=F
 One-electron integrals computed using PRISM.
 NBasis=   192 RedAO= T  NBF=    74    26    46    46
 NBsUse=   192 1.00D-06 NBFU=    74    26    46    46
 Initial guess read from the read-write file.
 B after Tr=     0.000000    0.000000    0.000000
         Rot=    1.000000    0.000000    0.000000    0.000000 Ang=   0.00 deg.
 Initial guess orbital symmetries:
       Occupied  (A1) (B1) (A1) (A1) (A1) (B2) (A1) (B1) (A1) (A1)
                 (A1) (B2) (B1) (B2) (A1) (A1) (B1) (B2) (A2) (B2)
                 (B1) (A1) (B1) (A1) (A1) (B2) (B2) (A1) (A2) (B1)
                 (A1) (A1) (B1) (B2) (A1) (A1) (B2) (A1) (B1) (A2)
                 (A1) (B1)
       Virtual   (B2) (B1) (A1) (B2) (B2) (A1) (A1) (B1) (A1) (A2)
                 (B1) (B2) (B1) (A2) (A1) (A1) (B1) (B2) (A1) (A2)
                 (A1) (B2) (A1) (B2) (B1) (A1) (A1) (B1) (B2) (A2)
                 (B1) (A1) (B2) (A1) (B1) (A2) (B2) (A1) (B1) (A1)
                 (B2) (B2) (B1) (A2) (A1) (A2) (B1) (A1) (B2) (B1)
                 (A1) (A2) (A1) (B2) (B1) (A1) (A1) (B2) (A1) (B1)
                 (B2) (A2) (B1) (B2) (A1) (A1) (B1) (A1) (B2) (A2)
                 (B1) (A1) (B1) (A2) (B2) (A1) (A1) (B2) (A1) (B1)
                 (B1) (A2) (A1) (B2) (A1) (B2) (B2) (A2) (B1) (B1)
                 (A1) (B1) (A1) (B2) (A1) (A2) (A1) (A2) (B1) (A1)
                 (B2) (A2) (B1) (A1) (B2) (B1) (B2) (A2) (B2) (A1)
                 (B2) (A1) (B1) (A1) (A2) (B1) (A1) (B2) (A2) (A2)
                 (B1) (A1) (B2) (B2) (A1) (B1) (B2) (A2) (A1) (A1)
                 (B1) (A1) (B1) (A1) (B1) (B2) (A2) (A1) (B1) (A1)
                 (A2) (B2) (B2) (A1) (A1) (A1) (B1) (A1) (B2) (A1)
 Requested convergence on RMS density matrix=1.00D-08 within 128 cycles.
 Requested convergence on MAX density matrix=1.00D-06.
 Requested convergence on             energy=1.00D-06.
 No special actions if energy rises.
 Keep R1 ints in memory in canonical form, NReq=250331148.
 EnCoef did     5 forward-backward iterations
 SCF Done:  E(RB3LYP) =  -1736.92656763     A.U. after    9 cycles
             Convg  =    0.6451D-08             -V/T =  2.0035
 QCSCF skips out because SCF is already converged.
 Calling FoFJK, ICntrl=      2127 FMM=F ISym2X=1 I1Cent= 0 IOpClX= 0 NMat=1 NMatS=1 NMatT=0.
 ***** Axes restored to original set *****
 -------------------------------------------------------------------
 Center     Atomic                   Forces (Hartrees/Bohr)
 Number     Number              X              Y              Z
 -------------------------------------------------------------------
      1       14          -0.000233474    0.000000000    0.000035622
      2       14           0.000000000    0.000000000   -0.000093451
      3       14           0.000000000    0.000000000    0.000889638
      4       14           0.000000000    0.000305516   -0.000433716
      5       14           0.000000000   -0.000305516   -0.000433716
      6       14           0.000233474    0.000000000    0.000035622
 -------------------------------------------------------------------
 Cartesian Forces:  Max     0.000889638 RMS     0.000286225

 GradGradGradGradGradGradGradGradGradGradGradGradGradGradGradGradGradGrad
 Berny optimization.
 Using GEDIIS/GDIIS optimizer.
 Internal  Forces:  Max     0.000490513 RMS     0.000172399
 Search for a local minimum.
 Step number   3 out of a maximum of   33
 All quantities printed in internal units (Hartrees-Bohrs-Radians)
 Mixed Optimization -- En-DIIS/RFO-DIIS
 Swaping is turned off.
 Update second derivatives using D2CorX and points    1    2    3
 DE= -2.98D-05 DEPred=-2.67D-05 R= 1.11D+00
 SS=  1.41D+00  RLast= 3.45D-02 DXNew= 5.0454D-01 1.0355D-01
 Trust test= 1.11D+00 RLast= 3.45D-02 DXMaxT set to 3.00D-01
     Eigenvalues ---    0.03614   0.09135   0.09933   0.10906   0.11038
     Eigenvalues ---    0.11333   0.11982   0.12749   0.13172   0.14320
     Eigenvalues ---    0.14853   0.191281000.000001000.000001000.00000
     Eigenvalues --- 1000.000001000.000001000.000001000.000001000.00000
     Eigenvalues --- 1000.000001000.000001000.00000
 En-DIIS/RFO-DIIS IScMMF=        0 using points:     3    2    1
 RFO step:  Lambda=-2.08659455D-06.
 DIIS coeffs:      2.73900     -4.01969      2.28068
 Iteration  1 RMS(Cart)=  0.00442849 RMS(Int)=  0.00002508
 Iteration  2 RMS(Cart)=  0.00001138 RMS(Int)=  0.00001885
 Iteration  3 RMS(Cart)=  0.00000000 RMS(Int)=  0.00001885
 ClnCor:  largest displacement from symmetrization is 5.92D-06 for atom     5.
 Variable       Old X    -DE/DX   Delta X   Delta X   Delta X     New X
                                  (DIIS)     (GDIIS)  (Total)
    R1        4.42334   0.00007   0.00197  -0.00058   0.00138   4.42471
    R2        4.58130   0.00013  -0.00116   0.00036  -0.00080   4.58050
    R3        4.55206  -0.00004  -0.00220  -0.00056  -0.00277   4.54929
    R4        4.55206  -0.00004  -0.00220  -0.00055  -0.00277   4.54929
    R5        5.09289   0.00011  -0.00241   0.00248   0.00011   5.09300
    R6        4.42334   0.00010   0.00197  -0.00058   0.00138   4.42471
    R7        4.72002   0.00049   0.00922   0.00274   0.01198   4.73200
    R8        4.72002   0.00049   0.00922   0.00273   0.01198   4.73200
    R9        4.58130   0.00011  -0.00116   0.00037  -0.00080   4.58050
   R10        4.55206  -0.00002  -0.00220  -0.00055  -0.00277   4.54929
   R11        4.55206  -0.00003  -0.00220  -0.00055  -0.00277   4.54929
    A1        1.93879   0.00000   0.00078  -0.00071   0.00007   1.93886
    A2        1.40033  -0.00009  -0.00210  -0.00137  -0.00346   1.39687
    A3        1.40033  -0.00014  -0.00210  -0.00138  -0.00346   1.39687
    A4        1.88038   0.00007   0.00222   0.00007   0.00231   1.88269
    A5        1.78591  -0.00022  -0.00406  -0.00167  -0.00570   1.78021
    A6        1.93879   0.00000   0.00078  -0.00071   0.00007   1.93886
    A7        1.40033  -0.00010  -0.00210  -0.00137  -0.00346   1.39687
    A8        1.40033  -0.00015  -0.00210  -0.00138  -0.00346   1.39687
    A9        1.88038   0.00006   0.00222   0.00007   0.00231   1.88269
    D1       -2.09805  -0.00001  -0.00102   0.00027  -0.00075  -2.09880
    D2        2.09805   0.00004   0.00102  -0.00026   0.00075   2.09880
    D3        1.33277  -0.00017  -0.00366  -0.00201  -0.00563   1.32713
         Item               Value     Threshold  Converged?
 Maximum Force            0.000491     0.000450     NO 
 RMS     Force            0.000172     0.000300     YES
 Maximum Displacement     0.012224     0.001800     NO 
 RMS     Displacement     0.004432     0.001200     NO 
 Predicted change in Energy=-3.952665D-06
 GradGradGradGradGradGradGradGradGradGradGradGradGradGradGradGradGradGrad

                          Input orientation:                          
 ---------------------------------------------------------------------
 Center     Atomic      Atomic             Coordinates (Angstroms)
 Number     Number       Type             X           Y           Z
 ---------------------------------------------------------------------
      1         14           0       -1.347550    0.000000   -0.163158
      2         14           0        0.000000    0.000000   -2.077977
      3         14           0        0.000000    0.000000    1.851634
      4         14           0        0.000000    1.946007    0.275751
      5         14           0        0.000000   -1.946007    0.275751
      6         14           0        1.347550    0.000000   -0.163158
 ---------------------------------------------------------------------
                    Distance matrix (angstroms):
                    1          2          3          4          5
     1  Si   0.000000
     2  Si   2.341458   0.000000
     3  Si   2.423897   3.929611   0.000000
     4  Si   2.407379   3.054011   2.504066   0.000000
     5  Si   2.407379   3.054011   2.504066   3.892014   0.000000
     6  Si   2.695100   2.341458   2.423897   2.407379   2.407379
                    6
     6  Si   0.000000
 Stoichiometry    Si6
 Framework group  C2V[C2(SiSi),SGV(Si2),SGV'(Si2)]
 Deg. of freedom     5
 Full point group                 C2V     NOp   4
 Largest Abelian subgroup         C2V     NOp   4
 Largest concise Abelian subgroup C2V     NOp   4
                         Standard orientation:                         
 ---------------------------------------------------------------------
 Center     Atomic      Atomic             Coordinates (Angstroms)
 Number     Number       Type             X           Y           Z
 ---------------------------------------------------------------------
      1         14           0        0.000000    1.347550    0.162965
      2         14           0        0.000000    0.000000    2.077784
      3         14           0        0.000000    0.000000   -1.851827
      4         14           0       -1.946007    0.000000   -0.275944
      5         14           0        1.946007    0.000000   -0.275944
      6         14           0        0.000000   -1.347550    0.162965
 ---------------------------------------------------------------------
 Rotational constants (GHZ):      1.6120533      1.5594525      1.1634958
 Standard basis: GTBas3 (6D, 7F)
 There are    74 symmetry adapted basis functions of A1  symmetry.
 There are    26 symmetry adapted basis functions of A2  symmetry.
 There are    46 symmetry adapted basis functions of B1  symmetry.
 There are    46 symmetry adapted basis functions of B2  symmetry.
 Integral buffers will be    131072 words long.
 Raffenetti 2 integral format.
 Two-electron integral symmetry is turned on.
   192 basis functions,   408 primitive gaussians,   210 cartesian basis functions
    42 alpha electrons       42 beta electrons
       nuclear repulsion energy       588.7987646779 Hartrees.
 NAtoms=    6 NActive=    6 NUniq=    4 SFac= 1.69D+00 NAtFMM=   80 NAOKFM=F Big=F
 One-electron integrals computed using PRISM.
 NBasis=   192 RedAO= T  NBF=    74    26    46    46
 NBsUse=   192 1.00D-06 NBFU=    74    26    46    46
 Initial guess read from the read-write file.
 B after Tr=     0.000000    0.000000    0.000000
         Rot=    1.000000    0.000000    0.000000    0.000000 Ang=   0.00 deg.
 Initial guess orbital symmetries:
       Occupied  (A1) (B1) (A1) (A1) (A1) (B2) (A1) (B1) (A1) (A1)
                 (A1) (B2) (B1) (B2) (A1) (A1) (B1) (B2) (A2) (B2)
                 (A1) (B1) (B1) (A1) (A1) (B2) (B2) (A1) (A2) (B1)
                 (A1) (A1) (B1) (B2) (A1) (A1) (B2) (A1) (B1) (A2)
                 (A1) (B1)
       Virtual   (B2) (B1) (A1) (B2) (B2) (A1) (A1) (B1) (A1) (A2)
                 (B1) (B2) (B1) (A2) (A1) (A1) (B1) (B2) (A1) (A2)
                 (A1) (B2) (A1) (B2) (B1) (A1) (A1) (B1) (B2) (A2)
                 (B1) (A1) (B2) (A1) (B1) (A2) (B2) (A1) (B1) (A1)
                 (B2) (B2) (B1) (A2) (A1) (A2) (B1) (A1) (B2) (B1)
                 (A1) (A2) (A1) (B2) (B1) (A1) (A1) (A1) (B2) (B1)
                 (B2) (A2) (B1) (B2) (A1) (A1) (B1) (A1) (B2) (A2)
                 (B1) (A1) (B1) (A2) (B2) (A1) (A1) (B2) (A1) (B1)
                 (B1) (A1) (A2) (B2) (A1) (B2) (B2) (A2) (B1) (B1)
                 (A1) (B1) (A1) (B2) (A1) (A2) (A1) (A2) (B1) (A1)
                 (B2) (A2) (B1) (A1) (B2) (B1) (B2) (A2) (B2) (A1)
                 (B2) (A1) (B1) (A1) (A2) (B1) (A1) (B2) (A2) (B1)
                 (A2) (A1) (B2) (B2) (A1) (B1) (B2) (A2) (A1) (A1)
                 (B1) (A1) (B1) (A1) (B1) (B2) (A2) (A1) (B1) (A1)
                 (A2) (B2) (B2) (A1) (A1) (A1) (B1) (A1) (B2) (A1)
 Requested convergence on RMS density matrix=1.00D-08 within 128 cycles.
 Requested convergence on MAX density matrix=1.00D-06.
 Requested convergence on             energy=1.00D-06.
 No special actions if energy rises.
 Keep R1 ints in memory in canonical form, NReq=250331148.
 SCF Done:  E(RB3LYP) =  -1736.92658104     A.U. after    9 cycles
             Convg  =    0.6354D-08             -V/T =  2.0035
 QCSCF skips out because SCF is already converged.
 Calling FoFJK, ICntrl=      2127 FMM=F ISym2X=1 I1Cent= 0 IOpClX= 0 NMat=1 NMatS=1 NMatT=0.
 ***** Axes restored to original set *****
 -------------------------------------------------------------------
 Center     Atomic                   Forces (Hartrees/Bohr)
 Number     Number              X              Y              Z
 -------------------------------------------------------------------
      1       14          -0.000388300    0.000000000   -0.000029698
      2       14           0.000000000    0.000000000    0.000032623
      3       14           0.000000000    0.000000000    0.000598169
      4       14           0.000000000    0.000186885   -0.000285697
      5       14           0.000000000   -0.000186885   -0.000285697
      6       14           0.000388300    0.000000000   -0.000029698
 -------------------------------------------------------------------
 Cartesian Forces:  Max     0.000598169 RMS     0.000223020

 GradGradGradGradGradGradGradGradGradGradGradGradGradGradGradGradGradGrad
 Berny optimization.
 Using GEDIIS/GDIIS optimizer.
 Internal  Forces:  Max     0.000302103 RMS     0.000127542
 Search for a local minimum.
 Step number   4 out of a maximum of   33
 All quantities printed in internal units (Hartrees-Bohrs-Radians)
 Mixed Optimization -- En-DIIS/RFO-DIIS
 Swaping is turned off.
 Update second derivatives using D2CorX and points    1    2    3    4
 DE= -1.34D-05 DEPred=-3.95D-06 R= 3.39D+00
 SS=  1.41D+00  RLast= 2.11D-02 DXNew= 5.0454D-01 6.3402D-02
 Trust test= 3.39D+00 RLast= 2.11D-02 DXMaxT set to 3.00D-01
     Eigenvalues ---    0.01196   0.06829   0.09136   0.10212   0.10980
     Eigenvalues ---    0.11094   0.11368   0.12167   0.12787   0.13658
     Eigenvalues ---    0.14948   0.190911000.000001000.000001000.00000
     Eigenvalues --- 1000.000001000.000001000.000001000.000001000.00000
     Eigenvalues --- 1000.000001000.000001000.00000
 En-DIIS/RFO-DIIS IScMMF=        0 using points:     4    3    2    1
 RFO step:  Lambda=-2.78767221D-06.
 DIIS coeffs:      2.87865     -1.92313      0.00000      0.04448
 Iteration  1 RMS(Cart)=  0.00926901 RMS(Int)=  0.00008905
 Iteration  2 RMS(Cart)=  0.00004909 RMS(Int)=  0.00005430
 Iteration  3 RMS(Cart)=  0.00000000 RMS(Int)=  0.00005430
 ClnCor:  largest displacement from symmetrization is 4.20D-05 for atom     5.
 Variable       Old X    -DE/DX   Delta X   Delta X   Delta X     New X
                                  (DIIS)     (GDIIS)  (Total)
    R1        4.42471   0.00000   0.00271  -0.00037   0.00234   4.42705
    R2        4.58050   0.00011  -0.00039   0.00025  -0.00014   4.58036
    R3        4.54929  -0.00002  -0.00439  -0.00041  -0.00477   4.54451
    R4        4.54929  -0.00001  -0.00439  -0.00041  -0.00477   4.54451
    R5        5.09300   0.00025   0.00083   0.00458   0.00532   5.09832
    R6        4.42471   0.00004   0.00271  -0.00036   0.00234   4.42705
    R7        4.73200   0.00030   0.02233   0.00179   0.02412   4.75612
    R8        4.73200   0.00030   0.02233   0.00179   0.02412   4.75612
    R9        4.58050   0.00011  -0.00039   0.00026  -0.00014   4.58036
   R10        4.54929  -0.00001  -0.00439  -0.00041  -0.00477   4.54451
   R11        4.54929  -0.00001  -0.00439  -0.00041  -0.00477   4.54451
    A1        1.93886  -0.00004   0.00015  -0.00125  -0.00108   1.93778
    A2        1.39687  -0.00009  -0.00621  -0.00165  -0.00788   1.38899
    A3        1.39687  -0.00013  -0.00621  -0.00166  -0.00788   1.38899
    A4        1.88269   0.00001   0.00413  -0.00044   0.00353   1.88622
    A5        1.78021  -0.00016  -0.01037  -0.00155  -0.01191   1.76831
    A6        1.93886  -0.00005   0.00015  -0.00126  -0.00108   1.93778
    A7        1.39687  -0.00010  -0.00621  -0.00165  -0.00788   1.38899
    A8        1.39687  -0.00014  -0.00621  -0.00166  -0.00788   1.38899
    A9        1.88269   0.00000   0.00413  -0.00044   0.00353   1.88622
    D1       -2.09880   0.00002  -0.00137   0.00062  -0.00072  -2.09952
    D2        2.09880   0.00001   0.00137  -0.00062   0.00072   2.09952
    D3        1.32713  -0.00015  -0.01011  -0.00230  -0.01250   1.31464
         Item               Value     Threshold  Converged?
 Maximum Force            0.000302     0.000450     YES
 RMS     Force            0.000128     0.000300     YES
 Maximum Displacement     0.025560     0.001800     NO 
 RMS     Displacement     0.009276     0.001200     NO 
 Predicted change in Energy=-1.160640D-05
 GradGradGradGradGradGradGradGradGradGradGradGradGradGradGradGradGradGrad

                          Input orientation:                          
 ---------------------------------------------------------------------
 Center     Atomic      Atomic             Coordinates (Angstroms)
 Number     Number       Type             X           Y           Z
 ---------------------------------------------------------------------
      1         14           0       -1.348958    0.000000   -0.156002
      2         14           0        0.000000    0.000000   -2.071345
      3         14           0        0.000000    0.000000    1.857756
      4         14           0        0.000000    1.946463    0.262225
      5         14           0        0.000000   -1.946463    0.262225
      6         14           0        1.348958    0.000000   -0.156002
 ---------------------------------------------------------------------
                    Distance matrix (angstroms):
                    1          2          3          4          5
     1  Si   0.000000
     2  Si   2.342697   0.000000
     3  Si   2.423821   3.929101   0.000000
     4  Si   2.404854   3.038794   2.516831   0.000000
     5  Si   2.404854   3.038794   2.516831   3.892926   0.000000
     6  Si   2.697916   2.342697   2.423821   2.404854   2.404854
                    6
     6  Si   0.000000
 Stoichiometry    Si6
 Framework group  C2V[C2(SiSi),SGV(Si2),SGV'(Si2)]
 Deg. of freedom     5
 Full point group                 C2V     NOp   4
 Largest Abelian subgroup         C2V     NOp   4
 Largest concise Abelian subgroup C2V     NOp   4
                         Standard orientation:                         
 ---------------------------------------------------------------------
 Center     Atomic      Atomic             Coordinates (Angstroms)
 Number     Number       Type             X           Y           Z
 ---------------------------------------------------------------------
      1         14           0        0.000000    1.348958    0.155811
      2         14           0        0.000000    0.000000    2.071155
      3         14           0        0.000000    0.000000   -1.857947
      4         14           0       -1.946463    0.000000   -0.262416
      5         14           0        1.946463    0.000000   -0.262416
      6         14           0        0.000000   -1.348958    0.155811
 ---------------------------------------------------------------------
 Rotational constants (GHZ):      1.6104516      1.5616551      1.1650248
 Standard basis: GTBas3 (6D, 7F)
 There are    74 symmetry adapted basis functions of A1  symmetry.
 There are    26 symmetry adapted basis functions of A2  symmetry.
 There are    46 symmetry adapted basis functions of B1  symmetry.
 There are    46 symmetry adapted basis functions of B2  symmetry.
 Integral buffers will be    131072 words long.
 Raffenetti 2 integral format.
 Two-electron integral symmetry is turned on.
   192 basis functions,   408 primitive gaussians,   210 cartesian basis functions
    42 alpha electrons       42 beta electrons
       nuclear repulsion energy       588.8125947717 Hartrees.
 NAtoms=    6 NActive=    6 NUniq=    4 SFac= 1.69D+00 NAtFMM=   80 NAOKFM=F Big=F
 One-electron integrals computed using PRISM.
 NBasis=   192 RedAO= T  NBF=    74    26    46    46
 NBsUse=   192 1.00D-06 NBFU=    74    26    46    46
 Initial guess read from the read-write file.
 B after Tr=     0.000000    0.000000    0.000000
         Rot=    1.000000    0.000000    0.000000    0.000000 Ang=   0.00 deg.
 Initial guess orbital symmetries:
       Occupied  (A1) (B1) (A1) (A1) (A1) (B2) (A1) (B1) (A1) (A1)
                 (A1) (B2) (B1) (B2) (A1) (A1) (B1) (B2) (A2) (B2)
                 (A1) (B1) (B1) (A1) (A1) (B2) (B2) (A1) (A2) (B1)
                 (A1) (A1) (B1) (B2) (A1) (A1) (B2) (A1) (B1) (A2)
                 (A1) (B1)
       Virtual   (B2) (B1) (A1) (B2) (B2) (A1) (A1) (B1) (A1) (B1)
                 (A2) (B2) (B1) (A2) (A1) (A1) (B1) (B2) (A1) (A2)
                 (A1) (B2) (A1) (B2) (B1) (A1) (A1) (B1) (B2) (A2)
                 (B1) (A1) (B2) (A1) (B1) (A2) (B2) (A1) (B1) (A1)
                 (B2) (B2) (B1) (A2) (A1) (A2) (B1) (A1) (B2) (B1)
                 (A1) (A2) (A1) (B2) (B1) (A1) (A1) (A1) (B2) (B1)
                 (B2) (A2) (B1) (B2) (A1) (A1) (B1) (A1) (B2) (A2)
                 (B1) (A1) (B1) (A2) (B2) (A1) (A1) (B2) (A1) (B1)
                 (B1) (A1) (A2) (B2) (A1) (B2) (B2) (A2) (B1) (B1)
                 (A1) (B1) (A1) (B2) (A1) (A2) (A1) (A2) (B1) (A1)
                 (B2) (A2) (B1) (A1) (B2) (B1) (B2) (A2) (B2) (A1)
                 (B2) (A1) (B1) (A1) (A2) (B1) (A1) (B2) (A2) (A2)
                 (B1) (A1) (B2) (B2) (A1) (B1) (B2) (A2) (A1) (A1)
                 (B1) (A1) (B1) (A1) (B1) (B2) (A2) (A1) (B1) (A1)
                 (A2) (B2) (B2) (A1) (A1) (A1) (B1) (A1) (B2) (A1)
 Harris functional with IExCor=  402 diagonalized for initial guess.
 ExpMin= 7.78D-02 ExpMax= 1.61D+04 ExpMxC= 2.43D+03 IAcc=2 IRadAn=         0 AccDes= 0.00D+00
 HarFok:  IExCor=  402 AccDes= 0.00D+00 IRadAn=         0 IDoV= 1
 ScaDFX=  1.000000  1.000000  1.000000  1.000000
 FoFCou: FMM=F IPFlag=           0 FMFlag=      100000 FMFlg1=           0
         NFxFlg=           0 DoJE=T BraDBF=F KetDBF=T FulRan=T
         Omega=  0.000000  0.000000  1.000000  0.000000  0.000000 ICntrl=     500 IOpCl=  0
         NMat0=    1 NMatS0=    1 NMatT0=    0 NMatD0=    1 NMtDS0=    0 NMtDT0=    0
         I1Cent=           4 NGrid=           0.
 Petite list used in FoFCou.
 Requested convergence on RMS density matrix=1.00D-08 within 128 cycles.
 Requested convergence on MAX density matrix=1.00D-06.
 Requested convergence on             energy=1.00D-06.
 No special actions if energy rises.
 Keep R1 ints in memory in canonical form, NReq=250331148.
 Integral accuracy reduced to 1.0D-05 until final iterations.
 Initial convergence to 1.0D-05 achieved.  Increase integral accuracy.
 SCF Done:  E(RB3LYP) =  -1736.92659471     A.U. after   11 cycles
             Convg  =    0.8668D-08             -V/T =  2.0035
 QCSCF skips out because SCF is already converged.
 Calling FoFJK, ICntrl=      2127 FMM=F ISym2X=1 I1Cent= 0 IOpClX= 0 NMat=1 NMatS=1 NMatT=0.
 ***** Axes restored to original set *****
 -------------------------------------------------------------------
 Center     Atomic                   Forces (Hartrees/Bohr)
 Number     Number              X              Y              Z
 -------------------------------------------------------------------
      1       14          -0.000385029    0.000000000   -0.000006850
      2       14           0.000000000    0.000000000    0.000087394
      3       14           0.000000000    0.000000000   -0.000016881
      4       14           0.000000000   -0.000000231   -0.000028407
      5       14           0.000000000    0.000000231   -0.000028407
      6       14           0.000385029    0.000000000   -0.000006850
 -------------------------------------------------------------------
 Cartesian Forces:  Max     0.000385029 RMS     0.000130411

 GradGradGradGradGradGradGradGradGradGradGradGradGradGradGradGradGradGrad
 Berny optimization.
 Using GEDIIS/GDIIS optimizer.
 Internal  Forces:  Max     0.000286605 RMS     0.000075427
 Search for a local minimum.
 Step number   5 out of a maximum of   33
 All quantities printed in internal units (Hartrees-Bohrs-Radians)
 Mixed Optimization -- En-DIIS/RFO-DIIS
 Swaping is turned off.
 Update second derivatives using D2CorX and points    1    2    3    4    5
 DE= -1.37D-05 DEPred=-1.16D-05 R= 1.18D+00
 SS=  1.41D+00  RLast= 4.32D-02 DXNew= 5.0454D-01 1.2969D-01
 Trust test= 1.18D+00 RLast= 4.32D-02 DXMaxT set to 3.00D-01
     Eigenvalues ---    0.01000   0.05610   0.09132   0.10396   0.10995
     Eigenvalues ---    0.11173   0.11479   0.12163   0.12788   0.13750
     Eigenvalues ---    0.15066   0.191451000.000001000.000001000.00000
     Eigenvalues --- 1000.000001000.000001000.000001000.000001000.00000
     Eigenvalues --- 1000.000001000.000001000.00000
 En-DIIS/RFO-DIIS IScMMF=        0 using points:     5    4    3    2    1
 RFO step:  Lambda=-4.60805234D-07.
 DIIS coeffs:      3.51531     -8.09673      8.54838     -6.74989      3.78293
 Iteration  1 RMS(Cart)=  0.00446181 RMS(Int)=  0.00012102
 Iteration  2 RMS(Cart)=  0.00001196 RMS(Int)=  0.00012002
 Iteration  3 RMS(Cart)=  0.00000000 RMS(Int)=  0.00012002
 ClnCor:  largest displacement from symmetrization is 9.46D-05 for atom     5.
 Variable       Old X    -DE/DX   Delta X   Delta X   Delta X     New X
                                  (DIIS)     (GDIIS)  (Total)
    R1        4.42705  -0.00004   0.00137   0.00010   0.00146   4.42852
    R2        4.58036   0.00000   0.00099  -0.00055   0.00043   4.58079
    R3        4.54451   0.00001  -0.00109   0.00036  -0.00081   4.54371
    R4        4.54451   0.00002  -0.00109   0.00036  -0.00081   4.54371
    R5        5.09832   0.00029   0.00805   0.00035   0.00864   5.10696
    R6        4.42705   0.00000   0.00137   0.00009   0.00146   4.42852
    R7        4.75612  -0.00001   0.00949   0.00024   0.00976   4.76589
    R8        4.75612   0.00000   0.00949   0.00024   0.00976   4.76589
    R9        4.58036   0.00002   0.00099  -0.00055   0.00043   4.58079
   R10        4.54451   0.00001  -0.00109   0.00037  -0.00081   4.54371
   R11        4.54451   0.00001  -0.00109   0.00037  -0.00081   4.54371
    A1        1.93778  -0.00007  -0.00182  -0.00016  -0.00203   1.93574
    A2        1.38899  -0.00005  -0.00433  -0.00013  -0.00442   1.38457
    A3        1.38899  -0.00008  -0.00433  -0.00014  -0.00442   1.38457
    A4        1.88622  -0.00005  -0.00007   0.00012   0.00036   1.88658
    A5        1.76831  -0.00003  -0.00532   0.00018  -0.00511   1.76320
    A6        1.93778  -0.00009  -0.00182  -0.00016  -0.00203   1.93574
    A7        1.38899  -0.00006  -0.00433  -0.00014  -0.00442   1.38457
    A8        1.38899  -0.00008  -0.00433  -0.00014  -0.00442   1.38457
    A9        1.88622  -0.00005  -0.00007   0.00012   0.00036   1.88658
    D1       -2.09952   0.00005   0.00061   0.00015   0.00073  -2.09880
    D2        2.09952  -0.00003  -0.00061  -0.00015  -0.00073   2.09880
    D3        1.31464  -0.00008  -0.00663  -0.00023  -0.00663   1.30801
         Item               Value     Threshold  Converged?
 Maximum Force            0.000287     0.000450     YES
 RMS     Force            0.000075     0.000300     YES
 Maximum Displacement     0.011804     0.001800     NO 
 RMS     Displacement     0.004480     0.001200     NO 
 Predicted change in Energy=-3.725442D-07
 GradGradGradGradGradGradGradGradGradGradGradGradGradGradGradGradGradGrad

                          Input orientation:                          
 ---------------------------------------------------------------------
 Center     Atomic      Atomic             Coordinates (Angstroms)
 Number     Number       Type             X           Y           Z
 ---------------------------------------------------------------------
      1         14           0       -1.351245    0.000000   -0.152738
      2         14           0        0.000000    0.000000   -2.067417
      3         14           0        0.000000    0.000000    1.859762
      4         14           0        0.000000    1.946369    0.255979
      5         14           0        0.000000   -1.946369    0.255979
      6         14           0        1.351245    0.000000   -0.152738
 ---------------------------------------------------------------------
                    Distance matrix (angstroms):
                    1          2          3          4          5
     1  Si   0.000000
     2  Si   2.343471   0.000000
     3  Si   2.424050   3.927180   0.000000
     4  Si   2.404426   3.030928   2.521998   0.000000
     5  Si   2.404426   3.030928   2.521998   3.892739   0.000000
     6  Si   2.702489   2.343471   2.424050   2.404426   2.404426
                    6
     6  Si   0.000000
 Stoichiometry    Si6
 Framework group  C2V[C2(SiSi),SGV(Si2),SGV'(Si2)]
 Deg. of freedom     5
 Full point group                 C2V     NOp   4
 Largest Abelian subgroup         C2V     NOp   4
 Largest concise Abelian subgroup C2V     NOp   4
                         Standard orientation:                         
 ---------------------------------------------------------------------
 Center     Atomic      Atomic             Coordinates (Angstroms)
 Number     Number       Type             X           Y           Z
 ---------------------------------------------------------------------
      1         14           0        0.000000    1.351245    0.152543
      2         14           0        0.000000    0.000000    2.067222
      3         14           0        0.000000    0.000000   -1.859958
      4         14           0       -1.946369    0.000000   -0.256174
      5         14           0        1.946369    0.000000   -0.256174
      6         14           0        0.000000   -1.351245    0.152543
 ---------------------------------------------------------------------
 Rotational constants (GHZ):      1.6087853      1.5623221      1.1663804
 Standard basis: GTBas3 (6D, 7F)
 There are    74 symmetry adapted basis functions of A1  symmetry.
 There are    26 symmetry adapted basis functions of A2  symmetry.
 There are    46 symmetry adapted basis functions of B1  symmetry.
 There are    46 symmetry adapted basis functions of B2  symmetry.
 Integral buffers will be    131072 words long.
 Raffenetti 2 integral format.
 Two-electron integral symmetry is turned on.
   192 basis functions,   408 primitive gaussians,   210 cartesian basis functions
    42 alpha electrons       42 beta electrons
       nuclear repulsion energy       588.7633419486 Hartrees.
 NAtoms=    6 NActive=    6 NUniq=    4 SFac= 1.69D+00 NAtFMM=   80 NAOKFM=F Big=F
 One-electron integrals computed using PRISM.
 NBasis=   192 RedAO= T  NBF=    74    26    46    46
 NBsUse=   192 1.00D-06 NBFU=    74    26    46    46
 Initial guess read from the read-write file.
 B after Tr=     0.000000    0.000000    0.000000
         Rot=    1.000000    0.000000    0.000000    0.000000 Ang=   0.00 deg.
 Initial guess orbital symmetries:
       Occupied  (A1) (B1) (A1) (A1) (A1) (B2) (A1) (B1) (A1) (A1)
                 (A1) (B2) (B1) (B2) (A1) (A1) (B1) (B2) (A2) (B2)
                 (A1) (B1) (B1) (A1) (A1) (B2) (B2) (A1) (A2) (B1)
                 (A1) (A1) (B1) (B2) (A1) (A1) (B2) (A1) (A2) (B1)
                 (A1) (B1)
       Virtual   (B2) (B1) (B2) (A1) (B2) (A1) (A1) (B1) (A1) (B1)
                 (A2) (B2) (A2) (B1) (A1) (A1) (B1) (B2) (A1) (A2)
                 (A1) (B2) (B2) (A1) (B1) (A1) (A1) (B1) (B2) (A2)
                 (B1) (A1) (B2) (A1) (B1) (A2) (B2) (A1) (B1) (A1)
                 (B2) (B1) (B2) (A2) (A1) (A2) (B1) (A1) (B2) (B1)
                 (A1) (A2) (B2) (A1) (B1) (A1) (A1) (A1) (B2) (B1)
                 (B2) (A2) (B1) (B2) (A1) (A1) (B1) (A1) (B2) (A2)
                 (B1) (A1) (A2) (B1) (B2) (A1) (A1) (A1) (B2) (B1)
                 (B1) (A1) (A2) (B2) (A1) (B2) (B2) (A2) (B1) (B1)
                 (A1) (B1) (A1) (B2) (A1) (A2) (A1) (A2) (B1) (A1)
                 (B2) (A2) (B1) (A1) (B2) (B1) (B2) (A2) (B2) (A1)
                 (B2) (A1) (B1) (A1) (A2) (B1) (A1) (B2) (A2) (A2)
                 (B1) (A1) (B2) (B2) (A1) (B1) (B2) (A2) (A1) (A1)
                 (B1) (A1) (B1) (A1) (B1) (B2) (A2) (A1) (B1) (A1)
                 (B2) (A2) (B2) (A1) (A1) (A1) (B1) (A1) (B2) (A1)
 Requested convergence on RMS density matrix=1.00D-08 within 128 cycles.
 Requested convergence on MAX density matrix=1.00D-06.
 Requested convergence on             energy=1.00D-06.
 No special actions if energy rises.
 Keep R1 ints in memory in canonical form, NReq=250331148.
 SCF Done:  E(RB3LYP) =  -1736.92659637     A.U. after    9 cycles
             Convg  =    0.5550D-08             -V/T =  2.0035
 QCSCF skips out because SCF is already converged.
 Calling FoFJK, ICntrl=      2127 FMM=F ISym2X=1 I1Cent= 0 IOpClX= 0 NMat=1 NMatS=1 NMatT=0.
 ***** Axes restored to original set *****
 -------------------------------------------------------------------
 Center     Atomic                   Forces (Hartrees/Bohr)
 Number     Number              X              Y              Z
 -------------------------------------------------------------------
      1       14           0.000030540    0.000000000    0.000032819
      2       14           0.000000000    0.000000000    0.000009611
      3       14           0.000000000    0.000000000   -0.000146143
      4       14           0.000000000   -0.000098454    0.000035447
      5       14           0.000000000    0.000098454    0.000035447
      6       14          -0.000030540    0.000000000    0.000032819
 -------------------------------------------------------------------
 Cartesian Forces:  Max     0.000146143 RMS     0.000051299

 GradGradGradGradGradGradGradGradGradGradGradGradGradGradGradGradGradGrad
 Berny optimization.
 Using GEDIIS/GDIIS optimizer.
 Internal  Forces:  Max     0.000066543 RMS     0.000025532
 Search for a local minimum.
 Step number   6 out of a maximum of   33
 All quantities printed in internal units (Hartrees-Bohrs-Radians)
 Mixed Optimization -- En-DIIS/RFO-DIIS
 Swaping is turned off.
 Update second derivatives using D2CorX and points    1    2    3    4    5
                                                      6
 DE= -1.67D-06 DEPred=-3.73D-07 R= 4.47D+00
 SS=  1.41D+00  RLast= 2.07D-02 DXNew= 5.0454D-01 6.2248D-02
 Trust test= 4.47D+00 RLast= 2.07D-02 DXMaxT set to 3.00D-01
     Eigenvalues ---    0.01009   0.04727   0.08793   0.09134   0.10819
     Eigenvalues ---    0.11006   0.11257   0.12067   0.12790   0.13635
     Eigenvalues ---    0.14693   0.191181000.000001000.000001000.00000
     Eigenvalues --- 1000.000001000.000001000.000001000.000001000.00000
     Eigenvalues --- 1000.000001000.000001000.00000
 En-DIIS/RFO-DIIS IScMMF=        0 using points:     6    5    4    3    2
 RFO step:  Lambda=-6.98032168D-08.
 DIIS coeffs:      0.96124      0.03131     -0.23462      0.29118     -0.04911
 Iteration  1 RMS(Cart)=  0.00105769 RMS(Int)=  0.00001082
 Iteration  2 RMS(Cart)=  0.00000061 RMS(Int)=  0.00001078
 ClnCor:  largest displacement from symmetrization is 6.32D-06 for atom     5.
 Variable       Old X    -DE/DX   Delta X   Delta X   Delta X     New X
                                  (DIIS)     (GDIIS)  (Total)
    R1        4.42852   0.00000  -0.00046   0.00014  -0.00031   4.42821
    R2        4.58079  -0.00004  -0.00053   0.00006  -0.00048   4.58031
    R3        4.54371  -0.00003   0.00020  -0.00007   0.00013   4.54383
    R4        4.54371  -0.00003   0.00020  -0.00007   0.00013   4.54383
    R5        5.10696   0.00001  -0.00082   0.00006  -0.00074   5.10622
    R6        4.42852   0.00000  -0.00046   0.00014  -0.00031   4.42821
    R7        4.76589  -0.00007  -0.00324  -0.00005  -0.00329   4.76259
    R8        4.76589  -0.00007  -0.00324  -0.00005  -0.00329   4.76259
    R9        4.58079  -0.00003  -0.00053   0.00006  -0.00048   4.58031
   R10        4.54371  -0.00003   0.00020  -0.00006   0.00013   4.54383
   R11        4.54371  -0.00003   0.00020  -0.00006   0.00013   4.54383
    A1        1.93574  -0.00001   0.00007   0.00001   0.00008   1.93582
    A2        1.38457   0.00000   0.00086   0.00000   0.00086   1.38543
    A3        1.38457   0.00000   0.00086   0.00000   0.00086   1.38543
    A4        1.88658  -0.00001  -0.00043  -0.00004  -0.00044   1.88614
    A5        1.76320   0.00001   0.00141  -0.00004   0.00136   1.76456
    A6        1.93574  -0.00001   0.00007   0.00001   0.00008   1.93582
    A7        1.38457   0.00000   0.00086   0.00000   0.00086   1.38543
    A8        1.38457   0.00000   0.00086   0.00000   0.00086   1.38543
    A9        1.88658  -0.00001  -0.00043  -0.00004  -0.00044   1.88614
    D1       -2.09880   0.00000   0.00012  -0.00002   0.00009  -2.09870
    D2        2.09880   0.00000  -0.00012   0.00002  -0.00009   2.09870
    D3        1.30801   0.00000   0.00137   0.00001   0.00140   1.30941
         Item               Value     Threshold  Converged?
 Maximum Force            0.000067     0.000450     YES
 RMS     Force            0.000026     0.000300     YES
 Maximum Displacement     0.002877     0.001800     NO 
 RMS     Displacement     0.001057     0.001200     YES
 Predicted change in Energy=-1.821517D-07
 GradGradGradGradGradGradGradGradGradGradGradGradGradGradGradGradGradGrad

                          Input orientation:                          
 ---------------------------------------------------------------------
 Center     Atomic      Atomic             Coordinates (Angstroms)
 Number     Number       Type             X           Y           Z
 ---------------------------------------------------------------------
      1         14           0       -1.351049    0.000000   -0.153473
      2         14           0        0.000000    0.000000   -2.068088
      3         14           0        0.000000    0.000000    1.858855
      4         14           0        0.000000    1.946114    0.257501
      5         14           0        0.000000   -1.946114    0.257501
      6         14           0        1.351049    0.000000   -0.153473
 ---------------------------------------------------------------------
                    Distance matrix (angstroms):
                    1          2          3          4          5
     1  Si   0.000000
     2  Si   2.343306   0.000000
     3  Si   2.423798   3.926943   0.000000
     4  Si   2.404494   3.032445   2.520257   0.000000
     5  Si   2.404494   3.032445   2.520257   3.892227   0.000000
     6  Si   2.702097   2.343306   2.423798   2.404494   2.404494
                    6
     6  Si   0.000000
 Stoichiometry    Si6
 Framework group  C2V[C2(SiSi),SGV(Si2),SGV'(Si2)]
 Deg. of freedom     5
 Full point group                 C2V     NOp   4
 Largest Abelian subgroup         C2V     NOp   4
 Largest concise Abelian subgroup C2V     NOp   4
                         Standard orientation:                         
 ---------------------------------------------------------------------
 Center     Atomic      Atomic             Coordinates (Angstroms)
 Number     Number       Type             X           Y           Z
 ---------------------------------------------------------------------
      1         14           0        0.000000    1.351049    0.153277
      2         14           0        0.000000    0.000000    2.067892
      3         14           0        0.000000    0.000000   -1.859051
      4         14           0       -1.946114    0.000000   -0.257697
      5         14           0        1.946114    0.000000   -0.257697
      6         14           0        0.000000   -1.351049    0.153277
 ---------------------------------------------------------------------
 Rotational constants (GHZ):      1.6092223      1.5622745      1.1664239
 Standard basis: GTBas3 (6D, 7F)
 There are    74 symmetry adapted basis functions of A1  symmetry.
 There are    26 symmetry adapted basis functions of A2  symmetry.
 There are    46 symmetry adapted basis functions of B1  symmetry.
 There are    46 symmetry adapted basis functions of B2  symmetry.
 Integral buffers will be    131072 words long.
 Raffenetti 2 integral format.
 Two-electron integral symmetry is turned on.
   192 basis functions,   408 primitive gaussians,   210 cartesian basis functions
    42 alpha electrons       42 beta electrons
       nuclear repulsion energy       588.8069120354 Hartrees.
 NAtoms=    6 NActive=    6 NUniq=    4 SFac= 1.69D+00 NAtFMM=   80 NAOKFM=F Big=F
 One-electron integrals computed using PRISM.
 NBasis=   192 RedAO= T  NBF=    74    26    46    46
 NBsUse=   192 1.00D-06 NBFU=    74    26    46    46
 Initial guess read from the read-write file.
 B after Tr=     0.000000    0.000000    0.000000
         Rot=    1.000000    0.000000    0.000000    0.000000 Ang=   0.00 deg.
 Initial guess orbital symmetries:
       Occupied  (A1) (B1) (A1) (A1) (A1) (B2) (A1) (B1) (A1) (A1)
                 (A1) (B2) (B1) (B2) (A1) (A1) (B1) (B2) (A2) (B2)
                 (A1) (B1) (B1) (A1) (A1) (B2) (B2) (A1) (A2) (B1)
                 (A1) (A1) (B1) (B2) (A1) (A1) (B2) (A1) (A2) (B1)
                 (A1) (B1)
       Virtual   (B2) (B2) (B1) (A1) (B2) (A1) (A1) (B1) (A1) (B1)
                 (A2) (B2) (A2) (B1) (A1) (A1) (B1) (B2) (A1) (A2)
                 (A1) (B2) (B2) (A1) (B1) (A1) (A1) (B1) (B2) (A2)
                 (A1) (B1) (B2) (A1) (B1) (A2) (B2) (A1) (B1) (A1)
                 (B2) (B1) (B2) (A2) (A1) (A2) (B1) (A1) (B2) (B1)
                 (A1) (A2) (B2) (A1) (B1) (A1) (A1) (A1) (B2) (B1)
                 (B2) (A2) (B1) (B2) (A1) (A1) (B1) (A1) (B2) (A2)
                 (B1) (A1) (A2) (B1) (B2) (A1) (A1) (A1) (B2) (B1)
                 (B1) (A1) (A2) (B2) (A1) (B2) (B2) (A2) (B1) (B1)
                 (A1) (B1) (A1) (B2) (A1) (A2) (A1) (A2) (B1) (A1)
                 (B2) (A2) (B1) (A1) (B2) (B1) (B2) (A2) (B2) (B2)
                 (A1) (A1) (B1) (A1) (A2) (B1) (A1) (B2) (A2) (A2)
                 (A1) (B1) (B2) (B2) (A1) (B1) (B2) (A2) (A1) (A1)
                 (B1) (A1) (B1) (A1) (B1) (B2) (A2) (A1) (B1) (A1)
                 (B2) (A2) (B2) (A1) (A1) (A1) (B1) (A1) (B2) (A1)
 Requested convergence on RMS density matrix=1.00D-08 within 128 cycles.
 Requested convergence on MAX density matrix=1.00D-06.
 Requested convergence on             energy=1.00D-06.
 No special actions if energy rises.
 Keep R1 ints in memory in canonical form, NReq=250331148.
 SCF Done:  E(RB3LYP) =  -1736.92659664     A.U. after    8 cycles
[...]
                 (B2) (B1) (B2) (A1) (A1) (B1) (A1) (A1) (A1) (A2)
                 (B1) (A1) (A1) (B2) (B1) (B2) (B1) (A2) (B2) (A1)
                 (A2) (B1) (B2) (A1) (A1) (B1) (B2) (A1) (A1) (B1)
                 (A2) (B2) (A1) (B2) (B1) (A1) (B1) (A2) (B2) (A1)
                 (A1) (A1) (B1) (A1) (B2) (B1) (B2) (A1) (A2) (B1)
                 (A1) (B2) (A2) (B1) (A1) (A2) (B1) (A1) (B2) (A1)
                 (A1) (B2) (A1) (B2) (A1) (B1) (A2) (B2) (B1) (A2)
                 (B1) (A1) (B2) (B1) (A2) (A1) (B2) (B1) (B2) (A2)
                 (A1) (B2) (A2) (B1) (A1) (A1) (B1) (B2) (B1) (B1)
                 (A1) (B2) (A2) (B1) (A1) (A1) (B2) (B2) (A2) (B1)
                 (A2) (A1) (B2) (A1) (B1) (A2) (A1) (B2) (A1) (A1)
                 (B2) (A1) (B2) (B1) (A1) (A2) (B1) (A1) (B1) (A1)
                 (A2) (B2) (A1) (B1) (B2) (B1) (A2) (B2) (A1) (B1)
                 (A2) (B2) (A1) (A2) (A1) (B2) (A1) (B1) (B2) (A1)
                 (B1) (A2) (B1) (A1) (A1) (A1) (B1) (B2) (A2) (B1)
                 (A1) (B1) (B2) (A2) (A1) (B2) (B1) (A1) (B2) (A2)
                 (B2) (B1) (A1) (A1) (B1) (B2) (A2) (A1) (B2) (B1)
                 (A2) (A1) (B2) (A1) (A2) (B1) (B1) (B2) (A1) (B2)
                 (B1) (A1) (B2) (A1) (A2) (B1) (A2) (B2) (A1) (A1)
                 (B2) (B1) (A1) (A2) (B1) (A1) (B2) (A1) (A2) (B1)
                 (A1) (B2) (A2) (B1) (B2) (A2) (A1) (B1) (B1) (A1)
                 (A2) (B2) (A2) (A1) (B2) (B1) (B2) (B2) (A1) (B1)
                 (A1) (B2) (B1) (A2) (B1) (A1) (B2) (A1) (A2) (B1)
                 (A2) (A1) (A1) (B1) (A2) (B2) (A1) (B1) (A2) (A1)
                 (A1) (B2) (A2) (B1) (B2) (A1) (B1) (B2) (A1) (A2)
                 (B1) (A1) (B1) (B2) (A1) (B1) (A1) (A2) (B2) (A1)
                 (A2) (B2) (A1) (B2) (B1) (A1) (B2) (A2) (B2) (B1)
                 (A2) (A1) (B1) (A1) (A2) (A1) (B2) (B1) (B2) (A1)
                 (A2) (A1) (B1) (B1) (B2) (A1) (A1) (A2) (B2) (B1)
                 (B2) (A1) (A2) (A1) (B2) (B2) (B1) (A2) (A1) (B1)
                 (B1) (B2) (A1) (B1) (B2) (B1) (B1) (A1) (B2) (A1)
                 (B1) (A2) (A2) (B2) (B2) (A1) (A2) (B1) (A1) (B2)
                 (B1) (A1) (B1) (A2) (A1) (B1) (B2) (B2) (A2) (A1)
                 (B2) (A1) (B1) (B1) (A2) (A1) (A2) (B2) (A1) (B1)
                 (B2) (A1) (B2) (B1) (A2) (B1) (A1) (B2) (B1) (A2)
                 (A2) (A1) (A2) (B2) (B1) (B2) (A1) (A1) (B1) (A1)
                 (B2) (A1) (A2) (B1) (A1) (B2) (A2) (B1) (B2) (A1)
                 (A1) (B1) (B2) (A2) (B2) (A1) (B1) (A1) (A2) (B2)
                 (B1) (A1) (A2) (B2) (A1) (B1) (A1) (B1) (A2) (B2)
                 (A2) (A1) (B1) (B2) (A2) (B1) (A1) (B2) (A1) (A2)
                 (B1) (B2) (A1) (A1) (B2) (A2) (B1) (B2) (A1) (A2)
                 (A1) (B1) (B2) (A2) (B1) (A1) (B2) (B2) (A2) (B1)
                 (B1) (B2) (A1) (B1) (A2) (A1) (A1) (B1) (A2) (A1)
                 (A1) (B1) (B2) (B2) (A2) (A1) (A1) (B1) (A1) (B2)
                 (A1) (A2) (B1) (A2) (B2) (B1) (A1) (A1) (B2) (B1)
                 (A2) (B1) (A1) (A2) (B2) (A1) (B1) (B2) (A1) (A2)
                 (B2) (B1) (B1) (A1) (A2) (B2) (B1) (A1) (B2) (A2)
                 (B2) (A1) (B2) (A1) (B1) (B2) (A1) (A1) (A2) (A1)
                 (B1) (B2) (A2) (A1) (B1) (A1) (A2) (B1) (A1) (A1)
                 (B2) (B1) (B2) (A2) (A1) (A2) (A1) (B1) (B2) (A1)
                 (B1) (A1) (B2) (A2) (B1) (B2) (B2) (A1) (B1) (B2)
                 (A2) (B1) (B2) (A1) (A1) (A1) (B1) (B1) (B2) (B2)
                 (A1) (A2) (A1) (B1) (B2) (A1) (A1) (B1) (A1) (A1)
                 (A1) (B2)
 The electronic state is 1-A1.
 Alpha  occ. eigenvalues --  -68.82208 -68.81136 -68.81136 -68.80664 -68.78883
 Alpha  occ. eigenvalues --  -68.78883  -6.16549  -6.15496  -6.15496  -6.15125
 Alpha  occ. eigenvalues --   -6.13775  -6.13770  -4.26650  -4.26632  -4.26611
 Alpha  occ. eigenvalues --   -4.25614  -4.25614  -4.25612  -4.25612  -4.25585
 Alpha  occ. eigenvalues --   -4.25584  -4.25316  -4.25290  -4.25240  -4.24146
 Alpha  occ. eigenvalues --   -4.24130  -4.24041  -4.24040  -4.24036  -4.24035
 Alpha  occ. eigenvalues --   -0.88047  -0.66836  -0.65933  -0.60767  -0.47279
 Alpha  occ. eigenvalues --   -0.43806  -0.34922  -0.33855  -0.33493  -0.32923
 Alpha  occ. eigenvalues --   -0.30471  -0.30223
 Alpha virt. eigenvalues --   -0.00722   0.00880   0.01058   0.01371   0.02532
 Alpha virt. eigenvalues --    0.02698   0.03256   0.03580   0.04188   0.04330
 Alpha virt. eigenvalues --    0.05308   0.05431   0.05499   0.06764   0.06902
 Alpha virt. eigenvalues --    0.06904   0.07581   0.07720   0.07819   0.08110
 Alpha virt. eigenvalues --    0.08588   0.09059   0.09356   0.09502   0.09940
 Alpha virt. eigenvalues --    0.10425   0.11458   0.12904   0.14183   0.14209
 Alpha virt. eigenvalues --    0.14793   0.14938   0.15666   0.15944   0.16492
 Alpha virt. eigenvalues --    0.16805   0.18072   0.18314   0.21701   0.22451
 Alpha virt. eigenvalues --    0.22743   0.23742   0.23826   0.24008   0.24255
 Alpha virt. eigenvalues --    0.25210   0.25416   0.25510   0.27634   0.29380
 Alpha virt. eigenvalues --    0.30026   0.30059   0.30483   0.30917   0.31404
 Alpha virt. eigenvalues --    0.32386   0.33109   0.33505   0.34662   0.35537
 Alpha virt. eigenvalues --    0.36127   0.39855   0.40477   0.42421   0.42557
 Alpha virt. eigenvalues --    0.43545   0.43645   0.44278   0.44893   0.44901
 Alpha virt. eigenvalues --    0.45768   0.46439   0.47203   0.47693   0.49738
 Alpha virt. eigenvalues --    0.50088   0.52083   0.52555   0.54689   0.54695
 Alpha virt. eigenvalues --    0.56132   0.57263   0.57700   0.58403   0.59228
 Alpha virt. eigenvalues --    0.60786   0.61353   0.61790   0.62034   0.62538
 Alpha virt. eigenvalues --    0.62626   0.63093   0.63263   0.67355   0.69568
 Alpha virt. eigenvalues --    0.69748   0.70484   0.71704   0.72796   0.73362
 Alpha virt. eigenvalues --    0.73534   0.76248   0.76728   0.77301   0.78508
 Alpha virt. eigenvalues --    0.78574   0.78907   0.79251   0.79938   0.82338
 Alpha virt. eigenvalues --    0.82407   0.84414   0.85040   0.85296   0.85394
 Alpha virt. eigenvalues --    0.86592   0.87638   0.88059   0.88857   0.89856
 Alpha virt. eigenvalues --    0.89960   0.90354   0.91062   0.91434   0.91486
 Alpha virt. eigenvalues --    0.91659   0.91927   0.93102   0.93467   0.93708
 Alpha virt. eigenvalues --    0.94164   0.94709   0.95145   0.95504   0.96016
 Alpha virt. eigenvalues --    0.97732   0.98372   0.98641   0.99049   1.00719
 Alpha virt. eigenvalues --    1.00999   1.01929   1.04125   1.05500   1.05602
 Alpha virt. eigenvalues --    1.06184   1.06663   1.06898   1.07480   1.08049
 Alpha virt. eigenvalues --    1.08338   1.09224   1.09566   1.11337   1.11527
 Alpha virt. eigenvalues --    1.11532   1.14151   1.15546   1.15773   1.17447
 Alpha virt. eigenvalues --    1.20065   1.22226   1.23418   1.25914   1.27248
 Alpha virt. eigenvalues --    1.27927   1.30955   1.35887   1.37703   1.39100
 Alpha virt. eigenvalues --    1.39283   1.39547   1.39605   1.39767   1.41670
 Alpha virt. eigenvalues --    1.43582   1.43690   1.46624   1.46921   1.47697
 Alpha virt. eigenvalues --    1.48620   1.51306   1.52105   1.53514   1.53694
 Alpha virt. eigenvalues --    1.54007   1.55628   1.56032   1.56410   1.58106
 Alpha virt. eigenvalues --    1.61532   1.62155   1.62356   1.62568   1.62871
 Alpha virt. eigenvalues --    1.63064   1.65049   1.65137   1.67604   1.68224
 Alpha virt. eigenvalues --    1.69371   1.70368   1.70387   1.72439   1.72659
 Alpha virt. eigenvalues --    1.73488   1.74194   1.74387   1.75915   1.76971
 Alpha virt. eigenvalues --    1.77251   1.77962   1.78547   1.80051   1.81410
 Alpha virt. eigenvalues --    1.81846   1.83240   1.83520   1.85744   1.86002
 Alpha virt. eigenvalues --    1.86249   1.86945   1.87203   1.88039   1.88183
 Alpha virt. eigenvalues --    1.89090   1.89179   1.89933   1.91333   1.92553
 Alpha virt. eigenvalues --    1.93008   1.93021   1.94769   1.96114   1.96391
 Alpha virt. eigenvalues --    1.96889   1.97744   1.98895   2.00054   2.01408
 Alpha virt. eigenvalues --    2.01698   2.02979   2.05564   2.06165   2.06651
 Alpha virt. eigenvalues --    2.06706   2.07416   2.09443   2.10816   2.11478
 Alpha virt. eigenvalues --    2.11487   2.12112   2.13338   2.15449   2.15511
 Alpha virt. eigenvalues --    2.15706   2.16928   2.18135   2.19719   2.22416
 Alpha virt. eigenvalues --    2.23815   2.24586   2.25435   2.25491   2.26053
 Alpha virt. eigenvalues --    2.27780   2.29379   2.30470   2.30648   2.32304
 Alpha virt. eigenvalues --    2.33274   2.34989   2.38332   2.38786   2.40163
 Alpha virt. eigenvalues --    2.43613   2.45039   2.45387   2.49526   2.50867
 Alpha virt. eigenvalues --    2.50936   2.52075   2.53381   2.55982   2.59267
 Alpha virt. eigenvalues --    2.59729   2.63743   2.65571   2.68715   2.75795
 Alpha virt. eigenvalues --    2.79180   2.81494   2.81717   2.83334   2.84681
 Alpha virt. eigenvalues --    2.85222   2.85449   2.87424   2.87869   2.88268
 Alpha virt. eigenvalues --    2.93134   2.94786   2.94975   3.03385   3.07670
 Alpha virt. eigenvalues --    3.07861   3.13013   3.15291   3.16912   3.16958
 Alpha virt. eigenvalues --    3.19708   3.21273   3.22932   3.25127   3.25545
 Alpha virt. eigenvalues --    3.26364   3.27710   3.28750   3.29050   3.29669
 Alpha virt. eigenvalues --    3.31690   3.31812   3.35045   3.36129   3.38802
 Alpha virt. eigenvalues --    3.38925   3.40246   3.40594   3.40714   3.44147
 Alpha virt. eigenvalues --    3.44751   3.44977   3.46224   3.46462   3.48218
 Alpha virt. eigenvalues --    3.50181   3.50692   3.50926   3.50991   3.51663
 Alpha virt. eigenvalues --    3.51842   3.52532   3.52858   3.53812   3.55133
 Alpha virt. eigenvalues --    3.56013   3.56606   3.58716   3.59353   3.59591
 Alpha virt. eigenvalues --    3.60553   3.60729   3.61590   3.61850   3.61925
 Alpha virt. eigenvalues --    3.63701   3.64385   3.64880   3.66275   3.66489
 Alpha virt. eigenvalues --    3.66960   3.68434   3.68792   3.68797   3.69380
 Alpha virt. eigenvalues --    3.71444   3.71524   3.71554   3.72763   3.73048
 Alpha virt. eigenvalues --    3.73357   3.74983   3.75621   3.75995   3.78352
 Alpha virt. eigenvalues --    3.78442   3.80342   3.81287   3.82169   3.84579
 Alpha virt. eigenvalues --    3.85290   3.86499   3.88678   3.88862   3.89594
 Alpha virt. eigenvalues --    3.91182   3.94477   3.95006   3.96699   3.97587
 Alpha virt. eigenvalues --    3.98069   3.98464   4.03067   4.03719   4.03972
 Alpha virt. eigenvalues --    4.04169   4.06001   4.08847   4.09506   4.09873
 Alpha virt. eigenvalues --    4.10884   4.10998   4.11911   4.13951   4.14997
 Alpha virt. eigenvalues --    4.16450   4.18069   4.18538   4.20169   4.21148
 Alpha virt. eigenvalues --    4.21332   4.21830   4.24081   4.24169   4.24541
 Alpha virt. eigenvalues --    4.25192   4.27468   4.28899   4.30771   4.32763
 Alpha virt. eigenvalues --    4.32878   4.33179   4.37566   4.38926   4.41043
 Alpha virt. eigenvalues --    4.42219   4.43158   4.43683   4.44327   4.44889
 Alpha virt. eigenvalues --    4.45596   4.46246   4.48524   4.50033   4.50063
 Alpha virt. eigenvalues --    4.50102   4.51835   4.53196   4.53317   4.53727
 Alpha virt. eigenvalues --    4.54669   4.56171   4.58496   4.58786   4.61452
 Alpha virt. eigenvalues --    4.61641   4.61799   4.63748   4.66020   4.67671
 Alpha virt. eigenvalues --    4.69151   4.70331   4.70903   4.74239   4.75173
 Alpha virt. eigenvalues --    4.75916   4.77367   4.79659   4.79796   4.80375
 Alpha virt. eigenvalues --    4.83522   4.84382   4.84455   4.85754   4.86585
 Alpha virt. eigenvalues --    4.87121   4.89160   4.90045   4.91756   4.93218
 Alpha virt. eigenvalues --    4.94096   4.98165   5.01046   5.01180   5.01627
 Alpha virt. eigenvalues --    5.02858   5.04669   5.07444   5.12385   5.13577
 Alpha virt. eigenvalues --    5.19777   5.22794   5.23209   5.23662   5.25723
 Alpha virt. eigenvalues --    5.30190   5.32474   5.34523   5.35346   5.36013
 Alpha virt. eigenvalues --    5.44861   5.45109   5.49483   5.58415   5.58822
 Alpha virt. eigenvalues --    5.82073   5.82556   5.99799   6.30713   6.42658
 Alpha virt. eigenvalues --    6.46659   6.66987   6.67484   6.73739   6.83324
 Alpha virt. eigenvalues --    6.84476   6.85031   6.93128   6.95773   7.00895
 Alpha virt. eigenvalues --    7.01800   7.01820   7.07605   7.07863   7.09649
 Alpha virt. eigenvalues --    7.11439   7.11756   7.14185   7.17323   7.17957
 Alpha virt. eigenvalues --    7.18980   7.20574   7.26103   7.29533   7.37114
 Alpha virt. eigenvalues --    7.43839   7.57369   7.63777  13.73807  13.88926
 Alpha virt. eigenvalues --   13.92958  13.98721  13.98937  14.03375  14.14783
 Alpha virt. eigenvalues --   14.18104  14.19600  14.28641  14.29777  14.51343
 Alpha virt. eigenvalues --   14.57490  14.77895  14.82166  14.83926  14.97743
 Alpha virt. eigenvalues --   15.01586  40.05274  41.10383  41.53630  42.10834
 Alpha virt. eigenvalues --   44.25573  44.34362
          Condensed to atoms (all electrons):
              1          2          3          4          5          6
     1  Si  13.033793   0.313085   0.179291   0.240783   0.240783   0.050025
     2  Si   0.313085  13.143161  -0.014528   0.082912   0.082912   0.313085
     3  Si   0.179291  -0.014528  13.172144   0.246165   0.246165   0.179291
     4  Si   0.240783   0.082912   0.246165  13.184230  -0.017212   0.240783
     5  Si   0.240783   0.082912   0.246165  -0.017212  13.184230   0.240783
     6  Si   0.050025   0.313085   0.179291   0.240783   0.240783  13.033793
 Mulliken atomic charges:
              1
     1  Si  -0.057760
     2  Si   0.079372
     3  Si  -0.008528
     4  Si   0.022338
     5  Si   0.022338
     6  Si  -0.057760
 Sum of Mulliken atomic charges =   0.00000
 Mulliken charges with hydrogens summed into heavy atoms:
              1
     1  Si  -0.057760
     2  Si   0.079372
     3  Si  -0.008528
     4  Si   0.022338
     5  Si   0.022338
     6  Si  -0.057760
 Sum of Mulliken charges with hydrogens summed into heavy atoms =   0.00000
 Electronic spatial extent (au):  <R**2>=           1139.2065
 Charge=              0.0000 electrons
 Dipole moment (field-independent basis, Debye):
    X=              0.0000    Y=              0.0000    Z=              0.1962  Tot=              0.1962
 Quadrupole moment (field-independent basis, Debye-Ang):
   XX=            -84.7622   YY=            -77.6247   ZZ=            -82.9909
   XY=              0.0000   XZ=              0.0000   YZ=              0.0000
 Traceless Quadrupole moment (field-independent basis, Debye-Ang):
   XX=             -2.9696   YY=              4.1679   ZZ=             -1.1983
   XY=              0.0000   XZ=              0.0000   YZ=              0.0000
 Octapole moment (field-independent basis, Debye-Ang**2):
  XXX=              0.0000  YYY=              0.0000  ZZZ=             -1.7913  XYY=              0.0000
  XXY=              0.0000  XXZ=              2.2173  XZZ=              0.0000  YZZ=              0.0000
  YYZ=             -1.5568  XYZ=              0.0000
 Hexadecapole moment (field-independent basis, Debye-Ang**3):
 XXXX=           -863.7117 YYYY=           -425.5417 ZZZZ=           -875.8291 XXXY=              0.0000
 XXXZ=              0.0000 YYYX=              0.0000 YYYZ=              0.0000 ZZZX=              0.0000
 ZZZY=              0.0000 XXYY=           -202.6127 XXZZ=           -255.5632 YYZZ=           -204.2765
 XXYZ=              0.0000 YYXZ=              0.0000 ZZXY=              0.0000
 N-N= 5.888069120354D+02 E-N=-5.314346020853D+03  KE= 1.733514754901D+03
 Symmetry A1   KE= 1.005493171062D+03
 Symmetry A2   KE= 5.081564982935D+01
 Symmetry B1   KE= 3.396367805224D+02
 Symmetry B2   KE= 3.375691534879D+02
 1\1\GINC-NODE43\SP\RHF\GFHFB2\Si6\TAM\20-Dec-2011\0\\#N Geom=AllCheck 
 Guess=TCheck SCRF=Check HF/GFHFB2 SCF=Tight\\si6-n\\0,1\Si,0,-1.351048
 6802,0.,-0.1534729867\Si,0,0.,0.,-2.0680875375\Si,0,0.,0.,1.8588552174
 \Si,0,0.,1.9461136713,0.2575011528\Si,0,0.,-1.9461136713,0.2575011528\
 Si,0,1.3510486802,0.,-0.1534729867\\Version=AM64L-G09RevA.02\State=1-A
 1\HF=-1733.5633694\RMSD=5.001e-09\Dipole=0.,0.,-0.0771922\Quadrupole=3
 .0987323,-2.2078339,-0.8908984,0.,0.,0.\PG=C02V [C2(Si1Si1),SGV(Si2),S
 GV'(Si2)]\\@


 ON INDUCTION, OR "WHY DO YOU BELIEVE THE SUN WILL RISE TOMORROW?":

 ... THE FARMER WHO HAS FED THE CHICKEN EVERY DAY THROUGHOUT ITS
 LIFE AT LAST WRINGS ITS NECK INSTEAD, SHOWING THAT MORE REFINED VIEWS
 AS TO THE UNIFORMITY OF NATURE WOULD HAVE BEEN USEFUL TO THE CHICKEN.

                               -- BERTRAND RUSSELL
 Diagonal vibrational polarizability:
        0.0000000       0.0000000       0.0000000

 Temperature=              298.150000 Pressure=                      1.000000
 E(ZPE)=                     0.008076 E(Thermal)=                    0.016373
 E(CCSD(T))=             -1733.981627 E(Empiric)=                   -0.083364
 DE(Plus)=                  -0.009018 DE(2DF)=                      -0.200146
 E(Delta-G3XP)=             -1.886447 DE(HF)=                       -0.039743
 G4(0 K)=                -1736.192267 G4 Energy=                 -1736.183970
 G4 Enthalpy=            -1736.183026 G4 Free Energy=            -1736.226673
 1\1\GINC-NODE43\Mixed\G4\G4\Si6\TAM\20-Dec-2011\0\\# G4 scfcyc=500 scf
 =xqc\\si6-n\\0,1\Si,0,-1.3510486802,0.,-0.1534729867\Si,0,0.,0.,-2.068
 0875375\Si,0,0.,0.,1.8588552174\Si,0,0.,1.9461136713,0.2575011528\Si,0
 ,0.,-1.9461136713,0.2575011528\Si,0,1.3510486802,0.,-0.1534729867\\Ver
 sion=AM64L-G09RevA.02\State=1-A1\MP2/GTBas1=-1733.9311444\MP4/GTBas1=-
 1734.001347\CCSD(T)/G3Bas1=-1733.9816265\MP2/GTBas2=-1733.9390094\MP4/
 GTBas2=-1734.0103647\MP2/GTBas3=-1734.1163015\MP4/GTBas3=-1734.2014929
 \HF/GTLargeXP=-1733.5250366\MP2/GTLargeXP=-1736.010613\HF/GFHFB1=-1733
 .5575831\HF/GFHFB2=-1733.5633694\G4=-1736.1922672\FreqCoord=-2.5531119
 977,0.,-0.2900219137,0.,0.,-3.9081190647,0.,0.,3.5127272816,0.,3.67762
 18623,0.4866066578,0.,-3.6776218623,0.4866066578,2.5531119977,0.,-0.29
 00219137\PG=C02V [C2(Si1Si1),SGV(Si2),SGV'(Si2)]\NImag=0\\0.11143570,0
 .,0.08685225,-0.00160293,0.,0.10607718,-0.02062084,0.,0.04050923,0.045
 01506,0.,0.00412456,0.,0.,0.00635746,0.02583921,0.,-0.05881907,0.,0.,0
 .13901678,-0.01299991,0.,-0.03596321,-0.01360722,0.,0.,0.03447786,0.,0
 .01135642,0.,0.,-0.01318603,0.,0.,0.04276903,-0.01194692,0.,-0.0464703
 6,0.,0.,-0.01633817,0.,0.,0.12911985,-0.01550532,-0.03297038,-0.002015
 00,0.00491692,0.,0.,0.00256459,0.,0.,0.03464951,-0.01741446,-0.0471965
 2,-0.00589698,0.,-0.00071027,0.00435284,0.,-0.02614792,0.00662533,0.,0
 .13723704,-0.00560123,-0.00608745,0.00255833,0.,-0.01014602,-0.0025202
 3,0.,0.02308124,-0.00992047,0.,0.00002774,0.02043851,-0.01550532,0.032
 97038,-0.00201500,0.00491692,0.,0.,0.00256459,0.,0.,-0.01112038,0.,0.,
 0.03464951,0.01741446,-0.04719652,0.00589698,0.,-0.00071027,-0.0043528
 4,0.,-0.02614792,-0.00662533,0.,-0.01598580,-0.00078805,0.,0.13723704,
 -0.00560123,0.00608746,0.00255833,0.,0.01014602,-0.00252023,0.,-0.0230
 8124,-0.00992047,0.,0.00078805,-0.01311446,0.,-0.00002774,0.02043851,-
 0.04680430,0.,0.00108692,-0.02062084,0.,-0.02583921,-0.01299991,0.,0.0
 1194692,-0.01550532,0.01741446,0.00560123,-0.01550532,-0.01741446,0.00
 560123,0.11143570,0.,-0.00794019,0.,0.,0.00412456,0.,0.,0.01135642,0.,
 0.03297038,-0.04719652,-0.00608746,-0.03297038,-0.04719652,0.00608745,
 0.,0.08685225,-0.00108692,0.,-0.00590440,-0.04050923,0.,-0.05881907,0.
 03596321,0.,-0.04647036,0.00201500,-0.00589698,0.00255833,0.00201500,0
 .00589698,0.00255833,0.00160293,0.,0.10607718\\0.00000426,0.,0.0000018
 5,0.,0.,0.00000596,0.,0.,0.00000239,0.,0.00001356,-0.00000602,0.,-0.00
 001356,-0.00000602,-0.00000426,0.,0.00000185\\\@
 Job cpu time:  0 days  3 hours 19 minutes 31.4 seconds.
 File lengths (MBytes):  RWF=    766 Int=      0 D2E=      0 Chk=     29 Scr=      1
 Normal termination of Gaussian 09 at Tue Dec 20 22:59:46 2011.
