 Entering Gaussian System, Link 0=g09
 Initial command:
 /usr/local/chem/g09A2/l1.exe /temp0/tam/Gau-28408.inp -scrdir=/temp0/tam/
 Entering Link 1 = /usr/local/chem/g09A2/l1.exe PID=     28409.
  
 Copyright (c) 1988,1990,1992,1993,1995,1998,2003,2009, Gaussian, Inc.
                  All Rights Reserved.
  
 This is part of the Gaussian(R) 09 program.  It is based on
 the Gaussian(R) 03 system (copyright 2003, Gaussian, Inc.),
 the Gaussian(R) 98 system (copyright 1998, Gaussian, Inc.),
 the Gaussian(R) 94 system (copyright 1995, Gaussian, Inc.),
 the Gaussian 92(TM) system (copyright 1992, Gaussian, Inc.),
 the Gaussian 90(TM) system (copyright 1990, Gaussian, Inc.),
 the Gaussian 88(TM) system (copyright 1988, Gaussian, Inc.),
 the Gaussian 86(TM) system (copyright 1986, Carnegie Mellon
 University), and the Gaussian 82(TM) system (copyright 1983,
 Carnegie Mellon University). Gaussian is a federally registered
 trademark of Gaussian, Inc.
  
 This software contains proprietary and confidential information,
 including trade secrets, belonging to Gaussian, Inc.
  
 This software is provided under written license and may be
 used, copied, transmitted, or stored only in accord with that
 written license.
  
 The following legend is applicable only to US Government
 contracts under FAR:
  
                    RESTRICTED RIGHTS LEGEND
  
 Use, reproduction and disclosure by the US Government is
 subject to restrictions as set forth in subparagraphs (a)
 and (c) of the Commercial Computer Software - Restricted
 Rights clause in FAR 52.227-19.
  
 Gaussian, Inc.
 340 Quinnipiac St., Bldg. 40, Wallingford CT 06492
  
  
 ---------------------------------------------------------------
 Warning -- This program may not be used in any manner that
 competes with the business of Gaussian, Inc. or will provide
 assistance to any competitor of Gaussian, Inc.  The licensee
 of this program is prohibited from giving any competitor of
 Gaussian, Inc. access to this program.  By using this program,
 the user acknowledges that Gaussian, Inc. is engaged in the
 business of creating and licensing software in the field of
 computational chemistry and represents and warrants to the
 licensee that it is not a competitor of Gaussian, Inc. and that
 it will not use this program in any manner prohibited above.
 ---------------------------------------------------------------
  

 Cite this work as:
 Gaussian 09, Revision A.02,
 M. J. Frisch, G. W. Trucks, H. B. Schlegel, G. E. Scuseria, 
 M. A. Robb, J. R. Cheeseman, G. Scalmani, V. Barone, B. Mennucci, 
 G. A. Petersson, H. Nakatsuji, M. Caricato, X. Li, H. P. Hratchian, 
 A. F. Izmaylov, J. Bloino, G. Zheng, J. L. Sonnenberg, M. Hada, 
 M. Ehara, K. Toyota, R. Fukuda, J. Hasegawa, M. Ishida, T. Nakajima, 
 Y. Honda, O. Kitao, H. Nakai, T. Vreven, J. A. Montgomery, Jr., 
 J. E. Peralta, F. Ogliaro, M. Bearpark, J. J. Heyd, E. Brothers, 
 K. N. Kudin, V. N. Staroverov, R. Kobayashi, J. Normand, 
 K. Raghavachari, A. Rendell, J. C. Burant, S. S. Iyengar, J. Tomasi, 
 M. Cossi, N. Rega, J. M. Millam, M. Klene, J. E. Knox, J. B. Cross, 
 V. Bakken, C. Adamo, J. Jaramillo, R. Gomperts, R. E. Stratmann, 
 O. Yazyev, A. J. Austin, R. Cammi, C. Pomelli, J. W. Ochterski, 
 R. L. Martin, K. Morokuma, V. G. Zakrzewski, G. A. Voth, 
 P. Salvador, J. J. Dannenberg, S. Dapprich, A. D. Daniels, 
 O. Farkas, J. B. Foresman, J. V. Ortiz, J. Cioslowski, 
 and D. J. Fox, Gaussian, Inc., Wallingford CT, 2009.
 
 ******************************************
 Gaussian 09:  AM64L-G09RevA.02 11-Jun-2009
                 5-Mar-2012 
 ******************************************
 %NprocShared=8
 Will use up to    8 processors via shared memory.
 %mem=19050MB
 %chk=S9L-ne-d-01
 -----------------------
 # G4 scfcyc=500 scf=xqc
 -----------------------
 1/14=-1,18=20,19=15,26=3,38=1/1,3;
 2/9=110,12=2,17=6,18=5,40=1/2;
 3/5=35,7=104,11=2,16=1,25=1,30=1,71=1,74=-5/1,2,3;
 4//1;
 5/5=2,7=500,8=3,13=1,38=5/2,8;
 6/7=2,8=2,9=2,10=2,28=1/1;
 7//1,2,3,16;
 1/14=-1,18=20,19=15/3(2);
 2/9=110/2;
 99//99;
 2/9=110/2;
 3/5=35,7=104,11=2,16=1,25=1,30=1,71=1,74=-5/1,2,3;
 4/5=5,16=3/1;
 5/5=2,7=500,8=3,13=1,38=5/2,8;
 7//1,2,3,16;
 1/14=-1,18=20,19=15/3(-5);
 2/9=110/2;
 6/7=2,8=2,9=2,10=2,19=2,28=1/1;
 99/9=1/99;
 ---------
 si10-an-d
 ---------
 Symbolic Z-matrix:
 Charge = -1 Multiplicity = 2
 Si                    0.        0.        2.84447 
 Si                    0.        1.5331    0.99071 
 Si                    1.32771  -0.76655   0.99071 
 Si                   -1.32771  -0.76655   0.99071 
 Si                    0.       -2.3923   -0.25637 
 Si                    2.07179   1.19615  -0.25637 
 Si                   -2.07179   1.19615  -0.25637 
 Si                    0.        1.46184  -1.6825 
 Si                    1.26599  -0.73092  -1.6825 
 Si                   -1.26599  -0.73092  -1.6825 
 

 GradGradGradGradGradGradGradGradGradGradGradGradGradGradGradGradGradGrad
 Berny optimization.
 Initialization pass.
                           ----------------------------
                           !    Initial Parameters    !
                           ! (Angstroms and Degrees)  !
 --------------------------                            --------------------------
 ! Name  Definition              Value          Derivative Info.                !
 --------------------------------------------------------------------------------
 ! R1    R(1,2)                  2.4056         estimate D2E/DX2                !
 ! R2    R(1,3)                  2.4056         estimate D2E/DX2                !
 ! R3    R(1,4)                  2.4056         estimate D2E/DX2                !
 ! R4    R(2,3)                  2.6554         estimate D2E/DX2                !
 ! R5    R(2,4)                  2.6554         estimate D2E/DX2                !
 ! R6    R(2,6)                  2.4415         estimate D2E/DX2                !
 ! R7    R(2,7)                  2.4415         estimate D2E/DX2                !
 ! R8    R(2,8)                  2.6742         estimate D2E/DX2                !
 ! R9    R(3,4)                  2.6554         estimate D2E/DX2                !
 ! R10   R(3,5)                  2.4415         estimate D2E/DX2                !
 ! R11   R(3,6)                  2.4415         estimate D2E/DX2                !
 ! R12   R(3,9)                  2.6742         estimate D2E/DX2                !
 ! R13   R(4,5)                  2.4415         estimate D2E/DX2                !
 ! R14   R(4,7)                  2.4415         estimate D2E/DX2                !
 ! R15   R(4,10)                 2.6742         estimate D2E/DX2                !
 ! R16   R(5,9)                  2.5292         estimate D2E/DX2                !
 ! R17   R(5,10)                 2.5292         estimate D2E/DX2                !
 ! R18   R(6,8)                  2.5292         estimate D2E/DX2                !
 ! R19   R(6,9)                  2.5292         estimate D2E/DX2                !
 ! R20   R(7,8)                  2.5292         estimate D2E/DX2                !
 ! R21   R(7,10)                 2.5292         estimate D2E/DX2                !
 ! R22   R(8,9)                  2.532          estimate D2E/DX2                !
 ! R23   R(8,10)                 2.532          estimate D2E/DX2                !
 ! R24   R(9,10)                 2.532          estimate D2E/DX2                !
 ! A1    A(1,2,6)              107.7976         estimate D2E/DX2                !
 ! A2    A(1,2,7)              107.7976         estimate D2E/DX2                !
 ! A3    A(1,2,8)              138.8814         estimate D2E/DX2                !
 ! A4    A(3,2,7)              107.7439         estimate D2E/DX2                !
 ! A5    A(3,2,8)               88.6776         estimate D2E/DX2                !
 ! A6    A(4,2,6)              107.7439         estimate D2E/DX2                !
 ! A7    A(4,2,8)               88.6776         estimate D2E/DX2                !
 ! A8    A(6,2,7)              116.1114         estimate D2E/DX2                !
 ! A9    A(1,3,5)              107.7976         estimate D2E/DX2                !
 ! A10   A(1,3,6)              107.7976         estimate D2E/DX2                !
 ! A11   A(1,3,9)              138.8814         estimate D2E/DX2                !
 ! A12   A(2,3,5)              107.7439         estimate D2E/DX2                !
 ! A13   A(2,3,9)               88.6776         estimate D2E/DX2                !
 ! A14   A(4,3,6)              107.7439         estimate D2E/DX2                !
 ! A15   A(4,3,9)               88.6776         estimate D2E/DX2                !
 ! A16   A(5,3,6)              116.1114         estimate D2E/DX2                !
 ! A17   A(1,4,5)              107.7976         estimate D2E/DX2                !
 ! A18   A(1,4,7)              107.7976         estimate D2E/DX2                !
 ! A19   A(1,4,10)             138.8814         estimate D2E/DX2                !
 ! A20   A(2,4,5)              107.7439         estimate D2E/DX2                !
 ! A21   A(2,4,10)              88.6776         estimate D2E/DX2                !
 ! A22   A(3,4,7)              107.7439         estimate D2E/DX2                !
 ! A23   A(3,4,10)              88.6776         estimate D2E/DX2                !
 ! A24   A(5,4,7)              116.1114         estimate D2E/DX2                !
 ! A25   A(3,5,10)              97.0545         estimate D2E/DX2                !
 ! A26   A(4,5,9)               97.0545         estimate D2E/DX2                !
 ! A27   A(2,6,9)               97.0545         estimate D2E/DX2                !
 ! A28   A(3,6,8)               97.0545         estimate D2E/DX2                !
 ! A29   A(2,7,10)              97.0545         estimate D2E/DX2                !
 ! A30   A(4,7,8)               97.0545         estimate D2E/DX2                !
 ! A31   A(2,8,9)               91.3224         estimate D2E/DX2                !
 ! A32   A(2,8,10)              91.3224         estimate D2E/DX2                !
 ! A33   A(6,8,7)              110.0004         estimate D2E/DX2                !
 ! A34   A(6,8,10)             108.5784         estimate D2E/DX2                !
 ! A35   A(7,8,9)              108.5784         estimate D2E/DX2                !
 ! A36   A(3,9,8)               91.3224         estimate D2E/DX2                !
 ! A37   A(3,9,10)              91.3224         estimate D2E/DX2                !
 ! A38   A(5,9,6)              110.0004         estimate D2E/DX2                !
 ! A39   A(5,9,8)              108.5784         estimate D2E/DX2                !
 ! A40   A(6,9,10)             108.5784         estimate D2E/DX2                !
 ! A41   A(4,10,8)              91.3224         estimate D2E/DX2                !
 ! A42   A(4,10,9)              91.3224         estimate D2E/DX2                !
 ! A43   A(5,10,7)             110.0004         estimate D2E/DX2                !
 ! A44   A(5,10,8)             108.5784         estimate D2E/DX2                !
 ! A45   A(7,10,9)             108.5784         estimate D2E/DX2                !
 ! D1    D(7,2,3,5)              0.0            estimate D2E/DX2                !
 ! D2    D(7,2,3,9)             56.8049         estimate D2E/DX2                !
 ! D3    D(8,2,3,5)            -56.8049         estimate D2E/DX2                !
 ! D4    D(8,2,3,9)              0.0            estimate D2E/DX2                !
 ! D5    D(6,2,4,5)              0.0            estimate D2E/DX2                !
 ! D6    D(6,2,4,10)           -56.8049         estimate D2E/DX2                !
 ! D7    D(8,2,4,5)             56.8049         estimate D2E/DX2                !
 ! D8    D(8,2,4,10)             0.0            estimate D2E/DX2                !
 ! D9    D(1,2,6,9)             84.6197         estimate D2E/DX2                !
 ! D10   D(4,2,6,9)             25.0109         estimate D2E/DX2                !
 ! D11   D(7,2,6,9)            -36.3678         estimate D2E/DX2                !
 ! D12   D(1,2,7,10)           -84.6197         estimate D2E/DX2                !
 ! D13   D(3,2,7,10)           -25.0109         estimate D2E/DX2                !
 ! D14   D(6,2,7,10)            36.3678         estimate D2E/DX2                !
 ! D15   D(1,2,8,9)            -30.0088         estimate D2E/DX2                !
 ! D16   D(1,2,8,10)            30.0088         estimate D2E/DX2                !
 ! D17   D(3,2,8,9)              0.0            estimate D2E/DX2                !
 ! D18   D(3,2,8,10)            60.0176         estimate D2E/DX2                !
 ! D19   D(4,2,8,9)            -60.0176         estimate D2E/DX2                !
 ! D20   D(4,2,8,10)             0.0            estimate D2E/DX2                !
 ! D21   D(6,3,4,7)              0.0            estimate D2E/DX2                !
 ! D22   D(6,3,4,10)            56.8049         estimate D2E/DX2                !
 ! D23   D(9,3,4,7)            -56.8049         estimate D2E/DX2                !
 ! D24   D(9,3,4,10)             0.0            estimate D2E/DX2                !
 ! D25   D(1,3,5,10)            84.6197         estimate D2E/DX2                !
 ! D26   D(2,3,5,10)            25.0109         estimate D2E/DX2                !
 ! D27   D(6,3,5,10)           -36.3678         estimate D2E/DX2                !
 ! D28   D(1,3,6,8)            -84.6197         estimate D2E/DX2                !
 ! D29   D(4,3,6,8)            -25.0109         estimate D2E/DX2                !
 ! D30   D(5,3,6,8)             36.3678         estimate D2E/DX2                !
 ! D31   D(1,3,9,8)             30.0088         estimate D2E/DX2                !
 ! D32   D(1,3,9,10)           -30.0088         estimate D2E/DX2                !
 ! D33   D(2,3,9,8)              0.0            estimate D2E/DX2                !
 ! D34   D(2,3,9,10)           -60.0176         estimate D2E/DX2                !
 ! D35   D(4,3,9,8)             60.0176         estimate D2E/DX2                !
 ! D36   D(4,3,9,10)             0.0            estimate D2E/DX2                !
 ! D37   D(1,4,5,9)            -84.6197         estimate D2E/DX2                !
 ! D38   D(2,4,5,9)            -25.0109         estimate D2E/DX2                !
 ! D39   D(7,4,5,9)             36.3678         estimate D2E/DX2                !
 ! D40   D(1,4,7,8)             84.6197         estimate D2E/DX2                !
 ! D41   D(3,4,7,8)             25.0109         estimate D2E/DX2                !
 ! D42   D(5,4,7,8)            -36.3678         estimate D2E/DX2                !
 ! D43   D(1,4,10,8)           -30.0088         estimate D2E/DX2                !
 ! D44   D(1,4,10,9)            30.0088         estimate D2E/DX2                !
 ! D45   D(2,4,10,8)             0.0            estimate D2E/DX2                !
 ! D46   D(2,4,10,9)            60.0176         estimate D2E/DX2                !
 ! D47   D(3,4,10,8)           -60.0176         estimate D2E/DX2                !
 ! D48   D(3,4,10,9)             0.0            estimate D2E/DX2                !
 ! D49   D(4,5,9,6)             44.5917         estimate D2E/DX2                !
 ! D50   D(4,5,9,8)            -19.3285         estimate D2E/DX2                !
 ! D51   D(3,5,10,7)           -44.5917         estimate D2E/DX2                !
 ! D52   D(3,5,10,8)            19.3285         estimate D2E/DX2                !
 ! D53   D(3,6,8,7)             44.5917         estimate D2E/DX2                !
 ! D54   D(3,6,8,10)           -19.3285         estimate D2E/DX2                !
 ! D55   D(2,6,9,5)            -44.5917         estimate D2E/DX2                !
 ! D56   D(2,6,9,10)            19.3285         estimate D2E/DX2                !
 ! D57   D(4,7,8,6)            -44.5917         estimate D2E/DX2                !
 ! D58   D(4,7,8,9)             19.3285         estimate D2E/DX2                !
 ! D59   D(2,7,10,5)            44.5917         estimate D2E/DX2                !
 ! D60   D(2,7,10,9)           -19.3285         estimate D2E/DX2                !
 ! D61   D(2,8,9,3)              0.0            estimate D2E/DX2                !
 ! D62   D(2,8,9,5)             54.2602         estimate D2E/DX2                !
 ! D63   D(7,8,9,3)            -54.2602         estimate D2E/DX2                !
 ! D64   D(7,8,9,5)              0.0            estimate D2E/DX2                !
 ! D65   D(2,8,10,4)             0.0            estimate D2E/DX2                !
 ! D66   D(2,8,10,5)           -54.2602         estimate D2E/DX2                !
 ! D67   D(6,8,10,4)            54.2602         estimate D2E/DX2                !
 ! D68   D(6,8,10,5)             0.0            estimate D2E/DX2                !
 ! D69   D(3,9,10,4)             0.0            estimate D2E/DX2                !
 ! D70   D(3,9,10,7)            54.2602         estimate D2E/DX2                !
 ! D71   D(6,9,10,4)           -54.2602         estimate D2E/DX2                !
 ! D72   D(6,9,10,7)             0.0            estimate D2E/DX2                !
 --------------------------------------------------------------------------------
 Trust Radius=3.00D-01 FncErr=1.00D-07 GrdErr=1.00D-06
 Number of steps in this run= 100 maximum allowed number of steps= 100.
 GradGradGradGradGradGradGradGradGradGradGradGradGradGradGradGradGradGrad

                          Input orientation:                          
 ---------------------------------------------------------------------
 Center     Atomic      Atomic             Coordinates (Angstroms)
 Number     Number       Type             X           Y           Z
 ---------------------------------------------------------------------
      1         14           0        0.000000    0.000000    2.844474
      2         14           0        0.000000    1.533102    0.990714
      3         14           0        1.327706   -0.766551    0.990714
      4         14           0       -1.327706   -0.766551    0.990714
      5         14           0        0.000000   -2.392302   -0.256368
      6         14           0        2.071794    1.196151   -0.256368
      7         14           0       -2.071794    1.196151   -0.256368
      8         14           0        0.000000    1.461840   -1.682505
      9         14           0        1.265991   -0.730920   -1.682505
     10         14           0       -1.265991   -0.730920   -1.682505
 ---------------------------------------------------------------------
                    Distance matrix (angstroms):
                    1          2          3          4          5
     1  Si   0.000000
     2  Si   2.405583   0.000000
     3  Si   2.405583   2.655411   0.000000
     4  Si   2.405583   2.655411   2.655411   0.000000
     5  Si   3.916418   4.118740   2.441533   2.441533   0.000000
     6  Si   3.916418   2.441533   2.441533   4.118740   4.143589
     7  Si   3.916418   2.441533   4.118740   2.441533   4.143589
     8  Si   4.757154   2.674169   3.724866   3.724866   4.109535
     9  Si   4.757154   3.724866   2.674169   3.724866   2.529187
    10  Si   4.757154   3.724866   3.724866   2.674169   2.529187
                    6          7          8          9         10
     6  Si   0.000000
     7  Si   4.143589   0.000000
     8  Si   2.529187   2.529187   0.000000
     9  Si   2.529187   4.109535   2.531982   0.000000
    10  Si   4.109535   2.529187   2.531982   2.531982   0.000000
 Stoichiometry    Si10(1-,2)
 Framework group  C3V[C3(Si),3SGV(Si3)]
 Deg. of freedom     6
 Full point group                 C3V     NOp   6
 Largest Abelian subgroup         CS      NOp   2
 Largest concise Abelian subgroup CS      NOp   2
                         Standard orientation:                         
 ---------------------------------------------------------------------
 Center     Atomic      Atomic             Coordinates (Angstroms)
 Number     Number       Type             X           Y           Z
 ---------------------------------------------------------------------
      1         14           0        0.000000    0.000000    2.844474
      2         14           0        0.000000   -1.533102    0.990714
      3         14           0       -1.327706    0.766551    0.990714
      4         14           0        1.327706    0.766551    0.990714
      5         14           0        0.000000    2.392302   -0.256368
      6         14           0       -2.071794   -1.196151   -0.256368
      7         14           0        2.071794   -1.196151   -0.256368
      8         14           0        0.000000   -1.461840   -1.682504
      9         14           0       -1.265991    0.730920   -1.682504
     10         14           0        1.265991    0.730920   -1.682504
 ---------------------------------------------------------------------
 Rotational constants (GHZ):      0.5897247      0.5155150      0.5155150
 Standard basis: GTBas3 (6D, 7F)
 There are   184 symmetry adapted basis functions of A'  symmetry.
 There are   136 symmetry adapted basis functions of A"  symmetry.
 Integral buffers will be    131072 words long.
 Raffenetti 2 integral format.
 Two-electron integral symmetry is turned on.
   320 basis functions,   680 primitive gaussians,   350 cartesian basis functions
    71 alpha electrons       70 beta electrons
       nuclear repulsion energy      1524.9930766347 Hartrees.
 NAtoms=   10 NActive=   10 NUniq=    4 SFac= 3.00D+00 NAtFMM=   80 NAOKFM=F Big=F
 One-electron integrals computed using PRISM.
 NBasis=   320 RedAO= T  NBF=   184   136
 NBsUse=   320 1.00D-06 NBFU=   184   136
 Harris functional with IExCor=  402 diagonalized for initial guess.
 ExpMin= 7.78D-02 ExpMax= 1.61D+04 ExpMxC= 2.43D+03 IAcc=2 IRadAn=         0 AccDes= 0.00D+00
 HarFok:  IExCor=  402 AccDes= 0.00D+00 IRadAn=         0 IDoV= 1
 ScaDFX=  1.000000  1.000000  1.000000  1.000000
 FoFCou: FMM=F IPFlag=           0 FMFlag=      100000 FMFlg1=           0
         NFxFlg=           0 DoJE=T BraDBF=F KetDBF=T FulRan=T
         Omega=  0.000000  0.000000  1.000000  0.000000  0.000000 ICntrl=     500 IOpCl=  0
         NMat0=    1 NMatS0=    1 NMatT0=    0 NMatD0=    1 NMtDS0=    0 NMtDT0=    0
         I1Cent=           4 NGrid=           0.
 Petite list used in FoFCou.
 Initial guess orbital symmetries:
 Alpha Orbitals:
       Occupied  (E) (E) (A1) (E) (E) (A1) (E) (E) (A1) (A1) (E)
                 (E) (A1) (A1) (E) (E) (E) (E) (A1) (A1) (E) (E)
                 (A1) (A2) (E) (E) (A1) (E) (E) (E) (E) (A2) (A1)
                 (E) (E) (E) (E) (A1) (A1) (E) (E) (A1) (E) (E)
                 (E) (E) (A2) (A1) (E) (E) (A1) (A1) (E) (E) (A1)
                 (E) (E) (E) (E) (A1) (A1) (E) (E) (A2) (E) (E)
                 (A1) (A1) (E) (E) (A1)
       Virtual   (E) (E) (E) (E) (A2) (A1) (A1) (E) (E) (E) (E)
                 (E) (E) (A1) (E) (E) (A1) (E) (E) (A2) (E) (E)
                 (A1) (E) (E) (A2) (A1) (E) (E) (A1) (E) (E) (A1)
                 (A1) (E) (E) (E) (E) (A1) (E) (E) (E) (E) (A1)
                 (E) (E) (A2) (E) (E) (A1) (E) (E) (E) (E) (A1)
                 (E) (E) (A2) (A2) (E) (E) (E) (E) (A1) (E) (E)
                 (A2) (A1) (A1) (A1) (E) (E) (E) (E) (E) (E) (A1)
                 (E) (E) (E) (E) (A1) (A2) (A1) (E) (E) (E) (E)
                 (A2) (E) (E) (A1) (A2) (E) (E) (E) (E) (A1) (E)
                 (E) (A1) (E) (E) (E) (E) (E) (E) (A1) (A2) (A1)
                 (E) (E) (A2) (A1) (E) (E) (A1) (A1) (A1) (E) (E)
                 (E) (E) (A2) (E) (E) (A1) (E) (E) (E) (E) (A2)
                 (A1) (E) (E) (A1) (A1) (E) (E) (E) (E) (E) (E)
                 (A2) (E) (E) (A1) (E) (E) (A1) (E) (E) (E) (E)
                 (A1) (A2) (A1) (E) (E) (A2) (E) (E) (E) (E) (A1)
                 (E) (E) (A2) (E) (E) (A1) (A1) (A2) (E) (E) (E)
                 (E) (A2) (E) (E) (E) (E) (A1) (A2) (E) (E) (A1)
                 (E) (E) (A1) (A1) (A2) (E) (E) (E) (E) (E) (E)
                 (E) (E) (A1) (E) (E) (E) (E) (A1) (A2) (A1) (E)
                 (E) (E) (E) (E) (E) (A1) (A1) (A1) (A2) (E) (E)
                 (E) (E) (A2) (A1) (E) (E) (E) (E) (E) (E) (A2)
                 (A1) (E) (E) (E) (E) (E) (E) (A1) (A2) (A1) (E)
                 (E) (A1) (E) (E) (E) (E) (A1)
 Beta  Orbitals:
       Occupied  (E) (E) (A1) (E) (E) (A1) (E) (E) (A1) (A1) (E)
                 (E) (A1) (A1) (E) (E) (E) (E) (A1) (A1) (E) (E)
                 (A1) (A2) (E) (E) (A1) (E) (E) (E) (E) (A2) (A1)
                 (E) (E) (E) (E) (A1) (A1) (E) (E) (A1) (E) (E)
                 (E) (E) (A2) (A1) (E) (E) (A1) (A1) (E) (E) (A1)
                 (E) (E) (E) (E) (A1) (A1) (E) (E) (A2) (E) (E)
                 (A1) (A1) (E) (E)
       Virtual   (A1) (E) (E) (E) (E) (A2) (A1) (A1) (E) (E) (E)
                 (E) (E) (E) (A1) (E) (E) (A1) (E) (E) (A2) (E)
                 (E) (A1) (E) (E) (A2) (A1) (E) (E) (A1) (E) (E)
                 (A1) (A1) (E) (E) (E) (E) (A1) (E) (E) (E) (E)
                 (A1) (E) (E) (A2) (E) (E) (A1) (E) (E) (E) (E)
                 (A1) (E) (E) (A2) (A2) (E) (E) (E) (E) (A1) (E)
                 (E) (A2) (A1) (A1) (A1) (E) (E) (E) (E) (E) (E)
                 (A1) (E) (E) (E) (E) (A1) (A2) (A1) (E) (E) (E)
                 (E) (A2) (E) (E) (A1) (A2) (E) (E) (E) (E) (A1)
                 (E) (E) (A1) (E) (E) (E) (E) (E) (E) (A1) (A2)
                 (A1) (E) (E) (A2) (A1) (E) (E) (A1) (A1) (A1)
                 (E) (E) (E) (E) (A2) (E) (E) (A1) (E) (E) (E)
                 (E) (A2) (A1) (E) (E) (A1) (A1) (E) (E) (E) (E)
                 (E) (E) (A2) (E) (E) (A1) (E) (E) (A1) (E) (E)
                 (E) (E) (A1) (A2) (A1) (E) (E) (A2) (E) (E) (E)
                 (E) (A1) (E) (E) (A2) (E) (E) (A1) (A1) (A2) (E)
                 (E) (E) (E) (A2) (E) (E) (E) (E) (A1) (A2) (E)
                 (E) (A1) (E) (E) (A1) (A1) (A2) (E) (E) (E) (E)
                 (E) (E) (E) (E) (A1) (E) (E) (E) (E) (A1) (A2)
                 (A1) (E) (E) (E) (E) (E) (E) (A1) (A1) (A1) (A2)
                 (E) (E) (E) (E) (A2) (A1) (E) (E) (E) (E) (E)
                 (E) (A2) (A1) (E) (E) (E) (E) (E) (E) (A1) (A2)
                 (A1) (E) (E) (A1) (E) (E) (E) (E) (A1)
 The electronic state of the initial guess is 2-A1.
 Initial guess <Sx>= 0.0000 <Sy>= 0.0000 <Sz>= 0.5000 <S**2>= 0.7500 S= 0.5000
 Requested convergence on RMS density matrix=1.00D-08 within 128 cycles.
 Requested convergence on MAX density matrix=1.00D-06.
 Requested convergence on             energy=1.00D-06.
 No special actions if energy rises.
 Integral accuracy reduced to 1.0D-05 until final iterations.
 EnCoef did     3 forward-backward iterations
 Initial convergence to 1.0D-05 achieved.  Increase integral accuracy.
 SCF Done:  E(UB3LYP) =  -2895.02137957     A.U. after   19 cycles
             Convg  =    0.4460D-08             -V/T =  2.0036
 <Sx>= 0.0000 <Sy>= 0.0000 <Sz>= 0.5000 <S**2>= 0.7582 S= 0.5041
 <L.S>= 0.000000000000E+00
 Annihilation of the first spin contaminant:
 S**2 before annihilation     0.7582,   after     0.7501
 QCSCF skips out because SCF is already converged.

 **********************************************************************

            Population analysis using the SCF density.

 **********************************************************************

 Orbital symmetries:
 Alpha Orbitals:
       Occupied  (A1) (E) (E) (A1) (E) (E) (A1) (E) (E) (A1) (A1)
                 (A1) (E) (E) (A1) (E) (E) (E) (E) (A1) (E) (E)
                 (A1) (A1) (E) (E) (E) (E) (A1) (E) (E) (A2) (A1)
                 (E) (E) (E) (E) (A2) (A1) (E) (E) (A1) (E) (E)
                 (E) (E) (A2) (A1) (E) (E) (A1) (A1) (E) (E) (A1)
                 (E) (E) (E) (E) (A1) (A1) (E) (E) (A1) (E) (E)
                 (A2) (A1) (E) (E) (A1)
       Virtual   (E) (E) (E) (E) (A2) (A1) (E) (E) (A1) (E) (E)
                 (E) (E) (A1) (E) (E) (A1) (E) (E) (A2) (E) (E)
                 (A1) (A1) (E) (E) (A1) (A2) (E) (E) (A1) (E) (E)
                 (E) (E) (A1) (E) (E) (A1) (E) (E) (A2) (E) (E)
                 (A1) (E) (E) (A1) (E) (E) (E) (E) (E) (E) (A2)
                 (E) (E) (A1) (E) (E) (E) (E) (A1) (A2) (E) (E)
                 (A2) (A1) (A1) (E) (E) (A1) (E) (E) (E) (E) (A1)
                 (E) (E) (E) (E) (A1) (A2) (A1) (E) (E) (E) (E)
                 (A2) (E) (E) (A1) (A2) (E) (E) (A1) (E) (E) (E)
                 (E) (E) (E) (A1) (E) (E) (E) (E) (A1) (A2) (A1)
                 (E) (E) (A2) (A1) (A1) (E) (E) (A1) (A1) (E) (E)
                 (E) (E) (A2) (E) (E) (A1) (E) (E) (A2) (E) (E)
                 (A1) (A1) (E) (E) (A1) (E) (E) (E) (E) (E) (E)
                 (A2) (E) (E) (A1) (E) (E) (A1) (E) (E) (E) (E)
                 (A1) (A2) (A1) (E) (E) (E) (E) (A2) (A1) (E) (E)
                 (E) (E) (A2) (E) (E) (A1) (A1) (E) (E) (E) (E)
                 (A2) (A2) (E) (E) (E) (E) (A1) (A2) (E) (E) (A1)
                 (E) (E) (A1) (A2) (E) (E) (A1) (E) (E) (E) (E)
                 (E) (E) (A1) (E) (E) (E) (E) (A1) (A2) (E) (E)
                 (A1) (E) (E) (E) (E) (A1) (A1) (A1) (A2) (E) (E)
                 (E) (E) (A2) (E) (E) (A1) (E) (E) (E) (E) (A1)
                 (A2) (E) (E) (E) (E) (E) (E) (A1) (A2) (A1) (E)
                 (E) (A1) (E) (E) (E) (E) (A1)
 Beta  Orbitals:
       Occupied  (A1) (E) (E) (A1) (E) (E) (A1) (E) (E) (A1) (A1)
                 (A1) (E) (E) (A1) (E) (E) (E) (E) (A1) (E) (E)
                 (A1) (A1) (E) (E) (E) (E) (A2) (A1) (E) (E) (A1)
                 (E) (E) (E) (E) (A2) (A1) (E) (E) (E) (E) (A2)
                 (A1) (E) (E) (A1) (E) (E) (A1) (A1) (E) (E) (A1)
                 (E) (E) (E) (E) (A1) (A1) (E) (E) (A1) (E) (E)
                 (A2) (A1) (E) (E)
       Virtual   (A1) (E) (E) (E) (E) (A2) (A1) (E) (E) (A1) (E)
                 (E) (E) (E) (A1) (E) (E) (E) (E) (A1) (A2) (E)
                 (E) (A1) (A1) (E) (E) (A1) (A2) (E) (E) (A1) (E)
                 (E) (E) (E) (A1) (E) (E) (A1) (E) (E) (A2) (E)
                 (E) (A1) (E) (E) (A1) (E) (E) (E) (E) (E) (E)
                 (A2) (E) (E) (A1) (E) (E) (E) (E) (A1) (A2) (E)
                 (E) (A2) (A1) (A1) (E) (E) (A1) (E) (E) (E) (E)
                 (A1) (E) (E) (E) (E) (A1) (A2) (A1) (E) (E) (E)
                 (E) (A2) (E) (E) (A1) (A2) (E) (E) (A1) (E) (E)
                 (E) (E) (E) (E) (A1) (E) (E) (E) (E) (A1) (A2)
                 (A1) (A2) (E) (E) (A1) (A1) (E) (E) (A1) (A1)
                 (E) (E) (E) (E) (A2) (E) (E) (A1) (E) (E) (A2)
                 (E) (E) (A1) (A1) (E) (E) (A1) (E) (E) (E) (E)
                 (E) (E) (A2) (E) (E) (A1) (E) (E) (A1) (E) (E)
                 (E) (E) (A1) (A2) (A1) (E) (E) (E) (E) (A2) (A1)
                 (E) (E) (E) (E) (A2) (E) (E) (A1) (A1) (E) (E)
                 (E) (E) (A2) (A2) (E) (E) (E) (E) (A1) (A2) (E)
                 (E) (A1) (E) (E) (A1) (A2) (E) (E) (A1) (E) (E)
                 (E) (E) (E) (E) (A1) (E) (E) (E) (E) (A2) (A1)
                 (E) (E) (A1) (E) (E) (E) (E) (A1) (A1) (A1) (A2)
                 (E) (E) (E) (E) (A2) (E) (E) (A1) (E) (E) (E)
                 (E) (A1) (A2) (E) (E) (E) (E) (E) (E) (A1) (A2)
                 (A1) (E) (E) (A1) (E) (E) (E) (E) (A1)
 The electronic state is 2-A1.
 Alpha  occ. eigenvalues --  -66.02169 -66.01355 -66.01355 -66.01353 -66.00998
 Alpha  occ. eigenvalues --  -66.00998 -66.00997 -65.99819 -65.99819 -65.99819
 Alpha  occ. eigenvalues --   -5.16597  -5.15785  -5.15782  -5.15782  -5.15364
 Alpha  occ. eigenvalues --   -5.15359  -5.15359  -5.14310  -5.14310  -5.14309
 Alpha  occ. eigenvalues --   -3.52453  -3.52453  -3.52364  -3.51775  -3.51766
 Alpha  occ. eigenvalues --   -3.51766  -3.51555  -3.51555  -3.51553  -3.51552
 Alpha  occ. eigenvalues --   -3.51552  -3.51552  -3.51323  -3.51322  -3.51322
 Alpha  occ. eigenvalues --   -3.51127  -3.51127  -3.51119  -3.51106  -3.51087
 Alpha  occ. eigenvalues --   -3.51087  -3.50185  -3.50183  -3.50183  -3.50154
 Alpha  occ. eigenvalues --   -3.50154  -3.50154  -3.50015  -3.50014  -3.50014
 Alpha  occ. eigenvalues --   -0.53073  -0.43942  -0.41695  -0.41695  -0.31718
 Alpha  occ. eigenvalues --   -0.27531  -0.27531  -0.26661  -0.26661  -0.21674
 Alpha  occ. eigenvalues --   -0.14814  -0.12976  -0.12976  -0.11430  -0.11120
 Alpha  occ. eigenvalues --   -0.11120  -0.10294  -0.09630  -0.09390  -0.09390
 Alpha  occ. eigenvalues --   -0.03861
 Alpha virt. eigenvalues --    0.03027   0.03027   0.09272   0.09272   0.09602
 Alpha virt. eigenvalues --    0.09647   0.10662   0.10662   0.10896   0.11418
 Alpha virt. eigenvalues --    0.11418   0.13304   0.13304   0.14362   0.17698
 Alpha virt. eigenvalues --    0.17698   0.21604   0.21812   0.21812   0.22867
 Alpha virt. eigenvalues --    0.25649   0.25649   0.26228   0.27615   0.28189
 Alpha virt. eigenvalues --    0.28189   0.28564   0.29042   0.30486   0.30486
 Alpha virt. eigenvalues --    0.30778   0.30970   0.30970   0.31342   0.31342
 Alpha virt. eigenvalues --    0.31965   0.34165   0.34165   0.37119   0.37673
 Alpha virt. eigenvalues --    0.37673   0.39017   0.39647   0.39647   0.40515
 Alpha virt. eigenvalues --    0.40775   0.40775   0.41717   0.42151   0.42151
 Alpha virt. eigenvalues --    0.43770   0.43770   0.47509   0.47509   0.47624
 Alpha virt. eigenvalues --    0.48190   0.48190   0.49138   0.49515   0.49515
 Alpha virt. eigenvalues --    0.51611   0.51611   0.51685   0.52737   0.53582
 Alpha virt. eigenvalues --    0.53582   0.53957   0.54138   0.56507   0.59543
 Alpha virt. eigenvalues --    0.59543   0.60679   0.63933   0.63933   0.64647
 Alpha virt. eigenvalues --    0.64647   0.65972   0.66027   0.66027   0.68029
 Alpha virt. eigenvalues --    0.68029   0.70537   0.71883   0.72693   0.73949
 Alpha virt. eigenvalues --    0.73949   0.76036   0.76036   0.76770   0.78107
 Alpha virt. eigenvalues --    0.78107   0.78283   0.79778   0.80050   0.80050
 Alpha virt. eigenvalues --    0.81317   0.81752   0.81752   0.84372   0.84372
 Alpha virt. eigenvalues --    0.84492   0.84492   0.85681   0.86875   0.86875
 Alpha virt. eigenvalues --    0.88535   0.88535   0.88965   0.89877   0.94338
 Alpha virt. eigenvalues --    1.00385   1.00385   1.00534   1.02578   1.04991
 Alpha virt. eigenvalues --    1.06750   1.06750   1.08141   1.09250   1.10564
 Alpha virt. eigenvalues --    1.10564   1.11493   1.11493   1.13355   1.13874
 Alpha virt. eigenvalues --    1.13874   1.15201   1.16865   1.16865   1.19664
 Alpha virt. eigenvalues --    1.19803   1.19803   1.20313   1.22148   1.23345
 Alpha virt. eigenvalues --    1.23345   1.26565   1.28321   1.28321   1.31206
 Alpha virt. eigenvalues --    1.31206   1.31361   1.31361   1.35358   1.35629
 Alpha virt. eigenvalues --    1.35629   1.36375   1.38312   1.38312   1.39092
 Alpha virt. eigenvalues --    1.40050   1.40050   1.43368   1.43368   1.44644
 Alpha virt. eigenvalues --    1.45118   1.47122   1.48714   1.48714   1.50493
 Alpha virt. eigenvalues --    1.50493   1.50953   1.52241   1.54374   1.54374
 Alpha virt. eigenvalues --    1.55845   1.55845   1.56816   1.58632   1.58632
 Alpha virt. eigenvalues --    1.59833   1.61531   1.63556   1.63556   1.64319
 Alpha virt. eigenvalues --    1.64319   1.64479   1.66147   1.66355   1.66355
 Alpha virt. eigenvalues --    1.67526   1.67526   1.68357   1.70782   1.72747
 Alpha virt. eigenvalues --    1.72747   1.78028   1.82529   1.82529   1.90299
 Alpha virt. eigenvalues --    1.91449   1.91602   1.91602   1.91845   1.95403
 Alpha virt. eigenvalues --    1.95403   1.97908   1.97908   2.01043   2.01043
 Alpha virt. eigenvalues --    2.01790   2.02465   2.02465   2.04128   2.04128
 Alpha virt. eigenvalues --    2.05335   2.05493   2.07527   2.07527   2.07797
 Alpha virt. eigenvalues --    2.09209   2.09209   2.10884   2.10884   2.11409
 Alpha virt. eigenvalues --    2.13502   2.16137   2.16657   2.17951   2.17951
 Alpha virt. eigenvalues --    2.18680   2.18680   2.21565   2.23546   2.23546
 Alpha virt. eigenvalues --    2.23820   2.27183   2.27183   2.28938   2.28938
 Alpha virt. eigenvalues --    2.32188   2.32490   2.36673   2.36673   2.47632
 Alpha virt. eigenvalues --    2.47632   2.54425   2.54425   2.57779   2.73956
 Alpha virt. eigenvalues --    2.93792   3.08078   3.08078   3.11371   3.15400
 Alpha virt. eigenvalues --    3.15400   3.30041   3.30041   3.32006
  Beta  occ. eigenvalues --  -66.02093 -66.01324 -66.01324 -66.01323 -66.00964
  Beta  occ. eigenvalues --  -66.00964 -66.00963 -65.99799 -65.99799 -65.99799
  Beta  occ. eigenvalues --   -5.16518  -5.15752  -5.15749  -5.15749  -5.15328
  Beta  occ. eigenvalues --   -5.15323  -5.15323  -5.14287  -5.14287  -5.14287
  Beta  occ. eigenvalues --   -3.52433  -3.52433  -3.52047  -3.51702  -3.51695
  Beta  occ. eigenvalues --   -3.51695  -3.51543  -3.51543  -3.51541  -3.51481
  Beta  occ. eigenvalues --   -3.51481  -3.51481  -3.51239  -3.51235  -3.51235
  Beta  occ. eigenvalues --   -3.51113  -3.51113  -3.51106  -3.51036  -3.51020
  Beta  occ. eigenvalues --   -3.51020  -3.50142  -3.50142  -3.50142  -3.50108
  Beta  occ. eigenvalues --   -3.50105  -3.50105  -3.50009  -3.50008  -3.50008
  Beta  occ. eigenvalues --   -0.52637  -0.43452  -0.41412  -0.41412  -0.31053
  Beta  occ. eigenvalues --   -0.27198  -0.27198  -0.26373  -0.26373  -0.21064
  Beta  occ. eigenvalues --   -0.13342  -0.12623  -0.12623  -0.11014  -0.10624
  Beta  occ. eigenvalues --   -0.10624  -0.10270  -0.09338  -0.09104  -0.09104
  Beta virt. eigenvalues --    0.00797   0.03495   0.03495   0.09550   0.09550
  Beta virt. eigenvalues --    0.09641   0.10101   0.10884   0.10884   0.11179
  Beta virt. eigenvalues --    0.11543   0.11543   0.13444   0.13444   0.14766
  Beta virt. eigenvalues --    0.18351   0.18351   0.22051   0.22051   0.22193
  Beta virt. eigenvalues --    0.22914   0.25793   0.25793   0.26724   0.28216
  Beta virt. eigenvalues --    0.28463   0.28463   0.28840   0.29162   0.30669
  Beta virt. eigenvalues --    0.30669   0.30927   0.31153   0.31153   0.31530
  Beta virt. eigenvalues --    0.31530   0.32513   0.34499   0.34499   0.37673
  Beta virt. eigenvalues --    0.37809   0.37809   0.39073   0.39728   0.39728
  Beta virt. eigenvalues --    0.40952   0.40979   0.40979   0.41902   0.42259
  Beta virt. eigenvalues --    0.42259   0.43921   0.43921   0.47637   0.47637
  Beta virt. eigenvalues --    0.47653   0.48436   0.48436   0.49606   0.49884
  Beta virt. eigenvalues --    0.49884   0.51805   0.51805   0.52146   0.53041
  Beta virt. eigenvalues --    0.53777   0.53777   0.54006   0.54343   0.56947
  Beta virt. eigenvalues --    0.59955   0.59955   0.60983   0.64135   0.64135
  Beta virt. eigenvalues --    0.64878   0.64878   0.66283   0.66449   0.66449
  Beta virt. eigenvalues --    0.68172   0.68172   0.70844   0.72015   0.73067
  Beta virt. eigenvalues --    0.74284   0.74284   0.76303   0.76303   0.76862
  Beta virt. eigenvalues --    0.78498   0.78498   0.78588   0.80032   0.80180
  Beta virt. eigenvalues --    0.80180   0.81601   0.81967   0.81967   0.84599
  Beta virt. eigenvalues --    0.84599   0.84672   0.84672   0.86009   0.87153
  Beta virt. eigenvalues --    0.87153   0.88812   0.88812   0.89330   0.90068
  Beta virt. eigenvalues --    0.94498   1.00664   1.00711   1.00711   1.03024
  Beta virt. eigenvalues --    1.05220   1.06952   1.06952   1.08279   1.09475
  Beta virt. eigenvalues --    1.10932   1.10932   1.11722   1.11722   1.13454
  Beta virt. eigenvalues --    1.14148   1.14148   1.15721   1.17298   1.17298
  Beta virt. eigenvalues --    1.19603   1.20185   1.20185   1.20779   1.22382
  Beta virt. eigenvalues --    1.23634   1.23634   1.26917   1.28532   1.28532
  Beta virt. eigenvalues --    1.31496   1.31496   1.31562   1.31562   1.35501
  Beta virt. eigenvalues --    1.35814   1.35814   1.36558   1.38517   1.38517
  Beta virt. eigenvalues --    1.39517   1.40392   1.40392   1.43577   1.43577
  Beta virt. eigenvalues --    1.44939   1.45470   1.47453   1.48899   1.48899
  Beta virt. eigenvalues --    1.50745   1.50745   1.51269   1.52464   1.54671
  Beta virt. eigenvalues --    1.54671   1.56064   1.56064   1.57016   1.58860
  Beta virt. eigenvalues --    1.58860   1.60088   1.61865   1.63894   1.63894
  Beta virt. eigenvalues --    1.64510   1.64510   1.64538   1.66193   1.66539
  Beta virt. eigenvalues --    1.66539   1.67792   1.67792   1.68670   1.70956
  Beta virt. eigenvalues --    1.73027   1.73027   1.78266   1.82666   1.82666
  Beta virt. eigenvalues --    1.90451   1.91531   1.91711   1.91711   1.91951
  Beta virt. eigenvalues --    1.95476   1.95476   1.98057   1.98057   2.01160
  Beta virt. eigenvalues --    2.01160   2.01874   2.02628   2.02628   2.04264
  Beta virt. eigenvalues --    2.04264   2.05575   2.05587   2.07666   2.07666
  Beta virt. eigenvalues --    2.07982   2.09382   2.09382   2.11027   2.11027
  Beta virt. eigenvalues --    2.11552   2.13743   2.16248   2.16734   2.18116
  Beta virt. eigenvalues --    2.18116   2.18795   2.18795   2.21597   2.23705
  Beta virt. eigenvalues --    2.23705   2.24023   2.27279   2.27279   2.29078
  Beta virt. eigenvalues --    2.29078   2.32417   2.32640   2.36781   2.36781
  Beta virt. eigenvalues --    2.47866   2.47866   2.54585   2.54585   2.57960
  Beta virt. eigenvalues --    2.74075   2.94178   3.08198   3.08198   3.11526
  Beta virt. eigenvalues --    3.15597   3.15597   3.30242   3.30242   3.32227
          Condensed to atoms (all electrons):
              1          2          3          4          5          6
     1  Si  13.647443   0.201896   0.201896   0.201896  -0.039438  -0.039438
     2  Si   0.201896  13.499246  -0.001876  -0.001876  -0.004108   0.177362
     3  Si   0.201896  -0.001876  13.499246  -0.001876   0.177362   0.177362
     4  Si   0.201896  -0.001876  -0.001876  13.499246   0.177362  -0.004108
     5  Si  -0.039438  -0.004108   0.177362   0.177362  13.710063  -0.016763
     6  Si  -0.039438   0.177362   0.177362  -0.004108  -0.016763  13.710063
     7  Si  -0.039438   0.177362  -0.004108   0.177362  -0.016763  -0.016763
     8  Si   0.011414   0.007166  -0.025289  -0.025289  -0.008899   0.104880
     9  Si   0.011414  -0.025289   0.007166  -0.025289   0.104880   0.104880
    10  Si   0.011414  -0.025289  -0.025289   0.007166   0.104880  -0.008899
              7          8          9         10
     1  Si  -0.039438   0.011414   0.011414   0.011414
     2  Si   0.177362   0.007166  -0.025289  -0.025289
     3  Si  -0.004108  -0.025289   0.007166  -0.025289
     4  Si   0.177362  -0.025289  -0.025289   0.007166
     5  Si  -0.016763  -0.008899   0.104880   0.104880
     6  Si  -0.016763   0.104880   0.104880  -0.008899
     7  Si  13.710063   0.104880  -0.008899   0.104880
     8  Si   0.104880  13.729225   0.092861   0.092861
     9  Si  -0.008899   0.092861  13.729225   0.092861
    10  Si   0.104880   0.092861   0.092861  13.729225
 Mulliken atomic charges:
              1
     1  Si  -0.169059
     2  Si  -0.004593
     3  Si  -0.004593
     4  Si  -0.004593
     5  Si  -0.188577
     6  Si  -0.188577
     7  Si  -0.188577
     8  Si  -0.083811
     9  Si  -0.083811
    10  Si  -0.083811
 Sum of Mulliken atomic charges =  -1.00000
 Mulliken charges with hydrogens summed into heavy atoms:
              1
     1  Si  -0.169059
     2  Si  -0.004593
     3  Si  -0.004593
     4  Si  -0.004593
     5  Si  -0.188577
     6  Si  -0.188577
     7  Si  -0.188577
     8  Si  -0.083811
     9  Si  -0.083811
    10  Si  -0.083811
 Sum of Mulliken charges with hydrogens summed into heavy atoms =  -1.00000
          Atomic-Atomic Spin Densities.
              1          2          3          4          5          6
     1  Si   0.297704  -0.022620  -0.022620  -0.022620  -0.012803  -0.012803
     2  Si  -0.022620   0.089013   0.034423   0.034423   0.005906   0.006334
     3  Si  -0.022620   0.034423   0.089013   0.034423   0.006334   0.006334
     4  Si  -0.022620   0.034423   0.034423   0.089013   0.006334   0.005906
     5  Si  -0.012803   0.005906   0.006334   0.006334   0.041246   0.002488
     6  Si  -0.012803   0.006334   0.006334   0.005906   0.002488   0.041246
     7  Si  -0.012803   0.006334   0.005906   0.006334   0.002488   0.002488
     8  Si   0.014809  -0.017864  -0.025390  -0.025390  -0.002144  -0.006239
     9  Si   0.014809  -0.025390  -0.017864  -0.025390  -0.006239  -0.006239
    10  Si   0.014809  -0.025390  -0.025390  -0.017864  -0.006239  -0.002144
              7          8          9         10
     1  Si  -0.012803   0.014809   0.014809   0.014809
     2  Si   0.006334  -0.017864  -0.025390  -0.025390
     3  Si   0.005906  -0.025390  -0.017864  -0.025390
     4  Si   0.006334  -0.025390  -0.025390  -0.017864
     5  Si   0.002488  -0.002144  -0.006239  -0.006239
     6  Si   0.002488  -0.006239  -0.006239  -0.002144
     7  Si   0.041246  -0.006239  -0.002144  -0.006239
     8  Si  -0.006239   0.129078   0.035777   0.035777
     9  Si  -0.002144   0.035777   0.129078   0.035777
    10  Si  -0.006239   0.035777   0.035777   0.129078
 Mulliken atomic spin densities:
              1
     1  Si   0.235862
     2  Si   0.085168
     3  Si   0.085168
     4  Si   0.085168
     5  Si   0.037370
     6  Si   0.037370
     7  Si   0.037370
     8  Si   0.132174
     9  Si   0.132174
    10  Si   0.132174
 Sum of Mulliken atomic spin densities =   1.00000
 Electronic spatial extent (au):  <R**2>=           2860.4461
 Charge=             -1.0000 electrons
 Dipole moment (field-independent basis, Debye):
    X=              0.0000    Y=              0.0000    Z=              0.7490  Tot=              0.7490
 Quadrupole moment (field-independent basis, Debye-Ang):
   XX=           -153.6868   YY=           -153.6868   ZZ=           -153.7960
   XY=              0.0000   XZ=              0.0000   YZ=              0.0000
 Traceless Quadrupole moment (field-independent basis, Debye-Ang):
   XX=              0.0364   YY=              0.0364   ZZ=             -0.0728
   XY=              0.0000   XZ=              0.0000   YZ=              0.0000
 Octapole moment (field-independent basis, Debye-Ang**2):
  XXX=              0.0000  YYY=            -14.7709  ZZZ=            -15.4322  XYY=              0.0000
  XXY=             14.7709  XXZ=             10.9231  XZZ=              0.0000  YZZ=              0.0000
  YYZ=             10.9231  XYZ=              0.0000
 Hexadecapole moment (field-independent basis, Debye-Ang**3):
 XXXX=          -1677.6050 YYYY=          -1677.6050 ZZZZ=          -2093.2101 XXXY=              0.0000
 XXXZ=              0.0000 YYYX=              0.0000 YYYZ=             -3.5002 ZZZX=              0.0000
 ZZZY=              0.0000 XXYY=           -559.2017 XXZZ=           -604.8702 YYZZ=           -604.8702
 XXYZ=              3.5002 YYXZ=              0.0000 ZZXY=              0.0000
 N-N= 1.524993076635D+03 E-N=-1.492888988695D+04  KE= 4.326463122405D+03
 Symmetry A'   KE= 2.879573377239D+03
 Symmetry A"   KE= 1.446889745166D+03
                          Isotropic Fermi Contact Couplings
        Atom                 a.u.       MegaHertz       Gauss      10(-4) cm-1
     1  Si(29)            -0.00503       4.46759       1.59415       1.49023
     2  Si(29)            -0.01299      11.54617       4.11996       3.85139
     3  Si(29)            -0.01299      11.54617       4.11996       3.85139
     4  Si(29)            -0.01299      11.54617       4.11996       3.85139
     5  Si(29)             0.00495      -4.40072      -1.57029      -1.46792
     6  Si(29)             0.00495      -4.40072      -1.57029      -1.46792
     7  Si(29)             0.00495      -4.40072      -1.57029      -1.46792
     8  Si(29)            -0.01215      10.80038       3.85384       3.60262
     9  Si(29)            -0.01215      10.80038       3.85384       3.60262
    10  Si(29)            -0.01215      10.80038       3.85384       3.60262
 --------------------------------------------------------
       Center         ----  Spin Dipole Couplings  ----
                      3XX-RR        3YY-RR        3ZZ-RR
 --------------------------------------------------------
     1   Atom       -0.282878     -0.282878      0.565757
     2   Atom       -0.114572      0.018467      0.096105
     3   Atom       -0.014792     -0.081312      0.096105
     4   Atom       -0.014792     -0.081312      0.096105
     5   Atom       -0.058674     -0.075227      0.133901
     6   Atom       -0.071089     -0.062812      0.133901
     7   Atom       -0.071089     -0.062812      0.133901
     8   Atom       -0.120424     -0.059535      0.179959
     9   Atom       -0.074757     -0.105202      0.179959
    10   Atom       -0.074757     -0.105202      0.179959
 --------------------------------------------------------
                        XY            XZ            YZ
 --------------------------------------------------------
     1   Atom        0.000000      0.000000      0.000000
     2   Atom        0.000000      0.000000     -0.173900
     3   Atom       -0.057608     -0.150602      0.086950
     4   Atom        0.057608      0.150602      0.086950
     5   Atom        0.000000      0.000000     -0.017925
     6   Atom       -0.007168      0.015523      0.008962
     7   Atom        0.007168     -0.015523      0.008962
     8   Atom        0.000000      0.000000      0.136683
     9   Atom       -0.026366      0.118371     -0.068341
    10   Atom        0.026366     -0.118371     -0.068341
 --------------------------------------------------------


 ---------------------------------------------------------------------------------
              Anisotropic Spin Dipole Couplings in Principal Axis System
 ---------------------------------------------------------------------------------

       Atom             a.u.   MegaHertz   Gauss  10(-4) cm-1        Axes

              Baa    -0.2829    30.009    10.708    10.010  0.2480  0.9687  0.0000
     1 Si(29) Bbb    -0.2829    30.009    10.708    10.010  0.9687 -0.2480  0.0000
              Bcc     0.5658   -60.018   -21.416   -20.020  0.0000  0.0000  1.0000
 
              Baa    -0.1209    12.825     4.576     4.278  0.0000  0.7803  0.6254
     2 Si(29) Bbb    -0.1146    12.154     4.337     4.054  1.0000  0.0000  0.0000
              Bcc     0.2355   -24.979    -8.913    -8.332  0.0000 -0.6254  0.7803
 
              Baa    -0.1209    12.825     4.576     4.278  0.6758 -0.3902  0.6254
     3 Si(29) Bbb    -0.1146    12.154     4.337     4.054  0.5000  0.8660  0.0000
              Bcc     0.2355   -24.979    -8.913    -8.332 -0.5416  0.3127  0.7803
 
              Baa    -0.1209    12.825     4.576     4.278  0.6758  0.3902 -0.6254
     4 Si(29) Bbb    -0.1146    12.154     4.337     4.054 -0.5000  0.8660  0.0000
              Bcc     0.2355   -24.979    -8.913    -8.332  0.5416  0.3127  0.7803
 
              Baa    -0.0768     8.142     2.905     2.716  0.0000  0.9964  0.0848
     5 Si(29) Bbb    -0.0587     6.224     2.221     2.076  1.0000  0.0000  0.0000
              Bcc     0.1354   -14.367    -5.126    -4.792  0.0000 -0.0848  0.9964
 
              Baa    -0.0768     8.142     2.905     2.716  0.8629  0.4982 -0.0848
     6 Si(29) Bbb    -0.0587     6.224     2.221     2.076 -0.5000  0.8660  0.0000
              Bcc     0.1354   -14.367    -5.126    -4.792  0.0734  0.0424  0.9964
 
              Baa    -0.0768     8.142     2.905     2.716  0.8629 -0.4982  0.0848
     7 Si(29) Bbb    -0.0587     6.224     2.221     2.076  0.5000  0.8660  0.0000
              Bcc     0.1354   -14.367    -5.126    -4.792 -0.0734  0.0424  0.9964
 
              Baa    -0.1215    12.890     4.599     4.300  0.0000  0.9108 -0.4129
     8 Si(29) Bbb    -0.1204    12.775     4.558     4.261  1.0000  0.0000  0.0000
              Bcc     0.2419   -25.665    -9.158    -8.561  0.0000  0.4129  0.9108
 
              Baa    -0.1215    12.890     4.599     4.300  0.7887 -0.4554 -0.4129
     9 Si(29) Bbb    -0.1204    12.775     4.558     4.261  0.5000  0.8660  0.0000
              Bcc     0.2419   -25.665    -9.158    -8.561  0.3576 -0.2065  0.9108
 
              Baa    -0.1215    12.890     4.599     4.300  0.7887  0.4554  0.4129
    10 Si(29) Bbb    -0.1204    12.775     4.558     4.261 -0.5000  0.8660  0.0000
              Bcc     0.2419   -25.665    -9.158    -8.561 -0.3576 -0.2065  0.9108
 

 ---------------------------------------------------------------------------------

 Calling FoFJK, ICntrl=      2127 FMM=F ISym2X=1 I1Cent= 0 IOpClX= 1 NMat=1 NMatS=1 NMatT=0.
 ***** Axes restored to original set *****
 -------------------------------------------------------------------
 Center     Atomic                   Forces (Hartrees/Bohr)
 Number     Number              X              Y              Z
 -------------------------------------------------------------------
      1       14           0.000000000    0.000000000   -0.001047556
      2       14           0.000000000   -0.002065130   -0.001437201
      3       14          -0.001788455    0.001032565   -0.001437201
      4       14           0.001788455    0.001032565   -0.001437201
      5       14           0.000000000    0.000967191   -0.000837775
      6       14          -0.000837612   -0.000483595   -0.000837775
      7       14           0.000837612   -0.000483595   -0.000837775
      8       14           0.000000000   -0.002345836    0.002624161
      9       14          -0.002031553    0.001172918    0.002624161
     10       14           0.002031553    0.001172918    0.002624161
 -------------------------------------------------------------------
 Cartesian Forces:  Max     0.002624161 RMS     0.001439534

 GradGradGradGradGradGradGradGradGradGradGradGradGradGradGradGradGradGrad
 Berny optimization.
 Internal  Forces:  Max     0.001410351 RMS     0.000363620
 Search for a local minimum.
 Step number   1 out of a maximum of  100
 All quantities printed in internal units (Hartrees-Bohrs-Radians)
 Mixed Optimization -- En-DIIS/RFO-DIIS
 Second derivative matrix not updated -- first step.
     Eigenvalues ---    0.03885   0.04040   0.04040   0.04373   0.04373
     Eigenvalues ---    0.07227   0.07769   0.07769   0.08158   0.08459
     Eigenvalues ---    0.08459   0.08464   0.09000   0.09789   0.09789
     Eigenvalues ---    0.10168   0.10442   0.10442   0.11608   0.13153
     Eigenvalues ---    0.13206   0.13206   0.15568   0.155681000.00000
     Eigenvalues --- 1000.000001000.000001000.000001000.000001000.00000
     Eigenvalues --- 1000.000001000.000001000.000001000.000001000.00000
     Eigenvalues --- 1000.000001000.000001000.000001000.000001000.00000
     Eigenvalues --- 1000.000001000.000001000.000001000.000001000.00000
     Eigenvalues --- 1000.000001000.000001000.000001000.000001000.00000
     Eigenvalues --- 1000.000001000.000001000.000001000.000001000.00000
     Eigenvalues --- 1000.000001000.000001000.000001000.000001000.00000
     Eigenvalues --- 1000.000001000.000001000.000001000.000001000.00000
     Eigenvalues --- 1000.000001000.000001000.000001000.000001000.00000
     Eigenvalues --- 1000.000001000.000001000.000001000.000001000.00000
     Eigenvalues --- 1000.000001000.000001000.000001000.000001000.00000
     Eigenvalues --- 1000.000001000.000001000.000001000.000001000.00000
     Eigenvalues --- 1000.000001000.000001000.000001000.000001000.00000
     Eigenvalues --- 1000.000001000.000001000.000001000.000001000.00000
     Eigenvalues --- 1000.000001000.000001000.000001000.000001000.00000
     Eigenvalues --- 1000.000001000.000001000.000001000.000001000.00000
     Eigenvalues --- 1000.000001000.000001000.000001000.000001000.00000
     Eigenvalues --- 1000.000001000.000001000.000001000.000001000.00000
     Eigenvalues --- 1000.000001000.000001000.000001000.000001000.00000
     Eigenvalues --- 1000.000001000.000001000.000001000.000001000.00000
     Eigenvalues --- 1000.000001000.000001000.000001000.000001000.00000
     Eigenvalues --- 1000.000001000.000001000.000001000.000001000.00000
     Eigenvalues --- 1000.000001000.000001000.000001000.000001000.00000
     Eigenvalues --- 1000.00000
 RFO step:  Lambda=-2.17071637D-04 EMin= 3.88455662D-02
 Linear search not attempted -- first point.
 Iteration  1 RMS(Cart)=  0.00237124 RMS(Int)=  0.00000340
 Iteration  2 RMS(Cart)=  0.00000179 RMS(Int)=  0.00000214
 Iteration  3 RMS(Cart)=  0.00000000 RMS(Int)=  0.00000214
 ClnCor:  largest displacement from symmetrization is 3.04D-09 for atom     4.
 Variable       Old X    -DE/DX   Delta X   Delta X   Delta X     New X
                                 (Linear)    (Quad)   (Total)
    R1        4.54589  -0.00046   0.00000  -0.00444  -0.00444   4.54145
    R2        4.54589  -0.00046   0.00000  -0.00444  -0.00444   4.54145
    R3        4.54589  -0.00046   0.00000  -0.00444  -0.00444   4.54145
    R4        5.01800  -0.00082   0.00000  -0.00993  -0.00993   5.00807
    R5        5.01800  -0.00082   0.00000  -0.00993  -0.00993   5.00807
    R6        4.61383  -0.00032   0.00000  -0.00472  -0.00472   4.60911
    R7        4.61383  -0.00032   0.00000  -0.00472  -0.00472   4.60911
    R8        5.05345  -0.00141   0.00000  -0.01671  -0.01671   5.03673
    R9        5.01800  -0.00082   0.00000  -0.00993  -0.00993   5.00807
   R10        4.61383  -0.00032   0.00000  -0.00472  -0.00472   4.60911
   R11        4.61383  -0.00032   0.00000  -0.00472  -0.00472   4.60911
   R12        5.05345  -0.00141   0.00000  -0.01671  -0.01671   5.03673
   R13        4.61383  -0.00032   0.00000  -0.00472  -0.00472   4.60911
   R14        4.61383  -0.00032   0.00000  -0.00472  -0.00472   4.60911
   R15        5.05345  -0.00141   0.00000  -0.01671  -0.01671   5.03673
   R16        4.77947  -0.00079   0.00000  -0.01046  -0.01046   4.76901
   R17        4.77947  -0.00079   0.00000  -0.01046  -0.01046   4.76901
   R18        4.77947  -0.00079   0.00000  -0.01046  -0.01046   4.76901
   R19        4.77947  -0.00079   0.00000  -0.01046  -0.01046   4.76901
   R20        4.77947  -0.00079   0.00000  -0.01046  -0.01046   4.76901
   R21        4.77947  -0.00079   0.00000  -0.01046  -0.01046   4.76901
   R22        4.78475  -0.00116   0.00000  -0.01165  -0.01165   4.77310
   R23        4.78475  -0.00116   0.00000  -0.01165  -0.01165   4.77310
   R24        4.78475  -0.00116   0.00000  -0.01165  -0.01165   4.77310
    A1        1.88142   0.00005   0.00000   0.00071   0.00071   1.88213
    A2        1.88142   0.00005   0.00000   0.00071   0.00071   1.88213
    A3        2.42394   0.00000   0.00000   0.00054   0.00054   2.42448
    A4        1.88049   0.00009   0.00000   0.00080   0.00080   1.88128
    A5        1.54772  -0.00004   0.00000  -0.00025  -0.00025   1.54747
    A6        1.88049   0.00009   0.00000   0.00080   0.00080   1.88128
    A7        1.54772  -0.00004   0.00000  -0.00025  -0.00025   1.54747
    A8        2.02653   0.00012   0.00000   0.00091   0.00091   2.02743
    A9        1.88142   0.00005   0.00000   0.00071   0.00071   1.88213
   A10        1.88142   0.00005   0.00000   0.00071   0.00071   1.88213
   A11        2.42394   0.00000   0.00000   0.00054   0.00054   2.42448
   A12        1.88049   0.00009   0.00000   0.00080   0.00080   1.88128
   A13        1.54772  -0.00004   0.00000  -0.00025  -0.00025   1.54747
   A14        1.88049   0.00009   0.00000   0.00080   0.00080   1.88128
   A15        1.54772  -0.00004   0.00000  -0.00025  -0.00025   1.54747
   A16        2.02653   0.00012   0.00000   0.00091   0.00091   2.02743
   A17        1.88142   0.00005   0.00000   0.00071   0.00071   1.88213
   A18        1.88142   0.00005   0.00000   0.00071   0.00071   1.88213
   A19        2.42394   0.00000   0.00000   0.00054   0.00054   2.42448
   A20        1.88049   0.00009   0.00000   0.00080   0.00080   1.88128
   A21        1.54772  -0.00004   0.00000  -0.00025  -0.00025   1.54747
   A22        1.88049   0.00009   0.00000   0.00080   0.00080   1.88128
   A23        1.54772  -0.00004   0.00000  -0.00025  -0.00025   1.54747
   A24        2.02653   0.00012   0.00000   0.00091   0.00091   2.02743
   A25        1.69392  -0.00028   0.00000  -0.00260  -0.00261   1.69131
   A26        1.69392  -0.00028   0.00000  -0.00260  -0.00261   1.69131
   A27        1.69392  -0.00028   0.00000  -0.00260  -0.00261   1.69131
   A28        1.69392  -0.00028   0.00000  -0.00260  -0.00261   1.69131
   A29        1.69392  -0.00028   0.00000  -0.00260  -0.00261   1.69131
   A30        1.69392  -0.00028   0.00000  -0.00260  -0.00261   1.69131
   A31        1.59388   0.00004   0.00000   0.00025   0.00025   1.59412
   A32        1.59388   0.00004   0.00000   0.00025   0.00025   1.59412
   A33        1.91987   0.00038   0.00000   0.00414   0.00415   1.92402
   A34        1.89505   0.00016   0.00000   0.00138   0.00138   1.89643
   A35        1.89505   0.00016   0.00000   0.00138   0.00138   1.89643
   A36        1.59388   0.00004   0.00000   0.00025   0.00025   1.59412
   A37        1.59388   0.00004   0.00000   0.00025   0.00025   1.59412
   A38        1.91987   0.00038   0.00000   0.00414   0.00415   1.92402
   A39        1.89505   0.00016   0.00000   0.00138   0.00138   1.89643
   A40        1.89505   0.00016   0.00000   0.00138   0.00138   1.89643
   A41        1.59388   0.00004   0.00000   0.00025   0.00025   1.59412
   A42        1.59388   0.00004   0.00000   0.00025   0.00025   1.59412
   A43        1.91987   0.00038   0.00000   0.00414   0.00415   1.92402
   A44        1.89505   0.00016   0.00000   0.00138   0.00138   1.89643
   A45        1.89505   0.00016   0.00000   0.00138   0.00138   1.89643
    D1        0.00000   0.00000   0.00000   0.00000   0.00000   0.00000
    D2        0.99143   0.00000   0.00000  -0.00006  -0.00006   0.99137
    D3       -0.99143   0.00000   0.00000   0.00006   0.00006  -0.99137
    D4        0.00000   0.00000   0.00000   0.00000   0.00000   0.00000
    D5        0.00000   0.00000   0.00000   0.00000   0.00000   0.00000
    D6       -0.99143   0.00000   0.00000   0.00006   0.00006  -0.99137
    D7        0.99143   0.00000   0.00000  -0.00006  -0.00006   0.99137
    D8        0.00000   0.00000   0.00000   0.00000   0.00000   0.00000
    D9        1.47689   0.00000   0.00000  -0.00011  -0.00011   1.47678
   D10        0.43652  -0.00007   0.00000  -0.00109  -0.00110   0.43543
   D11       -0.63474  -0.00018   0.00000  -0.00218  -0.00218  -0.63692
   D12       -1.47689   0.00000   0.00000   0.00011   0.00011  -1.47678
   D13       -0.43652   0.00007   0.00000   0.00109   0.00110  -0.43543
   D14        0.63474   0.00018   0.00000   0.00218   0.00218   0.63692
   D15       -0.52375   0.00000   0.00000   0.00000   0.00000  -0.52376
   D16        0.52375   0.00000   0.00000   0.00000   0.00000   0.52376
   D17        0.00000   0.00000   0.00000   0.00000   0.00000   0.00000
   D18        1.04751   0.00000   0.00000   0.00001   0.00001   1.04751
   D19       -1.04751   0.00000   0.00000  -0.00001  -0.00001  -1.04751
   D20        0.00000   0.00000   0.00000   0.00000   0.00000   0.00000
   D21        0.00000   0.00000   0.00000   0.00000   0.00000   0.00000
   D22        0.99143   0.00000   0.00000  -0.00006  -0.00006   0.99137
   D23       -0.99143   0.00000   0.00000   0.00006   0.00006  -0.99137
   D24        0.00000   0.00000   0.00000   0.00000   0.00000   0.00000
   D25        1.47689   0.00000   0.00000  -0.00011  -0.00011   1.47678
   D26        0.43652  -0.00007   0.00000  -0.00109  -0.00110   0.43543
   D27       -0.63474  -0.00018   0.00000  -0.00218  -0.00218  -0.63692
   D28       -1.47689   0.00000   0.00000   0.00011   0.00011  -1.47678
   D29       -0.43652   0.00007   0.00000   0.00109   0.00110  -0.43543
   D30        0.63474   0.00018   0.00000   0.00218   0.00218   0.63692
   D31        0.52375   0.00000   0.00000   0.00000   0.00000   0.52376
   D32       -0.52375   0.00000   0.00000   0.00000   0.00000  -0.52376
   D33        0.00000   0.00000   0.00000   0.00000   0.00000   0.00000
   D34       -1.04751   0.00000   0.00000  -0.00001  -0.00001  -1.04751
   D35        1.04751   0.00000   0.00000   0.00001   0.00001   1.04751
   D36        0.00000   0.00000   0.00000   0.00000   0.00000   0.00000
   D37       -1.47689   0.00000   0.00000   0.00011   0.00011  -1.47678
   D38       -0.43652   0.00007   0.00000   0.00109   0.00110  -0.43543
   D39        0.63474   0.00018   0.00000   0.00218   0.00218   0.63692
   D40        1.47689   0.00000   0.00000  -0.00011  -0.00011   1.47678
   D41        0.43652  -0.00007   0.00000  -0.00109  -0.00110   0.43543
   D42       -0.63474  -0.00018   0.00000  -0.00218  -0.00218  -0.63692
   D43       -0.52375   0.00000   0.00000   0.00000   0.00000  -0.52376
   D44        0.52375   0.00000   0.00000   0.00000   0.00000   0.52376
   D45        0.00000   0.00000   0.00000   0.00000   0.00000   0.00000
   D46        1.04751   0.00000   0.00000   0.00001   0.00001   1.04751
   D47       -1.04751   0.00000   0.00000  -0.00001  -0.00001  -1.04751
   D48        0.00000   0.00000   0.00000   0.00000   0.00000   0.00000
   D49        0.77827   0.00009   0.00000   0.00035   0.00036   0.77863
   D50       -0.33735  -0.00007   0.00000  -0.00095  -0.00095  -0.33829
   D51       -0.77827  -0.00009   0.00000  -0.00035  -0.00036  -0.77863
   D52        0.33735   0.00007   0.00000   0.00095   0.00095   0.33829
   D53        0.77827   0.00009   0.00000   0.00035   0.00036   0.77863
   D54       -0.33735  -0.00007   0.00000  -0.00095  -0.00095  -0.33829
   D55       -0.77827  -0.00009   0.00000  -0.00035  -0.00036  -0.77863
   D56        0.33735   0.00007   0.00000   0.00095   0.00095   0.33829
   D57       -0.77827  -0.00009   0.00000  -0.00035  -0.00036  -0.77863
   D58        0.33735   0.00007   0.00000   0.00095   0.00095   0.33829
   D59        0.77827   0.00009   0.00000   0.00035   0.00036   0.77863
   D60       -0.33735  -0.00007   0.00000  -0.00095  -0.00095  -0.33829
   D61        0.00000   0.00000   0.00000   0.00000   0.00000   0.00000
   D62        0.94702   0.00017   0.00000   0.00186   0.00187   0.94889
   D63       -0.94702  -0.00017   0.00000  -0.00186  -0.00187  -0.94889
   D64        0.00000   0.00000   0.00000   0.00000   0.00000   0.00000
   D65        0.00000   0.00000   0.00000   0.00000   0.00000   0.00000
   D66       -0.94702  -0.00017   0.00000  -0.00186  -0.00187  -0.94889
   D67        0.94702   0.00017   0.00000   0.00186   0.00187   0.94889
   D68        0.00000   0.00000   0.00000   0.00000   0.00000   0.00000
   D69        0.00000   0.00000   0.00000   0.00000   0.00000   0.00000
   D70        0.94702   0.00017   0.00000   0.00186   0.00187   0.94889
   D71       -0.94702  -0.00017   0.00000  -0.00186  -0.00187  -0.94889
   D72        0.00000   0.00000   0.00000   0.00000   0.00000   0.00000
         Item               Value     Threshold  Converged?
 Maximum Force            0.001410     0.000450     NO 
 RMS     Force            0.000364     0.000300     NO 
 Maximum Displacement     0.010824     0.001800     NO 
 RMS     Displacement     0.002371     0.001200     NO 
 Predicted change in Energy=-1.088055D-04
 GradGradGradGradGradGradGradGradGradGradGradGradGradGradGradGradGradGrad

                          Input orientation:                          
 ---------------------------------------------------------------------
 Center     Atomic      Atomic             Coordinates (Angstroms)
 Number     Number       Type             X           Y           Z
 ---------------------------------------------------------------------
      1         14           0        0.000000    0.000000    2.840800
      2         14           0        0.000000    1.530068    0.987581
      3         14           0        1.325078   -0.765034    0.987581
      4         14           0       -1.325078   -0.765034    0.987581
      5         14           0        0.000000   -2.390530   -0.257738
      6         14           0        2.070260    1.195265   -0.257738
      7         14           0       -2.070260    1.195265   -0.257738
      8         14           0        0.000000    1.458281   -1.676777
      9         14           0        1.262908   -0.729141   -1.676777
     10         14           0       -1.262908   -0.729141   -1.676777
 ---------------------------------------------------------------------
                    Distance matrix (angstroms):
                    1          2          3          4          5
     1  Si   0.000000
     2  Si   2.403233   0.000000
     3  Si   2.403233   2.650155   0.000000
     4  Si   2.403233   2.650155   2.650155   0.000000
     5  Si   3.913512   4.113625   2.439034   2.439034   0.000000
     6  Si   3.913512   2.439034   2.439034   4.113625   4.140520
     7  Si   3.913512   2.439034   4.113625   2.439034   4.140520
     8  Si   4.747113   2.665325   3.714534   3.714534   4.102075
     9  Si   4.747113   3.714534   2.665325   3.714534   2.523653
    10  Si   4.747113   3.714534   3.714534   2.665325   2.523653
                    6          7          8          9         10
     6  Si   0.000000
     7  Si   4.140520   0.000000
     8  Si   2.523653   2.523653   0.000000
     9  Si   2.523653   4.102075   2.525817   0.000000
    10  Si   4.102075   2.523653   2.525817   2.525817   0.000000
 Stoichiometry    Si10(1-,2)
 Framework group  C3V[C3(Si),3SGV(Si3)]
 Deg. of freedom     6
 Full point group                 C3V     NOp   6
 Largest Abelian subgroup         CS      NOp   2
 Largest concise Abelian subgroup CS      NOp   2
                         Standard orientation:                         
 ---------------------------------------------------------------------
 Center     Atomic      Atomic             Coordinates (Angstroms)
 Number     Number       Type             X           Y           Z
 ---------------------------------------------------------------------
      1         14           0        0.000000    0.000000    2.840800
      2         14           0        0.000000   -1.530068    0.987581
      3         14           0       -1.325078    0.765034    0.987581
      4         14           0        1.325078    0.765034    0.987581
      5         14           0        0.000000    2.390530   -0.257738
      6         14           0       -2.070260   -1.195265   -0.257738
      7         14           0        2.070260   -1.195265   -0.257738
      8         14           0        0.000000   -1.458281   -1.676777
      9         14           0       -1.262908    0.729141   -1.676777
     10         14           0        1.262908    0.729141   -1.676777
 ---------------------------------------------------------------------
 Rotational constants (GHZ):      0.5913559      0.5175434      0.5175434
 Standard basis: GTBas3 (6D, 7F)
 There are   184 symmetry adapted basis functions of A'  symmetry.
 There are   136 symmetry adapted basis functions of A"  symmetry.
 Integral buffers will be    131072 words long.
 Raffenetti 2 integral format.
 Two-electron integral symmetry is turned on.
   320 basis functions,   680 primitive gaussians,   350 cartesian basis functions
    71 alpha electrons       70 beta electrons
       nuclear repulsion energy      1527.7880098154 Hartrees.
 NAtoms=   10 NActive=   10 NUniq=    4 SFac= 3.00D+00 NAtFMM=   80 NAOKFM=F Big=F
 One-electron integrals computed using PRISM.
 NBasis=   320 RedAO= T  NBF=   184   136
 NBsUse=   320 1.00D-06 NBFU=   184   136
 Initial guess read from the read-write file.
 B after Tr=     0.000000    0.000000    0.000000
         Rot=    1.000000    0.000000    0.000000    0.000000 Ang=   0.00 deg.
 Initial guess orbital symmetries:
 Alpha Orbitals:
       Occupied  (A1) (E) (E) (A1) (E) (E) (A1) (E) (E) (A1) (A1)
                 (A1) (E) (E) (A1) (E) (E) (E) (E) (A1) (E) (E)
                 (A1) (A1) (E) (E) (E) (E) (A1) (E) (E) (A2) (A1)
                 (E) (E) (E) (E) (A2) (A1) (E) (E) (A1) (E) (E)
                 (E) (E) (A2) (A1) (E) (E) (A1) (A1) (E) (E) (A1)
                 (E) (E) (E) (E) (A1) (A1) (E) (E) (A1) (E) (E)
                 (A2) (A1) (E) (E) (A1)
       Virtual   (E) (E) (E) (E) (A2) (A1) (E) (E) (A1) (E) (E)
                 (E) (E) (A1) (E) (E) (A1) (E) (E) (A2) (E) (E)
                 (A1) (A1) (E) (E) (A1) (A2) (E) (E) (A1) (E) (E)
                 (E) (E) (A1) (E) (E) (A1) (E) (E) (A2) (E) (E)
                 (A1) (E) (E) (A1) (E) (E) (E) (E) (E) (E) (A2)
                 (E) (E) (A1) (E) (E) (E) (E) (A1) (A2) (E) (E)
                 (A2) (A1) (A1) (E) (E) (A1) (E) (E) (E) (E) (A1)
                 (E) (E) (E) (E) (A1) (A2) (A1) (E) (E) (E) (E)
                 (A2) (E) (E) (A1) (A2) (E) (E) (A1) (E) (E) (E)
                 (E) (E) (E) (A1) (E) (E) (E) (E) (A1) (A2) (A1)
                 (E) (E) (A2) (A1) (A1) (E) (E) (A1) (A1) (E) (E)
                 (E) (E) (A2) (E) (E) (A1) (E) (E) (A2) (E) (E)
                 (A1) (A1) (E) (E) (A1) (E) (E) (E) (E) (E) (E)
                 (A2) (E) (E) (A1) (E) (E) (A1) (E) (E) (E) (E)
                 (A1) (A2) (A1) (E) (E) (E) (E) (A2) (A1) (E) (E)
                 (E) (E) (A2) (E) (E) (A1) (A1) (E) (E) (E) (E)
                 (A2) (A2) (E) (E) (E) (E) (A1) (A2) (E) (E) (A1)
                 (E) (E) (A1) (A2) (E) (E) (A1) (E) (E) (E) (E)
                 (E) (E) (A1) (E) (E) (E) (E) (A1) (A2) (E) (E)
                 (A1) (E) (E) (E) (E) (A1) (A1) (A1) (A2) (E) (E)
                 (E) (E) (A2) (E) (E) (A1) (E) (E) (E) (E) (A1)
                 (A2) (E) (E) (E) (E) (E) (E) (A1) (A2) (A1) (E)
                 (E) (A1) (E) (E) (E) (E) (A1)
 Beta  Orbitals:
       Occupied  (A1) (E) (E) (A1) (E) (E) (A1) (E) (E) (A1) (A1)
                 (A1) (E) (E) (A1) (E) (E) (E) (E) (A1) (E) (E)
                 (A1) (A1) (E) (E) (E) (E) (A2) (A1) (E) (E) (A1)
                 (E) (E) (E) (E) (A2) (A1) (E) (E) (E) (E) (A2)
                 (A1) (E) (E) (A1) (E) (E) (A1) (A1) (E) (E) (A1)
                 (E) (E) (E) (E) (A1) (A1) (E) (E) (A1) (E) (E)
                 (A2) (A1) (E) (E)
       Virtual   (A1) (E) (E) (E) (E) (A2) (A1) (E) (E) (A1) (E)
                 (E) (E) (E) (A1) (E) (E) (E) (E) (A1) (A2) (E)
                 (E) (A1) (A1) (E) (E) (A1) (A2) (E) (E) (A1) (E)
                 (E) (E) (E) (A1) (E) (E) (A1) (E) (E) (A2) (E)
                 (E) (A1) (E) (E) (A1) (E) (E) (E) (E) (E) (E)
                 (A2) (E) (E) (A1) (E) (E) (E) (E) (A1) (A2) (E)
                 (E) (A2) (A1) (A1) (E) (E) (A1) (E) (E) (E) (E)
                 (A1) (E) (E) (E) (E) (A1) (A2) (A1) (E) (E) (E)
                 (E) (A2) (E) (E) (A1) (A2) (E) (E) (A1) (E) (E)
                 (E) (E) (E) (E) (A1) (E) (E) (E) (E) (A1) (A2)
                 (A1) (A2) (E) (E) (A1) (A1) (E) (E) (A1) (A1)
                 (E) (E) (E) (E) (A2) (E) (E) (A1) (E) (E) (A2)
                 (E) (E) (A1) (A1) (E) (E) (A1) (E) (E) (E) (E)
                 (E) (E) (A2) (E) (E) (A1) (E) (E) (A1) (E) (E)
                 (E) (E) (A1) (A2) (A1) (E) (E) (E) (E) (A2) (A1)
                 (E) (E) (E) (E) (A2) (E) (E) (A1) (A1) (E) (E)
                 (E) (E) (A2) (A2) (E) (E) (E) (E) (A1) (A2) (E)
                 (E) (A1) (E) (E) (A1) (A2) (E) (E) (A1) (E) (E)
                 (E) (E) (E) (E) (A1) (E) (E) (E) (E) (A2) (A1)
                 (E) (E) (A1) (E) (E) (E) (E) (A1) (A1) (A1) (A2)
                 (E) (E) (E) (E) (A2) (E) (E) (A1) (E) (E) (E)
                 (E) (A1) (A2) (E) (E) (E) (E) (E) (E) (A1) (A2)
                 (A1) (E) (E) (A1) (E) (E) (E) (E) (A1)
 Initial guess <Sx>= 0.0000 <Sy>= 0.0000 <Sz>= 0.5000 <S**2>= 0.7582 S= 0.5041
 Requested convergence on RMS density matrix=1.00D-08 within 128 cycles.
 Requested convergence on MAX density matrix=1.00D-06.
 Requested convergence on             energy=1.00D-06.
 No special actions if energy rises.
 SCF Done:  E(UB3LYP) =  -2895.02155280     A.U. after   11 cycles
             Convg  =    0.5000D-08             -V/T =  2.0036
 <Sx>= 0.0000 <Sy>= 0.0000 <Sz>= 0.5000 <S**2>= 0.7582 S= 0.5041
 <L.S>= 0.000000000000E+00
 Annihilation of the first spin contaminant:
 S**2 before annihilation     0.7582,   after     0.7501
 QCSCF skips out because SCF is already converged.
 Calling FoFJK, ICntrl=      2127 FMM=F ISym2X=1 I1Cent= 0 IOpClX= 1 NMat=1 NMatS=1 NMatT=0.
 ***** Axes restored to original set *****
 -------------------------------------------------------------------
 Center     Atomic                   Forces (Hartrees/Bohr)
 Number     Number              X              Y              Z
 -------------------------------------------------------------------
      1       14           0.000000000    0.000000000   -0.000399598
      2       14           0.000000000   -0.001404587   -0.000756837
      3       14          -0.001216408    0.000702293   -0.000756837
      4       14           0.001216408    0.000702293   -0.000756837
      5       14           0.000000000    0.000322697   -0.000741311
      6       14          -0.000279464   -0.000161348   -0.000741311
      7       14           0.000279464   -0.000161348   -0.000741311
      8       14           0.000000000   -0.001323840    0.001631347
      9       14          -0.001146479    0.000661920    0.001631347
     10       14           0.001146479    0.000661920    0.001631347
 -------------------------------------------------------------------
 Cartesian Forces:  Max     0.001631347 RMS     0.000875581

 GradGradGradGradGradGradGradGradGradGradGradGradGradGradGradGradGradGrad
 Berny optimization.
 Using GEDIIS/GDIIS optimizer.
 Internal  Forces:  Max     0.000842670 RMS     0.000220521
 Search for a local minimum.
 Step number   2 out of a maximum of  100
 All quantities printed in internal units (Hartrees-Bohrs-Radians)
 Mixed Optimization -- En-DIIS/RFO-DIIS
 Swaping is turned off.
 Update second derivatives using D2CorX and points    1    2
 DE= -1.73D-04 DEPred=-1.09D-04 R= 1.59D+00
 SS=  1.41D+00  RLast= 5.07D-02 DXNew= 5.0454D-01 1.5202D-01
 Trust test= 1.59D+00 RLast= 5.07D-02 DXMaxT set to 3.00D-01
     Eigenvalues ---    0.03265   0.03881   0.04039   0.04039   0.04367
     Eigenvalues ---    0.04367   0.07501   0.07762   0.07762   0.08387
     Eigenvalues ---    0.08457   0.08457   0.09005   0.09791   0.09791
     Eigenvalues ---    0.10102   0.10439   0.10439   0.11702   0.12967
     Eigenvalues ---    0.13202   0.13202   0.15573   0.155731000.00000
     Eigenvalues --- 1000.000001000.000001000.000001000.000001000.00000
     Eigenvalues --- 1000.000001000.000001000.000001000.000001000.00000
     Eigenvalues --- 1000.000001000.000001000.000001000.000001000.00000
     Eigenvalues --- 1000.000001000.000001000.000001000.000001000.00000
     Eigenvalues --- 1000.000001000.000001000.000001000.000001000.00000
     Eigenvalues --- 1000.000001000.000001000.000001000.000001000.00000
     Eigenvalues --- 1000.000001000.000001000.000001000.000001000.00000
     Eigenvalues --- 1000.000001000.000001000.000001000.000001000.00000
     Eigenvalues --- 1000.000001000.000001000.000001000.000001000.00000
     Eigenvalues --- 1000.000001000.000001000.000001000.000001000.00000
     Eigenvalues --- 1000.000001000.000001000.000001000.000001000.00000
     Eigenvalues --- 1000.000001000.000001000.000001000.000001000.00000
     Eigenvalues --- 1000.000001000.000001000.000001000.000001000.00000
     Eigenvalues --- 1000.000001000.000001000.000001000.000001000.00000
     Eigenvalues --- 1000.000001000.000001000.000001000.000001000.00000
     Eigenvalues --- 1000.000001000.000001000.000001000.000001000.00000
     Eigenvalues --- 1000.000001000.000001000.000001000.000001000.00000
     Eigenvalues --- 1000.000001000.000001000.000001000.000001000.00000
     Eigenvalues --- 1000.000001000.000001000.000001000.000001000.00000
     Eigenvalues --- 1000.000001000.000001000.000001000.000001000.00000
     Eigenvalues --- 1000.000001000.000001000.000001000.000001000.00000
     Eigenvalues --- 1000.000001000.000001000.000001000.000001000.00000
     Eigenvalues --- 1000.000001000.000001000.000001000.000001000.00000
     Eigenvalues --- 1000.00000
 En-DIIS/RFO-DIIS IScMMF=        0 using points:     2    1
 RFO step:  Lambda=-3.71202442D-05.
 DIIS coeffs:      2.46666     -1.46666
 Iteration  1 RMS(Cart)=  0.00363328 RMS(Int)=  0.00001293
 Iteration  2 RMS(Cart)=  0.00000581 RMS(Int)=  0.00000946
[...]
  Beta virt. eigenvalues --   14.71367  14.71367  14.72738  14.80026  14.88029
  Beta virt. eigenvalues --   14.94858  14.94858  15.03386  15.03386  15.08140
  Beta virt. eigenvalues --   41.72420  42.26850  42.76224  42.76224  43.44107
  Beta virt. eigenvalues --   43.86561  44.04687  44.04687  46.15475  46.15475
          Condensed to atoms (all electrons):
              1          2          3          4          5          6
     1  Si  13.381304   0.277535   0.277535   0.277535  -0.018137  -0.018137
     2  Si   0.277535  12.988066   0.098515   0.098515  -0.018583   0.236540
     3  Si   0.277535   0.098515  12.988066   0.098515   0.236540   0.236540
     4  Si   0.277535   0.098515   0.098515  12.988066   0.236540  -0.018583
     5  Si  -0.018137  -0.018583   0.236540   0.236540  13.458464   0.015597
     6  Si  -0.018137   0.236540   0.236540  -0.018583   0.015597  13.458464
     7  Si  -0.018137   0.236540  -0.018583   0.236540   0.015597   0.015597
     8  Si   0.017284   0.036908  -0.010775  -0.010775   0.000494   0.157277
     9  Si   0.017284  -0.010775   0.036908  -0.010775   0.157277   0.157277
    10  Si   0.017284  -0.010775  -0.010775   0.036908   0.157277   0.000494
              7          8          9         10
     1  Si  -0.018137   0.017284   0.017284   0.017284
     2  Si   0.236540   0.036908  -0.010775  -0.010775
     3  Si  -0.018583  -0.010775   0.036908  -0.010775
     4  Si   0.236540  -0.010775  -0.010775   0.036908
     5  Si   0.015597   0.000494   0.157277   0.157277
     6  Si   0.015597   0.157277   0.157277   0.000494
     7  Si  13.458464   0.157277   0.000494   0.157277
     8  Si   0.157277  13.373732   0.183955   0.183955
     9  Si   0.000494   0.183955  13.373732   0.183955
    10  Si   0.157277   0.183955   0.183955  13.373732
 Mulliken atomic charges:
              1
     1  Si  -0.211351
     2  Si   0.067515
     3  Si   0.067515
     4  Si   0.067515
     5  Si  -0.241066
     6  Si  -0.241066
     7  Si  -0.241066
     8  Si  -0.089332
     9  Si  -0.089332
    10  Si  -0.089332
 Sum of Mulliken atomic charges =  -1.00000
 Mulliken charges with hydrogens summed into heavy atoms:
              1
     1  Si  -0.211351
     2  Si   0.067515
     3  Si   0.067515
     4  Si   0.067515
     5  Si  -0.241066
     6  Si  -0.241066
     7  Si  -0.241066
     8  Si  -0.089332
     9  Si  -0.089332
    10  Si  -0.089332
 Sum of Mulliken charges with hydrogens summed into heavy atoms =  -1.00000
          Atomic-Atomic Spin Densities.
              1          2          3          4          5          6
     1  Si  -0.081641   0.017650   0.017650   0.017650   0.002185   0.002185
     2  Si   0.017650   0.067997   0.061631   0.061631  -0.010880  -0.043814
     3  Si   0.017650   0.061631   0.067997   0.061631  -0.043814  -0.043814
     4  Si   0.017650   0.061631   0.061631   0.067997  -0.043814  -0.010880
     5  Si   0.002185  -0.010880  -0.043814  -0.043814   0.128521   0.021764
     6  Si   0.002185  -0.043814  -0.043814  -0.010880   0.021764   0.128521
     7  Si   0.002185  -0.043814  -0.010880  -0.043814   0.021764   0.021764
     8  Si   0.005889   0.066161  -0.034469  -0.034469  -0.011615  -0.001021
     9  Si   0.005889  -0.034469   0.066161  -0.034469  -0.001021  -0.001021
    10  Si   0.005889  -0.034469  -0.034469   0.066161  -0.001021  -0.011615
              7          8          9         10
     1  Si   0.002185   0.005889   0.005889   0.005889
     2  Si  -0.043814   0.066161  -0.034469  -0.034469
     3  Si  -0.010880  -0.034469   0.066161  -0.034469
     4  Si  -0.043814  -0.034469  -0.034469   0.066161
     5  Si   0.021764  -0.011615  -0.001021  -0.001021
     6  Si   0.021764  -0.001021  -0.001021  -0.011615
     7  Si   0.128521  -0.001021  -0.011615  -0.001021
     8  Si  -0.001021   0.074182   0.050746   0.050746
     9  Si  -0.011615   0.050746   0.074182   0.050746
    10  Si  -0.001021   0.050746   0.050746   0.074182
 Mulliken atomic spin densities:
              1
     1  Si  -0.004469
     2  Si   0.107623
     3  Si   0.107623
     4  Si   0.107623
     5  Si   0.062069
     6  Si   0.062069
     7  Si   0.062069
     8  Si   0.165130
     9  Si   0.165130
    10  Si   0.165130
 Sum of Mulliken atomic spin densities =   1.00000
 Electronic spatial extent (au):  <R**2>=           2856.2203
 Charge=             -1.0000 electrons
 Dipole moment (field-independent basis, Debye):
    X=              0.0000    Y=              0.0000    Z=              1.3033  Tot=              1.3033
 Quadrupole moment (field-independent basis, Debye-Ang):
   XX=           -160.1506   YY=           -160.1506   ZZ=           -160.7940
   XY=              0.0000   XZ=              0.0000   YZ=              0.0000
 Traceless Quadrupole moment (field-independent basis, Debye-Ang):
   XX=              0.2145   YY=              0.2145   ZZ=             -0.4289
   XY=              0.0000   XZ=              0.0000   YZ=              0.0000
 Octapole moment (field-independent basis, Debye-Ang**2):
  XXX=              0.0000  YYY=            -20.7601  ZZZ=            -12.6067  XYY=              0.0000
  XXY=             20.7601  XXZ=             15.2886  XZZ=              0.0000  YZZ=              0.0000
  YYZ=             15.2886  XYZ=              0.0000
 Hexadecapole moment (field-independent basis, Debye-Ang**3):
 XXXX=          -1786.1092 YYYY=          -1786.1092 ZZZZ=          -2233.4061 XXXY=              0.0000
 XXXZ=              0.0000 YYYX=              0.0000 YYYZ=             -6.7072 ZZZX=              0.0000
 ZZZY=              0.0000 XXYY=           -595.3697 XXZZ=           -639.7136 YYZZ=           -639.7136
 XXYZ=              6.7072 YYXZ=              0.0000 ZZXY=              0.0000
 N-N= 1.531264304650D+03 E-N=-1.495169001244D+04  KE= 4.333528208815D+03
 Symmetry A'   KE= 2.883837795561D+03
 Symmetry A"   KE= 1.449690413254D+03
                          Isotropic Fermi Contact Couplings
        Atom                 a.u.       MegaHertz       Gauss      10(-4) cm-1
     1  Si(29)            -0.11605     103.13707      36.80187      34.40282
     2  Si(29)            -0.03345      29.72578      10.60690       9.91545
     3  Si(29)            -0.03345      29.72578      10.60690       9.91545
     4  Si(29)            -0.03345      29.72578      10.60690       9.91545
     5  Si(29)             0.02887     -25.65902      -9.15578      -8.55893
     6  Si(29)             0.02887     -25.65902      -9.15578      -8.55893
     7  Si(29)             0.02887     -25.65902      -9.15578      -8.55893
     8  Si(29)            -0.06395      56.83780      20.28114      18.95905
     9  Si(29)            -0.06395      56.83780      20.28114      18.95905
    10  Si(29)            -0.06395      56.83780      20.28114      18.95905
 --------------------------------------------------------
       Center         ----  Spin Dipole Couplings  ----
                      3XX-RR        3YY-RR        3ZZ-RR
 --------------------------------------------------------
     1   Atom       -0.438146     -0.438146      0.876291
     2   Atom       -0.187718      0.027084      0.160634
     3   Atom       -0.026616     -0.134017      0.160634
     4   Atom       -0.026616     -0.134017      0.160634
     5   Atom       -0.043573     -0.148295      0.191868
     6   Atom       -0.122115     -0.069753      0.191868
     7   Atom       -0.122115     -0.069753      0.191868
     8   Atom       -0.195714     -0.190075      0.385789
     9   Atom       -0.191485     -0.194304      0.385789
    10   Atom       -0.191485     -0.194304      0.385789
 --------------------------------------------------------
                        XY            XZ            YZ
 --------------------------------------------------------
     1   Atom        0.000000      0.000000      0.000000
     2   Atom        0.000000      0.000000     -0.323541
     3   Atom       -0.093012     -0.280194      0.161770
     4   Atom        0.093012      0.280194      0.161770
     5   Atom        0.000000      0.000000      0.052665
     6   Atom       -0.045346     -0.045610     -0.026333
     7   Atom        0.045346      0.045610     -0.026333
     8   Atom        0.000000      0.000000      0.200482
     9   Atom       -0.002442      0.173622     -0.100241
    10   Atom        0.002442     -0.173622     -0.100241
 --------------------------------------------------------


 ---------------------------------------------------------------------------------
              Anisotropic Spin Dipole Couplings in Principal Axis System
 ---------------------------------------------------------------------------------

       Atom             a.u.   MegaHertz   Gauss  10(-4) cm-1        Axes

              Baa    -0.4381    46.480    16.585    15.504 -0.1821  0.9833  0.0000
     1 Si(29) Bbb    -0.4381    46.480    16.585    15.504  0.9833  0.1821  0.0000
              Bcc     0.8763   -92.961   -33.171   -31.008  0.0000  0.0000  1.0000
 
              Baa    -0.2365    25.089     8.952     8.369  0.0000  0.7753  0.6316
     2 Si(29) Bbb    -0.1877    19.914     7.106     6.643  1.0000  0.0000  0.0000
              Bcc     0.4242   -45.003   -16.058   -15.011  0.0000 -0.6316  0.7753
 
              Baa    -0.2365    25.089     8.952     8.369  0.6714 -0.3876  0.6316
     3 Si(29) Bbb    -0.1877    19.914     7.106     6.643  0.5000  0.8660  0.0000
              Bcc     0.4242   -45.003   -16.058   -15.011 -0.5470  0.3158  0.7753
 
              Baa    -0.2365    25.089     8.952     8.369  0.6714  0.3876 -0.6316
     4 Si(29) Bbb    -0.1877    19.914     7.106     6.643 -0.5000  0.8660  0.0000
              Bcc     0.4242   -45.003   -16.058   -15.011  0.5470  0.3158  0.7753
 
              Baa    -0.1563    16.577     5.915     5.529  0.0000  0.9887 -0.1496
     5 Si(29) Bbb    -0.0436     4.622     1.649     1.542  1.0000  0.0000  0.0000
              Bcc     0.1998   -21.199    -7.564    -7.071  0.0000  0.1496  0.9887
 
              Baa    -0.1563    16.577     5.915     5.529  0.8563  0.4944  0.1496
     6 Si(29) Bbb    -0.0436     4.622     1.649     1.542 -0.5000  0.8660  0.0000
              Bcc     0.1998   -21.199    -7.564    -7.071 -0.1295 -0.0748  0.9887
 
              Baa    -0.1563    16.577     5.915     5.529  0.8563 -0.4944 -0.1496
     7 Si(29) Bbb    -0.0436     4.622     1.649     1.542  0.5000  0.8660  0.0000
              Bcc     0.1998   -21.199    -7.564    -7.071  0.1295 -0.0748  0.9887
 
              Baa    -0.2530    26.839     9.577     8.952  0.0000  0.9541 -0.2994
     8 Si(29) Bbb    -0.1957    20.762     7.408     6.926  1.0000  0.0000  0.0000
              Bcc     0.4487   -47.601   -16.985   -15.878  0.0000  0.2994  0.9541
 
              Baa    -0.2530    26.839     9.577     8.952  0.8263 -0.4771 -0.2994
     9 Si(29) Bbb    -0.1957    20.762     7.408     6.926  0.5000  0.8660  0.0000
              Bcc     0.4487   -47.601   -16.985   -15.878  0.2593 -0.1497  0.9541
 
              Baa    -0.2530    26.839     9.577     8.952  0.8263  0.4771  0.2994
    10 Si(29) Bbb    -0.1957    20.762     7.408     6.926 -0.5000  0.8660  0.0000
              Bcc     0.4487   -47.601   -16.985   -15.878 -0.2593 -0.1497  0.9541
 

 ---------------------------------------------------------------------------------

 1\1\GINC-NODE194\SP\UHF\GFHFB2\Si10(1-,2)\TAM\05-Mar-2012\0\\#N Geom=A
 llCheck Guess=TCheck SCRF=Check HF/GFHFB2 SCF=Tight\\si10-an-d\\-1,2\S
 i,0,0.,0.,2.842197601\Si,0,-0.0000000004,1.5212663509,0.9848377189\Si,
 0,1.317455306,-0.7606331751,0.9848377189\Si,0,-1.3174553056,-0.7606331
 758,0.9848377189\Si,0,0.0000000006,-2.3909104753,-0.2654108401\Si,0,2.
 0705892095,1.1954552382,-0.2654108401\Si,0,-2.0705892101,1.1954552371,
 -0.2654108401\Si,0,-0.0000000004,1.4548392049,-1.6668263107\Si,0,1.259
 9277101,-0.7274196021,-1.6668263107\Si,0,-1.2599277097,-0.7274196028,-
 1.6668263107\\Version=AM64L-G09RevA.02\State=2-A1\HF=-2889.3711901\S2=
 0.894692\S2-1=0.\S2A=0.770328\RMSD=8.450e-09\Dipole=0.,0.,0.5127391\Qu
 adrupole=0.1594509,0.1594509,-0.3189019,0.,0.,0.\PG=C03V [C3(Si1),3SGV
 (Si3)]\\@


 EVERY WORD THAT YOU WRITE IS A BLOW THAT SMITES THE DEVIL.
     -- ST. BERNARD OF CLAIRVAUX
 Diagonal vibrational polarizability:
        0.0000000       0.0000000       0.0000000

 Temperature=              298.150000 Pressure=                      1.000000
 E(ZPE)=                     0.014668 E(Thermal)=                    0.028874
 E(CCSD(T))=             -2890.124202 E(Empiric)=                   -0.145001
 DE(Plus)=                  -0.027926 DE(2DF)=                      -0.362896
 E(Delta-G3XP)=             -3.138628 DE(HF)=                       -0.066599
 G4(0 K)=                -2893.850584 G4 Energy=                 -2893.836378
 G4 Enthalpy=            -2893.835434 G4 Free Energy=            -2893.890659
 1\1\GINC-NODE194\Mixed\G4\G4\Si10(1-,2)\TAM\05-Mar-2012\0\\# G4 scfcyc
 =500 scf=xqc\\si10-an-d\\-1,2\Si,0,0.,0.,2.842197601\Si,0,-0.000000000
 4,1.5212663509,0.9848377189\Si,0,1.317455306,-0.7606331751,0.984837718
 9\Si,0,-1.3174553056,-0.7606331758,0.9848377189\Si,0,0.0000000006,-2.3
 909104753,-0.2654108401\Si,0,2.0705892095,1.1954552382,-0.2654108401\S
 i,0,-2.0705892101,1.1954552371,-0.2654108401\Si,0,-0.0000000004,1.4548
 392049,-1.6668263107\Si,0,1.2599277101,-0.7274196021,-1.6668263107\Si,
 0,-1.2599277097,-0.7274196028,-1.6668263107\\Version=AM64L-G09RevA.02\
 State=2-A1\MP2/GTBas1=-2890.0683473\MP4/GTBas1=-2890.2025\CCSD(T)/G3Ba
 s1=-2890.1242019\MP2/GTBas2=-2890.0928665\MP4/GTBas2=-2890.2304261\MP2
 /GTBas3=-2890.3950022\MP4/GTBas3=-2890.5653964\HF/GTLargeXP=-2889.3070
 341\MP2/GTLargeXP=-2893.5581495\HF/GFHFB1=-2889.3611662\HF/GFHFB2=-288
 9.3711901\G4=-2893.8505839\FreqCoord=0.,0.,5.3709750814,-0.0000000008,
 2.8747767785,1.861073574,2.4896297207,-1.4373883886,1.861073574,-2.489
 62972,-1.4373883899,1.861073574,0.0000000012,-4.5181660066,-0.50155380
 05,3.9128465396,2.2590830043,-0.5015538005,-3.9128465408,2.2590830023,
 -0.5015538005,-0.0000000007,2.7492476647,-3.1498452383,2.3809183193,-1
 .3746238317,-3.1498452383,-2.3809183186,-1.374623833,-3.1498452383\PG=
 C03V [C3(Si1),3SGV(Si3)]\NImag=0\\0.03661191,0.,0.03661183,0.,-0.00000
 050,0.12909245,-0.00331098,0.,0.,0.07895439,0.,-0.01184660,0.02704436,
 0.,0.06016192,0.,0.03269735,-0.03871030,0.,-0.00836240,0.09584202,-0.0
 0971271,0.00369597,0.02342117,-0.00512826,0.01224770,-0.00944217,0.064
 86004,0.00369605,-0.00544491,-0.01352214,0.00914466,-0.01747915,-0.004
 62871,0.00813738,0.07425627,0.02831655,-0.01634857,-0.03870978,-0.0087
 2967,-0.00586280,0.00382572,-0.00724205,0.00418120,0.09584202,-0.00971
 271,-0.00369597,-0.02342117,-0.00512826,-0.01224770,0.00944217,-0.0236
 5459,0.00155152,0.00071250,0.06486004,-0.00369605,-0.00544491,-0.01352
 214,-0.00914466,-0.01747915,-0.00462871,-0.00155152,0.00104718,0.01049
 151,-0.00813738,0.07425627,-0.02831655,-0.01634857,-0.03870978,0.00872
 967,-0.00586280,0.00382572,-0.00071250,0.01049151,0.00382572,0.0072420
 5,0.00418120,0.09584202,0.00065299,0.,0.,-0.00673043,0.,0.,-0.00990063
 ,-0.01965636,-0.01106697,-0.00990063,0.01965636,0.01106697,0.04566912,
 0.,-0.00141074,0.00238761,0.,-0.01013831,0.00155034,-0.01219319,-0.025
 22890,-0.01163853,0.01219319,-0.02522890,-0.01163853,0.,0.11324233,0.,
 -0.00463327,-0.00203707,0.,-0.00743840,0.00016251,-0.00840714,-0.01375
 313,-0.01262843,0.00840714,-0.01375313,-0.01262843,0.,0.00768292,0.049
 70690,-0.00089475,-0.00089381,-0.00206784,-0.03518809,-0.00240654,0.01
 561275,-0.00760557,-0.01086814,0.00454578,-0.00928634,-0.00147565,-0.0
 0134264,-0.00135757,0.00141429,0.00046474,0.09634902,-0.00089356,0.000
 13713,-0.00119366,0.00505664,0.00005856,-0.00376501,-0.01833131,-0.027
 52396,0.01540355,-0.00147565,-0.00758240,-0.00077517,-0.00437611,-0.00
 306757,0.00081054,0.02926006,0.06256242,0.00401262,0.00231677,-0.00203
 688,0.01611413,-0.00040423,-0.01262843,0.00770700,0.01415736,-0.012628
 43,0.00644184,0.00371920,0.00016251,-0.00046958,-0.00080774,-0.0026583
 1,-0.00665360,-0.00384146,0.04970690,-0.00089475,0.00089381,0.00206784
 ,-0.03518809,0.00240654,-0.01561275,-0.00928634,0.00147565,0.00134264,
 -0.00760557,0.01086814,-0.00454578,-0.00135757,-0.00141429,-0.00046474
 ,-0.00392258,0.00289520,-0.00093432,0.09634902,0.00089356,0.00013713,-
 0.00119366,-0.00505664,0.00005856,-0.00376501,0.00147565,-0.00758240,-
 0.00077517,0.01833131,-0.02752396,0.01540355,0.00437611,-0.00306757,0.
 00081054,-0.00289520,-0.00050256,-0.00000280,-0.02926006,0.06256242,-0
 .00401262,0.00231677,-0.00203688,-0.01611413,-0.00040423,-0.01262843,-
 0.00644184,0.00371920,0.00016251,-0.00770700,0.01415736,-0.01262843,0.
 00046958,-0.00080774,-0.00265831,0.00093432,-0.00000280,-0.00265831,0.
 00665360,-0.00384146,0.04970690,-0.00457270,0.,0.,0.00815132,0.,0.,0.0
 0216466,0.00924544,-0.00562110,0.00216466,-0.00924544,0.00562110,-0.00
 382798,0.,0.,-0.02553585,0.00267085,-0.01472877,-0.02553585,-0.0026708
 5,0.01472877,0.06884026,0.,-0.00391991,-0.00247132,0.,0.00418183,0.002
 71874,0.00079547,-0.00413918,0.00208018,-0.00079547,-0.00413918,0.0020
 8018,0.,-0.00660424,0.00514794,-0.00269875,-0.00033594,0.00038506,0.00
 269875,-0.00033594,0.00038506,0.,0.07120510,0.,0.00548861,-0.00228495,
 0.,-0.00609516,-0.02087758,0.00619373,0.00334186,-0.00940552,-0.006193
 73,0.00334186,-0.00940552,0.,-0.00327119,-0.00340311,-0.01189878,0.004
 06601,-0.00692762,0.01189878,0.00406601,-0.00692762,0.,-0.01619684,0.0
 4710626,-0.00408315,-0.00028278,-0.00214072,0.00178462,0.00101488,-0.0
 0100907,0.00517420,0.00171884,0.00235449,-0.00691106,0.00444440,0.0046
 1204,-0.00662383,-0.00822011,0.00769786,-0.00664800,-0.01360365,-0.007
 03091,-0.00591018,0.00120216,0.00445825,-0.01092403,0.01478854,0.00490
 732,0.07061389,-0.00028270,-0.00440953,0.00123560,0.00946486,-0.003759
 14,-0.00590811,0.00171884,0.00715895,-0.00135937,-0.00400557,0.0049365
 4,0.00382793,-0.01358970,-0.01924795,0.01256295,-0.00823406,-0.0192237
 9,-0.01294802,0.00120216,-0.00452204,-0.00257397,0.01471259,-0.0279565
 2,0.00262901,-0.00102401,0.06943147,0.00475341,-0.00274442,-0.00228453
 ,0.00599100,0.00369300,-0.00940552,-0.00527856,0.00304758,-0.02087758,
 -0.00020273,-0.00703486,-0.00940552,0.00947066,0.00827164,-0.00692762,
 -0.00242812,-0.01233765,-0.00692762,-0.00283293,0.00163559,-0.00340311
 ,0.00473045,0.00293536,0.00606248,-0.01402687,0.00809842,0.04710626,-0
 .00408315,0.00028278,0.00214072,0.00178462,-0.00101488,0.00100907,-0.0
 0691106,-0.00444440,-0.00461204,0.00517420,-0.00171884,-0.00235449,-0.
 00662383,0.00822011,-0.00769786,-0.00591018,-0.00120216,-0.00445825,-0
 .00664800,0.01360365,0.00703091,-0.01092403,-0.01478854,-0.00490732,-0
 .03647276,0.00003798,-0.00017687,0.07061389,0.00028270,-0.00440953,0.0
 0123560,-0.00946486,-0.00375914,-0.00590811,0.00400557,0.00493654,0.00
 382793,-0.00171884,0.00715895,-0.00135937,0.01358970,-0.01924795,0.012
 56295,-0.00120216,-0.00452204,-0.00257397,0.00823406,-0.01922379,-0.01
 294802,-0.01471259,-0.02795652,0.00262901,-0.00003798,-0.00240779,-0.0
 0556437,0.00102401,0.06943147,-0.00475341,-0.00274442,-0.00228453,-0.0
 0599100,0.00369300,-0.00940552,0.00020273,-0.00703486,-0.00940552,0.00
 527856,0.00304758,-0.02087758,-0.00947066,0.00827164,-0.00692762,0.002
 83293,0.00163559,-0.00340311,0.00242812,-0.01233765,-0.00692762,-0.004
 73045,0.00293536,0.00606248,0.00017687,-0.00556437,0.00606248,0.014026
 87,0.00809842,0.04710626\\0.,0.,0.00000021,0.,0.00005013,0.00005992,0.
 00004341,-0.00002506,0.00005992,-0.00004341,-0.00002506,0.00005992,0.,
 -0.00002716,-0.00000040,0.00002352,0.00001358,-0.00000040,-0.00002352,
 0.00001358,-0.00000040,0.,0.00004117,-0.00005959,0.00003565,-0.0000205
 8,-0.00005959,-0.00003565,-0.00002058,-0.00005959\\\@
 Job cpu time:  0 days 16 hours 25 minutes 24.6 seconds.
 File lengths (MBytes):  RWF= 195383 Int=      0 D2E=      0 Chk=     58 Scr=      1
 Normal termination of Gaussian 09 at Mon Mar  5 23:03:13 2012.
