 Entering Gaussian System, Link 0=g09
 Initial command:
 /usr/local/chem/g09A2/l1.exe /temp0/tam/Gau-17880.inp -scrdir=/temp0/tam/
 Entering Link 1 = /usr/local/chem/g09A2/l1.exe PID=     17881.
  
 Copyright (c) 1988,1990,1992,1993,1995,1998,2003,2009, Gaussian, Inc.
                  All Rights Reserved.
  
 This is part of the Gaussian(R) 09 program.  It is based on
 the Gaussian(R) 03 system (copyright 2003, Gaussian, Inc.),
 the Gaussian(R) 98 system (copyright 1998, Gaussian, Inc.),
 the Gaussian(R) 94 system (copyright 1995, Gaussian, Inc.),
 the Gaussian 92(TM) system (copyright 1992, Gaussian, Inc.),
 the Gaussian 90(TM) system (copyright 1990, Gaussian, Inc.),
 the Gaussian 88(TM) system (copyright 1988, Gaussian, Inc.),
 the Gaussian 86(TM) system (copyright 1986, Carnegie Mellon
 University), and the Gaussian 82(TM) system (copyright 1983,
 Carnegie Mellon University). Gaussian is a federally registered
 trademark of Gaussian, Inc.
  
 This software contains proprietary and confidential information,
 including trade secrets, belonging to Gaussian, Inc.
  
 This software is provided under written license and may be
 used, copied, transmitted, or stored only in accord with that
 written license.
  
 The following legend is applicable only to US Government
 contracts under FAR:
  
                    RESTRICTED RIGHTS LEGEND
  
 Use, reproduction and disclosure by the US Government is
 subject to restrictions as set forth in subparagraphs (a)
 and (c) of the Commercial Computer Software - Restricted
 Rights clause in FAR 52.227-19.
  
 Gaussian, Inc.
 340 Quinnipiac St., Bldg. 40, Wallingford CT 06492
  
  
 ---------------------------------------------------------------
 Warning -- This program may not be used in any manner that
 competes with the business of Gaussian, Inc. or will provide
 assistance to any competitor of Gaussian, Inc.  The licensee
 of this program is prohibited from giving any competitor of
 Gaussian, Inc. access to this program.  By using this program,
 the user acknowledges that Gaussian, Inc. is engaged in the
 business of creating and licensing software in the field of
 computational chemistry and represents and warrants to the
 licensee that it is not a competitor of Gaussian, Inc. and that
 it will not use this program in any manner prohibited above.
 ---------------------------------------------------------------
  

 Cite this work as:
 Gaussian 09, Revision A.02,
 M. J. Frisch, G. W. Trucks, H. B. Schlegel, G. E. Scuseria, 
 M. A. Robb, J. R. Cheeseman, G. Scalmani, V. Barone, B. Mennucci, 
 G. A. Petersson, H. Nakatsuji, M. Caricato, X. Li, H. P. Hratchian, 
 A. F. Izmaylov, J. Bloino, G. Zheng, J. L. Sonnenberg, M. Hada, 
 M. Ehara, K. Toyota, R. Fukuda, J. Hasegawa, M. Ishida, T. Nakajima, 
 Y. Honda, O. Kitao, H. Nakai, T. Vreven, J. A. Montgomery, Jr., 
 J. E. Peralta, F. Ogliaro, M. Bearpark, J. J. Heyd, E. Brothers, 
 K. N. Kudin, V. N. Staroverov, R. Kobayashi, J. Normand, 
 K. Raghavachari, A. Rendell, J. C. Burant, S. S. Iyengar, J. Tomasi, 
 M. Cossi, N. Rega, J. M. Millam, M. Klene, J. E. Knox, J. B. Cross, 
 V. Bakken, C. Adamo, J. Jaramillo, R. Gomperts, R. E. Stratmann, 
 O. Yazyev, A. J. Austin, R. Cammi, C. Pomelli, J. W. Ochterski, 
 R. L. Martin, K. Morokuma, V. G. Zakrzewski, G. A. Voth, 
 P. Salvador, J. J. Dannenberg, S. Dapprich, A. D. Daniels, 
 O. Farkas, J. B. Foresman, J. V. Ortiz, J. Cioslowski, 
 and D. J. Fox, Gaussian, Inc., Wallingford CT, 2009.
 
 ******************************************
 Gaussian 09:  AM64L-G09RevA.02 11-Jun-2009
                20-Dec-2011 
 ******************************************
 %NprocShared=12
 Will use up to   12 processors via shared memory.
 %mem=70050MB
 %chk=S9L-ne-d-01
 -----------------------
 # G4 scfcyc=500 scf=xqc
 -----------------------
 1/14=-1,18=20,19=15,26=3,38=1/1,3;
 2/9=110,12=2,17=6,18=5,40=1/2;
 3/5=35,7=104,11=2,16=1,25=1,30=1,71=1,74=-5/1,2,3;
 4//1;
 5/5=2,7=500,8=3,13=1,38=5/2,8;
 6/7=2,8=2,9=2,10=2,28=1/1;
 7//1,2,3,16;
 1/14=-1,18=20,19=15/3(2);
 2/9=110/2;
 99//99;
 2/9=110/2;
 3/5=35,7=104,11=2,16=1,25=1,30=1,71=1,74=-5/1,2,3;
 4/5=5,16=3/1;
 5/5=2,7=500,8=3,13=1,38=5/2,8;
 7//1,2,3,16;
 1/14=-1,18=20,19=15/3(-5);
 2/9=110/2;
 6/7=2,8=2,9=2,10=2,19=2,28=1/1;
 99/9=1/99;
 ------
 si10-n
 ------
 Symbolic Z-matrix:
 Charge =  0 Multiplicity = 1
 Si                    2.12163  -1.22492   0.25259 
 Si                    1.38671   0.80061  -0.94836 
 Si                    0.       -1.60123  -0.94836 
 Si                    0.       -1.48279   1.58973 
 Si                   -2.12163  -1.22492   0.25259 
 Si                    0.        0.       -2.68188 
 Si                    1.28413   0.7414    1.58973 
 Si                    0.        2.44985   0.25259 
 Si                   -1.38671   0.80061  -0.94836 
 Si                   -1.28413   0.7414    1.58973 
 

 GradGradGradGradGradGradGradGradGradGradGradGradGradGradGradGradGradGrad
 Berny optimization.
 Initialization pass.
                           ----------------------------
                           !    Initial Parameters    !
                           ! (Angstroms and Degrees)  !
 --------------------------                            --------------------------
 ! Name  Definition              Value          Derivative Info.                !
 --------------------------------------------------------------------------------
 ! R1    R(1,2)                  2.4668         estimate D2E/DX2                !
 ! R2    R(1,3)                  2.4668         estimate D2E/DX2                !
 ! R3    R(1,4)                  2.5211         estimate D2E/DX2                !
 ! R4    R(1,7)                  2.5211         estimate D2E/DX2                !
 ! R5    R(2,3)                  2.7734         estimate D2E/DX2                !
 ! R6    R(2,6)                  2.3599         estimate D2E/DX2                !
 ! R7    R(2,7)                  2.5409         estimate D2E/DX2                !
 ! R8    R(2,8)                  2.4668         estimate D2E/DX2                !
 ! R9    R(2,9)                  2.7734         estimate D2E/DX2                !
 ! R10   R(3,4)                  2.5409         estimate D2E/DX2                !
 ! R11   R(3,5)                  2.4668         estimate D2E/DX2                !
 ! R12   R(3,6)                  2.3599         estimate D2E/DX2                !
 ! R13   R(3,9)                  2.7734         estimate D2E/DX2                !
 ! R14   R(4,5)                  2.5211         estimate D2E/DX2                !
 ! R15   R(4,7)                  2.5683         estimate D2E/DX2                !
 ! R16   R(4,10)                 2.5683         estimate D2E/DX2                !
 ! R17   R(5,9)                  2.4668         estimate D2E/DX2                !
 ! R18   R(5,10)                 2.5211         estimate D2E/DX2                !
 ! R19   R(6,9)                  2.3599         estimate D2E/DX2                !
 ! R20   R(7,8)                  2.5211         estimate D2E/DX2                !
 ! R21   R(7,10)                 2.5683         estimate D2E/DX2                !
 ! R22   R(8,9)                  2.4668         estimate D2E/DX2                !
 ! R23   R(8,10)                 2.5211         estimate D2E/DX2                !
 ! R24   R(9,10)                 2.5409         estimate D2E/DX2                !
 ! A1    A(2,1,4)               95.2489         estimate D2E/DX2                !
 ! A2    A(3,1,7)               95.2489         estimate D2E/DX2                !
 ! A3    A(1,2,6)              104.7213         estimate D2E/DX2                !
 ! A4    A(1,2,8)              118.6481         estimate D2E/DX2                !
 ! A5    A(1,2,9)              107.3329         estimate D2E/DX2                !
 ! A6    A(3,2,7)               87.6864         estimate D2E/DX2                !
 ! A7    A(3,2,8)              107.3329         estimate D2E/DX2                !
 ! A8    A(6,2,7)              134.6            estimate D2E/DX2                !
 ! A9    A(6,2,8)              104.7213         estimate D2E/DX2                !
 ! A10   A(7,2,9)               87.6864         estimate D2E/DX2                !
 ! A11   A(1,3,5)              118.6481         estimate D2E/DX2                !
 ! A12   A(1,3,6)              104.7213         estimate D2E/DX2                !
 ! A13   A(1,3,9)              107.3329         estimate D2E/DX2                !
 ! A14   A(2,3,4)               87.6864         estimate D2E/DX2                !
 ! A15   A(2,3,5)              107.3329         estimate D2E/DX2                !
 ! A16   A(4,3,6)              134.6            estimate D2E/DX2                !
 ! A17   A(4,3,9)               87.6864         estimate D2E/DX2                !
 ! A18   A(5,3,6)              104.7213         estimate D2E/DX2                !
 ! A19   A(1,4,5)              114.6106         estimate D2E/DX2                !
 ! A20   A(1,4,10)             109.4023         estimate D2E/DX2                !
 ! A21   A(3,4,7)               92.3136         estimate D2E/DX2                !
 ! A22   A(3,4,10)              92.3136         estimate D2E/DX2                !
 ! A23   A(5,4,7)              109.4023         estimate D2E/DX2                !
 ! A24   A(3,5,10)              95.2489         estimate D2E/DX2                !
 ! A25   A(4,5,9)               95.2489         estimate D2E/DX2                !
 ! A26   A(1,7,8)              114.6106         estimate D2E/DX2                !
 ! A27   A(1,7,10)             109.4023         estimate D2E/DX2                !
 ! A28   A(2,7,4)               92.3136         estimate D2E/DX2                !
 ! A29   A(2,7,10)              92.3136         estimate D2E/DX2                !
 ! A30   A(4,7,8)              109.4023         estimate D2E/DX2                !
 ! A31   A(2,8,10)              95.2489         estimate D2E/DX2                !
 ! A32   A(7,8,9)               95.2489         estimate D2E/DX2                !
 ! A33   A(2,9,5)              107.3329         estimate D2E/DX2                !
 ! A34   A(2,9,10)              87.6864         estimate D2E/DX2                !
 ! A35   A(3,9,8)              107.3329         estimate D2E/DX2                !
 ! A36   A(3,9,10)              87.6864         estimate D2E/DX2                !
 ! A37   A(5,9,6)              104.7213         estimate D2E/DX2                !
 ! A38   A(5,9,8)              118.6481         estimate D2E/DX2                !
 ! A39   A(6,9,8)              104.7213         estimate D2E/DX2                !
 ! A40   A(6,9,10)             134.6            estimate D2E/DX2                !
 ! A41   A(4,10,8)             109.4023         estimate D2E/DX2                !
 ! A42   A(4,10,9)              92.3136         estimate D2E/DX2                !
 ! A43   A(5,10,7)             109.4023         estimate D2E/DX2                !
 ! A44   A(5,10,8)             114.6106         estimate D2E/DX2                !
 ! A45   A(7,10,9)              92.3136         estimate D2E/DX2                !
 ! D1    D(4,1,2,6)            -80.2653         estimate D2E/DX2                !
 ! D2    D(4,1,2,8)             36.0259         estimate D2E/DX2                !
 ! D3    D(4,1,2,9)            -23.939          estimate D2E/DX2                !
 ! D4    D(7,1,3,5)            -36.0259         estimate D2E/DX2                !
 ! D5    D(7,1,3,6)             80.2653         estimate D2E/DX2                !
 ! D6    D(7,1,3,9)             23.939          estimate D2E/DX2                !
 ! D7    D(2,1,4,5)             45.8136         estimate D2E/DX2                !
 ! D8    D(2,1,4,10)           -18.5499         estimate D2E/DX2                !
 ! D9    D(3,1,7,8)            -45.8136         estimate D2E/DX2                !
 ! D10   D(3,1,7,10)            18.5499         estimate D2E/DX2                !
 ! D11   D(7,2,3,4)              0.0            estimate D2E/DX2                !
 ! D12   D(7,2,3,5)             57.9995         estimate D2E/DX2                !
 ! D13   D(8,2,3,4)            -57.9995         estimate D2E/DX2                !
 ! D14   D(8,2,3,5)              0.0            estimate D2E/DX2                !
 ! D15   D(3,2,7,4)              0.0            estimate D2E/DX2                !
 ! D16   D(3,2,7,10)           -60.054          estimate D2E/DX2                !
 ! D17   D(6,2,7,4)             30.027          estimate D2E/DX2                !
 ! D18   D(6,2,7,10)           -30.027          estimate D2E/DX2                !
 ! D19   D(9,2,7,4)             60.054          estimate D2E/DX2                !
 ! D20   D(9,2,7,10)             0.0            estimate D2E/DX2                !
 ! D21   D(1,2,8,10)           -36.0259         estimate D2E/DX2                !
 ! D22   D(3,2,8,10)            23.939          estimate D2E/DX2                !
 ! D23   D(6,2,8,10)            80.2653         estimate D2E/DX2                !
 ! D24   D(1,2,9,5)              0.0            estimate D2E/DX2                !
 ! D25   D(1,2,9,10)            57.9995         estimate D2E/DX2                !
 ! D26   D(7,2,9,5)            -57.9995         estimate D2E/DX2                !
 ! D27   D(7,2,9,10)             0.0            estimate D2E/DX2                !
 ! D28   D(2,3,4,7)              0.0            estimate D2E/DX2                !
 ! D29   D(2,3,4,10)            60.054          estimate D2E/DX2                !
 ! D30   D(6,3,4,7)            -30.027          estimate D2E/DX2                !
 ! D31   D(6,3,4,10)            30.027          estimate D2E/DX2                !
 ! D32   D(9,3,4,7)            -60.054          estimate D2E/DX2                !
 ! D33   D(9,3,4,10)             0.0            estimate D2E/DX2                !
 ! D34   D(1,3,5,10)            36.0259         estimate D2E/DX2                !
 ! D35   D(2,3,5,10)           -23.939          estimate D2E/DX2                !
 ! D36   D(6,3,5,10)           -80.2653         estimate D2E/DX2                !
 ! D37   D(1,3,9,8)              0.0            estimate D2E/DX2                !
 ! D38   D(1,3,9,10)           -57.9995         estimate D2E/DX2                !
 ! D39   D(4,3,9,8)             57.9995         estimate D2E/DX2                !
 ! D40   D(4,3,9,10)             0.0            estimate D2E/DX2                !
 ! D41   D(1,4,5,9)            -45.8136         estimate D2E/DX2                !
 ! D42   D(7,4,5,9)             18.5499         estimate D2E/DX2                !
 ! D43   D(3,4,7,2)              0.0            estimate D2E/DX2                !
 ! D44   D(3,4,7,8)             57.1199         estimate D2E/DX2                !
 ! D45   D(5,4,7,2)            -57.1199         estimate D2E/DX2                !
 ! D46   D(5,4,7,8)              0.0            estimate D2E/DX2                !
 ! D47   D(1,4,10,8)             0.0            estimate D2E/DX2                !
 ! D48   D(1,4,10,9)            57.1199         estimate D2E/DX2                !
 ! D49   D(3,4,10,8)           -57.1199         estimate D2E/DX2                !
 ! D50   D(3,4,10,9)             0.0            estimate D2E/DX2                !
 ! D51   D(4,5,9,2)             23.939          estimate D2E/DX2                !
 ! D52   D(4,5,9,6)             80.2653         estimate D2E/DX2                !
 ! D53   D(4,5,9,8)            -36.0259         estimate D2E/DX2                !
 ! D54   D(3,5,10,7)           -18.5499         estimate D2E/DX2                !
 ! D55   D(3,5,10,8)            45.8136         estimate D2E/DX2                !
 ! D56   D(1,7,8,9)             45.8136         estimate D2E/DX2                !
 ! D57   D(4,7,8,9)            -18.5499         estimate D2E/DX2                !
 ! D58   D(1,7,10,5)             0.0            estimate D2E/DX2                !
 ! D59   D(1,7,10,9)           -57.1199         estimate D2E/DX2                !
 ! D60   D(2,7,10,5)            57.1199         estimate D2E/DX2                !
 ! D61   D(2,7,10,9)             0.0            estimate D2E/DX2                !
 ! D62   D(7,8,9,3)            -23.939          estimate D2E/DX2                !
 ! D63   D(7,8,9,5)             36.0259         estimate D2E/DX2                !
 ! D64   D(7,8,9,6)            -80.2653         estimate D2E/DX2                !
 ! D65   D(2,8,10,4)            18.5499         estimate D2E/DX2                !
 ! D66   D(2,8,10,5)           -45.8136         estimate D2E/DX2                !
 ! D67   D(2,9,10,4)           -60.054          estimate D2E/DX2                !
 ! D68   D(2,9,10,7)             0.0            estimate D2E/DX2                !
 ! D69   D(3,9,10,4)             0.0            estimate D2E/DX2                !
 ! D70   D(3,9,10,7)            60.054          estimate D2E/DX2                !
 ! D71   D(6,9,10,4)           -30.027          estimate D2E/DX2                !
 ! D72   D(6,9,10,7)            30.027          estimate D2E/DX2                !
 --------------------------------------------------------------------------------
 Trust Radius=3.00D-01 FncErr=1.00D-07 GrdErr=1.00D-06
 Number of steps in this run= 100 maximum allowed number of steps= 100.
 GradGradGradGradGradGradGradGradGradGradGradGradGradGradGradGradGradGrad

                          Input orientation:                          
 ---------------------------------------------------------------------
 Center     Atomic      Atomic             Coordinates (Angstroms)
 Number     Number       Type             X           Y           Z
 ---------------------------------------------------------------------
      1         14           0        2.121630   -1.224924    0.252589
      2         14           0        1.386706    0.800615   -0.948363
      3         14           0        0.000000   -1.601230   -0.948363
      4         14           0        0.000000   -1.482790    1.589735
      5         14           0       -2.121630   -1.224924    0.252589
      6         14           0        0.000000    0.000000   -2.681883
      7         14           0        1.284134    0.741395    1.589735
      8         14           0        0.000000    2.449847    0.252589
      9         14           0       -1.386706    0.800615   -0.948363
     10         14           0       -1.284134    0.741395    1.589735
 ---------------------------------------------------------------------
                    Distance matrix (angstroms):
                    1          2          3          4          5
     1  Si   0.000000
     2  Si   2.466821   0.000000
     3  Si   2.466821   2.773412   0.000000
     4  Si   2.521065   3.684947   2.540860   0.000000
     5  Si   4.243260   4.225341   2.466821   2.521065   0.000000
     6  Si   3.822679   2.359879   2.359879   4.521657   3.822679
     7  Si   2.521065   2.540860   3.684947   2.568268   4.153745
     8  Si   4.243260   2.466821   4.225341   4.153745   4.243260
     9  Si   4.225341   2.773412   2.773412   3.684947   2.466821
    10  Si   4.153745   3.684947   3.684947   2.568268   2.521065
                    6          7          8          9         10
     6  Si   0.000000
     7  Si   4.521657   0.000000
     8  Si   3.822679   2.521065   0.000000
     9  Si   2.359879   3.684947   2.466821   0.000000
    10  Si   4.521657   2.568268   2.521065   2.540860   0.000000
 Stoichiometry    Si10
 Framework group  C3V[C3(Si),3SGV(Si3)]
 Deg. of freedom     6
 Full point group                 C3V     NOp   6
 Largest Abelian subgroup         CS      NOp   2
 Largest concise Abelian subgroup CS      NOp   2
                         Standard orientation:                         
 ---------------------------------------------------------------------
 Center     Atomic      Atomic             Coordinates (Angstroms)
 Number     Number       Type             X           Y           Z
 ---------------------------------------------------------------------
      1         14           0        0.000000    2.449847   -0.252589
      2         14           0        1.386706    0.800615    0.948363
      3         14           0       -1.386706    0.800615    0.948363
      4         14           0       -1.284134    0.741395   -1.589735
      5         14           0       -2.121630   -1.224924   -0.252589
      6         14           0        0.000000    0.000000    2.681883
      7         14           0        1.284134    0.741395   -1.589735
      8         14           0        2.121630   -1.224924   -0.252589
      9         14           0        0.000000   -1.601230    0.948363
     10         14           0        0.000000   -1.482790   -1.589735
 ---------------------------------------------------------------------
 Rotational constants (GHZ):      0.5593812      0.5342778      0.5342778
 Standard basis: GTBas3 (6D, 7F)
 There are   184 symmetry adapted basis functions of A'  symmetry.
 There are   136 symmetry adapted basis functions of A"  symmetry.
 Integral buffers will be    131072 words long.
 Raffenetti 2 integral format.
 Two-electron integral symmetry is turned on.
   320 basis functions,   680 primitive gaussians,   350 cartesian basis functions
    70 alpha electrons       70 beta electrons
       nuclear repulsion energy      1527.7498640453 Hartrees.
 NAtoms=   10 NActive=   10 NUniq=    4 SFac= 3.00D+00 NAtFMM=   80 NAOKFM=F Big=F
 One-electron integrals computed using PRISM.
 NBasis=   320 RedAO= T  NBF=   184   136
 NBsUse=   320 1.00D-06 NBFU=   184   136
 Harris functional with IExCor=  402 diagonalized for initial guess.
 ExpMin= 7.78D-02 ExpMax= 1.61D+04 ExpMxC= 2.43D+03 IAcc=2 IRadAn=         0 AccDes= 0.00D+00
 HarFok:  IExCor=  402 AccDes= 0.00D+00 IRadAn=         0 IDoV= 1
 ScaDFX=  1.000000  1.000000  1.000000  1.000000
 FoFCou: FMM=F IPFlag=           0 FMFlag=      100000 FMFlg1=           0
         NFxFlg=           0 DoJE=T BraDBF=F KetDBF=T FulRan=T
         Omega=  0.000000  0.000000  1.000000  0.000000  0.000000 ICntrl=     500 IOpCl=  0
         NMat0=    1 NMatS0=    1 NMatT0=    0 NMatD0=    1 NMtDS0=    0 NMtDT0=    0
         I1Cent=           4 NGrid=           0.
 Petite list used in FoFCou.
 Initial guess orbital symmetries:
       Occupied  (E) (E) (A1) (E) (E) (A1) (A1) (E) (E) (A1) (E)
                 (E) (A1) (E) (E) (A1) (A1) (E) (E) (A1) (E) (E)
                 (A1) (A2) (E) (E) (A1) (E) (E) (A2) (E) (E) (A1)
                 (E) (E) (A1) (E) (E) (A1) (E) (E) (A1) (E) (E)
                 (E) (E) (A2) (A1) (E) (E) (A1) (A1) (E) (E) (A1)
                 (E) (E) (E) (E) (A1) (E) (E) (A2) (A1) (A1) (E)
                 (E) (A1) (E) (E)
       Virtual   (A1) (E) (E) (E) (E) (A2) (A1) (E) (E) (A1) (E)
                 (E) (E) (E) (A1) (E) (E) (E) (E) (A2) (A1) (E)
                 (E) (A1) (A1) (E) (E) (A2) (E) (E) (E) (E) (A1)
                 (A1) (A1) (E) (E) (E) (E) (A1) (E) (E) (E) (E)
                 (E) (E) (A1) (A2) (E) (E) (A1) (E) (E) (E) (E)
                 (A1) (A2) (E) (E) (A2) (A1) (E) (E) (E) (E) (E)
                 (E) (A2) (A1) (A1) (A1) (E) (E) (E) (E) (E) (E)
                 (E) (E) (E) (E) (A1) (A2) (A1) (E) (E) (E) (E)
                 (A1) (A2) (A2) (E) (E) (A1) (E) (E) (A1) (E) (E)
                 (A1) (E) (E) (E) (E) (E) (E) (E) (E) (A2) (A1)
                 (A1) (A2) (E) (E) (A1) (E) (E) (A1) (A1) (A1)
                 (E) (E) (A2) (E) (E) (E) (E) (A1) (E) (E) (E)
                 (E) (E) (E) (A2) (A1) (A1) (E) (E) (E) (E) (A1)
                 (E) (E) (E) (E) (A2) (E) (E) (A1) (A1) (E) (E)
                 (A2) (E) (E) (A1) (E) (E) (A1) (E) (E) (A2) (A1)
                 (E) (E) (E) (E) (E) (E) (A2) (A2) (E) (E) (A1)
                 (A1) (A2) (E) (E) (E) (E) (E) (E) (A2) (A1) (E)
                 (E) (A1) (E) (E) (A1) (E) (E) (A1) (A2) (E) (E)
                 (E) (E) (E) (E) (A1) (E) (E) (A1) (E) (E) (A2)
                 (A1) (E) (E) (E) (E) (A1) (E) (E) (A1) (A1) (A2)
                 (E) (E) (E) (E) (A1) (E) (E) (A2) (E) (E) (A1)
                 (E) (E) (A2) (E) (E) (E) (E) (E) (E) (A1) (A2)
                 (A1) (E) (E) (A1) (E) (E) (E) (E) (A1)
 The electronic state of the initial guess is 1-A1.
 Requested convergence on RMS density matrix=1.00D-08 within 128 cycles.
 Requested convergence on MAX density matrix=1.00D-06.
 Requested convergence on             energy=1.00D-06.
 No special actions if energy rises.
 Keep R1 ints in memory in canonical form, NReq=1908639963.
 Integral accuracy reduced to 1.0D-05 until final iterations.
 EnCoef did     3 forward-backward iterations
 Initial convergence to 1.0D-05 achieved.  Increase integral accuracy.
 SCF Done:  E(RB3LYP) =  -2894.94271355     A.U. after   16 cycles
             Convg  =    0.3626D-08             -V/T =  2.0036
 QCSCF skips out because SCF is already converged.

 **********************************************************************

            Population analysis using the SCF density.

 **********************************************************************

 Orbital symmetries:
       Occupied  (A1) (E) (E) (A1) (E) (E) (A1) (E) (E) (A1) (A1)
                 (A1) (E) (E) (A1) (E) (E) (E) (E) (A1) (E) (E)
                 (A1) (E) (E) (A1) (E) (E) (A2) (E) (E) (A1) (A1)
                 (E) (E) (A1) (E) (E) (A2) (E) (E) (A1) (E) (E)
                 (E) (E) (A2) (A1) (E) (E) (A1) (A1) (E) (E) (A1)
                 (E) (E) (E) (E) (A1) (E) (E) (A1) (A1) (A2) (E)
                 (E) (E) (E) (A1)
       Virtual   (A1) (E) (E) (E) (E) (A2) (A1) (E) (E) (A1) (E)
                 (E) (E) (E) (A1) (E) (E) (E) (E) (A2) (A1) (E)
                 (E) (A1) (A1) (E) (E) (A2) (A1) (E) (E) (E) (E)
                 (A1) (E) (E) (A1) (E) (E) (A1) (E) (E) (E) (E)
                 (A2) (E) (E) (A1) (A1) (E) (E) (E) (E) (E) (E)
                 (A2) (E) (E) (A1) (E) (E) (E) (E) (A1) (A2) (A1)
                 (A2) (E) (E) (A1) (E) (E) (A1) (E) (E) (E) (E)
                 (E) (E) (E) (E) (A1) (A2) (A1) (E) (E) (E) (E)
                 (A1) (A2) (E) (E) (A2) (A1) (E) (E) (A1) (E) (E)
                 (E) (E) (A1) (E) (E) (E) (E) (E) (E) (A2) (A1)
                 (A1) (A2) (E) (E) (A1) (E) (E) (A1) (A1) (A1)
                 (E) (E) (E) (E) (A2) (E) (E) (A1) (E) (E) (E)
                 (E) (A2) (E) (E) (A1) (A1) (A1) (E) (E) (E) (E)
                 (E) (E) (E) (E) (A2) (A1) (E) (E) (A1) (E) (E)
                 (A2) (A1) (E) (E) (A1) (E) (E) (E) (E) (A2) (A1)
                 (E) (E) (E) (E) (A2) (E) (E) (A2) (E) (E) (A1)
                 (A1) (A2) (E) (E) (E) (E) (A2) (E) (E) (A1) (E)
                 (E) (A1) (E) (E) (A1) (E) (E) (A2) (A1) (E) (E)
                 (E) (E) (E) (E) (A1) (E) (E) (A1) (E) (E) (A2)
                 (E) (E) (A1) (E) (E) (A1) (E) (E) (A1) (A1) (E)
                 (E) (A2) (E) (E) (A1) (E) (E) (A2) (E) (E) (A1)
                 (E) (E) (A2) (E) (E) (E) (E) (E) (E) (A1) (A2)
                 (A1) (E) (E) (A1) (E) (E) (E) (E) (A1)
 The electronic state is 1-A1.
 Alpha  occ. eigenvalues --  -66.16436 -66.16236 -66.16236 -66.16235 -66.15502
 Alpha  occ. eigenvalues --  -66.15502 -66.15501 -66.15213 -66.15213 -66.15212
 Alpha  occ. eigenvalues --   -5.30894  -5.30702  -5.30701  -5.30701  -5.29894
 Alpha  occ. eigenvalues --   -5.29890  -5.29890  -5.29591  -5.29591  -5.29590
 Alpha  occ. eigenvalues --   -3.66731  -3.66731  -3.66702  -3.66693  -3.66693
 Alpha  occ. eigenvalues --   -3.66629  -3.66454  -3.66454  -3.66453  -3.66426
 Alpha  occ. eigenvalues --   -3.66426  -3.66424  -3.65813  -3.65811  -3.65811
 Alpha  occ. eigenvalues --   -3.65646  -3.65641  -3.65641  -3.65633  -3.65630
 Alpha  occ. eigenvalues --   -3.65630  -3.65433  -3.65430  -3.65430  -3.65429
 Alpha  occ. eigenvalues --   -3.65429  -3.65428  -3.65314  -3.65313  -3.65313
 Alpha  occ. eigenvalues --   -0.67650  -0.57757  -0.56856  -0.56856  -0.44819
 Alpha  occ. eigenvalues --   -0.42763  -0.42763  -0.40986  -0.40986  -0.35317
 Alpha  occ. eigenvalues --   -0.27263  -0.27263  -0.27111  -0.26372  -0.25778
 Alpha  occ. eigenvalues --   -0.24917  -0.24917  -0.23681  -0.23681  -0.23382
 Alpha virt. eigenvalues --   -0.12205  -0.10787  -0.10787  -0.04928  -0.04928
 Alpha virt. eigenvalues --   -0.04771  -0.04147  -0.03602  -0.03602  -0.03036
 Alpha virt. eigenvalues --   -0.02456  -0.02456  -0.00286  -0.00286   0.01568
 Alpha virt. eigenvalues --    0.06172   0.06172   0.07793   0.07793   0.08626
 Alpha virt. eigenvalues --    0.09906   0.12340   0.12340   0.13568   0.14490
 Alpha virt. eigenvalues --    0.14953   0.14953   0.15445   0.16696   0.17027
 Alpha virt. eigenvalues --    0.17027   0.17347   0.17347   0.18057   0.18583
 Alpha virt. eigenvalues --    0.18583   0.19850   0.20233   0.20233   0.24539
 Alpha virt. eigenvalues --    0.24546   0.24546   0.25268   0.25268   0.26303
 Alpha virt. eigenvalues --    0.26883   0.26883   0.27582   0.29174   0.29189
 Alpha virt. eigenvalues --    0.29189   0.31356   0.31356   0.34086   0.34086
 Alpha virt. eigenvalues --    0.34228   0.34799   0.34799   0.35945   0.37086
 Alpha virt. eigenvalues --    0.37086   0.37926   0.37926   0.38320   0.38782
 Alpha virt. eigenvalues --    0.39099   0.39612   0.39649   0.39649   0.43254
 Alpha virt. eigenvalues --    0.46650   0.46650   0.48064   0.48939   0.48939
 Alpha virt. eigenvalues --    0.50860   0.50860   0.52237   0.52237   0.53917
 Alpha virt. eigenvalues --    0.53917   0.54038   0.55378   0.57027   0.60356
 Alpha virt. eigenvalues --    0.60356   0.60751   0.60751   0.61084   0.61707
 Alpha virt. eigenvalues --    0.65174   0.65174   0.65264   0.65587   0.66442
 Alpha virt. eigenvalues --    0.66442   0.67096   0.68840   0.68840   0.70518
 Alpha virt. eigenvalues --    0.70518   0.70534   0.71179   0.71179   0.73410
 Alpha virt. eigenvalues --    0.73410   0.73794   0.73794   0.75035   0.76427
 Alpha virt. eigenvalues --    0.78534   0.84793   0.87732   0.87732   0.88076
 Alpha virt. eigenvalues --    0.90495   0.90495   0.92123   0.92951   0.96400
 Alpha virt. eigenvalues --    0.96796   0.96796   0.97848   0.97848   0.98128
 Alpha virt. eigenvalues --    0.99085   0.99085   1.03291   1.04589   1.04589
 Alpha virt. eigenvalues --    1.06773   1.06773   1.07884   1.08493   1.08493
 Alpha virt. eigenvalues --    1.09069   1.11754   1.13736   1.14216   1.14216
 Alpha virt. eigenvalues --    1.15325   1.15325   1.16696   1.16696   1.19111
 Alpha virt. eigenvalues --    1.19111   1.19735   1.23186   1.23449   1.23449
 Alpha virt. eigenvalues --    1.24876   1.27202   1.27202   1.29594   1.30207
 Alpha virt. eigenvalues --    1.30629   1.30629   1.33394   1.33874   1.33874
 Alpha virt. eigenvalues --    1.34435   1.34435   1.36601   1.40031   1.41275
 Alpha virt. eigenvalues --    1.41275   1.43254   1.43254   1.43707   1.44073
 Alpha virt. eigenvalues --    1.44073   1.47910   1.49228   1.49228   1.49271
 Alpha virt. eigenvalues --    1.49685   1.50656   1.50676   1.50676   1.51993
 Alpha virt. eigenvalues --    1.51993   1.53868   1.53889   1.53889   1.55978
 Alpha virt. eigenvalues --    1.60655   1.60655   1.63728   1.68899   1.68899
 Alpha virt. eigenvalues --    1.75889   1.76139   1.76139   1.77968   1.78035
 Alpha virt. eigenvalues --    1.80209   1.80209   1.83137   1.83137   1.86462
 Alpha virt. eigenvalues --    1.86462   1.86587   1.87833   1.87833   1.88610
 Alpha virt. eigenvalues --    1.89192   1.89192   1.90519   1.93093   1.93093
 Alpha virt. eigenvalues --    1.93631   1.95987   1.95987   1.96531   1.97881
 Alpha virt. eigenvalues --    1.97881   2.00335   2.01264   2.03207   2.03207
 Alpha virt. eigenvalues --    2.03571   2.06078   2.06078   2.07729   2.08680
 Alpha virt. eigenvalues --    2.08680   2.09721   2.11576   2.11576   2.16482
 Alpha virt. eigenvalues --    2.17329   2.17329   2.17869   2.20809   2.20809
 Alpha virt. eigenvalues --    2.34025   2.34025   2.40967   2.40967   2.45306
 Alpha virt. eigenvalues --    2.54230   2.84772   2.93277   2.93277   2.95759
 Alpha virt. eigenvalues --    3.03890   3.03890   3.14168   3.14168   3.22126
          Condensed to atoms (all electrons):
              1          2          3          4          5          6
     1  Si  13.647375   0.131220   0.131220   0.087789  -0.007227  -0.021941
     2  Si   0.131220  13.514960  -0.032980   0.009852  -0.001032   0.201600
     3  Si   0.131220  -0.032980  13.514960   0.016465   0.131220   0.201600
     4  Si   0.087789   0.009852   0.016465  13.719137   0.087789  -0.004077
     5  Si  -0.007227  -0.001032   0.131220   0.087789  13.647375  -0.021941
     6  Si  -0.021941   0.201600   0.201600  -0.004077  -0.021941  13.491862
     7  Si   0.087789   0.016465   0.009852   0.032633   0.002791  -0.004077
     8  Si  -0.007227   0.131220  -0.001032   0.002791  -0.007227  -0.021941
     9  Si  -0.001032  -0.032980  -0.032980   0.009852   0.131220   0.201600
    10  Si   0.002791   0.009852   0.009852   0.032633   0.087789  -0.004077
              7          8          9         10
     1  Si   0.087789  -0.007227  -0.001032   0.002791
     2  Si   0.016465   0.131220  -0.032980   0.009852
     3  Si   0.009852  -0.001032  -0.032980   0.009852
     4  Si   0.032633   0.002791   0.009852   0.032633
     5  Si   0.002791  -0.007227   0.131220   0.087789
     6  Si  -0.004077  -0.021941   0.201600  -0.004077
     7  Si  13.719137   0.087789   0.009852   0.032633
     8  Si   0.087789  13.647375   0.131220   0.087789
     9  Si   0.009852   0.131220  13.514960   0.016465
    10  Si   0.032633   0.087789   0.016465  13.719137
 Mulliken atomic charges:
              1
     1  Si  -0.050757
     2  Si   0.051823
     3  Si   0.051823
     4  Si   0.005136
     5  Si  -0.050757
     6  Si  -0.018608
     7  Si   0.005136
     8  Si  -0.050757
     9  Si   0.051823
    10  Si   0.005136
 Sum of Mulliken atomic charges =   0.00000
 Mulliken charges with hydrogens summed into heavy atoms:
              1
     1  Si  -0.050757
     2  Si   0.051823
     3  Si   0.051823
     4  Si   0.005136
     5  Si  -0.050757
     6  Si  -0.018608
     7  Si   0.005136
     8  Si  -0.050757
     9  Si   0.051823
    10  Si   0.005136
 Sum of Mulliken charges with hydrogens summed into heavy atoms =   0.00000
 Electronic spatial extent (au):  <R**2>=           2789.9869
 Charge=              0.0000 electrons
 Dipole moment (field-independent basis, Debye):
    X=              0.0000    Y=              0.0000    Z=              0.7379  Tot=              0.7379
 Quadrupole moment (field-independent basis, Debye-Ang):
   XX=           -132.8226   YY=           -132.8226   ZZ=           -127.6371
   XY=              0.0000   XZ=              0.0000   YZ=              0.0000
 Traceless Quadrupole moment (field-independent basis, Debye-Ang):
   XX=             -1.7285   YY=             -1.7285   ZZ=              3.4570
   XY=              0.0000   XZ=              0.0000   YZ=              0.0000
 Octapole moment (field-independent basis, Debye-Ang**2):
  XXX=              0.0000  YYY=             -8.2749  ZZZ=              0.6243  XYY=              0.0000
  XXY=              8.2749  XXZ=              5.9836  XZZ=              0.0000  YZZ=              0.0000
  YYZ=              5.9836  XYZ=              0.0000
 Hexadecapole moment (field-independent basis, Debye-Ang**3):
 XXXX=          -1546.5993 YYYY=          -1546.5993 ZZZZ=          -1588.0377 XXXY=              0.0000
 XXXZ=              0.0000 YYYX=              0.0000 YYYZ=             -5.8227 ZZZX=              0.0000
 ZZZY=              0.0000 XXYY=           -515.5331 XXZZ=           -528.6720 YYZZ=           -528.6720
 XXYZ=              5.8227 YYXZ=              0.0000 ZZXY=              0.0000
 N-N= 1.527749864045D+03 E-N=-9.946477972277D+03  KE= 2.884634141911D+03
 Symmetry A'   KE= 1.919640069314D+03
 Symmetry A"   KE= 9.649940725977D+02
 Calling FoFJK, ICntrl=      2127 FMM=F ISym2X=1 I1Cent= 0 IOpClX= 0 NMat=1 NMatS=1 NMatT=0.
 ***** Axes restored to original set *****
 -------------------------------------------------------------------
 Center     Atomic                   Forces (Hartrees/Bohr)
 Number     Number              X              Y              Z
 -------------------------------------------------------------------
      1       14          -0.000743812    0.000429440    0.000529330
      2       14          -0.001889502   -0.001090905    0.001767763
      3       14           0.000000000    0.002181809    0.001767763
      4       14           0.000000000    0.001891917   -0.002499086
      5       14           0.000743812    0.000429440    0.000529330
      6       14           0.000000000    0.000000000    0.000605979
      7       14          -0.001638448   -0.000945958   -0.002499086
      8       14           0.000000000   -0.000858880    0.000529330
      9       14           0.001889502   -0.001090905    0.001767763
     10       14           0.001638448   -0.000945958   -0.002499086
 -------------------------------------------------------------------
 Cartesian Forces:  Max     0.002499086 RMS     0.001372965

 GradGradGradGradGradGradGradGradGradGradGradGradGradGradGradGradGradGrad
 Berny optimization.
 Internal  Forces:  Max     0.001496853 RMS     0.000347411
 Search for a local minimum.
 Step number   1 out of a maximum of  100
 All quantities printed in internal units (Hartrees-Bohrs-Radians)
 Mixed Optimization -- En-DIIS/RFO-DIIS
 Second derivative matrix not updated -- first step.
     Eigenvalues ---    0.03965   0.03965   0.04064   0.04632   0.04632
     Eigenvalues ---    0.07201   0.07499   0.07672   0.07672   0.08204
     Eigenvalues ---    0.08204   0.09040   0.09044   0.09909   0.10064
     Eigenvalues ---    0.10064   0.11249   0.11249   0.12729   0.13038
     Eigenvalues ---    0.13038   0.13078   0.15409   0.154091000.00000
     Eigenvalues --- 1000.000001000.000001000.000001000.000001000.00000
     Eigenvalues --- 1000.000001000.000001000.000001000.000001000.00000
     Eigenvalues --- 1000.000001000.000001000.000001000.000001000.00000
     Eigenvalues --- 1000.000001000.000001000.000001000.000001000.00000
     Eigenvalues --- 1000.000001000.000001000.000001000.000001000.00000
     Eigenvalues --- 1000.000001000.000001000.000001000.000001000.00000
     Eigenvalues --- 1000.000001000.000001000.000001000.000001000.00000
     Eigenvalues --- 1000.000001000.000001000.000001000.000001000.00000
     Eigenvalues --- 1000.000001000.000001000.000001000.000001000.00000
     Eigenvalues --- 1000.000001000.000001000.000001000.000001000.00000
     Eigenvalues --- 1000.000001000.000001000.000001000.000001000.00000
     Eigenvalues --- 1000.000001000.000001000.000001000.000001000.00000
     Eigenvalues --- 1000.000001000.000001000.000001000.000001000.00000
     Eigenvalues --- 1000.000001000.000001000.000001000.000001000.00000
     Eigenvalues --- 1000.000001000.000001000.000001000.000001000.00000
     Eigenvalues --- 1000.000001000.000001000.000001000.000001000.00000
     Eigenvalues --- 1000.000001000.000001000.000001000.000001000.00000
     Eigenvalues --- 1000.000001000.000001000.000001000.000001000.00000
     Eigenvalues --- 1000.000001000.000001000.000001000.000001000.00000
     Eigenvalues --- 1000.000001000.000001000.000001000.000001000.00000
     Eigenvalues --- 1000.000001000.000001000.000001000.000001000.00000
     Eigenvalues --- 1000.000001000.000001000.000001000.000001000.00000
     Eigenvalues --- 1000.000001000.000001000.000001000.000001000.00000
     Eigenvalues --- 1000.00000
 RFO step:  Lambda=-1.90514738D-04 EMin= 3.96479775D-02
 Linear search not attempted -- first point.
 Iteration  1 RMS(Cart)=  0.00214429 RMS(Int)=  0.00000265
 Iteration  2 RMS(Cart)=  0.00000148 RMS(Int)=  0.00000143
 Iteration  3 RMS(Cart)=  0.00000000 RMS(Int)=  0.00000143
 ClnCor:  largest displacement from symmetrization is 4.52D-09 for atom     7.
 Variable       Old X    -DE/DX   Delta X   Delta X   Delta X     New X
                                 (Linear)    (Quad)   (Total)
    R1        4.66162  -0.00037   0.00000  -0.00523  -0.00523   4.65639
    R2        4.66162  -0.00037   0.00000  -0.00523  -0.00523   4.65639
    R3        4.76412  -0.00065   0.00000  -0.00852  -0.00852   4.75560
    R4        4.76412  -0.00065   0.00000  -0.00852  -0.00852   4.75560
    R5        5.24099  -0.00086   0.00000  -0.01159  -0.01159   5.22939
    R6        4.45953  -0.00031   0.00000  -0.00311  -0.00311   4.45641
    R7        4.80153  -0.00150   0.00000  -0.01487  -0.01487   4.78666
    R8        4.66162  -0.00037   0.00000  -0.00523  -0.00523   4.65639
    R9        5.24099  -0.00086   0.00000  -0.01159  -0.01159   5.22939
   R10        4.80153  -0.00150   0.00000  -0.01487  -0.01487   4.78666
   R11        4.66162  -0.00037   0.00000  -0.00523  -0.00523   4.65639
   R12        4.45953  -0.00031   0.00000  -0.00311  -0.00311   4.45641
   R13        5.24099  -0.00086   0.00000  -0.01159  -0.01159   5.22939
   R14        4.76412  -0.00065   0.00000  -0.00852  -0.00852   4.75560
   R15        4.85332  -0.00094   0.00000  -0.01057  -0.01057   4.84275
   R16        4.85332  -0.00094   0.00000  -0.01057  -0.01057   4.84275
   R17        4.66162  -0.00037   0.00000  -0.00523  -0.00523   4.65639
   R18        4.76412  -0.00065   0.00000  -0.00852  -0.00852   4.75560
   R19        4.45953  -0.00031   0.00000  -0.00311  -0.00311   4.45641
   R20        4.76412  -0.00065   0.00000  -0.00852  -0.00852   4.75560
   R21        4.85332  -0.00094   0.00000  -0.01057  -0.01057   4.84275
   R22        4.66162  -0.00037   0.00000  -0.00523  -0.00523   4.65639
   R23        4.76412  -0.00065   0.00000  -0.00852  -0.00852   4.75560
   R24        4.80153  -0.00150   0.00000  -0.01487  -0.01487   4.78666
    A1        1.66241  -0.00029   0.00000  -0.00255  -0.00255   1.65986
    A2        1.66241  -0.00029   0.00000  -0.00255  -0.00255   1.65986
    A3        1.82773   0.00005   0.00000   0.00102   0.00102   1.82875
    A4        2.07080   0.00021   0.00000   0.00140   0.00139   2.07219
    A5        1.87331   0.00010   0.00000   0.00102   0.00102   1.87433
    A6        1.53042  -0.00002   0.00000  -0.00002  -0.00002   1.53040
    A7        1.87331   0.00010   0.00000   0.00102   0.00102   1.87433
    A8        2.34921   0.00006   0.00000   0.00138   0.00138   2.35059
    A9        1.82773   0.00005   0.00000   0.00102   0.00102   1.82875
   A10        1.53042  -0.00002   0.00000  -0.00002  -0.00002   1.53040
   A11        2.07080   0.00021   0.00000   0.00140   0.00139   2.07219
   A12        1.82773   0.00005   0.00000   0.00102   0.00102   1.82875
   A13        1.87331   0.00010   0.00000   0.00102   0.00102   1.87433
   A14        1.53042  -0.00002   0.00000  -0.00002  -0.00002   1.53040
   A15        1.87331   0.00010   0.00000   0.00102   0.00102   1.87433
   A16        2.34921   0.00006   0.00000   0.00138   0.00138   2.35059
   A17        1.53042  -0.00002   0.00000  -0.00002  -0.00002   1.53040
   A18        1.82773   0.00005   0.00000   0.00102   0.00102   1.82875
   A19        2.00033   0.00037   0.00000   0.00337   0.00338   2.00371
   A20        1.90943   0.00014   0.00000   0.00118   0.00118   1.91061
   A21        1.61118   0.00002   0.00000   0.00002   0.00002   1.61119
   A22        1.61118   0.00002   0.00000   0.00002   0.00002   1.61119
   A23        1.90943   0.00014   0.00000   0.00118   0.00118   1.91061
   A24        1.66241  -0.00029   0.00000  -0.00255  -0.00255   1.65986
   A25        1.66241  -0.00029   0.00000  -0.00255  -0.00255   1.65986
   A26        2.00033   0.00037   0.00000   0.00337   0.00338   2.00371
   A27        1.90943   0.00014   0.00000   0.00118   0.00118   1.91061
   A28        1.61118   0.00002   0.00000   0.00002   0.00002   1.61119
   A29        1.61118   0.00002   0.00000   0.00002   0.00002   1.61119
   A30        1.90943   0.00014   0.00000   0.00118   0.00118   1.91061
   A31        1.66241  -0.00029   0.00000  -0.00255  -0.00255   1.65986
   A32        1.66241  -0.00029   0.00000  -0.00255  -0.00255   1.65986
   A33        1.87331   0.00010   0.00000   0.00102   0.00102   1.87433
   A34        1.53042  -0.00002   0.00000  -0.00002  -0.00002   1.53040
   A35        1.87331   0.00010   0.00000   0.00102   0.00102   1.87433
   A36        1.53042  -0.00002   0.00000  -0.00002  -0.00002   1.53040
   A37        1.82773   0.00005   0.00000   0.00102   0.00102   1.82875
   A38        2.07080   0.00021   0.00000   0.00140   0.00139   2.07219
   A39        1.82773   0.00005   0.00000   0.00102   0.00102   1.82875
   A40        2.34921   0.00006   0.00000   0.00138   0.00138   2.35059
   A41        1.90943   0.00014   0.00000   0.00118   0.00118   1.91061
   A42        1.61118   0.00002   0.00000   0.00002   0.00002   1.61119
   A43        1.90943   0.00014   0.00000   0.00118   0.00118   1.91061
   A44        2.00033   0.00037   0.00000   0.00337   0.00338   2.00371
   A45        1.61118   0.00002   0.00000   0.00002   0.00002   1.61119
    D1       -1.40089  -0.00003   0.00000  -0.00065  -0.00065  -1.40155
    D2        0.62877   0.00019   0.00000   0.00218   0.00219   0.63096
    D3       -0.41781   0.00007   0.00000   0.00082   0.00082  -0.41699
    D4       -0.62877  -0.00019   0.00000  -0.00218  -0.00219  -0.63096
    D5        1.40089   0.00003   0.00000   0.00065   0.00065   1.40155
    D6        0.41781  -0.00007   0.00000  -0.00082  -0.00082   0.41699
    D7        0.79960   0.00010   0.00000   0.00048   0.00048   0.80008
    D8       -0.32376  -0.00005   0.00000  -0.00075  -0.00075  -0.32451
    D9       -0.79960  -0.00010   0.00000  -0.00048  -0.00048  -0.80008
   D10        0.32376   0.00005   0.00000   0.00075   0.00075   0.32451
   D11        0.00000   0.00000   0.00000   0.00000   0.00000   0.00000
   D12        1.01228   0.00005   0.00000   0.00022   0.00022   1.01250
   D13       -1.01228  -0.00005   0.00000  -0.00022  -0.00022  -1.01250
   D14        0.00000   0.00000   0.00000   0.00000   0.00000   0.00000
   D15        0.00000   0.00000   0.00000   0.00000   0.00000   0.00000
   D16       -1.04814   0.00000   0.00000   0.00000   0.00000  -1.04814
   D17        0.52407   0.00000   0.00000   0.00000   0.00000   0.52407
   D18       -0.52407   0.00000   0.00000   0.00000   0.00000  -0.52407
   D19        1.04814   0.00000   0.00000   0.00000   0.00000   1.04814
   D20        0.00000   0.00000   0.00000   0.00000   0.00000   0.00000
   D21       -0.62877  -0.00019   0.00000  -0.00218  -0.00219  -0.63096
   D22        0.41781  -0.00007   0.00000  -0.00082  -0.00082   0.41699
   D23        1.40089   0.00003   0.00000   0.00065   0.00065   1.40155
   D24        0.00000   0.00000   0.00000   0.00000   0.00000   0.00000
   D25        1.01228   0.00005   0.00000   0.00022   0.00022   1.01250
   D26       -1.01228  -0.00005   0.00000  -0.00022  -0.00022  -1.01250
   D27        0.00000   0.00000   0.00000   0.00000   0.00000   0.00000
   D28        0.00000   0.00000   0.00000   0.00000   0.00000   0.00000
   D29        1.04814   0.00000   0.00000   0.00000   0.00000   1.04814
   D30       -0.52407   0.00000   0.00000   0.00000   0.00000  -0.52407
   D31        0.52407   0.00000   0.00000   0.00000   0.00000   0.52407
   D32       -1.04814   0.00000   0.00000   0.00000   0.00000  -1.04814
   D33        0.00000   0.00000   0.00000   0.00000   0.00000   0.00000
   D34        0.62877   0.00019   0.00000   0.00218   0.00219   0.63096
   D35       -0.41781   0.00007   0.00000   0.00082   0.00082  -0.41699
   D36       -1.40089  -0.00003   0.00000  -0.00065  -0.00065  -1.40155
   D37        0.00000   0.00000   0.00000   0.00000   0.00000   0.00000
   D38       -1.01228  -0.00005   0.00000  -0.00022  -0.00022  -1.01250
   D39        1.01228   0.00005   0.00000   0.00022   0.00022   1.01250
   D40        0.00000   0.00000   0.00000   0.00000   0.00000   0.00000
   D41       -0.79960  -0.00010   0.00000  -0.00048  -0.00048  -0.80008
   D42        0.32376   0.00005   0.00000   0.00075   0.00075   0.32451
   D43        0.00000   0.00000   0.00000   0.00000   0.00000   0.00000
   D44        0.99693   0.00016   0.00000   0.00140   0.00140   0.99833
   D45       -0.99693  -0.00016   0.00000  -0.00140  -0.00140  -0.99833
   D46        0.00000   0.00000   0.00000   0.00000   0.00000   0.00000
   D47        0.00000   0.00000   0.00000   0.00000   0.00000   0.00000
   D48        0.99693   0.00016   0.00000   0.00140   0.00140   0.99833
   D49       -0.99693  -0.00016   0.00000  -0.00140  -0.00140  -0.99833
   D50        0.00000   0.00000   0.00000   0.00000   0.00000   0.00000
   D51        0.41781  -0.00007   0.00000  -0.00082  -0.00082   0.41699
   D52        1.40089   0.00003   0.00000   0.00065   0.00065   1.40155
   D53       -0.62877  -0.00019   0.00000  -0.00218  -0.00219  -0.63096
   D54       -0.32376  -0.00005   0.00000  -0.00075  -0.00075  -0.32451
   D55        0.79960   0.00010   0.00000   0.00048   0.00048   0.80008
   D56        0.79960   0.00010   0.00000   0.00048   0.00048   0.80008
   D57       -0.32376  -0.00005   0.00000  -0.00075  -0.00075  -0.32451
   D58        0.00000   0.00000   0.00000   0.00000   0.00000   0.00000
   D59       -0.99693  -0.00016   0.00000  -0.00140  -0.00140  -0.99833
   D60        0.99693   0.00016   0.00000   0.00140   0.00140   0.99833
   D61        0.00000   0.00000   0.00000   0.00000   0.00000   0.00000
   D62       -0.41781   0.00007   0.00000   0.00082   0.00082  -0.41699
   D63        0.62877   0.00019   0.00000   0.00218   0.00219   0.63096
   D64       -1.40089  -0.00003   0.00000  -0.00065  -0.00065  -1.40155
   D65        0.32376   0.00005   0.00000   0.00075   0.00075   0.32451
   D66       -0.79960  -0.00010   0.00000  -0.00048  -0.00048  -0.80008
   D67       -1.04814   0.00000   0.00000   0.00000   0.00000  -1.04814
   D68        0.00000   0.00000   0.00000   0.00000   0.00000   0.00000
   D69        0.00000   0.00000   0.00000   0.00000   0.00000   0.00000
   D70        1.04814   0.00000   0.00000   0.00000   0.00000   1.04814
   D71       -0.52407   0.00000   0.00000   0.00000   0.00000  -0.52407
   D72        0.52407   0.00000   0.00000   0.00000   0.00000   0.52407
         Item               Value     Threshold  Converged?
 Maximum Force            0.001497     0.000450     NO 
 RMS     Force            0.000347     0.000300     NO 
 Maximum Displacement     0.008963     0.001800     NO 
 RMS     Displacement     0.002144     0.001200     NO 
 Predicted change in Energy=-9.546610D-05
 GradGradGradGradGradGradGradGradGradGradGradGradGradGradGradGradGradGrad

                          Input orientation:                          
 ---------------------------------------------------------------------
 Center     Atomic      Atomic             Coordinates (Angstroms)
 Number     Number       Type             X           Y           Z
 ---------------------------------------------------------------------
      1         14           0        2.120127   -1.224056    0.253515
      2         14           0        1.383638    0.798844   -0.945244
      3         14           0        0.000000   -1.597688   -0.945244
      4         14           0        0.000000   -1.479561    1.584992
      5         14           0       -2.120127   -1.224056    0.253515
      6         14           0        0.000000    0.000000   -2.679790
      7         14           0        1.281337    0.739780    1.584992
      8         14           0        0.000000    2.448111    0.253515
      9         14           0       -1.383638    0.798844   -0.945244
     10         14           0       -1.281337    0.739780    1.584992
 ---------------------------------------------------------------------
                    Distance matrix (angstroms):
                    1          2          3          4          5
     1  Si   0.000000
     2  Si   2.464054   0.000000
     3  Si   2.464054   2.767276   0.000000
     4  Si   2.516555   3.675279   2.532992   0.000000
     5  Si   4.240253   4.219658   2.464054   2.516555   0.000000
     6  Si   3.820671   2.358231   2.358231   4.514141   3.820671
     7  Si   2.516555   2.532992   3.675279   2.562675   4.147221
     8  Si   4.240253   2.464054   4.219658   4.147221   4.240253
     9  Si   4.219658   2.767276   2.767276   3.675279   2.464054
    10  Si   4.147221   3.675279   3.675279   2.562675   2.516555
                    6          7          8          9         10
     6  Si   0.000000
     7  Si   4.514141   0.000000
     8  Si   3.820671   2.516555   0.000000
     9  Si   2.358231   3.675279   2.464054   0.000000
    10  Si   4.514141   2.562675   2.516555   2.532992   0.000000
 Stoichiometry    Si10
 Framework group  C3V[C3(Si),3SGV(Si3)]
 Deg. of freedom     6
 Full point group                 C3V     NOp   6
 Largest Abelian subgroup         CS      NOp   2
 Largest concise Abelian subgroup CS      NOp   2
                         Standard orientation:                         
 ---------------------------------------------------------------------
 Center     Atomic      Atomic             Coordinates (Angstroms)
 Number     Number       Type             X           Y           Z
 ---------------------------------------------------------------------
      1         14           0        0.000000    2.448111   -0.253515
      2         14           0        1.383638    0.798844    0.945244
      3         14           0       -1.383638    0.798844    0.945244
      4         14           0       -1.281337    0.739780   -1.584992
      5         14           0       -2.120127   -1.224056   -0.253515
      6         14           0        0.000000    0.000000    2.679790
      7         14           0        1.281337    0.739780   -1.584992
      8         14           0        2.120127   -1.224056   -0.253515
      9         14           0        0.000000   -1.597688    0.945244
     10         14           0        0.000000   -1.479561   -1.584992
 ---------------------------------------------------------------------
 Rotational constants (GHZ):      0.5609132      0.5361299      0.5361299
 Standard basis: GTBas3 (6D, 7F)
 There are   184 symmetry adapted basis functions of A'  symmetry.
 There are   136 symmetry adapted basis functions of A"  symmetry.
 Integral buffers will be    131072 words long.
 Raffenetti 2 integral format.
 Two-electron integral symmetry is turned on.
   320 basis functions,   680 primitive gaussians,   350 cartesian basis functions
    70 alpha electrons       70 beta electrons
       nuclear repulsion energy      1530.3317135587 Hartrees.
 NAtoms=   10 NActive=   10 NUniq=    4 SFac= 3.00D+00 NAtFMM=   80 NAOKFM=F Big=F
 One-electron integrals computed using PRISM.
 NBasis=   320 RedAO= T  NBF=   184   136
 NBsUse=   320 1.00D-06 NBFU=   184   136
 Initial guess read from the read-write file.
 B after Tr=     0.000000    0.000000    0.000000
         Rot=    1.000000    0.000000    0.000000    0.000000 Ang=   0.00 deg.
 Initial guess orbital symmetries:
       Occupied  (A1) (E) (E) (A1) (E) (E) (A1) (E) (E) (A1) (A1)
                 (A1) (E) (E) (A1) (E) (E) (E) (E) (A1) (E) (E)
                 (A1) (E) (E) (A1) (E) (E) (A2) (E) (E) (A1) (A1)
                 (E) (E) (A1) (E) (E) (A2) (E) (E) (A1) (E) (E)
                 (E) (E) (A2) (A1) (E) (E) (A1) (A1) (E) (E) (A1)
                 (E) (E) (E) (E) (A1) (E) (E) (A1) (A1) (A2) (E)
                 (E) (E) (E) (A1)
       Virtual   (A1) (E) (E) (E) (E) (A2) (A1) (E) (E) (A1) (E)
                 (E) (E) (E) (A1) (E) (E) (E) (E) (A2) (A1) (E)
                 (E) (A1) (A1) (E) (E) (A2) (A1) (E) (E) (E) (E)
                 (A1) (E) (E) (A1) (E) (E) (A1) (E) (E) (E) (E)
                 (A2) (E) (E) (A1) (A1) (E) (E) (E) (E) (E) (E)
                 (A2) (E) (E) (A1) (E) (E) (E) (E) (A1) (A2) (A1)
                 (A2) (E) (E) (A1) (E) (E) (A1) (E) (E) (E) (E)
                 (E) (E) (E) (E) (A1) (A2) (A1) (E) (E) (E) (E)
                 (A1) (A2) (E) (E) (A2) (A1) (E) (E) (A1) (E) (E)
                 (E) (E) (A1) (E) (E) (E) (E) (E) (E) (A2) (A1)
                 (A1) (A2) (E) (E) (A1) (E) (E) (A1) (A1) (A1)
                 (E) (E) (E) (E) (A2) (E) (E) (A1) (E) (E) (E)
                 (E) (A2) (E) (E) (A1) (A1) (A1) (E) (E) (E) (E)
                 (E) (E) (E) (E) (A2) (A1) (E) (E) (A1) (E) (E)
                 (A2) (A1) (E) (E) (A1) (E) (E) (E) (E) (A2) (A1)
                 (E) (E) (E) (E) (A2) (E) (E) (A2) (E) (E) (A1)
                 (A1) (A2) (E) (E) (E) (E) (A2) (E) (E) (A1) (E)
                 (E) (A1) (E) (E) (A1) (E) (E) (A2) (A1) (E) (E)
                 (E) (E) (E) (E) (A1) (E) (E) (A1) (E) (E) (A2)
                 (E) (E) (A1) (E) (E) (A1) (E) (E) (A1) (A1) (E)
                 (E) (A2) (E) (E) (A1) (E) (E) (A2) (E) (E) (A1)
                 (E) (E) (A2) (E) (E) (E) (E) (E) (E) (A1) (A2)
                 (A1) (E) (E) (A1) (E) (E) (E) (E) (A1)
 Requested convergence on RMS density matrix=1.00D-08 within 128 cycles.
 Requested convergence on MAX density matrix=1.00D-06.
 Requested convergence on             energy=1.00D-06.
 No special actions if energy rises.
 Keep R1 ints in memory in canonical form, NReq=1908639935.
 SCF Done:  E(RB3LYP) =  -2894.94286421     A.U. after    9 cycles
             Convg  =    0.9719D-08             -V/T =  2.0036
 QCSCF skips out because SCF is already converged.
 Calling FoFJK, ICntrl=      2127 FMM=F ISym2X=1 I1Cent= 0 IOpClX= 0 NMat=1 NMatS=1 NMatT=0.
 ***** Axes restored to original set *****
 -------------------------------------------------------------------
 Center     Atomic                   Forces (Hartrees/Bohr)
 Number     Number              X              Y              Z
 -------------------------------------------------------------------
      1       14          -0.000223260    0.000128899    0.000507915
      2       14          -0.001331553   -0.000768772    0.000874212
      3       14           0.000000000    0.001537545    0.000874212
      4       14           0.000000000    0.001053357   -0.001448068
      5       14           0.000223260    0.000128899    0.000507915
      6       14           0.000000000    0.000000000    0.000197825
      7       14          -0.000912234   -0.000526679   -0.001448068
      8       14           0.000000000   -0.000257799    0.000507915
      9       14           0.001331553   -0.000768772    0.000874212
     10       14           0.000912234   -0.000526679   -0.001448068
 -------------------------------------------------------------------
 Cartesian Forces:  Max     0.001537545 RMS     0.000816838

 GradGradGradGradGradGradGradGradGradGradGradGradGradGradGradGradGradGrad
 Berny optimization.
 Using GEDIIS/GDIIS optimizer.
 Internal  Forces:  Max     0.000826533 RMS     0.000204789
 Search for a local minimum.
 Step number   2 out of a maximum of  100
 All quantities printed in internal units (Hartrees-Bohrs-Radians)
 Mixed Optimization -- En-DIIS/RFO-DIIS
 Swaping is turned off.
 Update second derivatives using D2CorX and points    1    2
 DE= -1.51D-04 DEPred=-9.55D-05 R= 1.58D+00
 SS=  1.41D+00  RLast= 4.68D-02 DXNew= 5.0454D-01 1.4033D-01
 Trust test= 1.58D+00 RLast= 4.68D-02 DXMaxT set to 3.00D-01
     Eigenvalues ---    0.03391   0.03963   0.03963   0.04059   0.04628
     Eigenvalues ---    0.04628   0.07236   0.07665   0.07665   0.08204
     Eigenvalues ---    0.08204   0.08599   0.09049   0.09934   0.10065
     Eigenvalues ---    0.10065   0.11242   0.11242   0.12608   0.12821
     Eigenvalues ---    0.13033   0.13033   0.15413   0.154131000.00000
     Eigenvalues --- 1000.000001000.000001000.000001000.000001000.00000
     Eigenvalues --- 1000.000001000.000001000.000001000.000001000.00000
     Eigenvalues --- 1000.000001000.000001000.000001000.000001000.00000
     Eigenvalues --- 1000.000001000.000001000.000001000.000001000.00000
     Eigenvalues --- 1000.000001000.000001000.000001000.000001000.00000
     Eigenvalues --- 1000.000001000.000001000.000001000.000001000.00000
     Eigenvalues --- 1000.000001000.000001000.000001000.000001000.00000
     Eigenvalues --- 1000.000001000.000001000.000001000.000001000.00000
     Eigenvalues --- 1000.000001000.000001000.000001000.000001000.00000
     Eigenvalues --- 1000.000001000.000001000.000001000.000001000.00000
     Eigenvalues --- 1000.000001000.000001000.000001000.000001000.00000
     Eigenvalues --- 1000.000001000.000001000.000001000.000001000.00000
     Eigenvalues --- 1000.000001000.000001000.000001000.000001000.00000
     Eigenvalues --- 1000.000001000.000001000.000001000.000001000.00000
     Eigenvalues --- 1000.000001000.000001000.000001000.000001000.00000
     Eigenvalues --- 1000.000001000.000001000.000001000.000001000.00000
     Eigenvalues --- 1000.000001000.000001000.000001000.000001000.00000
     Eigenvalues --- 1000.000001000.000001000.000001000.000001000.00000
     Eigenvalues --- 1000.000001000.000001000.000001000.000001000.00000
     Eigenvalues --- 1000.000001000.000001000.000001000.000001000.00000
     Eigenvalues --- 1000.000001000.000001000.000001000.000001000.00000
     Eigenvalues --- 1000.000001000.000001000.000001000.000001000.00000
     Eigenvalues --- 1000.000001000.000001000.000001000.000001000.00000
     Eigenvalues --- 1000.00000
 En-DIIS/RFO-DIIS IScMMF=        0 using points:     2    1
 RFO step:  Lambda=-3.11208953D-05.
 DIIS coeffs:      2.38210     -1.38210
 Iteration  1 RMS(Cart)=  0.00313508 RMS(Int)=  0.00000883
 Iteration  2 RMS(Cart)=  0.00000436 RMS(Int)=  0.00000573
 Iteration  3 RMS(Cart)=  0.00000000 RMS(Int)=  0.00000573
 ClnCor:  largest displacement from symmetrization is 1.68D-08 for atom     7.
 Variable       Old X    -DE/DX   Delta X   Delta X   Delta X     New X
                                  (DIIS)     (GDIIS)  (Total)
    R1        4.65639  -0.00011  -0.00723   0.00228  -0.00496   4.65143
    R2        4.65639  -0.00011  -0.00723   0.00228  -0.00496   4.65143
    R3        4.75560  -0.00036  -0.01178  -0.00049  -0.01227   4.74333
    R4        4.75560  -0.00036  -0.01178  -0.00049  -0.01227   4.74333
    R5        5.22939  -0.00062  -0.01602  -0.00436  -0.02038   5.20901
    R6        4.45641  -0.00013  -0.00430   0.00016  -0.00415   4.45226
    R7        4.78666  -0.00083  -0.02055   0.00041  -0.02013   4.76653
    R8        4.65639  -0.00011  -0.00723   0.00228  -0.00496   4.65143
    R9        5.22939  -0.00062  -0.01602  -0.00436  -0.02038   5.20901
   R10        4.78666  -0.00083  -0.02055   0.00041  -0.02013   4.76653
   R11        4.65639  -0.00011  -0.00723   0.00228  -0.00496   4.65143
   R12        4.45641  -0.00013  -0.00430   0.00016  -0.00415   4.45226
   R13        5.22939  -0.00062  -0.01602  -0.00436  -0.02038   5.20901
   R14        4.75560  -0.00036  -0.01178  -0.00049  -0.01227   4.74333
   R15        4.84275  -0.00054  -0.01461  -0.00025  -0.01486   4.82790
   R16        4.84275  -0.00054  -0.01461  -0.00025  -0.01486   4.82790
   R17        4.65639  -0.00011  -0.00723   0.00228  -0.00496   4.65143
   R18        4.75560  -0.00036  -0.01178  -0.00049  -0.01227   4.74333
   R19        4.45641  -0.00013  -0.00430   0.00016  -0.00415   4.45226
   R20        4.75560  -0.00036  -0.01178  -0.00049  -0.01227   4.74333
   R21        4.84275  -0.00054  -0.01461  -0.00025  -0.01486   4.82790
   R22        4.65639  -0.00011  -0.00723   0.00228  -0.00496   4.65143
   R23        4.75560  -0.00036  -0.01178  -0.00049  -0.01227   4.74333
   R24        4.78666  -0.00083  -0.02055   0.00041  -0.02013   4.76653
    A1        1.65986  -0.00020  -0.00352  -0.00083  -0.00435   1.65550
    A2        1.65986  -0.00020  -0.00352  -0.00083  -0.00435   1.65550
    A3        1.82875   0.00007   0.00141   0.00128   0.00268   1.83143
    A4        2.07219   0.00011   0.00193  -0.00054   0.00137   2.07356
    A5        1.87433   0.00008   0.00140   0.00063   0.00203   1.87636
    A6        1.53040   0.00000  -0.00003   0.00043   0.00041   1.53081
    A7        1.87433   0.00008   0.00140   0.00063   0.00203   1.87636
    A8        2.35059   0.00008   0.00190   0.00130   0.00321   2.35380
    A9        1.82875   0.00007   0.00141   0.00128   0.00268   1.83143
   A10        1.53040   0.00000  -0.00003   0.00043   0.00041   1.53081
   A11        2.07219   0.00011   0.00193  -0.00054   0.00137   2.07356
   A12        1.82875   0.00007   0.00141   0.00128   0.00268   1.83143
   A13        1.87433   0.00008   0.00140   0.00063   0.00203   1.87636
   A14        1.53040   0.00000  -0.00003   0.00043   0.00041   1.53081
   A15        1.87433   0.00008   0.00140   0.00063   0.00203   1.87636
   A16        2.35059   0.00008   0.00190   0.00130   0.00321   2.35380
   A17        1.53040   0.00000  -0.00003   0.00043   0.00041   1.53081
   A18        1.82875   0.00007   0.00141   0.00128   0.00268   1.83143
   A19        2.00371   0.00026   0.00467   0.00135   0.00603   2.00974
   A20        1.91061   0.00009   0.00163   0.00036   0.00198   1.91259
   A21        1.61119   0.00000   0.00003  -0.00043  -0.00041   1.61079
   A22        1.61119   0.00000   0.00003  -0.00043  -0.00041   1.61079
   A23        1.91061   0.00009   0.00163   0.00036   0.00198   1.91259
   A24        1.65986  -0.00020  -0.00352  -0.00083  -0.00435   1.65550
   A25        1.65986  -0.00020  -0.00352  -0.00083  -0.00435   1.65550
   A26        2.00371   0.00026   0.00467   0.00135   0.00603   2.00974
   A27        1.91061   0.00009   0.00163   0.00036   0.00198   1.91259
   A28        1.61119   0.00000   0.00003  -0.00043  -0.00041   1.61079
   A29        1.61119   0.00000   0.00003  -0.00043  -0.00041   1.61079
   A30        1.91061   0.00009   0.00163   0.00036   0.00198   1.91259
   A31        1.65986  -0.00020  -0.00352  -0.00083  -0.00435   1.65550
   A32        1.65986  -0.00020  -0.00352  -0.00083  -0.00435   1.65550
   A33        1.87433   0.00008   0.00140   0.00063   0.00203   1.87636
   A34        1.53040   0.00000  -0.00003   0.00043   0.00041   1.53081
   A35        1.87433   0.00008   0.00140   0.00063   0.00203   1.87636
   A36        1.53040   0.00000  -0.00003   0.00043   0.00041   1.53081
   A37        1.82875   0.00007   0.00141   0.00128   0.00268   1.83143
   A38        2.07219   0.00011   0.00193  -0.00054   0.00137   2.07356
   A39        1.82875   0.00007   0.00141   0.00128   0.00268   1.83143
   A40        2.35059   0.00008   0.00190   0.00130   0.00321   2.35380
   A41        1.91061   0.00009   0.00163   0.00036   0.00198   1.91259
   A42        1.61119   0.00000   0.00003  -0.00043  -0.00041   1.61079
   A43        1.91061   0.00009   0.00163   0.00036   0.00198   1.91259
   A44        2.00371   0.00026   0.00467   0.00135   0.00603   2.00974
   A45        1.61119   0.00000   0.00003  -0.00043  -0.00041   1.61079
    D1       -1.40155  -0.00003  -0.00090  -0.00026  -0.00117  -1.40271
    D2        0.63096   0.00018   0.00302   0.00201   0.00504   0.63600
    D3       -0.41699   0.00006   0.00113   0.00073   0.00186  -0.41513
    D4       -0.63096  -0.00018  -0.00302  -0.00201  -0.00504  -0.63600
    D5        1.40155   0.00003   0.00090   0.00026   0.00117   1.40271
    D6        0.41699  -0.00006  -0.00113  -0.00073  -0.00186   0.41513
    D7        0.80008   0.00004   0.00067  -0.00080  -0.00012   0.79996
    D8       -0.32451  -0.00006  -0.00104  -0.00112  -0.00217  -0.32668
    D9       -0.80008  -0.00004  -0.00067   0.00080   0.00012  -0.79996
   D10        0.32451   0.00006   0.00104   0.00112   0.00217   0.32668
   D11        0.00000   0.00000   0.00000   0.00000   0.00000   0.00000
   D12        1.01250   0.00001   0.00030  -0.00046  -0.00016   1.01234
   D13       -1.01250  -0.00001  -0.00030   0.00046   0.00016  -1.01234
   D14        0.00000   0.00000   0.00000   0.00000   0.00000   0.00000
   D15        0.00000   0.00000   0.00000   0.00000   0.00000   0.00000
   D16       -1.04814   0.00000   0.00000   0.00002   0.00002  -1.04812
   D17        0.52407   0.00000   0.00000  -0.00001  -0.00001   0.52406
   D18       -0.52407   0.00000   0.00000   0.00001   0.00001  -0.52406
   D19        1.04814   0.00000   0.00000  -0.00002  -0.00002   1.04812
   D20        0.00000   0.00000   0.00000   0.00000   0.00000   0.00000
   D21       -0.63096  -0.00018  -0.00302  -0.00201  -0.00504  -0.63600
   D22        0.41699  -0.00006  -0.00113  -0.00073  -0.00186   0.41513
   D23        1.40155   0.00003   0.00090   0.00026   0.00117   1.40271
   D24        0.00000   0.00000   0.00000   0.00000   0.00000   0.00000
   D25        1.01250   0.00001   0.00030  -0.00046  -0.00016   1.01234
   D26       -1.01250  -0.00001  -0.00030   0.00046   0.00016  -1.01234
   D27        0.00000   0.00000   0.00000   0.00000   0.00000   0.00000
   D28        0.00000   0.00000   0.00000   0.00000   0.00000   0.00000
   D29        1.04814   0.00000   0.00000  -0.00002  -0.00002   1.04812
   D30       -0.52407   0.00000   0.00000   0.00001   0.00001  -0.52406
   D31        0.52407   0.00000   0.00000  -0.00001  -0.00001   0.52406
   D32       -1.04814   0.00000   0.00000   0.00002   0.00002  -1.04812
   D33        0.00000   0.00000   0.00000   0.00000   0.00000   0.00000
   D34        0.63096   0.00018   0.00302   0.00201   0.00504   0.63600
   D35       -0.41699   0.00006   0.00113   0.00073   0.00186  -0.41513
   D36       -1.40155  -0.00003  -0.00090  -0.00026  -0.00117  -1.40271
   D37        0.00000   0.00000   0.00000   0.00000   0.00000   0.00000
   D38       -1.01250  -0.00001  -0.00030   0.00046   0.00016  -1.01234
   D39        1.01250   0.00001   0.00030  -0.00046  -0.00016   1.01234
   D40        0.00000   0.00000   0.00000   0.00000   0.00000   0.00000
   D41       -0.80008  -0.00004  -0.00067   0.00080   0.00012  -0.79996
   D42        0.32451   0.00006   0.00104   0.00112   0.00217   0.32668
   D43        0.00000   0.00000   0.00000   0.00000   0.00000   0.00000
   D44        0.99833   0.00011   0.00193   0.00036   0.00230   1.00063
   D45       -0.99833  -0.00011  -0.00193  -0.00036  -0.00230  -1.00063
   D46        0.00000   0.00000   0.00000   0.00000   0.00000   0.00000
   D47        0.00000   0.00000   0.00000   0.00000   0.00000   0.00000
   D48        0.99833   0.00011   0.00193   0.00036   0.00230   1.00063
   D49       -0.99833  -0.00011  -0.00193  -0.00036  -0.00230  -1.00063
   D50        0.00000   0.00000   0.00000   0.00000   0.00000   0.00000
   D51        0.41699  -0.00006  -0.00113  -0.00073  -0.00186   0.41513
   D52        1.40155   0.00003   0.00090   0.00026   0.00117   1.40271
   D53       -0.63096  -0.00018  -0.00302  -0.00201  -0.00504  -0.63600
   D54       -0.32451  -0.00006  -0.00104  -0.00112  -0.00217  -0.32668
   D55        0.80008   0.00004   0.00067  -0.00080  -0.00012   0.79996
   D56        0.80008   0.00004   0.00067  -0.00080  -0.00012   0.79996
   D57       -0.32451  -0.00006  -0.00104  -0.00112  -0.00217  -0.32668
   D58        0.00000   0.00000   0.00000   0.00000   0.00000   0.00000
   D59       -0.99833  -0.00011  -0.00193  -0.00036  -0.00230  -1.00063
   D60        0.99833   0.00011   0.00193   0.00036   0.00230   1.00063
   D61        0.00000   0.00000   0.00000   0.00000   0.00000   0.00000
   D62       -0.41699   0.00006   0.00113   0.00073   0.00186  -0.41513
   D63        0.63096   0.00018   0.00302   0.00201   0.00504   0.63600
   D64       -1.40155  -0.00003  -0.00090  -0.00026  -0.00117  -1.40271
   D65        0.32451   0.00006   0.00104   0.00112   0.00217   0.32668
   D66       -0.80008  -0.00004  -0.00067   0.00080   0.00012  -0.79996
   D67       -1.04814   0.00000   0.00000   0.00002   0.00002  -1.04812
   D68        0.00000   0.00000   0.00000   0.00000   0.00000   0.00000
   D69        0.00000   0.00000   0.00000   0.00000   0.00000   0.00000
   D70        1.04814   0.00000   0.00000  -0.00002  -0.00002   1.04812
   D71       -0.52407   0.00000   0.00000   0.00001   0.00001  -0.52406
   D72        0.52407   0.00000   0.00000  -0.00001  -0.00001   0.52406
         Item               Value     Threshold  Converged?
 Maximum Force            0.000827     0.000450     NO 
 RMS     Force            0.000205     0.000300     YES
 Maximum Displacement     0.012782     0.001800     NO 
 RMS     Displacement     0.003136     0.001200     NO 
 Predicted change in Energy=-8.301693D-05
 GradGradGradGradGradGradGradGradGradGradGradGradGradGradGradGradGradGrad

                          Input orientation:                          
 ---------------------------------------------------------------------
 Center     Atomic      Atomic             Coordinates (Angstroms)
 Number     Number       Type             X           Y           Z
 ---------------------------------------------------------------------
      1         14           0        2.118725   -1.223247    0.256098
      2         14           0        1.378245    0.795730   -0.941423
      3         14           0        0.000000   -1.591460   -0.941423
      4         14           0        0.000000   -1.475022    1.578228
      5         14           0       -2.118725   -1.223247    0.256098
      6         14           0        0.000000    0.000000   -2.678709
      7         14           0        1.277407    0.737511    1.578228
      8         14           0        0.000000    2.446493    0.256098
      9         14           0       -1.378245    0.795730   -0.941423
     10         14           0       -1.277407    0.737511    1.578228
 ---------------------------------------------------------------------
                    Distance matrix (angstroms):
                    1          2          3          4          5
     1  Si   0.000000
     2  Si   2.461430   0.000000
     3  Si   2.461430   2.756490   0.000000
     4  Si   2.510063   3.661218   2.522341   0.000000
     5  Si   4.237451   4.211784   2.461430   2.510063   0.000000
     6  Si   3.820788   2.356036   2.356036   4.505242   3.820788
     7  Si   2.510063   2.522341   3.661218   2.554813   4.138395
     8  Si   4.237451   2.461430   4.211784   4.138395   4.237451
     9  Si   4.211784   2.756490   2.756490   3.661218   2.461430
    10  Si   4.138395   3.661218   3.661218   2.554813   2.510063
                    6          7          8          9         10
     6  Si   0.000000
     7  Si   4.505242   0.000000
     8  Si   3.820788   2.510063   0.000000
     9  Si   2.356036   3.661218   2.461430   0.000000
    10  Si   4.505242   2.554813   2.510063   2.522341   0.000000
 Stoichiometry    Si10
 Framework group  C3V[C3(Si),3SGV(Si3)]
 Deg. of freedom     6
 Full point group                 C3V     NOp   6
 Largest Abelian subgroup         CS      NOp   2
 Largest concise Abelian subgroup CS      NOp   2
                         Standard orientation:                         
 ---------------------------------------------------------------------
 Center     Atomic      Atomic             Coordinates (Angstroms)
 Number     Number       Type             X           Y           Z
 ---------------------------------------------------------------------
      1         14           0        0.000000    2.446493   -0.256098
      2         14           0        1.378245    0.795730    0.941423
      3         14           0       -1.378245    0.795730    0.941423
      4         14           0       -1.277407    0.737511   -1.578228
      5         14           0       -2.118725   -1.223247   -0.256098
      6         14           0        0.000000    0.000000    2.678709
      7         14           0        1.277407    0.737511   -1.578228
      8         14           0        2.118725   -1.223247   -0.256098
      9         14           0        0.000000   -1.591460    0.941423
     10         14           0        0.000000   -1.475022   -1.578228
 ---------------------------------------------------------------------
 Rotational constants (GHZ):      0.5630737      0.5385184      0.5385184
 Standard basis: GTBas3 (6D, 7F)
 There are   184 symmetry adapted basis functions of A'  symmetry.
 There are   136 symmetry adapted basis functions of A"  symmetry.
 Integral buffers will be    131072 words long.
 Raffenetti 2 integral format.
 Two-electron integral symmetry is turned on.
   320 basis functions,   680 primitive gaussians,   350 cartesian basis functions
    70 alpha electrons       70 beta electrons
       nuclear repulsion energy      1533.8261937586 Hartrees.
 NAtoms=   10 NActive=   10 NUniq=    4 SFac= 3.00D+00 NAtFMM=   80 NAOKFM=F Big=F
 One-electron integrals computed using PRISM.
 NBasis=   320 RedAO= T  NBF=   184   136
 NBsUse=   320 1.00D-06 NBFU=   184   136
 Initial guess read from the read-write file.
 B after Tr=     0.000000    0.000000    0.000000
         Rot=    1.000000    0.000000    0.000000    0.000000 Ang=   0.00 deg.
 Initial guess orbital symmetries:
       Occupied  (A1) (E) (E) (A1) (E) (E) (A1) (E) (E) (A1) (A1)
                 (A1) (E) (E) (A1) (E) (E) (E) (E) (A1) (E) (E)
                 (A1) (E) (E) (A1) (E) (E) (A2) (E) (E) (A1) (A1)
                 (E) (E) (A1) (E) (E) (A2) (E) (E) (A1) (E) (E)
                 (E) (E) (A2) (A1) (E) (E) (A1) (A1) (E) (E) (A1)
                 (E) (E) (E) (E) (A1) (E) (E) (A1) (A1) (A2) (E)
                 (E) (E) (E) (A1)
       Virtual   (A1) (E) (E) (E) (E) (A2) (A1) (E) (E) (A1) (E)
                 (E) (E) (E) (A1) (E) (E) (E) (E) (A2) (A1) (E)
                 (E) (A1) (A1) (E) (E) (A2) (A1) (E) (E) (E) (E)
                 (A1) (E) (E) (A1) (E) (E) (E) (E) (A1) (E) (E)
                 (A2) (E) (E) (A1) (E) (E) (A1) (E) (E) (E) (E)
                 (A2) (E) (E) (A1) (E) (E) (E) (E) (A1) (A2) (A1)
                 (A2) (E) (E) (A1) (E) (E) (A1) (E) (E) (E) (E)
                 (E) (E) (E) (E) (A1) (A2) (A1) (E) (E) (E) (E)
                 (A1) (A2) (E) (E) (A2) (A1) (E) (E) (A1) (E) (E)
                 (E) (E) (A1) (E) (E) (E) (E) (E) (E) (A2) (A1)
                 (A1) (A2) (E) (E) (A1) (E) (E) (A1) (A1) (A1)
                 (E) (E) (E) (E) (A2) (E) (E) (A1) (E) (E) (E)
                 (E) (A2) (E) (E) (A1) (A1) (A1) (E) (E) (E) (E)
                 (E) (E) (E) (E) (A2) (A1) (E) (E) (A1) (E) (E)
                 (A2) (A1) (E) (E) (A1) (E) (E) (E) (E) (A2) (A1)
                 (E) (E) (E) (E) (A2) (E) (E) (A2) (A1) (E) (E)
                 (A1) (E) (E) (A2) (E) (E) (A2) (E) (E) (A1) (E)
                 (E) (A1) (E) (E) (A1) (E) (E) (A2) (A1) (E) (E)
                 (E) (E) (A1) (E) (E) (E) (E) (A1) (E) (E) (A2)
                 (E) (E) (A1) (E) (E) (A1) (E) (E) (A1) (A1) (E)
                 (E) (A2) (E) (E) (A1) (E) (E) (A2) (E) (E) (A1)
                 (E) (E) (A2) (E) (E) (E) (E) (E) (E) (A1) (A2)
                 (A1) (E) (E) (A1) (E) (E) (E) (E) (A1)
 Requested convergence on RMS density matrix=1.00D-08 within 128 cycles.
 Requested convergence on MAX density matrix=1.00D-06.
 Requested convergence on             energy=1.00D-06.
 No special actions if energy rises.
 Keep R1 ints in memory in canonical form, NReq=1908639935.
 EnCoef did     5 forward-backward iterations
 SCF Done:  E(RB3LYP) =  -2894.94295064     A.U. after   10 cycles
             Convg  =    0.4750D-08             -V/T =  2.0035
 QCSCF skips out because SCF is already converged.
 Calling FoFJK, ICntrl=      2127 FMM=F ISym2X=1 I1Cent= 0 IOpClX= 0 NMat=1 NMatS=1 NMatT=0.
 ***** Axes restored to original set *****
 -------------------------------------------------------------------
 Center     Atomic                   Forces (Hartrees/Bohr)
 Number     Number              X              Y              Z
 -------------------------------------------------------------------
      1       14           0.000380314   -0.000219574    0.000370335
      2       14          -0.000424840   -0.000245281   -0.000308829
      3       14           0.000000000    0.000490563   -0.000308829
      4       14           0.000000000   -0.000190588    0.000015616
      5       14          -0.000380314   -0.000219574    0.000370335
      6       14           0.000000000    0.000000000   -0.000231366
      7       14           0.000165054    0.000095294    0.000015616
      8       14           0.000000000    0.000439149    0.000370335
[...]
 Alpha virt. eigenvalues --    2.45354   2.46397   2.47202   2.47202   2.48577
 Alpha virt. eigenvalues --    2.48870   2.48870   2.51774   2.52786   2.52786
 Alpha virt. eigenvalues --    2.56530   2.57116   2.57116   2.57166   2.61695
 Alpha virt. eigenvalues --    2.64018   2.65191   2.65308   2.65308   2.66880
 Alpha virt. eigenvalues --    2.66880   2.67264   2.70704   2.70704   2.73098
 Alpha virt. eigenvalues --    2.73098   2.75417   2.76524   2.76524   2.81301
 Alpha virt. eigenvalues --    2.81301   2.81627   2.82965   2.82965   2.83354
 Alpha virt. eigenvalues --    2.83694   2.84519   2.84519   2.87860   2.90546
 Alpha virt. eigenvalues --    2.90546   2.92903   2.92903   2.95573   2.95573
 Alpha virt. eigenvalues --    2.97285   3.02277   3.02277   3.04512   3.05535
 Alpha virt. eigenvalues --    3.05975   3.05975   3.09049   3.10621   3.10621
 Alpha virt. eigenvalues --    3.16604   3.17705   3.17705   3.19610   3.21496
 Alpha virt. eigenvalues --    3.21496   3.21831   3.23888   3.23888   3.24015
 Alpha virt. eigenvalues --    3.25580   3.27395   3.27857   3.27857   3.29139
 Alpha virt. eigenvalues --    3.29139   3.29602   3.31431   3.31431   3.32053
 Alpha virt. eigenvalues --    3.32443   3.33975   3.33975   3.34980   3.34980
 Alpha virt. eigenvalues --    3.38031   3.38031   3.38401   3.38567   3.38761
 Alpha virt. eigenvalues --    3.38761   3.41424   3.42201   3.42201   3.45345
 Alpha virt. eigenvalues --    3.46135   3.46791   3.46791   3.47938   3.47938
 Alpha virt. eigenvalues --    3.48505   3.48505   3.48867   3.50732   3.51529
 Alpha virt. eigenvalues --    3.51529   3.52200   3.52200   3.53368   3.53679
 Alpha virt. eigenvalues --    3.53876   3.53876   3.55483   3.55517   3.55517
 Alpha virt. eigenvalues --    3.55523   3.57300   3.57300   3.58281   3.58281
 Alpha virt. eigenvalues --    3.58625   3.58788   3.58788   3.58968   3.60233
 Alpha virt. eigenvalues --    3.60233   3.61954   3.62977   3.62977   3.63411
 Alpha virt. eigenvalues --    3.63822   3.63901   3.63901   3.64857   3.66043
 Alpha virt. eigenvalues --    3.66043   3.66481   3.67731   3.67731   3.68246
 Alpha virt. eigenvalues --    3.68246   3.69969   3.70161   3.70244   3.70244
 Alpha virt. eigenvalues --    3.71014   3.71014   3.71098   3.71676   3.72368
 Alpha virt. eigenvalues --    3.72368   3.73129   3.73129   3.75333   3.75692
 Alpha virt. eigenvalues --    3.75692   3.76950   3.76950   3.78667   3.79226
 Alpha virt. eigenvalues --    3.79226   3.79902   3.80245   3.82614   3.82929
 Alpha virt. eigenvalues --    3.82929   3.83912   3.83912   3.84918   3.86214
 Alpha virt. eigenvalues --    3.86214   3.87405   3.87500   3.87500   3.89598
 Alpha virt. eigenvalues --    3.92151   3.93982   3.93982   3.95206   3.95206
 Alpha virt. eigenvalues --    3.95240   3.95581   3.96213   3.96213   3.97462
 Alpha virt. eigenvalues --    3.99213   3.99213   3.99546   4.00422   4.00422
 Alpha virt. eigenvalues --    4.01455   4.02418   4.02418   4.04466   4.04466
 Alpha virt. eigenvalues --    4.05804   4.05804   4.06448   4.06799   4.08187
 Alpha virt. eigenvalues --    4.08187   4.11062   4.11291   4.11291   4.12745
 Alpha virt. eigenvalues --    4.14188   4.14188   4.16693   4.17137   4.17137
 Alpha virt. eigenvalues --    4.17177   4.17177   4.19761   4.21238   4.21450
 Alpha virt. eigenvalues --    4.22642   4.22642   4.23053   4.23053   4.23983
 Alpha virt. eigenvalues --    4.24599   4.24687   4.24687   4.26738   4.26738
 Alpha virt. eigenvalues --    4.27284   4.27284   4.28119   4.28407   4.30041
 Alpha virt. eigenvalues --    4.30041   4.31332   4.32062   4.32062   4.34491
 Alpha virt. eigenvalues --    4.34491   4.36674   4.37546   4.37753   4.37753
 Alpha virt. eigenvalues --    4.39285   4.39307   4.39632   4.39632   4.40339
 Alpha virt. eigenvalues --    4.40339   4.42046   4.44213   4.44213   4.46087
 Alpha virt. eigenvalues --    4.46087   4.47720   4.47720   4.47858   4.47858
 Alpha virt. eigenvalues --    4.48259   4.49205   4.49205   4.49386   4.50342
 Alpha virt. eigenvalues --    4.51009   4.52473   4.52705   4.52705   4.53661
 Alpha virt. eigenvalues --    4.53661   4.54388   4.55361   4.55361   4.56021
 Alpha virt. eigenvalues --    4.57144   4.58286   4.58286   4.58442   4.60028
 Alpha virt. eigenvalues --    4.60028   4.61641   4.61641   4.63272   4.64197
 Alpha virt. eigenvalues --    4.64197   4.65623   4.67904   4.67904   4.69287
 Alpha virt. eigenvalues --    4.69287   4.70643   4.70648   4.71137   4.71137
 Alpha virt. eigenvalues --    4.72405   4.72838   4.72838   4.73349   4.74994
 Alpha virt. eigenvalues --    4.74994   4.77133   4.78152   4.78152   4.78704
 Alpha virt. eigenvalues --    4.79640   4.79640   4.80144   4.81464   4.81464
 Alpha virt. eigenvalues --    4.82037   4.83203   4.83742   4.83742   4.84398
 Alpha virt. eigenvalues --    4.84398   4.86152   4.86429   4.86429   4.86904
 Alpha virt. eigenvalues --    4.88682   4.88682   4.89555   4.92256   4.92256
 Alpha virt. eigenvalues --    4.92667   4.93290   4.95018   4.95018   4.95301
 Alpha virt. eigenvalues --    4.96025   4.97483   4.97483   4.98177   4.99748
 Alpha virt. eigenvalues --    5.02033   5.02033   5.02919   5.02919   5.03115
 Alpha virt. eigenvalues --    5.07259   5.07670   5.07674   5.07674   5.09838
 Alpha virt. eigenvalues --    5.09838   5.10928   5.13209   5.13209   5.14442
 Alpha virt. eigenvalues --    5.14442   5.18573   5.18874   5.18874   5.19819
 Alpha virt. eigenvalues --    5.22062   5.22062   5.26546   5.26546   5.27655
 Alpha virt. eigenvalues --    5.27819   5.30942   5.30942   5.32518   5.32518
 Alpha virt. eigenvalues --    5.33898   5.37198   5.37301   5.37301   5.39682
 Alpha virt. eigenvalues --    5.39682   5.42126   5.42126   5.42458   5.44315
 Alpha virt. eigenvalues --    5.45487   5.45487   5.50905   5.50905   5.50971
 Alpha virt. eigenvalues --    5.53588   5.67235   5.72101   5.72101   5.72916
 Alpha virt. eigenvalues --    5.82693   5.82693   5.94284   5.94284   5.95499
 Alpha virt. eigenvalues --    6.58468   6.58468   6.59290   6.66634   6.76925
 Alpha virt. eigenvalues --    6.76925   6.81599   6.81816   6.82226   6.82226
 Alpha virt. eigenvalues --    6.86482   6.86482   6.86674   6.90129   6.90129
 Alpha virt. eigenvalues --    6.94412   6.94412   6.96213   6.96539   6.96539
 Alpha virt. eigenvalues --    6.97429   7.00400   7.00400   7.04534   7.09326
 Alpha virt. eigenvalues --    7.09326   7.12775   7.13924   7.13924   7.16149
 Alpha virt. eigenvalues --    7.16149   7.20763   7.20763   7.23303   7.27932
 Alpha virt. eigenvalues --    7.31339   7.31339   7.34690   7.38721   7.39054
 Alpha virt. eigenvalues --    7.39054   7.45248   7.45248   7.45471   7.53869
 Alpha virt. eigenvalues --    7.53869   7.70934   7.71070   7.87033   7.87033
 Alpha virt. eigenvalues --   13.89287  13.97489  13.97489  14.16475  14.16475
 Alpha virt. eigenvalues --   14.24134  14.24134  14.24842  14.30581  14.33944
 Alpha virt. eigenvalues --   14.33944  14.37673  14.37813  14.39328  14.39328
 Alpha virt. eigenvalues --   14.40692  14.40692  14.45831  14.52465  14.52465
 Alpha virt. eigenvalues --   14.54737  14.55636  14.59938  14.59938  14.64019
 Alpha virt. eigenvalues --   14.71059  14.71059  15.02396  15.02396  15.10862
 Alpha virt. eigenvalues --   41.94889  42.25815  42.50957  42.50957  43.24610
 Alpha virt. eigenvalues --   43.63111  44.21298  44.21298  45.96287  45.96287
          Condensed to atoms (all electrons):
              1          2          3          4          5          6
     1  Si  13.233460   0.261832   0.261832   0.185821  -0.000762  -0.018693
     2  Si   0.261832  12.818898   0.039387   0.004194  -0.005847   0.334998
     3  Si   0.261832   0.039387  12.818898   0.106738   0.261832   0.334998
     4  Si   0.185821   0.004194   0.106738  13.212065   0.185821   0.000264
     5  Si  -0.000762  -0.005847   0.261832   0.185821  13.233460  -0.018693
     6  Si  -0.018693   0.334998   0.334998   0.000264  -0.018693  13.161162
     7  Si   0.185821   0.106738   0.004194   0.145200   0.002616   0.000264
     8  Si  -0.000762   0.261832  -0.005847   0.002616  -0.000762  -0.018693
     9  Si  -0.005847   0.039387   0.039387   0.004194   0.261832   0.334998
    10  Si   0.002616   0.004194   0.004194   0.145200   0.185821   0.000264
              7          8          9         10
     1  Si   0.185821  -0.000762  -0.005847   0.002616
     2  Si   0.106738   0.261832   0.039387   0.004194
     3  Si   0.004194  -0.005847   0.039387   0.004194
     4  Si   0.145200   0.002616   0.004194   0.145200
     5  Si   0.002616  -0.000762   0.261832   0.185821
     6  Si   0.000264  -0.018693   0.334998   0.000264
     7  Si  13.212065   0.185821   0.004194   0.145200
     8  Si   0.185821  13.233460   0.261832   0.185821
     9  Si   0.004194   0.261832  12.818898   0.106738
    10  Si   0.145200   0.185821   0.106738  13.212065
 Mulliken atomic charges:
              1
     1  Si  -0.105318
     2  Si   0.134388
     3  Si   0.134388
     4  Si   0.007887
     5  Si  -0.105318
     6  Si  -0.110870
     7  Si   0.007887
     8  Si  -0.105318
     9  Si   0.134388
    10  Si   0.007887
 Sum of Mulliken atomic charges =   0.00000
 Mulliken charges with hydrogens summed into heavy atoms:
              1
     1  Si  -0.105318
     2  Si   0.134388
     3  Si   0.134388
     4  Si   0.007887
     5  Si  -0.105318
     6  Si  -0.110870
     7  Si   0.007887
     8  Si  -0.105318
     9  Si   0.134388
    10  Si   0.007887
 Sum of Mulliken charges with hydrogens summed into heavy atoms =   0.00000
 Electronic spatial extent (au):  <R**2>=           2783.2128
 Charge=              0.0000 electrons
 Dipole moment (field-independent basis, Debye):
    X=              0.0000    Y=              0.0000    Z=              1.1311  Tot=              1.1311
 Quadrupole moment (field-independent basis, Debye-Ang):
   XX=           -137.7849   YY=           -137.7849   ZZ=           -132.1921
   XY=              0.0000   XZ=              0.0000   YZ=              0.0000
 Traceless Quadrupole moment (field-independent basis, Debye-Ang):
   XX=             -1.8643   YY=             -1.8643   ZZ=              3.7286
   XY=              0.0000   XZ=              0.0000   YZ=              0.0000
 Octapole moment (field-independent basis, Debye-Ang**2):
  XXX=              0.0000  YYY=            -13.8731  ZZZ=             -1.1744  XYY=              0.0000
  XXY=             13.8731  XXZ=             10.4064  XZZ=              0.0000  YZZ=              0.0000
  YYZ=             10.4064  XYZ=              0.0000
 Hexadecapole moment (field-independent basis, Debye-Ang**3):
 XXXX=          -1614.8179 YYYY=          -1614.8179 ZZZZ=          -1646.0171 XXXY=              0.0000
 XXXZ=              0.0000 YYYX=              0.0000 YYYZ=             -9.2230 ZZZX=              0.0000
 ZZZY=              0.0000 XXYY=           -538.2726 XXZZ=           -550.4383 YYZZ=           -550.4383
 XXYZ=              9.2230 YYXZ=              0.0000 ZZXY=              0.0000
 N-N= 1.533751614536D+03 E-N=-9.961484813556D+03  KE= 2.889357499876D+03
 Symmetry A'   KE= 1.922518209731D+03
 Symmetry A"   KE= 9.668392901453D+02
 1\1\GINC-NODE77\SP\RHF\GFHFB2\Si10\TAM\20-Dec-2011\0\\#N Geom=AllCheck
  Guess=TCheck SCRF=Check HF/GFHFB2 SCF=Tight\\si10-n\\0,1\Si,0,2.12083
 22192,-1.2244630517,0.2608428097\Si,0,1.3740917567,0.7933322466,-0.942
 6960729\Si,0,0.,-1.5866644902,-0.9426960729\Si,0,0.,-1.4759244722,1.57
 63850474\Si,0,-2.1208322192,-1.2244630517,0.2608428097\Si,0,0.,0.00000
 0001,-2.6835953592\Si,0,1.2781880878,0.7379622376,1.5763850474\Si,0,0.
 ,2.4489261063,0.2608428097\Si,0,-1.3740917567,0.7933322466,-0.94269607
 29\Si,0,-1.2781880878,0.7379622376,1.5763850474\\Version=AM64L-G09RevA
 .02\State=1-A1\HF=-2889.296692\RMSD=8.286e-09\Dipole=0.,0.,-0.4450198\
 Quadrupole=-1.3860527,-1.3860527,2.7721053,0.,0.,0.\PG=C03V [C3(Si1),3
 SGV(Si3)]\\@


 IF THERE IS ONE WAY BETTER THAN ANOTHER IT IS THE WAY OF NATURE.

                          -- ARISTOTLE
 Diagonal vibrational polarizability:
        0.0000000       0.0000000       0.0000000

 Temperature=              298.150000 Pressure=                      1.000000
 E(ZPE)=                     0.015008 E(Thermal)=                    0.029012
 E(CCSD(T))=             -2890.048109 E(Empiric)=                   -0.138940
 DE(Plus)=                  -0.024466 DE(2DF)=                      -0.363140
 E(Delta-G3XP)=             -3.138242 DE(HF)=                       -0.066514
 G4(0 K)=                -2893.764404 G4 Energy=                 -2893.750400
 G4 Enthalpy=            -2893.749456 G4 Free Energy=            -2893.803529
 1\1\GINC-NODE77\Mixed\G4\G4\Si10\TAM\20-Dec-2011\0\\# G4 scfcyc=500 sc
 f=xqc\\si10-n\\0,1\Si,0,2.1208322192,-1.2244630517,0.2608428097\Si,0,1
 .3740917567,0.7933322466,-0.9426960729\Si,0,0.,-1.5866644902,-0.942696
 0729\Si,0,0.,-1.4759244722,1.5763850474\Si,0,-2.1208322192,-1.22446305
 17,0.2608428097\Si,0,0.,0.000000001,-2.6835953592\Si,0,1.2781880878,0.
 7379622376,1.5763850474\Si,0,0.,2.4489261063,0.2608428097\Si,0,-1.3740
 917567,0.7933322466,-0.9426960729\Si,0,-1.2781880878,0.7379622376,1.57
 63850474\\Version=AM64L-G09RevA.02\State=1-A1\MP2/GTBas1=-2890.0029239
 \MP4/GTBas1=-2890.1417931\CCSD(T)/G3Bas1=-2890.0481092\MP2/GTBas2=-289
 0.0249106\MP4/GTBas2=-2890.166259\MP2/GTBas3=-2890.3314156\MP4/GTBas3=
 -2890.5049335\HF/GTLargeXP=-2889.2326168\MP2/GTLargeXP=-2893.491644\HF
 /GFHFB1=-2889.2866814\HF/GFHFB2=-2889.296692\G4=-2893.7644037\FreqCoor
 d=4.0077920681,-2.3138998275,0.4929214741,2.5966571016,1.4991806785,-1
 .7814374044,0.,-2.9983613513,-1.7814374044,0.,-2.7890930452,2.97893601
 96,-4.0077920681,-2.3138998275,0.4929214741,0.,0.0000000019,-5.0712602
 804,2.4154254323,1.3945465254,2.9789360196,0.,4.6277996606,0.492921474
 1,-2.5966571016,1.4991806785,-1.7814374044,-2.4154254323,1.3945465254,
 2.9789360196\PG=C03V [C3(Si1),3SGV(Si3)]\NImag=0\\0.09319234,-0.029903
 87,0.05866233,0.00326866,-0.00188716,0.04087589,-0.00775353,0.01415118
 ,-0.00648516,0.07157336,0.01066174,-0.02585718,0.01147542,0.00302434,0
 .06808227,-0.00476640,0.01142808,-0.00943724,0.01639603,0.00946525,0.1
 0775977,-0.03207558,-0.00338060,-0.01318059,-0.00698842,-0.00807574,0.
 00877284,0.06633589,0.00010884,-0.00153513,-0.00012139,-0.00599482,-0.
 01511206,-0.00273223,0.00000049,0.07331975,-0.01228021,-0.00158621,-0.
 00943724,0.00675260,-0.00623139,0.00568988,0.00000087,-0.01893200,0.10
 775977,-0.02669573,-0.00158894,0.01362653,0.00098715,-0.01049799,0.004
 92774,0.01144869,0.00000026,0.00000059,0.06755981,0.00386434,0.0015108
 7,-0.00048500,-0.00265418,-0.00365104,0.00037654,0.00000052,0.00159756
 ,0.00200627,-0.00000016,0.06704599,0.00803811,-0.00053453,-0.00490656,
 0.00052770,0.00158243,-0.00646468,-0.00000055,0.00543089,-0.04472930,-
 0.00000071,-0.01251912,0.07272039,-0.00388792,-0.00345737,0.00100936,-
 0.00688644,-0.00152863,-0.00148444,-0.03207535,-0.00010931,0.01227969,
 -0.02669527,-0.00386480,-0.00803782,0.09319234,0.00345737,-0.00342881,
 0.00024568,-0.00152893,-0.00512062,-0.00085692,0.00338017,-0.00153532,
 -0.00158643,0.00158852,0.00151052,-0.00053452,0.02990387,0.05866233,-0
 .00100936,0.00024568,-0.00255025,0.00575540,0.00332289,-0.00206325,0.0
 1318058,-0.00012141,-0.00943714,-0.01362636,-0.00048502,-0.00490659,-0
 .00326866,-0.00188716,0.04087589,-0.00064187,0.00119970,-0.00517288,-0
 .01704545,-0.00878629,-0.03443025,-0.00182711,-0.00000046,0.00000029,-
 0.00595513,0.,-0.00000022,-0.00064183,-0.00119974,0.00517306,0.0511880
 6,0.00119970,0.00074342,0.00298657,-0.00878677,-0.00690015,-0.01987865
 ,0.00000002,-0.02211849,0.03975680,0.00000021,-0.00432673,0.00512333,-
 0.00119973,0.00074343,0.00298656,0.00000023,0.05118833,0.00250297,-0.0
 0144509,-0.00155565,-0.02455320,-0.01417541,-0.04054308,-0.00000033,0.
 02835140,-0.04054308,-0.00000086,-0.00306148,-0.00380708,-0.00250270,-
 0.00144490,-0.00155574,-0.00000052,0.00000030,0.13771902,-0.00652606,0
 .01550930,0.00723329,0.00406001,-0.00426534,-0.00173719,0.00320356,-0.
 00137453,0.00213777,-0.01020846,-0.01574190,-0.00481584,-0.00518202,-0
 .00228597,-0.00516468,-0.00473392,0.00070506,0.00265088,0.06717459,0.0
 1005602,-0.01865880,-0.01155842,-0.00426560,0.00898624,-0.00100365,-0.
 00921834,-0.00586746,-0.00445582,-0.01293815,-0.02676689,0.00051453,-0
 .00228598,-0.00254208,-0.00298191,0.00070528,-0.00554794,0.00153148,-0
 .00022257,0.06743122,0.00448197,-0.00669394,-0.00490656,-0.00470356,-0
 .00271497,-0.04472930,-0.00110658,-0.00124822,-0.00646468,-0.00285352,
 0.00391338,0.00101368,0.00100273,0.00057875,-0.00346894,-0.00443704,-0
 .00256148,-0.00380708,0.01084152,0.00626018,0.07272039,-0.00354359,0.0
 0365618,0.00029192,-0.01058666,0.01578668,0.00751374,-0.00423811,0.000
 00009,-0.00000010,-0.00122235,0.00000015,0.00000016,-0.00354359,-0.003
 65618,-0.00029192,0.00143611,-0.00000004,-0.00000003,-0.00455527,0.014
 37106,-0.00355600,0.04139732,-0.00325857,-0.00377315,-0.00099697,0.012
 29720,-0.02302402,-0.00984131,0.00000038,-0.00776895,0.00171402,0.0000
 0014,-0.00650175,-0.00115776,0.00325857,-0.00377315,-0.00099697,-0.000
 00003,-0.00133451,0.00288985,0.00891773,-0.02062948,0.00722821,0.,0.11
 045735,-0.00071744,0.00075129,-0.00255025,0.00669544,-0.01135401,-0.00
 943714,-0.00000001,-0.00664577,-0.00206325,0.00000007,0.00596370,-0.00
 346894,0.00071744,0.00075129,-0.00255025,0.00000010,-0.00597328,-0.001
 55574,-0.00639314,0.01204328,-0.00490659,0.,0.00377432,0.04087589,-0.0
 0688604,0.00152887,-0.00575541,-0.01917391,0.00104026,0.00201967,-0.00
 698810,0.00599528,-0.00675326,0.00098711,0.00265445,-0.00052755,-0.007
 75401,-0.01415125,0.00648515,-0.01704560,0.00878623,0.02455327,-0.0081
 8614,0.00520132,-0.00163382,-0.01058696,-0.01229762,-0.00669543,0.0715
 7420,0.00152916,-0.00512102,0.00332287,-0.00104041,-0.00292638,0.00896
 364,0.00807571,-0.01511199,-0.00623040,0.01049751,-0.00365049,0.001581
 77,-0.01066177,-0.02585667,0.01147542,0.00878647,-0.00689974,-0.014176
 03,-0.00264219,0.00552267,-0.00033417,-0.01578706,-0.02302375,-0.01135
 403,-0.00302386,0.06808143,0.00148434,-0.00085710,-0.00206325,-0.00201
 962,0.00896367,0.00568986,-0.00877232,-0.00273329,0.00568983,-0.004926
 91,0.00037633,-0.00646481,0.00476596,0.01142774,-0.00943714,0.03443046
 ,-0.01987827,-0.04054347,-0.00278976,0.00407894,-0.00646481,-0.0075138
 0,-0.00984187,-0.00943724,-0.01639516,0.00946675,0.10775977,-0.0051820
 2,0.00228597,0.00516468,-0.00818606,0.00264168,0.00278937,0.00320383,0
 .00137458,-0.00213773,-0.01020769,0.01574211,0.00481594,-0.00652606,-0
 .01550930,-0.00723329,-0.00473375,-0.00070503,-0.00265051,-0.03504677,
 -0.00140160,0.00196315,-0.00455527,-0.00891773,0.00639314,0.00406034,0
 .00426566,0.00173748,0.06717459,0.00228598,-0.00254208,-0.00298191,-0.
 00520138,0.00552267,0.00407866,0.00921793,-0.00586764,-0.00445534,0.01
 293863,-0.02676719,0.00051400,-0.01005602,-0.01865880,-0.01155842,-0.0
 0070514,-0.00554780,0.00153077,0.00140160,-0.00192765,-0.00442775,-0.0
 1437106,-0.02062948,0.01204328,0.00426566,0.00898591,-0.00100314,0.000
 22257,0.06743122,-0.00100273,0.00057875,-0.00346894,0.00163362,-0.0003
 3402,-0.00646481,0.00110634,-0.00124813,-0.00646468,0.00285338,0.00391
 367,0.00101379,-0.00448197,-0.00669394,-0.00490656,0.00443692,-0.00256
 153,-0.00380729,-0.00196315,-0.00442775,0.00101390,0.00355600,0.007228
 21,-0.00490659,0.00470329,-0.00271544,-0.04472930,-0.01084152,0.006260
 18,0.07272039\\-0.00000536,0.00000310,0.00000009,-0.00006517,-0.000037
 63,0.00009936,0.,0.00007526,0.00009936,0.,0.00014894,-0.00012580,0.000
 00536,0.00000310,0.00000009,0.,0.,0.00007906,-0.00012898,-0.00007447,-
 0.00012580,0.,-0.00000619,0.00000009,0.00006517,-0.00003763,0.00009936
 ,0.00012898,-0.00007447,-0.00012580\\\@
 Job cpu time:  0 days  9 hours 36 minutes 13.7 seconds.
 File lengths (MBytes):  RWF=   8436 Int=      0 D2E=      0 Chk=     96 Scr=      1
 Normal termination of Gaussian 09 at Tue Dec 20 05:59:24 2011.
