 Entering Gaussian System, Link 0=g09
 Initial command:
 /usr/local/chem/g09A2/l1.exe /temp0/tam/Gau-27845.inp -scrdir=/temp0/tam/
 Entering Link 1 = /usr/local/chem/g09A2/l1.exe PID=     27846.
  
 Copyright (c) 1988,1990,1992,1993,1995,1998,2003,2009, Gaussian, Inc.
                  All Rights Reserved.
  
 This is part of the Gaussian(R) 09 program.  It is based on
 the Gaussian(R) 03 system (copyright 2003, Gaussian, Inc.),
 the Gaussian(R) 98 system (copyright 1998, Gaussian, Inc.),
 the Gaussian(R) 94 system (copyright 1995, Gaussian, Inc.),
 the Gaussian 92(TM) system (copyright 1992, Gaussian, Inc.),
 the Gaussian 90(TM) system (copyright 1990, Gaussian, Inc.),
 the Gaussian 88(TM) system (copyright 1988, Gaussian, Inc.),
 the Gaussian 86(TM) system (copyright 1986, Carnegie Mellon
 University), and the Gaussian 82(TM) system (copyright 1983,
 Carnegie Mellon University). Gaussian is a federally registered
 trademark of Gaussian, Inc.
  
 This software contains proprietary and confidential information,
 including trade secrets, belonging to Gaussian, Inc.
  
 This software is provided under written license and may be
 used, copied, transmitted, or stored only in accord with that
 written license.
  
 The following legend is applicable only to US Government
 contracts under FAR:
  
                    RESTRICTED RIGHTS LEGEND
  
 Use, reproduction and disclosure by the US Government is
 subject to restrictions as set forth in subparagraphs (a)
 and (c) of the Commercial Computer Software - Restricted
 Rights clause in FAR 52.227-19.
  
 Gaussian, Inc.
 340 Quinnipiac St., Bldg. 40, Wallingford CT 06492
  
  
 ---------------------------------------------------------------
 Warning -- This program may not be used in any manner that
 competes with the business of Gaussian, Inc. or will provide
 assistance to any competitor of Gaussian, Inc.  The licensee
 of this program is prohibited from giving any competitor of
 Gaussian, Inc. access to this program.  By using this program,
 the user acknowledges that Gaussian, Inc. is engaged in the
 business of creating and licensing software in the field of
 computational chemistry and represents and warrants to the
 licensee that it is not a competitor of Gaussian, Inc. and that
 it will not use this program in any manner prohibited above.
 ---------------------------------------------------------------
  

 Cite this work as:
 Gaussian 09, Revision A.02,
 M. J. Frisch, G. W. Trucks, H. B. Schlegel, G. E. Scuseria, 
 M. A. Robb, J. R. Cheeseman, G. Scalmani, V. Barone, B. Mennucci, 
 G. A. Petersson, H. Nakatsuji, M. Caricato, X. Li, H. P. Hratchian, 
 A. F. Izmaylov, J. Bloino, G. Zheng, J. L. Sonnenberg, M. Hada, 
 M. Ehara, K. Toyota, R. Fukuda, J. Hasegawa, M. Ishida, T. Nakajima, 
 Y. Honda, O. Kitao, H. Nakai, T. Vreven, J. A. Montgomery, Jr., 
 J. E. Peralta, F. Ogliaro, M. Bearpark, J. J. Heyd, E. Brothers, 
 K. N. Kudin, V. N. Staroverov, R. Kobayashi, J. Normand, 
 K. Raghavachari, A. Rendell, J. C. Burant, S. S. Iyengar, J. Tomasi, 
 M. Cossi, N. Rega, J. M. Millam, M. Klene, J. E. Knox, J. B. Cross, 
 V. Bakken, C. Adamo, J. Jaramillo, R. Gomperts, R. E. Stratmann, 
 O. Yazyev, A. J. Austin, R. Cammi, C. Pomelli, J. W. Ochterski, 
 R. L. Martin, K. Morokuma, V. G. Zakrzewski, G. A. Voth, 
 P. Salvador, J. J. Dannenberg, S. Dapprich, A. D. Daniels, 
 O. Farkas, J. B. Foresman, J. V. Ortiz, J. Cioslowski, 
 and D. J. Fox, Gaussian, Inc., Wallingford CT, 2009.
 
 ******************************************
 Gaussian 09:  AM64L-G09RevA.02 11-Jun-2009
                21-Dec-2011 
 ******************************************
 %NprocShared=6
 Will use up to    6 processors via shared memory.
 %mem=17750MB
 %chk=S9L-ne-d-01
 -----------------------
 # G4 scfcyc=500 scf=xqc
 -----------------------
 1/14=-1,18=20,19=15,26=3,38=1/1,3;
 2/9=110,12=2,17=6,18=5,40=1/2;
 3/5=35,7=104,11=2,16=1,25=1,30=1,71=1,74=-5/1,2,3;
 4//1;
 5/5=2,7=500,8=3,13=1,38=5/2,8;
 6/7=2,8=2,9=2,10=2,28=1/1;
 7//1,2,3,16;
 1/14=-1,18=20,19=15/3(2);
 2/9=110/2;
 99//99;
 2/9=110/2;
 3/5=35,7=104,11=2,16=1,25=1,30=1,71=1,74=-5/1,2,3;
 4/5=5,16=3/1;
 5/5=2,7=500,8=3,13=1,38=5/2,8;
 7//1,2,3,16;
 1/14=-1,18=20,19=15/3(-5);
 2/9=110/2;
 6/7=2,8=2,9=2,10=2,19=2,28=1/1;
 99/9=1/99;
 -----
 si8-a
 -----
 Symbolic Z-matrix:
 Charge = -1 Multiplicity = 2
 Si                    0.        1.99765  -1.39623 
 Si                   -1.85117   0.        1.49335 
 Si                    1.30942   0.       -1.02814 
 Si                    0.       -1.42744   0.93102 
 Si                    0.        1.42744   0.93102 
 Si                   -1.30942   0.       -1.02814 
 Si                    0.       -1.99765  -1.39623 
 Si                    1.85117   0.        1.49335 
 

 GradGradGradGradGradGradGradGradGradGradGradGradGradGradGradGradGradGrad
 Berny optimization.
 Initialization pass.
                           ----------------------------
                           !    Initial Parameters    !
                           ! (Angstroms and Degrees)  !
 --------------------------                            --------------------------
 ! Name  Definition              Value          Derivative Info.                !
 --------------------------------------------------------------------------------
 ! R1    R(1,3)                  2.4168         estimate D2E/DX2                !
 ! R2    R(1,5)                  2.3961         estimate D2E/DX2                !
 ! R3    R(1,6)                  2.4168         estimate D2E/DX2                !
 ! R4    R(2,4)                  2.4043         estimate D2E/DX2                !
 ! R5    R(2,5)                  2.4043         estimate D2E/DX2                !
 ! R6    R(2,6)                  2.579          estimate D2E/DX2                !
 ! R7    R(3,4)                  2.7551         estimate D2E/DX2                !
 ! R8    R(3,5)                  2.7551         estimate D2E/DX2                !
 ! R9    R(3,6)                  2.6188         estimate D2E/DX2                !
 ! R10   R(3,7)                  2.4168         estimate D2E/DX2                !
 ! R11   R(3,8)                  2.579          estimate D2E/DX2                !
 ! R12   R(4,5)                  2.8549         estimate D2E/DX2                !
 ! R13   R(4,6)                  2.7551         estimate D2E/DX2                !
 ! R14   R(4,7)                  2.3961         estimate D2E/DX2                !
 ! R15   R(4,8)                  2.4043         estimate D2E/DX2                !
 ! R16   R(5,6)                  2.7551         estimate D2E/DX2                !
 ! R17   R(5,8)                  2.4043         estimate D2E/DX2                !
 ! R18   R(6,7)                  2.4168         estimate D2E/DX2                !
 ! A1    A(1,3,4)              106.2043         estimate D2E/DX2                !
 ! A2    A(1,3,7)              111.4992         estimate D2E/DX2                !
 ! A3    A(1,3,8)              105.2318         estimate D2E/DX2                !
 ! A4    A(5,3,7)              106.2043         estimate D2E/DX2                !
 ! A5    A(6,3,8)              102.1258         estimate D2E/DX2                !
 ! A6    A(7,3,8)              105.2318         estimate D2E/DX2                !
 ! A7    A(2,4,3)              102.9823         estimate D2E/DX2                !
 ! A8    A(2,4,7)              111.6204         estimate D2E/DX2                !
 ! A9    A(2,4,8)              100.6977         estimate D2E/DX2                !
 ! A10   A(5,4,7)              103.7672         estimate D2E/DX2                !
 ! A11   A(6,4,8)              102.9823         estimate D2E/DX2                !
 ! A12   A(7,4,8)              111.6204         estimate D2E/DX2                !
 ! A13   A(1,5,2)              111.6204         estimate D2E/DX2                !
 ! A14   A(1,5,4)              103.7672         estimate D2E/DX2                !
 ! A15   A(1,5,8)              111.6204         estimate D2E/DX2                !
 ! A16   A(2,5,3)              102.9823         estimate D2E/DX2                !
 ! A17   A(2,5,8)              100.6977         estimate D2E/DX2                !
 ! A18   A(6,5,8)              102.9823         estimate D2E/DX2                !
 ! A19   A(1,6,2)              105.2318         estimate D2E/DX2                !
 ! A20   A(1,6,4)              106.2043         estimate D2E/DX2                !
 ! A21   A(1,6,7)              111.4992         estimate D2E/DX2                !
 ! A22   A(2,6,3)              102.1258         estimate D2E/DX2                !
 ! A23   A(2,6,7)              105.2318         estimate D2E/DX2                !
 ! A24   A(5,6,7)              106.2043         estimate D2E/DX2                !
 ! D1    D(1,3,4,2)             -2.294          estimate D2E/DX2                !
 ! D2    D(7,3,5,2)              2.294          estimate D2E/DX2                !
 ! D3    D(8,3,6,2)              0.0            estimate D2E/DX2                !
 ! D4    D(7,4,5,1)              0.0            estimate D2E/DX2                !
 ! D5    D(8,4,6,1)              2.294          estimate D2E/DX2                !
 ! D6    D(8,5,6,7)             -2.294          estimate D2E/DX2                !
 --------------------------------------------------------------------------------
 Trust Radius=3.00D-01 FncErr=1.00D-07 GrdErr=1.00D-06
 Number of steps in this run=  58 maximum allowed number of steps= 100.
 GradGradGradGradGradGradGradGradGradGradGradGradGradGradGradGradGradGrad

                          Input orientation:                          
 ---------------------------------------------------------------------
 Center     Atomic      Atomic             Coordinates (Angstroms)
 Number     Number       Type             X           Y           Z
 ---------------------------------------------------------------------
      1         14           0        0.000000    1.997651   -1.396234
      2         14           0       -1.851169    0.000000    1.493352
      3         14           0        1.309419    0.000000   -1.028139
      4         14           0        0.000000   -1.427435    0.931020
      5         14           0        0.000000    1.427435    0.931020
      6         14           0       -1.309419    0.000000   -1.028139
      7         14           0        0.000000   -1.997651   -1.396234
      8         14           0        1.851169    0.000000    1.493352
 ---------------------------------------------------------------------
                    Distance matrix (angstroms):
                    1          2          3          4          5
     1  Si   0.000000
     2  Si   3.970786   0.000000
     3  Si   2.416750   4.043171   0.000000
     4  Si   4.140933   2.404291   2.755078   0.000000
     5  Si   2.396092   2.404291   2.755078   2.854870   0.000000
     6  Si   2.416750   2.579033   2.618838   2.755078   2.755078
     7  Si   3.995302   3.970786   2.416750   2.396092   4.140933
     8  Si   3.970786   3.702338   2.579033   2.404291   2.404291
                    6          7          8
     6  Si   0.000000
     7  Si   2.416750   0.000000
     8  Si   4.043171   3.970786   0.000000
 Stoichiometry    Si8(1-,2)
 Framework group  C2V[SGV(Si4),SGV'(Si4)]
 Deg. of freedom     7
 Full point group                 C2V     NOp   4
 Largest Abelian subgroup         C2V     NOp   4
 Largest concise Abelian subgroup C2V     NOp   4
                         Standard orientation:                         
 ---------------------------------------------------------------------
 Center     Atomic      Atomic             Coordinates (Angstroms)
 Number     Number       Type             X           Y           Z
 ---------------------------------------------------------------------
      1         14           0        0.000000    1.997651   -1.396234
      2         14           0       -1.851169    0.000000    1.493352
      3         14           0        1.309419    0.000000   -1.028139
      4         14           0        0.000000   -1.427435    0.931020
      5         14           0        0.000000    1.427435    0.931020
      6         14           0       -1.309419    0.000000   -1.028139
      7         14           0        0.000000   -1.997651   -1.396234
      8         14           0        1.851169    0.000000    1.493352
 ---------------------------------------------------------------------
 Rotational constants (GHZ):      0.8086305      0.8032187      0.7445064
 Standard basis: GTBas3 (6D, 7F)
 There are    88 symmetry adapted basis functions of A1  symmetry.
 There are    40 symmetry adapted basis functions of A2  symmetry.
 There are    64 symmetry adapted basis functions of B1  symmetry.
 There are    64 symmetry adapted basis functions of B2  symmetry.
 Integral buffers will be    131072 words long.
 Raffenetti 2 integral format.
 Two-electron integral symmetry is turned on.
   256 basis functions,   544 primitive gaussians,   280 cartesian basis functions
    57 alpha electrons       56 beta electrons
       nuclear repulsion energy       997.6052937760 Hartrees.
 NAtoms=    8 NActive=    8 NUniq=    4 SFac= 3.00D+00 NAtFMM=   80 NAOKFM=F Big=F
 One-electron integrals computed using PRISM.
 NBasis=   256 RedAO= T  NBF=    88    40    64    64
 NBsUse=   256 1.00D-06 NBFU=    88    40    64    64
 Harris functional with IExCor=  402 diagonalized for initial guess.
 ExpMin= 7.78D-02 ExpMax= 1.61D+04 ExpMxC= 2.43D+03 IAcc=2 IRadAn=         0 AccDes= 0.00D+00
 HarFok:  IExCor=  402 AccDes= 0.00D+00 IRadAn=         0 IDoV= 1
 ScaDFX=  1.000000  1.000000  1.000000  1.000000
 FoFCou: FMM=F IPFlag=           0 FMFlag=      100000 FMFlg1=           0
         NFxFlg=           0 DoJE=T BraDBF=F KetDBF=T FulRan=T
         Omega=  0.000000  0.000000  1.000000  0.000000  0.000000 ICntrl=     500 IOpCl=  0
         NMat0=    1 NMatS0=    1 NMatT0=    0 NMatD0=    1 NMtDS0=    0 NMtDT0=    0
         I1Cent=           4 NGrid=           0.
 Petite list used in FoFCou.
 Initial guess orbital symmetries:
 Alpha Orbitals:
       Occupied  (A1) (B2) (A1) (B1) (B2) (A1) (B1) (A1) (A1) (B2)
                 (A1) (B1) (B2) (A1) (B1) (A1) (B2) (A1) (A2) (B1)
                 (A1) (B2) (A2) (B2) (A1) (B1) (A1) (B1) (A1) (B2)
                 (B2) (A1) (B1) (A2) (A1) (B1) (B2) (A2) (B1) (A1)
                 (A1) (A1) (B2) (B1) (B2) (B1) (A1) (A1) (A2) (A1)
                 (B2) (A1) (B2) (A1) (B1) (A2) (B1)
       Virtual   (A1) (B1) (B2) (A1) (B2) (B1) (A1) (A1) (B1) (B2)
                 (A2) (B1) (B2) (A2) (A1) (B2) (A2) (A1) (A1) (B1)
                 (B2) (A2) (A1) (A1) (B1) (A2) (A1) (A1) (B2) (B1)
                 (B2) (A1) (B1) (A1) (A1) (B1) (B2) (B2) (A1) (B1)
                 (A2) (A2) (B2) (B1) (A1) (B1) (A2) (B2) (A1) (B2)
                 (B1) (B2) (A2) (A1) (B1) (B1) (B2) (A1) (B2) (A1)
                 (A2) (B1) (A1) (A2) (A1) (B2) (A2) (A1) (B2) (B1)
                 (B1) (A1) (A1) (B2) (B1) (A1) (A1) (A2) (B1) (B2)
                 (B1) (A1) (B2) (A1) (B1) (A2) (B2) (A1) (B2) (A1)
                 (A2) (B1) (A1) (B1) (B2) (A1) (A2) (B2) (B1) (A2)
                 (A1) (A2) (B1) (B2) (A1) (B1) (A1) (B2) (A2) (B1)
                 (B2) (A1) (A2) (B2) (B1) (A1) (B1) (A1) (B2) (A1)
                 (B2) (A2) (B1) (A1) (A1) (A1) (B2) (B2) (B1) (A2)
                 (A2) (B1) (A1) (B2) (A1) (B1) (B1) (A2) (B2) (B1)
                 (A2) (B2) (A1) (A1) (B2) (B1) (A2) (B2) (B1) (A1)
                 (A1) (A2) (A1) (B2) (A2) (B1) (B2) (A1) (A2) (B1)
                 (B1) (B2) (A1) (A1) (A1) (B1) (A2) (B2) (B1) (B2)
                 (A1) (A1) (B2) (B1) (A2) (B1) (A1) (B2) (A1) (A1)
                 (B1) (B2) (A2) (B1) (B2) (A1) (A2) (B2) (A1) (A2)
                 (B1) (A1) (B2) (A1) (B1) (B2) (A1) (B1) (A1)
 Beta  Orbitals:
       Occupied  (A1) (B2) (A1) (B1) (B2) (A1) (B1) (A1) (A1) (B2)
                 (A1) (B1) (B2) (A1) (B1) (A1) (B2) (A1) (A2) (B1)
                 (A1) (B2) (A2) (B2) (A1) (B1) (A1) (B1) (A1) (B2)
                 (B2) (A1) (B1) (A2) (A1) (B1) (B2) (A2) (B1) (A1)
                 (A1) (A1) (B2) (B1) (B2) (B1) (A1) (A1) (A2) (A1)
                 (B2) (A1) (B2) (A1) (B1) (A2)
       Virtual   (B1) (A1) (B1) (B2) (A1) (B2) (B1) (A1) (A1) (B1)
                 (B2) (A2) (B1) (B2) (A2) (A1) (B2) (A2) (A1) (A1)
                 (B1) (B2) (A2) (A1) (A1) (B1) (A2) (A1) (A1) (B2)
                 (B1) (B2) (A1) (B1) (A1) (A1) (B1) (B2) (B2) (A1)
                 (B1) (A2) (A2) (B2) (B1) (A1) (B1) (A2) (B2) (A1)
                 (B2) (B1) (B2) (A2) (A1) (B1) (B1) (B2) (A1) (B2)
                 (A1) (A2) (B1) (A1) (A2) (A1) (B2) (A2) (A1) (B2)
                 (B1) (B1) (A1) (A1) (B2) (B1) (A1) (A1) (A2) (B1)
                 (B2) (B1) (A1) (B2) (A1) (B1) (A2) (B2) (A1) (B2)
                 (A1) (A2) (B1) (A1) (B1) (B2) (A1) (A2) (B2) (B1)
                 (A2) (A1) (A2) (B1) (B2) (A1) (B1) (A1) (B2) (A2)
                 (B1) (B2) (A1) (A2) (B2) (B1) (A1) (B1) (A1) (B2)
                 (A1) (B2) (A2) (B1) (A1) (A1) (A1) (B2) (B2) (B1)
                 (A2) (A2) (B1) (A1) (B2) (A1) (B1) (B1) (A2) (B2)
                 (B1) (A2) (B2) (A1) (A1) (B2) (B1) (A2) (B2) (B1)
                 (A1) (A1) (A2) (A1) (B2) (A2) (B1) (B2) (A1) (A2)
                 (B1) (B1) (B2) (A1) (A1) (A1) (B1) (A2) (B2) (B1)
                 (B2) (A1) (A1) (B2) (B1) (A2) (B1) (A1) (B2) (A1)
                 (A1) (B1) (B2) (A2) (B1) (B2) (A1) (A2) (B2) (A1)
                 (A2) (B1) (A1) (B2) (A1) (B1) (B2) (A1) (B1) (A1)
 The electronic state of the initial guess is 2-B1.
 Initial guess <Sx>= 0.0000 <Sy>= 0.0000 <Sz>= 0.5000 <S**2>= 0.7500 S= 0.5000
 Requested convergence on RMS density matrix=1.00D-08 within 128 cycles.
 Requested convergence on MAX density matrix=1.00D-06.
 Requested convergence on             energy=1.00D-06.
 No special actions if energy rises.
 Keep R1 and R2 ints in memory in canonical form, NReq=1559090227.
 Integral accuracy reduced to 1.0D-05 until final iterations.
 Initial convergence to 1.0D-05 achieved.  Increase integral accuracy.
 SCF Done:  E(UB3LYP) =  -2315.99522421     A.U. after   19 cycles
             Convg  =    0.3563D-08             -V/T =  2.0035
 <Sx>= 0.0000 <Sy>= 0.0000 <Sz>= 0.5000 <S**2>= 0.7578 S= 0.5039
 <L.S>= 0.000000000000E+00
 Annihilation of the first spin contaminant:
 S**2 before annihilation     0.7578,   after     0.7500
 QCSCF skips out because SCF is already converged.

 **********************************************************************

            Population analysis using the SCF density.

 **********************************************************************

 Orbital symmetries:
 Alpha Orbitals:
       Occupied  (A1) (B1) (A1) (B2) (B1) (A1) (B2) (A1) (A1) (B1)
                 (A1) (B2) (B1) (A1) (B2) (A1) (A1) (B1) (A1) (B1)
                 (A2) (B2) (A1) (B2) (A2) (B1) (A1) (B2) (A1) (B1)
                 (B2) (A2) (A1) (B1) (B1) (A2) (B2) (A1) (A1) (B2)
                 (A1) (A1) (B2) (B1) (B2) (B1) (A1) (A1) (A1) (A2)
                 (A1) (B2) (A1) (B1) (B2) (A2) (B1)
       Virtual   (A1) (B1) (B2) (A1) (B2) (B1) (A1) (B1) (A1) (B2)
                 (B1) (A2) (A1) (B2) (A2) (B2) (A1) (B1) (A2) (A1)
                 (A1) (A1) (B2) (A2) (B1) (B2) (A1) (B1) (A1) (A2)
                 (B2) (A1) (B1) (A1) (B1) (A1) (B2) (A1) (B1) (A2)
                 (B2) (A2) (B2) (B1) (A1) (B1) (A2) (A1) (B2) (B2)
                 (B1) (B2) (B1) (A2) (A1) (B1) (B2) (A1) (A1) (A2)
                 (B2) (B1) (A1) (A2) (A1) (B2) (A2) (B1) (A1) (B2)
                 (A1) (B1) (B2) (A1) (B1) (A1) (A1) (B2) (A2) (B1)
                 (B1) (A1) (B1) (B2) (A1) (A2) (B2) (A1) (A1) (B2)
                 (A2) (B1) (A1) (B1) (B2) (A1) (A2) (B2) (B1) (A2)
                 (A1) (B1) (A1) (B2) (A2) (B1) (A1) (B2) (A2) (B1)
                 (B2) (A1) (B2) (B1) (A2) (B1) (A1) (A1) (B2) (A1)
                 (B2) (A2) (A1) (B1) (A1) (A1) (B2) (B1) (B2) (A2)
                 (A2) (B1) (A1) (B2) (A1) (B1) (A2) (B1) (B2) (B1)
                 (A1) (A2) (B2) (A1) (B1) (B2) (A2) (B2) (B1) (A1)
                 (A1) (A2) (A1) (A2) (B2) (B1) (B2) (A2) (A1) (B1)
                 (B1) (A1) (B2) (A1) (B1) (A1) (A2) (B2) (B2) (B1)
                 (A1) (A1) (B2) (B1) (B1) (A2) (A1) (B2) (A1) (A1)
                 (B1) (B2) (A2) (B1) (B2) (A1) (A2) (B2) (A1) (A2)
                 (B1) (A1) (A1) (B2) (B1) (B2) (A1) (B1) (A1)
 Beta  Orbitals:
       Occupied  (A1) (B1) (A1) (B2) (B1) (A1) (B2) (A1) (A1) (B1)
                 (A1) (B2) (B1) (A1) (B2) (A1) (A1) (B1) (A1) (B1)
                 (A2) (B2) (A1) (B2) (A2) (B1) (A1) (B2) (B1) (A1)
                 (B2) (A2) (A1) (B1) (B1) (A2) (B2) (A1) (A1) (B2)
                 (A1) (A1) (B2) (B1) (B2) (B1) (A1) (A1) (A2) (A1)
                 (B2) (A1) (A1) (B1) (B2) (A2)
       Virtual   (B1) (A1) (B1) (B2) (A1) (B2) (B1) (A1) (A1) (B1)
                 (B2) (A2) (B1) (B2) (A2) (A1) (B2) (A1) (B1) (A2)
                 (A1) (A1) (A1) (B2) (A2) (B2) (B1) (A1) (B1) (A1)
                 (A2) (B2) (A1) (B1) (A1) (B1) (A1) (B2) (A1) (A2)
                 (B1) (B2) (A2) (B2) (B1) (A1) (A2) (B1) (A1) (B2)
                 (B2) (B1) (B2) (A2) (B1) (A1) (B1) (B2) (A1) (A1)
                 (A2) (B2) (B1) (A1) (A2) (A1) (B2) (A2) (A1) (B1)
                 (B2) (A1) (B1) (B2) (B1) (A1) (A1) (A1) (B2) (A2)
                 (B1) (B1) (A1) (B2) (B1) (A1) (A2) (B2) (A1) (B2)
                 (A1) (A2) (A1) (B1) (B1) (B2) (A1) (A2) (B2) (B1)
                 (A2) (A1) (B1) (A1) (B2) (A2) (B1) (A1) (B2) (A2)
                 (B1) (B2) (A1) (B2) (A2) (B1) (B1) (A1) (A1) (B2)
                 (A1) (B2) (A2) (A1) (B1) (A1) (A1) (B2) (B2) (B1)
                 (A2) (A2) (B1) (A1) (B2) (A1) (B1) (B1) (A2) (B2)
                 (B1) (A1) (A2) (B2) (A1) (B2) (B1) (A2) (B2) (B1)
                 (A1) (A1) (A2) (A1) (B2) (A2) (B1) (B2) (A2) (A1)
                 (B1) (B1) (A1) (B2) (A1) (B1) (A1) (A2) (B2) (B1)
                 (B2) (A1) (A1) (B2) (B1) (B1) (A2) (A1) (B2) (A1)
                 (A1) (B1) (B2) (A2) (B1) (B2) (A1) (A2) (B2) (A1)
                 (A2) (B1) (A1) (A1) (B2) (B1) (B2) (A1) (B1) (A1)
 The electronic state is 2-B1.
 Alpha  occ. eigenvalues --  -66.00178 -66.00178 -65.99699 -65.99698 -65.99010
 Alpha  occ. eigenvalues --  -65.99009 -65.98327 -65.98327  -5.14612  -5.14610
 Alpha  occ. eigenvalues --   -5.14211  -5.14210  -5.13625  -5.13624  -5.12947
 Alpha  occ. eigenvalues --   -5.12946  -3.50546  -3.50538  -3.50521  -3.50518
 Alpha  occ. eigenvalues --   -3.50283  -3.50283  -3.50225  -3.50224  -3.50013
 Alpha  occ. eigenvalues --   -3.50013  -3.49898  -3.49897  -3.49727  -3.49727
 Alpha  occ. eigenvalues --   -3.49343  -3.49340  -3.49252  -3.49250  -3.48854
 Alpha  occ. eigenvalues --   -3.48850  -3.48750  -3.48749  -3.48642  -3.48641
 Alpha  occ. eigenvalues --   -0.50918  -0.38694  -0.38252  -0.36905  -0.24736
 Alpha  occ. eigenvalues --   -0.24507  -0.23916  -0.19634  -0.16140  -0.15487
 Alpha  occ. eigenvalues --   -0.09131  -0.09122  -0.09025  -0.08332  -0.07228
 Alpha  occ. eigenvalues --   -0.06734  -0.05774
 Alpha virt. eigenvalues --    0.05052   0.05670   0.06504   0.10136   0.10494
 Alpha virt. eigenvalues --    0.10947   0.13198   0.15027   0.15364   0.15944
 Alpha virt. eigenvalues --    0.16670   0.16794   0.17834   0.17845   0.17869
 Alpha virt. eigenvalues --    0.26243   0.26395   0.27363   0.28388   0.28805
 Alpha virt. eigenvalues --    0.29701   0.30714   0.31029   0.31737   0.31894
 Alpha virt. eigenvalues --    0.32160   0.32299   0.32514   0.32921   0.34080
 Alpha virt. eigenvalues --    0.35671   0.36167   0.36210   0.39113   0.39431
 Alpha virt. eigenvalues --    0.39947   0.40271   0.43620   0.43953   0.44077
 Alpha virt. eigenvalues --    0.44554   0.44737   0.45092   0.45212   0.45727
 Alpha virt. eigenvalues --    0.47769   0.47895   0.49367   0.50004   0.50890
 Alpha virt. eigenvalues --    0.51673   0.54815   0.55456   0.55814   0.56087
 Alpha virt. eigenvalues --    0.56464   0.57291   0.57693   0.63252   0.63645
 Alpha virt. eigenvalues --    0.64162   0.64801   0.65201   0.68053   0.69374
 Alpha virt. eigenvalues --    0.70133   0.71980   0.72165   0.72489   0.72820
 Alpha virt. eigenvalues --    0.72935   0.73215   0.78488   0.78772   0.78846
 Alpha virt. eigenvalues --    0.81167   0.83476   0.83744   0.84129   0.84172
 Alpha virt. eigenvalues --    0.84610   0.86287   0.86893   0.86948   0.87330
 Alpha virt. eigenvalues --    0.87857   0.88660   0.99165   0.99564   0.99771
 Alpha virt. eigenvalues --    1.01105   1.02720   1.02764   1.07888   1.08323
 Alpha virt. eigenvalues --    1.09650   1.09756   1.10675   1.13059   1.14690
 Alpha virt. eigenvalues --    1.15033   1.15750   1.16588   1.17160   1.18354
 Alpha virt. eigenvalues --    1.19431   1.19699   1.19991   1.20702   1.21775
 Alpha virt. eigenvalues --    1.21839   1.22725   1.23687   1.24514   1.25198
 Alpha virt. eigenvalues --    1.30295   1.30773   1.31726   1.33675   1.36642
 Alpha virt. eigenvalues --    1.38239   1.39771   1.40176   1.40935   1.44837
 Alpha virt. eigenvalues --    1.49170   1.51047   1.51076   1.51263   1.51847
 Alpha virt. eigenvalues --    1.53556   1.54538   1.55098   1.55523   1.55893
 Alpha virt. eigenvalues --    1.57483   1.59400   1.59517   1.60453   1.61599
 Alpha virt. eigenvalues --    1.61815   1.62582   1.62927   1.65364   1.65666
 Alpha virt. eigenvalues --    1.65704   1.66800   1.68559   1.69015   1.71402
 Alpha virt. eigenvalues --    1.87090   1.88279   1.90263   1.91062   1.91101
 Alpha virt. eigenvalues --    1.91453   1.93241   1.95192   1.95224   1.95718
 Alpha virt. eigenvalues --    1.99018   1.99482   2.00468   2.02032   2.02318
 Alpha virt. eigenvalues --    2.02997   2.03638   2.04246   2.07758   2.07801
 Alpha virt. eigenvalues --    2.10402   2.12656   2.13311   2.13896   2.15523
 Alpha virt. eigenvalues --    2.16394   2.16560   2.18364   2.19094   2.22430
 Alpha virt. eigenvalues --    2.22879   2.27508   2.27641   2.32904   2.34102
 Alpha virt. eigenvalues --    2.35203   2.36945   2.37360   2.37998   2.38562
 Alpha virt. eigenvalues --    2.39294   2.60743   2.94218   2.94409   2.98742
 Alpha virt. eigenvalues --    3.12622   3.14573   3.15845   3.33012
  Beta  occ. eigenvalues --  -66.00149 -66.00149 -65.99680 -65.99679 -65.98917
  Beta  occ. eigenvalues --  -65.98917 -65.98305 -65.98305  -5.14582  -5.14580
  Beta  occ. eigenvalues --   -5.14193  -5.14191  -5.13522  -5.13522  -5.12922
  Beta  occ. eigenvalues --   -5.12922  -3.50544  -3.50537  -3.50379  -3.50376
  Beta  occ. eigenvalues --   -3.50275  -3.50274  -3.50220  -3.50218  -3.49926
  Beta  occ. eigenvalues --   -3.49926  -3.49894  -3.49893  -3.49406  -3.49405
  Beta  occ. eigenvalues --   -3.49291  -3.49287  -3.49175  -3.49173  -3.48762
  Beta  occ. eigenvalues --   -3.48757  -3.48746  -3.48746  -3.48630  -3.48629
  Beta  occ. eigenvalues --   -0.50574  -0.38118  -0.38034  -0.35809  -0.24400
  Beta  occ. eigenvalues --   -0.23828  -0.23164  -0.19192  -0.15008  -0.14603
  Beta  occ. eigenvalues --   -0.09056  -0.09028  -0.08791  -0.07934  -0.07039
  Beta  occ. eigenvalues --   -0.06162
  Beta virt. eigenvalues --   -0.00194   0.05672   0.06426   0.06622   0.10385
  Beta virt. eigenvalues --    0.10611   0.11149   0.13468   0.15509   0.15732
  Beta virt. eigenvalues --    0.16035   0.16987   0.17408   0.17853   0.18256
  Beta virt. eigenvalues --    0.18536   0.26301   0.26569   0.27652   0.29009
  Beta virt. eigenvalues --    0.29480   0.30048   0.30773   0.31092   0.32026
  Beta virt. eigenvalues --    0.32219   0.32534   0.32565   0.33035   0.33311
  Beta virt. eigenvalues --    0.34324   0.35794   0.36347   0.36582   0.39514
  Beta virt. eigenvalues --    0.39849   0.40152   0.40347   0.43971   0.44260
  Beta virt. eigenvalues --    0.44467   0.44553   0.44928   0.45244   0.45632
  Beta virt. eigenvalues --    0.46229   0.48490   0.48656   0.49531   0.50494
  Beta virt. eigenvalues --    0.50944   0.52027   0.54990   0.56098   0.56255
  Beta virt. eigenvalues --    0.56280   0.56707   0.57705   0.58049   0.63450
  Beta virt. eigenvalues --    0.63830   0.64357   0.65299   0.65545   0.68296
  Beta virt. eigenvalues --    0.69842   0.70242   0.72208   0.72680   0.72775
  Beta virt. eigenvalues --    0.72978   0.73214   0.73562   0.78563   0.79150
  Beta virt. eigenvalues --    0.79339   0.81487   0.83645   0.83921   0.84385
  Beta virt. eigenvalues --    0.84386   0.85132   0.86640   0.87152   0.87365
  Beta virt. eigenvalues --    0.87502   0.88228   0.88708   0.99474   0.99918
  Beta virt. eigenvalues --    0.99997   1.01919   1.02962   1.03006   1.08294
  Beta virt. eigenvalues --    1.08530   1.09956   1.10145   1.10749   1.13897
  Beta virt. eigenvalues --    1.14974   1.15282   1.16156   1.17018   1.17382
  Beta virt. eigenvalues --    1.18681   1.19863   1.20061   1.20141   1.21325
  Beta virt. eigenvalues --    1.22158   1.22366   1.23079   1.24244   1.25427
  Beta virt. eigenvalues --    1.25492   1.30785   1.31173   1.31854   1.34045
  Beta virt. eigenvalues --    1.36907   1.38325   1.39947   1.40676   1.41275
  Beta virt. eigenvalues --    1.44970   1.49621   1.51267   1.51355   1.51603
  Beta virt. eigenvalues --    1.52169   1.53729   1.54939   1.55442   1.55726
  Beta virt. eigenvalues --    1.56248   1.57911   1.59833   1.59852   1.60795
  Beta virt. eigenvalues --    1.61882   1.62161   1.62834   1.63025   1.65507
  Beta virt. eigenvalues --    1.65781   1.66037   1.67222   1.68665   1.69116
  Beta virt. eigenvalues --    1.71592   1.87304   1.88414   1.90441   1.91220
  Beta virt. eigenvalues --    1.91257   1.91937   1.93472   1.95292   1.95428
  Beta virt. eigenvalues --    1.95912   1.99162   1.99505   2.00486   2.02303
  Beta virt. eigenvalues --    2.02817   2.03113   2.03839   2.04341   2.07955
  Beta virt. eigenvalues --    2.07977   2.10616   2.12835   2.13310   2.14076
  Beta virt. eigenvalues --    2.15714   2.16549   2.16645   2.18453   2.19444
  Beta virt. eigenvalues --    2.22496   2.23125   2.27589   2.27800   2.33226
  Beta virt. eigenvalues --    2.34133   2.35251   2.37074   2.37388   2.38232
  Beta virt. eigenvalues --    2.38666   2.39508   2.60999   2.94418   2.94485
  Beta virt. eigenvalues --    2.99120   3.12700   3.14697   3.16034   3.33174
          Condensed to atoms (all electrons):
              1          2          3          4          5          6
     1  Si  13.669383  -0.031738   0.216812   0.002851   0.217143   0.216812
     2  Si  -0.031738  13.723275   0.000235   0.223556   0.223556   0.141149
     3  Si   0.216812   0.000235  13.472578  -0.001267  -0.001267   0.001478
     4  Si   0.002851   0.223556  -0.001267  13.390701  -0.032364  -0.001267
     5  Si   0.217143   0.223556  -0.001267  -0.032364  13.390701  -0.001267
     6  Si   0.216812   0.141149   0.001478  -0.001267  -0.001267  13.472578
     7  Si  -0.038427  -0.031738   0.216812   0.217143   0.002851   0.216812
     8  Si  -0.031738  -0.038833   0.141149   0.223556   0.223556   0.000235
              7          8
     1  Si  -0.038427  -0.031738
     2  Si  -0.031738  -0.038833
     3  Si   0.216812   0.141149
     4  Si   0.217143   0.223556
     5  Si   0.002851   0.223556
     6  Si   0.216812   0.000235
     7  Si  13.669383  -0.031738
     8  Si  -0.031738  13.723275
 Mulliken atomic charges:
              1
     1  Si  -0.221099
     2  Si  -0.209463
     3  Si  -0.046530
     4  Si  -0.022909
     5  Si  -0.022909
     6  Si  -0.046530
     7  Si  -0.221099
     8  Si  -0.209463
 Sum of Mulliken atomic charges =  -1.00000
 Mulliken charges with hydrogens summed into heavy atoms:
              1
     1  Si  -0.221099
     2  Si  -0.209463
     3  Si  -0.046530
     4  Si  -0.022909
     5  Si  -0.022909
     6  Si  -0.046530
     7  Si  -0.221099
     8  Si  -0.209463
 Sum of Mulliken charges with hydrogens summed into heavy atoms =  -1.00000
          Atomic-Atomic Spin Densities.
              1          2          3          4          5          6
     1  Si   0.060055  -0.004535  -0.000777   0.002212   0.010643  -0.000777
     2  Si  -0.004535   0.254499   0.006586   0.000287   0.000287   0.054262
     3  Si  -0.000777   0.006586   0.092095  -0.011153  -0.011153  -0.023158
     4  Si   0.002212   0.000287  -0.011153   0.048006   0.006754  -0.011153
     5  Si   0.010643   0.000287  -0.011153   0.006754   0.048006  -0.011153
     6  Si  -0.000777   0.054262  -0.023158  -0.011153  -0.011153   0.092095
     7  Si   0.002325  -0.004535  -0.000777   0.010643   0.002212  -0.000777
     8  Si  -0.004535  -0.023269   0.054262   0.000287   0.000287   0.006586
              7          8
     1  Si   0.002325  -0.004535
     2  Si  -0.004535  -0.023269
     3  Si  -0.000777   0.054262
     4  Si   0.010643   0.000287
     5  Si   0.002212   0.000287
     6  Si  -0.000777   0.006586
     7  Si   0.060055  -0.004535
     8  Si  -0.004535   0.254499
 Mulliken atomic spin densities:
              1
     1  Si   0.064611
     2  Si   0.283583
     3  Si   0.105923
     4  Si   0.045883
     5  Si   0.045883
     6  Si   0.105923
     7  Si   0.064611
     8  Si   0.283583
 Sum of Mulliken atomic spin densities =   1.00000
 Electronic spatial extent (au):  <R**2>=           2006.6842
 Charge=             -1.0000 electrons
 Dipole moment (field-independent basis, Debye):
    X=              0.0000    Y=              0.0000    Z=              0.2001  Tot=              0.2001
 Quadrupole moment (field-independent basis, Debye-Ang):
   XX=           -124.0234   YY=           -125.9222   ZZ=           -126.0692
   XY=              0.0000   XZ=              0.0000   YZ=              0.0000
 Traceless Quadrupole moment (field-independent basis, Debye-Ang):
   XX=              1.3149   YY=             -0.5839   ZZ=             -0.7310
   XY=              0.0000   XZ=              0.0000   YZ=              0.0000
 Octapole moment (field-independent basis, Debye-Ang**2):
  XXX=              0.0000  YYY=              0.0000  ZZZ=             -0.2388  XYY=              0.0000
  XXY=              0.0000  XXZ=            -21.0137  XZZ=              0.0000  YZZ=              0.0000
  YYZ=             22.0999  XYZ=              0.0000
 Hexadecapole moment (field-independent basis, Debye-Ang**3):
 XXXX=          -1186.8272 YYYY=          -1350.1612 ZZZZ=          -1304.2012 XXXY=              0.0000
 XXXZ=              0.0000 YYYX=              0.0000 YYYZ=              0.0000 ZZZX=              0.0000
 ZZZY=              0.0000 XXYY=           -387.7670 XXZZ=           -458.2385 YYZZ=           -473.3704
 XXYZ=              0.0000 YYXZ=              0.0000 ZZXY=              0.0000
 N-N= 9.976052937760D+02 E-N=-1.127734547230D+04  KE= 3.461242976214D+03
 Symmetry A1   KE= 1.580685683200D+03
 Symmetry A2   KE= 1.520681033892D+02
 Symmetry B1   KE= 8.630885449268D+02
 Symmetry B2   KE= 8.654006446980D+02
                          Isotropic Fermi Contact Couplings
        Atom                 a.u.       MegaHertz       Gauss      10(-4) cm-1
     1  Si(29)             0.00041      -0.36021      -0.12853      -0.12015
     2  Si(29)             0.00242      -2.14652      -0.76593      -0.71600
     3  Si(29)            -0.03248      28.86650      10.30029       9.62883
     4  Si(29)            -0.02121      18.84779       6.72536       6.28694
     5  Si(29)            -0.02121      18.84779       6.72536       6.28694
     6  Si(29)            -0.03248      28.86650      10.30029       9.62883
     7  Si(29)             0.00041      -0.36021      -0.12853      -0.12015
     8  Si(29)             0.00242      -2.14652      -0.76593      -0.71600
 --------------------------------------------------------
       Center         ----  Spin Dipole Couplings  ----
                      3XX-RR        3YY-RR        3ZZ-RR
 --------------------------------------------------------
     1   Atom        0.158651     -0.070679     -0.087972
     2   Atom        0.235715     -0.277049      0.041334
     3   Atom        0.009298     -0.123160      0.113861
     4   Atom        0.158315     -0.067515     -0.090800
     5   Atom        0.158315     -0.067515     -0.090800
     6   Atom        0.009298     -0.123160      0.113861
     7   Atom        0.158651     -0.070679     -0.087972
     8   Atom        0.235715     -0.277049      0.041334
 --------------------------------------------------------
                        XY            XZ            YZ
 --------------------------------------------------------
     1   Atom        0.000000      0.000000     -0.011235
     2   Atom        0.000000      0.404178      0.000000
     3   Atom        0.000000      0.196168      0.000000
     4   Atom        0.000000      0.000000      0.003676
     5   Atom        0.000000      0.000000     -0.003676
     6   Atom        0.000000     -0.196168      0.000000
     7   Atom        0.000000      0.000000      0.011235
     8   Atom        0.000000     -0.404178      0.000000
 --------------------------------------------------------


 ---------------------------------------------------------------------------------
              Anisotropic Spin Dipole Couplings in Principal Axis System
 ---------------------------------------------------------------------------------

       Atom             a.u.   MegaHertz   Gauss  10(-4) cm-1        Axes

              Baa    -0.0935     9.919     3.539     3.309  0.0000  0.4417  0.8972
     1 Si(29) Bbb    -0.0651     6.911     2.466     2.305  0.0000  0.8972 -0.4417
              Bcc     0.1587   -16.830    -6.005    -5.614  1.0000  0.0000  0.0000
 
              Baa    -0.2772    29.404    10.492     9.808 -0.6190  0.0000  0.7854
     2 Si(29) Bbb    -0.2770    29.390    10.487     9.804  0.0000  1.0000  0.0000
              Bcc     0.5542   -58.794   -20.979   -19.612  0.7854  0.0000  0.6190
 
              Baa    -0.1414    15.004     5.354     5.005  0.7929  0.0000 -0.6093
     3 Si(29) Bbb    -0.1232    13.065     4.662     4.358  0.0000  1.0000  0.0000
              Bcc     0.2646   -28.069   -10.016    -9.363  0.6093  0.0000  0.7929
 
              Baa    -0.0914     9.693     3.459     3.233  0.0000 -0.1523  0.9883
     4 Si(29) Bbb    -0.0669     7.102     2.534     2.369  0.0000  0.9883  0.1523
              Bcc     0.1583   -16.795    -5.993    -5.602  1.0000  0.0000  0.0000
 
              Baa    -0.0914     9.693     3.459     3.233  0.0000  0.1523  0.9883
     5 Si(29) Bbb    -0.0669     7.102     2.534     2.369  0.0000  0.9883 -0.1523
              Bcc     0.1583   -16.795    -5.993    -5.602  1.0000  0.0000  0.0000
 
              Baa    -0.1414    15.004     5.354     5.005  0.7929  0.0000  0.6093
     6 Si(29) Bbb    -0.1232    13.065     4.662     4.358  0.0000  1.0000  0.0000
              Bcc     0.2646   -28.069   -10.016    -9.363 -0.6093  0.0000  0.7929
 
              Baa    -0.0935     9.919     3.539     3.309  0.0000 -0.4417  0.8972
     7 Si(29) Bbb    -0.0651     6.911     2.466     2.305  0.0000  0.8972  0.4417
              Bcc     0.1587   -16.830    -6.005    -5.614  1.0000  0.0000  0.0000
 
              Baa    -0.2772    29.404    10.492     9.808  0.6190  0.0000  0.7854
     8 Si(29) Bbb    -0.2770    29.390    10.487     9.804  0.0000  1.0000  0.0000
              Bcc     0.5542   -58.794   -20.979   -19.612  0.7854  0.0000 -0.6190
 

 ---------------------------------------------------------------------------------

 Calling FoFJK, ICntrl=      2127 FMM=F ISym2X=1 I1Cent= 0 IOpClX= 1 NMat=1 NMatS=1 NMatT=0.
 ***** Axes restored to original set *****
 -------------------------------------------------------------------
 Center     Atomic                   Forces (Hartrees/Bohr)
 Number     Number              X              Y              Z
 -------------------------------------------------------------------
      1       14           0.000000000   -0.000738920    0.000432863
      2       14           0.001037077    0.000000000   -0.000902361
      3       14          -0.001882432    0.000000000    0.001905497
      4       14           0.000000000    0.001612699   -0.001435999
      5       14           0.000000000   -0.001612699   -0.001435999
      6       14           0.001882432    0.000000000    0.001905497
      7       14           0.000000000    0.000738920    0.000432863
      8       14          -0.001037077    0.000000000   -0.000902361
 -------------------------------------------------------------------
 Cartesian Forces:  Max     0.001905497 RMS     0.001097744

 GradGradGradGradGradGradGradGradGradGradGradGradGradGradGradGradGradGrad
 Berny optimization.
 Internal  Forces:  Max     0.000824774 RMS     0.000377031
 Search for a local minimum.
 Step number   1 out of a maximum of   58
 All quantities printed in internal units (Hartrees-Bohrs-Radians)
 Mixed Optimization -- En-DIIS/RFO-DIIS
 Second derivative matrix not updated -- first step.
     Eigenvalues ---    0.06967   0.07595   0.07684   0.08665   0.09459
     Eigenvalues ---    0.09617   0.10350   0.10495   0.11199   0.11701
     Eigenvalues ---    0.11751   0.12093   0.12360   0.12536   0.12761
     Eigenvalues ---    0.15075   0.15164   0.152341000.000001000.00000
     Eigenvalues --- 1000.000001000.000001000.000001000.000001000.00000
     Eigenvalues --- 1000.000001000.000001000.000001000.000001000.00000
     Eigenvalues --- 1000.000001000.000001000.000001000.000001000.00000
     Eigenvalues --- 1000.000001000.000001000.000001000.000001000.00000
     Eigenvalues --- 1000.000001000.000001000.000001000.000001000.00000
     Eigenvalues --- 1000.000001000.000001000.00000
 RFO step:  Lambda=-8.77153750D-05 EMin= 6.96743332D-02
 Linear search not attempted -- first point.
 Iteration  1 RMS(Cart)=  0.00242733 RMS(Int)=  0.00000240
 Iteration  2 RMS(Cart)=  0.00000135 RMS(Int)=  0.00000150
 Iteration  3 RMS(Cart)=  0.00000000 RMS(Int)=  0.00000150
 ClnCor:  largest displacement from symmetrization is 7.71D-13 for atom     6.
 Variable       Old X    -DE/DX   Delta X   Delta X   Delta X     New X
                                 (Linear)    (Quad)   (Total)
    R1        4.56700  -0.00039   0.00000  -0.00381  -0.00380   4.56319
    R2        4.52796  -0.00044   0.00000  -0.00507  -0.00507   4.52289
    R3        4.56700  -0.00039   0.00000  -0.00381  -0.00380   4.56319
    R4        4.54345  -0.00053   0.00000  -0.00527  -0.00527   4.53818
    R5        4.54345  -0.00053   0.00000  -0.00527  -0.00527   4.53818
    R6        4.87367  -0.00073   0.00000  -0.00957  -0.00957   4.86409
    R7        5.20634  -0.00082   0.00000  -0.01228  -0.01228   5.19406
    R8        5.20634  -0.00082   0.00000  -0.01228  -0.01228   5.19406
    R9        4.94889  -0.00078   0.00000  -0.00861  -0.00861   4.94027
   R10        4.56700  -0.00039   0.00000  -0.00381  -0.00380   4.56319
   R11        4.87367  -0.00073   0.00000  -0.00957  -0.00957   4.86409
   R12        5.39492  -0.00035   0.00000  -0.00728  -0.00728   5.38764
   R13        5.20634  -0.00082   0.00000  -0.01228  -0.01228   5.19406
   R14        4.52796  -0.00044   0.00000  -0.00507  -0.00507   4.52289
   R15        4.54345  -0.00053   0.00000  -0.00527  -0.00527   4.53818
   R16        5.20634  -0.00082   0.00000  -0.01228  -0.01228   5.19406
   R17        4.54345  -0.00053   0.00000  -0.00527  -0.00527   4.53818
   R18        4.56700  -0.00039   0.00000  -0.00381  -0.00380   4.56319
    A1        1.85361   0.00013   0.00000   0.00158   0.00158   1.85520
    A2        1.94603   0.00003   0.00000   0.00015   0.00015   1.94617
    A3        1.83664   0.00008   0.00000   0.00161   0.00161   1.83825
    A4        1.85361   0.00013   0.00000   0.00158   0.00158   1.85520
    A5        1.78243  -0.00001   0.00000   0.00035   0.00035   1.78278
    A6        1.83664   0.00008   0.00000   0.00161   0.00161   1.83825
    A7        1.79738  -0.00004   0.00000   0.00029   0.00029   1.79767
    A8        1.94814   0.00005   0.00000   0.00096   0.00096   1.94910
    A9        1.75751  -0.00012   0.00000  -0.00041  -0.00041   1.75710
   A10        1.81108   0.00000   0.00000   0.00043   0.00043   1.81151
   A11        1.79738  -0.00004   0.00000   0.00029   0.00029   1.79767
   A12        1.94814   0.00005   0.00000   0.00096   0.00096   1.94910
   A13        1.94814   0.00005   0.00000   0.00096   0.00096   1.94910
   A14        1.81108   0.00000   0.00000   0.00043   0.00043   1.81151
   A15        1.94814   0.00005   0.00000   0.00096   0.00096   1.94910
   A16        1.79738  -0.00004   0.00000   0.00029   0.00029   1.79767
   A17        1.75751  -0.00012   0.00000  -0.00041  -0.00041   1.75710
   A18        1.79738  -0.00004   0.00000   0.00029   0.00029   1.79767
   A19        1.83664   0.00008   0.00000   0.00161   0.00161   1.83825
   A20        1.85361   0.00013   0.00000   0.00158   0.00158   1.85520
   A21        1.94603   0.00003   0.00000   0.00015   0.00015   1.94617
   A22        1.78243  -0.00001   0.00000   0.00035   0.00035   1.78278
   A23        1.83664   0.00008   0.00000   0.00161   0.00161   1.83825
   A24        1.85361   0.00013   0.00000   0.00158   0.00158   1.85520
    D1       -0.04004  -0.00013   0.00000  -0.00178  -0.00178  -0.04182
    D2        0.04004   0.00013   0.00000   0.00178   0.00178   0.04182
    D3        0.00000   0.00000   0.00000   0.00000   0.00000   0.00000
    D4        0.00000   0.00000   0.00000   0.00000   0.00000   0.00000
    D5        0.04004   0.00013   0.00000   0.00178   0.00178   0.04182
    D6       -0.04004  -0.00013   0.00000  -0.00178  -0.00178  -0.04182
         Item               Value     Threshold  Converged?
 Maximum Force            0.000825     0.000450     NO 
 RMS     Force            0.000377     0.000300     NO 
 Maximum Displacement     0.006952     0.001800     NO 
 RMS     Displacement     0.002428     0.001200     NO 
 Predicted change in Energy=-4.390857D-05
 GradGradGradGradGradGradGradGradGradGradGradGradGradGradGradGradGradGrad

                          Input orientation:                          
 ---------------------------------------------------------------------
 Center     Atomic      Atomic             Coordinates (Angstroms)
 Number     Number       Type             X           Y           Z
 ---------------------------------------------------------------------
      1         14           0        0.000000    1.996086   -1.395915
      2         14           0       -1.848709    0.000000    1.491889
      3         14           0        1.307140    0.000000   -1.024460
      4         14           0        0.000000   -1.425508    0.928486
      5         14           0        0.000000    1.425508    0.928486
      6         14           0       -1.307140    0.000000   -1.024460
      7         14           0        0.000000   -1.996086   -1.395915
      8         14           0        1.848709    0.000000    1.491889
 ---------------------------------------------------------------------
                    Distance matrix (angstroms):
                    1          2          3          4          5
     1  Si   0.000000
     2  Si   3.967555   0.000000
     3  Si   2.414737   4.036260   0.000000
     4  Si   4.136442   2.401504   2.748579   0.000000
     5  Si   2.393408   2.401504   2.748579   2.851016   0.000000
     6  Si   2.414737   2.573967   2.614280   2.748579   2.748579
     7  Si   3.992173   3.967555   2.414737   2.393408   4.136442
     8  Si   3.967555   3.697418   2.573967   2.401504   2.401504
                    6          7          8
     6  Si   0.000000
     7  Si   2.414737   0.000000
     8  Si   4.036260   3.967555   0.000000
 Stoichiometry    Si8(1-,2)
 Framework group  C2V[SGV(Si4),SGV'(Si4)]
 Deg. of freedom     7
 Full point group                 C2V     NOp   4
 Largest Abelian subgroup         C2V     NOp   4
 Largest concise Abelian subgroup C2V     NOp   4
                         Standard orientation:                         
 ---------------------------------------------------------------------
 Center     Atomic      Atomic             Coordinates (Angstroms)
 Number     Number       Type             X           Y           Z
 ---------------------------------------------------------------------
      1         14           0        0.000000    1.996086   -1.395915
      2         14           0       -1.848709    0.000000    1.491889
      3         14           0        1.307140    0.000000   -1.024460
      4         14           0        0.000000   -1.425508    0.928486
      5         14           0        0.000000    1.425508    0.928486
      6         14           0       -1.307140    0.000000   -1.024460
      7         14           0        0.000000   -1.996086   -1.395915
      8         14           0        1.848709    0.000000    1.491889
 ---------------------------------------------------------------------
 Rotational constants (GHZ):      0.8105763      0.8055532      0.7463069
 Standard basis: GTBas3 (6D, 7F)
 There are    88 symmetry adapted basis functions of A1  symmetry.
 There are    40 symmetry adapted basis functions of A2  symmetry.
 There are    64 symmetry adapted basis functions of B1  symmetry.
 There are    64 symmetry adapted basis functions of B2  symmetry.
 Integral buffers will be    131072 words long.
 Raffenetti 2 integral format.
 Two-electron integral symmetry is turned on.
   256 basis functions,   544 primitive gaussians,   280 cartesian basis functions
    57 alpha electrons       56 beta electrons
       nuclear repulsion energy       998.9632230430 Hartrees.
 NAtoms=    8 NActive=    8 NUniq=    4 SFac= 3.00D+00 NAtFMM=   80 NAOKFM=F Big=F
 One-electron integrals computed using PRISM.
 NBasis=   256 RedAO= T  NBF=    88    40    64    64
 NBsUse=   256 1.00D-06 NBFU=    88    40    64    64
 Initial guess read from the read-write file.
 B after Tr=     0.000000    0.000000    0.000000
         Rot=    1.000000    0.000000    0.000000    0.000000 Ang=   0.00 deg.
 Initial guess orbital symmetries:
 Alpha Orbitals:
       Occupied  (A1) (B1) (A1) (B2) (B1) (A1) (B2) (A1) (A1) (B1)
                 (A1) (B2) (B1) (A1) (B2) (A1) (A1) (B1) (A1) (B1)
                 (A2) (B2) (A1) (B2) (A2) (B1) (A1) (B2) (A1) (B1)
                 (B2) (A2) (A1) (B1) (B1) (A2) (B2) (A1) (A1) (B2)
                 (A1) (A1) (B2) (B1) (B2) (B1) (A1) (A1) (A1) (A2)
                 (A1) (B2) (A1) (B1) (B2) (A2) (B1)
       Virtual   (A1) (B1) (B2) (A1) (B2) (B1) (A1) (B1) (A1) (B2)
                 (B1) (A2) (A1) (B2) (A2) (B2) (A1) (B1) (A2) (A1)
                 (A1) (A1) (B2) (A2) (B1) (B2) (A1) (B1) (A1) (A2)
                 (B2) (A1) (B1) (A1) (B1) (A1) (B2) (A1) (B1) (A2)
                 (B2) (A2) (B2) (B1) (A1) (B1) (A2) (A1) (B2) (B2)
                 (B1) (B2) (B1) (A2) (A1) (B1) (B2) (A1) (A1) (A2)
                 (B2) (B1) (A1) (A2) (A1) (B2) (A2) (B1) (A1) (B2)
                 (A1) (B1) (B2) (A1) (B1) (A1) (A1) (B2) (A2) (B1)
                 (B1) (A1) (B1) (B2) (A1) (A2) (B2) (A1) (A1) (B2)
                 (A2) (B1) (A1) (B1) (B2) (A1) (A2) (B2) (B1) (A2)
                 (A1) (B1) (A1) (B2) (A2) (B1) (A1) (B2) (A2) (B1)
                 (B2) (A1) (B2) (B1) (A2) (B1) (A1) (A1) (B2) (A1)
                 (B2) (A2) (A1) (B1) (A1) (A1) (B2) (B1) (B2) (A2)
                 (A2) (B1) (A1) (B2) (A1) (B1) (A2) (B1) (B2) (B1)
                 (A1) (A2) (B2) (A1) (B1) (B2) (A2) (B2) (B1) (A1)
                 (A1) (A2) (A1) (A2) (B2) (B1) (B2) (A2) (A1) (B1)
                 (B1) (A1) (B2) (A1) (B1) (A1) (A2) (B2) (B2) (B1)
                 (A1) (A1) (B2) (B1) (B1) (A2) (A1) (B2) (A1) (A1)
                 (B1) (B2) (A2) (B1) (B2) (A1) (A2) (B2) (A1) (A2)
                 (B1) (A1) (A1) (B2) (B1) (B2) (A1) (B1) (A1)
 Beta  Orbitals:
       Occupied  (A1) (B1) (A1) (B2) (B1) (A1) (B2) (A1) (A1) (B1)
                 (A1) (B2) (B1) (A1) (B2) (A1) (A1) (B1) (A1) (B1)
                 (A2) (B2) (A1) (B2) (A2) (B1) (A1) (B2) (B1) (A1)
                 (B2) (A2) (A1) (B1) (B1) (A2) (B2) (A1) (A1) (B2)
                 (A1) (A1) (B2) (B1) (B2) (B1) (A1) (A1) (A2) (A1)
                 (B2) (A1) (A1) (B1) (B2) (A2)
       Virtual   (B1) (A1) (B1) (B2) (A1) (B2) (B1) (A1) (A1) (B1)
                 (B2) (A2) (B1) (B2) (A2) (A1) (B2) (A1) (B1) (A2)
                 (A1) (A1) (A1) (B2) (A2) (B2) (B1) (A1) (B1) (A1)
                 (A2) (B2) (A1) (B1) (A1) (B1) (A1) (B2) (A1) (A2)
                 (B1) (B2) (A2) (B2) (B1) (A1) (A2) (B1) (A1) (B2)
                 (B2) (B1) (B2) (A2) (B1) (A1) (B1) (B2) (A1) (A1)
                 (A2) (B2) (B1) (A1) (A2) (A1) (B2) (A2) (A1) (B1)
                 (B2) (A1) (B1) (B2) (B1) (A1) (A1) (A1) (B2) (A2)
                 (B1) (B1) (A1) (B2) (B1) (A1) (A2) (B2) (A1) (B2)
                 (A1) (A2) (A1) (B1) (B1) (B2) (A1) (A2) (B2) (B1)
                 (A2) (A1) (B1) (A1) (B2) (A2) (B1) (A1) (B2) (A2)
                 (B1) (B2) (A1) (B2) (A2) (B1) (B1) (A1) (A1) (B2)
                 (A1) (B2) (A2) (A1) (B1) (A1) (A1) (B2) (B2) (B1)
                 (A2) (A2) (B1) (A1) (B2) (A1) (B1) (B1) (A2) (B2)
                 (B1) (A1) (A2) (B2) (A1) (B2) (B1) (A2) (B2) (B1)
                 (A1) (A1) (A2) (A1) (B2) (A2) (B1) (B2) (A2) (A1)
                 (B1) (B1) (A1) (B2) (A1) (B1) (A1) (A2) (B2) (B1)
                 (B2) (A1) (A1) (B2) (B1) (B1) (A2) (A1) (B2) (A1)
                 (A1) (B1) (B2) (A2) (B1) (B2) (A1) (A2) (B2) (A1)
                 (A2) (B1) (A1) (A1) (B2) (B1) (B2) (A1) (B1) (A1)
 Initial guess <Sx>= 0.0000 <Sy>= 0.0000 <Sz>= 0.5000 <S**2>= 0.7578 S= 0.5039
 Requested convergence on RMS density matrix=1.00D-08 within 128 cycles.
 Requested convergence on MAX density matrix=1.00D-06.
 Requested convergence on             energy=1.00D-06.
 No special actions if energy rises.
 Keep R1 and R2 ints in memory in canonical form, NReq=1559090227.
 SCF Done:  E(UB3LYP) =  -2315.99529555     A.U. after   12 cycles
             Convg  =    0.4341D-08             -V/T =  2.0035
 <Sx>= 0.0000 <Sy>= 0.0000 <Sz>= 0.5000 <S**2>= 0.7578 S= 0.5039
 <L.S>= 0.000000000000E+00
 Annihilation of the first spin contaminant:
 S**2 before annihilation     0.7578,   after     0.7500
 QCSCF skips out because SCF is already converged.
 Calling FoFJK, ICntrl=      2127 FMM=F ISym2X=1 I1Cent= 0 IOpClX= 1 NMat=1 NMatS=1 NMatT=0.
 ***** Axes restored to original set *****
 -------------------------------------------------------------------
 Center     Atomic                   Forces (Hartrees/Bohr)
 Number     Number              X              Y              Z
 -------------------------------------------------------------------
      1       14           0.000000000   -0.000280319    0.000074465
      2       14           0.000379072    0.000000000   -0.000440731
      3       14          -0.001245697    0.000000000    0.001401069
      4       14           0.000000000    0.000967269   -0.001034803
      5       14           0.000000000   -0.000967269   -0.001034803
      6       14           0.001245697    0.000000000    0.001401069
      7       14           0.000000000    0.000280319    0.000074465
      8       14          -0.000379072    0.000000000   -0.000440731
 -------------------------------------------------------------------
 Cartesian Forces:  Max     0.001401069 RMS     0.000703755

 GradGradGradGradGradGradGradGradGradGradGradGradGradGradGradGradGradGrad
 Berny optimization.
 Using GEDIIS/GDIIS optimizer.
 Internal  Forces:  Max     0.000620310 RMS     0.000235884
 Search for a local minimum.
 Step number   2 out of a maximum of   58
 All quantities printed in internal units (Hartrees-Bohrs-Radians)
 Mixed Optimization -- En-DIIS/RFO-DIIS
 Swaping is turned off.
 Update second derivatives using D2CorX and points    1    2
 DE= -7.13D-05 DEPred=-4.39D-05 R= 1.62D+00
 SS=  1.41D+00  RLast= 3.42D-02 DXNew= 5.0454D-01 1.0271D-01
 Trust test= 1.62D+00 RLast= 3.42D-02 DXMaxT set to 3.00D-01
     Eigenvalues ---    0.02443   0.07599   0.07723   0.08668   0.09490
     Eigenvalues ---    0.09623   0.10254   0.10499   0.11203   0.11702
     Eigenvalues ---    0.11754   0.12318   0.12365   0.12535   0.13165
     Eigenvalues ---    0.15085   0.15246   0.154751000.000001000.00000
     Eigenvalues --- 1000.000001000.000001000.000001000.000001000.00000
     Eigenvalues --- 1000.000001000.000001000.000001000.000001000.00000
     Eigenvalues --- 1000.000001000.000001000.000001000.000001000.00000
     Eigenvalues --- 1000.000001000.000001000.000001000.000001000.00000
     Eigenvalues --- 1000.000001000.000001000.000001000.000001000.00000
     Eigenvalues --- 1000.000001000.000001000.00000
 En-DIIS/RFO-DIIS IScMMF=        0 using points:     2    1
 RFO step:  Lambda=-1.68509087D-05.
 DIIS coeffs:      2.67135     -1.67135
 Iteration  1 RMS(Cart)=  0.00466595 RMS(Int)=  0.00001737
 Iteration  2 RMS(Cart)=  0.00000830 RMS(Int)=  0.00001226
 Iteration  3 RMS(Cart)=  0.00000000 RMS(Int)=  0.00001226
 ClnCor:  largest displacement from symmetrization is 1.40D-12 for atom     5.
 Variable       Old X    -DE/DX   Delta X   Delta X   Delta X     New X
                                  (DIIS)     (GDIIS)  (Total)
    R1        4.56319  -0.00015  -0.00636   0.00139  -0.00496   4.55823
    R2        4.52289  -0.00015  -0.00848   0.00103  -0.00746   4.51542
    R3        4.56319  -0.00015  -0.00636   0.00139  -0.00496   4.55823
    R4        4.53818  -0.00018  -0.00880   0.00240  -0.00640   4.53178
    R5        4.53818  -0.00018  -0.00880   0.00240  -0.00640   4.53178
    R6        4.86409  -0.00043  -0.01600  -0.00109  -0.01709   4.84700
    R7        5.19406  -0.00062  -0.02052  -0.00537  -0.02588   5.16818
    R8        5.19406  -0.00062  -0.02052  -0.00537  -0.02588   5.16818
    R9        4.94027  -0.00052  -0.01440  -0.00211  -0.01654   4.92373
   R10        4.56319  -0.00015  -0.00636   0.00139  -0.00496   4.55823
   R11        4.86409  -0.00043  -0.01600  -0.00109  -0.01709   4.84700
   R12        5.38764  -0.00022  -0.01217  -0.00112  -0.01332   5.37432
   R13        5.19406  -0.00062  -0.02052  -0.00537  -0.02588   5.16818
   R14        4.52289  -0.00015  -0.00848   0.00103  -0.00746   4.51542
   R15        4.53818  -0.00018  -0.00880   0.00240  -0.00640   4.53178
   R16        5.19406  -0.00062  -0.02052  -0.00537  -0.02588   5.16818
   R17        4.53818  -0.00018  -0.00880   0.00240  -0.00640   4.53178
   R18        4.56319  -0.00015  -0.00636   0.00139  -0.00496   4.55823
    A1        1.85520   0.00013   0.00265   0.00143   0.00407   1.85927
    A2        1.94617   0.00002   0.00024  -0.00008   0.00014   1.94631
    A3        1.83825   0.00011   0.00270   0.00182   0.00451   1.84277
    A4        1.85520   0.00013   0.00265   0.00143   0.00407   1.85927
    A5        1.78278   0.00003   0.00059   0.00072   0.00132   1.78410
    A6        1.83825   0.00011   0.00270   0.00182   0.00451   1.84277
    A7        1.79767   0.00000   0.00049   0.00076   0.00125   1.79892
    A8        1.94910   0.00005   0.00161   0.00100   0.00260   1.95171
    A9        1.75710  -0.00004  -0.00069   0.00020  -0.00049   1.75661
   A10        1.81151   0.00001   0.00072   0.00031   0.00103   1.81254
   A11        1.79767   0.00000   0.00049   0.00076   0.00125   1.79892
   A12        1.94910   0.00005   0.00161   0.00100   0.00260   1.95171
   A13        1.94910   0.00005   0.00161   0.00100   0.00260   1.95171
   A14        1.81151   0.00001   0.00072   0.00031   0.00103   1.81254
   A15        1.94910   0.00005   0.00161   0.00100   0.00260   1.95171
   A16        1.79767   0.00000   0.00049   0.00076   0.00125   1.79892
   A17        1.75710  -0.00004  -0.00069   0.00020  -0.00049   1.75661
   A18        1.79767   0.00000   0.00049   0.00076   0.00125   1.79892
   A19        1.83825   0.00011   0.00270   0.00182   0.00451   1.84277
   A20        1.85520   0.00013   0.00265   0.00143   0.00407   1.85927
   A21        1.94617   0.00002   0.00024  -0.00008   0.00014   1.94631
   A22        1.78278   0.00003   0.00059   0.00072   0.00132   1.78410
   A23        1.83825   0.00011   0.00270   0.00182   0.00451   1.84277
   A24        1.85520   0.00013   0.00265   0.00143   0.00407   1.85927
    D1       -0.04182  -0.00012  -0.00297  -0.00168  -0.00467  -0.04648
    D2        0.04182   0.00012   0.00297   0.00168   0.00467   0.04648
    D3        0.00000   0.00000   0.00000   0.00000   0.00000   0.00000
    D4        0.00000   0.00000   0.00000   0.00000   0.00000   0.00000
    D5        0.04182   0.00012   0.00297   0.00168   0.00467   0.04648
    D6       -0.04182  -0.00012  -0.00297  -0.00168  -0.00467  -0.04648
         Item               Value     Threshold  Converged?
 Maximum Force            0.000620     0.000450     NO 
 RMS     Force            0.000236     0.000300     YES
 Maximum Displacement     0.015449     0.001800     NO 
 RMS     Displacement     0.004667     0.001200     NO 
 Predicted change in Energy=-5.355297D-05
 GradGradGradGradGradGradGradGradGradGradGradGradGradGradGradGradGradGrad

                          Input orientation:                          
 ---------------------------------------------------------------------
 Center     Atomic      Atomic             Coordinates (Angstroms)
 Number     Number       Type             X           Y           Z
 ---------------------------------------------------------------------
      1         14           0        0.000000    1.994011   -1.397101
      2         14           0       -1.845729    0.000000    1.490508
      3         14           0        1.302763    0.000000   -1.016285
      4         14           0        0.000000   -1.421984    0.922878
      5         14           0        0.000000    1.421984    0.922878
      6         14           0       -1.302763    0.000000   -1.016285
      7         14           0        0.000000   -1.994011   -1.397101
      8         14           0        1.845729    0.000000    1.490508
 ---------------------------------------------------------------------
                    Distance matrix (angstroms):
                    1          2          3          4          5
     1  Si   0.000000
     2  Si   3.964982   0.000000
     3  Si   2.412114   4.024551   0.000000
     4  Si   4.129325   2.398115   2.734882   0.000000
     5  Si   2.389460   2.398115   2.734882   2.843968   0.000000
     6  Si   2.412114   2.564922   2.605526   2.734882   2.734882
     7  Si   3.988022   3.964982   2.412114   2.389460   4.129325
     8  Si   3.964982   3.691458   2.564922   2.398115   2.398115
                    6          7          8
     6  Si   0.000000
     7  Si   2.412114   0.000000
     8  Si   4.024551   3.964982   0.000000
 Stoichiometry    Si8(1-,2)
 Framework group  C2V[SGV(Si4),SGV'(Si4)]
 Deg. of freedom     7
 Full point group                 C2V     NOp   4
 Largest Abelian subgroup         C2V     NOp   4
 Largest concise Abelian subgroup C2V     NOp   4
                         Standard orientation:                         
 ---------------------------------------------------------------------
 Center     Atomic      Atomic             Coordinates (Angstroms)
 Number     Number       Type             X           Y           Z
 ---------------------------------------------------------------------
      1         14           0        0.000000    1.994011   -1.397101
      2         14           0       -1.845729    0.000000    1.490508
      3         14           0        1.302763    0.000000   -1.016285
      4         14           0        0.000000   -1.421984    0.922878
      5         14           0        0.000000    1.421984    0.922878
      6         14           0       -1.302763    0.000000   -1.016285
      7         14           0        0.000000   -1.994011   -1.397101
      8         14           0        1.845729    0.000000    1.490508
 ---------------------------------------------------------------------
 Rotational constants (GHZ):      0.8135514      0.8091835      0.7491660
 Standard basis: GTBas3 (6D, 7F)
 There are    88 symmetry adapted basis functions of A1  symmetry.
 There are    40 symmetry adapted basis functions of A2  symmetry.
 There are    64 symmetry adapted basis functions of B1  symmetry.
 There are    64 symmetry adapted basis functions of B2  symmetry.
 Integral buffers will be    131072 words long.
 Raffenetti 2 integral format.
 Two-electron integral symmetry is turned on.
   256 basis functions,   544 primitive gaussians,   280 cartesian basis functions
    57 alpha electrons       56 beta electrons
       nuclear repulsion energy      1001.1771181541 Hartrees.
 NAtoms=    8 NActive=    8 NUniq=    4 SFac= 3.00D+00 NAtFMM=   80 NAOKFM=F Big=F
 One-electron integrals computed using PRISM.
 NBasis=   256 RedAO= T  NBF=    88    40    64    64
 NBsUse=   256 1.00D-06 NBFU=    88    40    64    64
 Initial guess read from the read-write file.
 B after Tr=     0.000000    0.000000    0.000000
         Rot=    1.000000    0.000000    0.000000    0.000000 Ang=   0.00 deg.
 Initial guess orbital symmetries:
 Alpha Orbitals:
       Occupied  (A1) (B1) (A1) (B2) (B1) (A1) (B2) (A1) (A1) (B1)
                 (A1) (B2) (B1) (A1) (B2) (A1) (A1) (B1) (A1) (B1)
                 (A2) (B2) (A1) (B2) (A2) (B1) (A1) (B2) (A1) (B1)
                 (B2) (A2) (A1) (B1) (B1) (A2) (B2) (A1) (A1) (B2)
                 (A1) (A1) (B2) (B1) (B2) (B1) (A1) (A1) (A1) (A2)
                 (B2) (A1) (A1) (B1) (B2) (A2) (B1)
       Virtual   (A1) (B1) (B2) (A1) (B2) (B1) (A1) (B1) (A1) (B2)
                 (B1) (A2) (A1) (B2) (A2) (B2) (A1) (B1) (A2) (A1)
                 (A1) (A1) (B2) (A2) (B1) (B2) (A1) (B1) (A1) (A2)
                 (B2) (A1) (B1) (A1) (B1) (A1) (B2) (A1) (B1) (A2)
                 (B2) (A2) (B2) (B1) (A1) (B1) (A2) (A1) (B2) (B2)
                 (B1) (B2) (B1) (A2) (A1) (B1) (B2) (A1) (A1) (A2)
                 (B2) (B1) (A1) (A2) (A1) (B2) (A2) (B1) (A1) (B2)
                 (A1) (B1) (B2) (A1) (B1) (A1) (A1) (B2) (A2) (B1)
                 (B1) (A1) (B1) (B2) (A1) (A2) (B2) (A1) (A1) (B2)
                 (A2) (B1) (A1) (B1) (B2) (A1) (A2) (B2) (B1) (A2)
                 (A1) (B1) (A1) (B2) (A2) (B1) (A1) (B2) (A2) (B1)
                 (B2) (A1) (B2) (B1) (A2) (B1) (A1) (A1) (B2) (A1)
                 (B2) (A2) (A1) (B1) (A1) (A1) (B2) (B1) (B2) (A2)
                 (A2) (B1) (A1) (B2) (A1) (B1) (A2) (B1) (B2) (B1)
                 (A1) (A2) (B2) (A1) (B2) (B1) (A2) (B2) (B1) (A1)
                 (A1) (A2) (A1) (A2) (B2) (B1) (B2) (A2) (A1) (B1)
                 (B1) (A1) (B2) (A1) (B1) (A1) (A2) (B2) (B2) (B1)
                 (A1) (A1) (B2) (B1) (B1) (A1) (A2) (B2) (A1) (A1)
                 (B1) (B2) (A2) (B1) (B2) (A1) (A2) (B2) (A1) (A2)
                 (B1) (A1) (A1) (B2) (B1) (B2) (A1) (B1) (A1)
 Beta  Orbitals:
       Occupied  (A1) (B1) (A1) (B2) (B1) (A1) (B2) (A1) (A1) (B1)
                 (A1) (B2) (B1) (A1) (B2) (A1) (A1) (B1) (A1) (B1)
                 (A2) (B2) (A1) (B2) (A2) (B1) (A1) (B2) (B1) (A1)
                 (B2) (A2) (A1) (B1) (B1) (A2) (B2) (A1) (A1) (B2)
                 (A1) (A1) (B2) (B1) (B2) (B1) (A1) (A1) (A2) (A1)
                 (B2) (A1) (A1) (B1) (B2) (A2)
       Virtual   (B1) (A1) (B1) (B2) (A1) (B2) (B1) (A1) (A1) (B1)
                 (B2) (A2) (B1) (B2) (A2) (A1) (B2) (A1) (B1) (A2)
                 (A1) (A1) (A1) (B2) (A2) (B2) (B1) (A1) (B1) (A1)
                 (A2) (B2) (A1) (B1) (A1) (B1) (A1) (B2) (A1) (A2)
                 (B1) (B2) (A2) (B2) (B1) (A1) (A2) (B1) (A1) (B2)
                 (B2) (B1) (B2) (A2) (A1) (B1) (B1) (B2) (A1) (A1)
                 (A2) (B2) (B1) (A1) (A2) (A1) (B2) (A2) (A1) (B1)
                 (B2) (A1) (B1) (B2) (B1) (A1) (A1) (A1) (B2) (A2)
                 (B1) (B1) (A1) (B2) (B1) (A1) (A2) (B2) (A1) (B2)
                 (A1) (A2) (A1) (B1) (B1) (B2) (A1) (A2) (B2) (B1)
                 (A2) (A1) (B1) (A1) (B2) (A2) (B1) (A1) (B2) (A2)
                 (B1) (B2) (A1) (B2) (A2) (B1) (B1) (A1) (A1) (B2)
                 (A1) (B2) (A2) (A1) (B1) (A1) (A1) (B2) (B2) (B1)
                 (A2) (A2) (B1) (A1) (B2) (A1) (B1) (B1) (A2) (B2)
                 (B1) (A1) (A2) (B2) (A1) (B2) (B1) (A2) (B2) (B1)
                 (A1) (A1) (A2) (A1) (A2) (B2) (B1) (B2) (A2) (A1)
                 (B1) (B1) (A1) (B2) (A1) (B1) (A1) (A2) (B2) (B1)
                 (B2) (A1) (A1) (B2) (B1) (B1) (A1) (A2) (B2) (A1)
                 (A1) (B1) (B2) (A2) (B1) (B2) (A1) (A2) (B2) (A1)
                 (A2) (B1) (A1) (A1) (B2) (B1) (B2) (A1) (B1) (A1)
 Initial guess <Sx>= 0.0000 <Sy>= 0.0000 <Sz>= 0.5000 <S**2>= 0.7578 S= 0.5039
 Requested convergence on RMS density matrix=1.00D-08 within 128 cycles.
 Requested convergence on MAX density matrix=1.00D-06.
 Requested convergence on             energy=1.00D-06.
 No special actions if energy rises.
 Keep R1 and R2 ints in memory in canonical form, NReq=1559090227.
 SCF Done:  E(UB3LYP) =  -2315.99535302     A.U. after   12 cycles
             Convg  =    0.9290D-08             -V/T =  2.0035
 <Sx>= 0.0000 <Sy>= 0.0000 <Sz>= 0.5000 <S**2>= 0.7577 S= 0.5038
 <L.S>= 0.000000000000E+00
 Annihilation of the first spin contaminant:
 S**2 before annihilation     0.7577,   after     0.7500
 QCSCF skips out because SCF is already converged.
 Calling FoFJK, ICntrl=      2127 FMM=F ISym2X=1 I1Cent= 0 IOpClX= 1 NMat=1 NMatS=1 NMatT=0.
 ***** Axes restored to original set *****
 -------------------------------------------------------------------
 Center     Atomic                   Forces (Hartrees/Bohr)
 Number     Number              X              Y              Z
 -------------------------------------------------------------------
      1       14           0.000000000    0.000308365   -0.000351850
      2       14          -0.000461032    0.000000000    0.000223235
      3       14          -0.000085091    0.000000000    0.000339585
      4       14           0.000000000   -0.000139025   -0.000210971
      5       14           0.000000000    0.000139025   -0.000210971
      6       14           0.000085091    0.000000000    0.000339585
      7       14           0.000000000   -0.000308365   -0.000351850
      8       14           0.000461032    0.000000000    0.000223235
 -------------------------------------------------------------------
 Cartesian Forces:  Max     0.000461032 RMS     0.000235879

 GradGradGradGradGradGradGradGradGradGradGradGradGradGradGradGradGradGrad
 Berny optimization.
 Using GEDIIS/GDIIS optimizer.
 Internal  Forces:  Max     0.000272307 RMS     0.000123189
 Search for a local minimum.
 Step number   3 out of a maximum of   58
 All quantities printed in internal units (Hartrees-Bohrs-Radians)
 Mixed Optimization -- En-DIIS/RFO-DIIS
 Swaping is turned off.
 Update second derivatives using D2CorX and points    1    2    3
 DE= -5.75D-05 DEPred=-5.36D-05 R= 1.07D+00
 SS=  1.41D+00  RLast= 6.61D-02 DXNew= 5.0454D-01 1.9816D-01
 Trust test= 1.07D+00 RLast= 6.61D-02 DXMaxT set to 3.00D-01
     Eigenvalues ---    0.02135   0.07610   0.07770   0.08674   0.09511
     Eigenvalues ---    0.09633   0.10299   0.10506   0.11213   0.11702
     Eigenvalues ---    0.11761   0.12370   0.12442   0.12528   0.13770
     Eigenvalues ---    0.15105   0.15272   0.161601000.000001000.00000
     Eigenvalues --- 1000.000001000.000001000.000001000.000001000.00000
     Eigenvalues --- 1000.000001000.000001000.000001000.000001000.00000
     Eigenvalues --- 1000.000001000.000001000.000001000.000001000.00000
     Eigenvalues --- 1000.000001000.000001000.000001000.000001000.00000
     Eigenvalues --- 1000.000001000.000001000.000001000.000001000.00000
     Eigenvalues --- 1000.000001000.000001000.00000
 En-DIIS/RFO-DIIS IScMMF=        0 using points:     3    2    1
 RFO step:  Lambda=-2.07119653D-06.
 DIIS coeffs:      2.59879     -4.37405      2.77526
 Iteration  1 RMS(Cart)=  0.00214112 RMS(Int)=  0.00000911
 Iteration  2 RMS(Cart)=  0.00000236 RMS(Int)=  0.00000821
 Iteration  3 RMS(Cart)=  0.00000000 RMS(Int)=  0.00000821
 ClnCor:  largest displacement from symmetrization is 3.61D-12 for atom     5.
 Variable       Old X    -DE/DX   Delta X   Delta X   Delta X     New X
                                  (DIIS)     (GDIIS)  (Total)
    R1        4.55823   0.00016   0.00263  -0.00006   0.00257   4.56081
    R2        4.51542   0.00021   0.00215   0.00004   0.00220   4.51762
    R3        4.55823   0.00016   0.00263  -0.00006   0.00257   4.56081
    R4        4.53178   0.00027   0.00438   0.00004   0.00442   4.53620
    R5        4.53178   0.00027   0.00438   0.00004   0.00442   4.53620
    R6        4.84700   0.00006  -0.00076  -0.00016  -0.00092   4.84608
    R7        5.16818  -0.00016  -0.00730  -0.00003  -0.00734   5.16083
    R8        5.16818  -0.00016  -0.00730  -0.00003  -0.00734   5.16083
    R9        4.92373  -0.00005  -0.00254   0.00020  -0.00232   4.92141
   R10        4.55823   0.00016   0.00263  -0.00006   0.00257   4.56081
   R11        4.84700   0.00006  -0.00076  -0.00016  -0.00092   4.84608
   R12        5.37432   0.00004  -0.00108   0.00103  -0.00004   5.37428
   R13        5.16818  -0.00016  -0.00730  -0.00003  -0.00734   5.16083
   R14        4.51542   0.00021   0.00215   0.00004   0.00220   4.51762
   R15        4.53178   0.00027   0.00438   0.00004   0.00442   4.53620
   R16        5.16818  -0.00016  -0.00730  -0.00003  -0.00734   5.16083
   R17        4.53178   0.00027   0.00438   0.00004   0.00442   4.53620
   R18        4.55823   0.00016   0.00263  -0.00006   0.00257   4.56081
    A1        1.85927   0.00008   0.00212   0.00014   0.00225   1.86152
    A2        1.94631   0.00000  -0.00019  -0.00018  -0.00035   1.94596
    A3        1.84277   0.00011   0.00274   0.00011   0.00284   1.84561
    A4        1.85927   0.00008   0.00212   0.00014   0.00225   1.86152
    A5        1.78410   0.00006   0.00113  -0.00012   0.00100   1.78510
    A6        1.84277   0.00011   0.00274   0.00011   0.00284   1.84561
    A7        1.79892   0.00004   0.00118  -0.00011   0.00107   1.79999
    A8        1.95171   0.00004   0.00150   0.00003   0.00152   1.95323
    A9        1.75661   0.00004   0.00036  -0.00036   0.00000   1.75661
   A10        1.81254   0.00001   0.00045  -0.00018   0.00027   1.81281
   A11        1.79892   0.00004   0.00118  -0.00011   0.00107   1.79999
   A12        1.95171   0.00004   0.00150   0.00003   0.00152   1.95323
   A13        1.95171   0.00004   0.00150   0.00003   0.00152   1.95323
   A14        1.81254   0.00001   0.00045  -0.00018   0.00027   1.81281
   A15        1.95171   0.00004   0.00150   0.00003   0.00152   1.95323
   A16        1.79892   0.00004   0.00118  -0.00011   0.00107   1.79999
   A17        1.75661   0.00004   0.00036  -0.00036   0.00000   1.75661
   A18        1.79892   0.00004   0.00118  -0.00011   0.00107   1.79999
   A19        1.84277   0.00011   0.00274   0.00011   0.00284   1.84561
   A20        1.85927   0.00008   0.00212   0.00014   0.00225   1.86152
   A21        1.94631   0.00000  -0.00019  -0.00018  -0.00035   1.94596
   A22        1.78410   0.00006   0.00113  -0.00012   0.00100   1.78510
   A23        1.84277   0.00011   0.00274   0.00011   0.00284   1.84561
   A24        1.85927   0.00008   0.00212   0.00014   0.00225   1.86152
    D1       -0.04648  -0.00007  -0.00253  -0.00041  -0.00292  -0.04941
    D2        0.04648   0.00007   0.00253   0.00041   0.00292   0.04941
    D3        0.00000   0.00000   0.00000   0.00000   0.00000   0.00000
    D4        0.00000   0.00000   0.00000   0.00000   0.00000   0.00000
    D5        0.04648   0.00007   0.00253   0.00041   0.00292   0.04941
    D6       -0.04648  -0.00007  -0.00253  -0.00041  -0.00292  -0.04941
         Item               Value     Threshold  Converged?
 Maximum Force            0.000272     0.000450     YES
 RMS     Force            0.000123     0.000300     YES
 Maximum Displacement     0.005728     0.001800     NO 
 RMS     Displacement     0.002141     0.001200     NO 
 Predicted change in Energy=-3.800831D-06
 GradGradGradGradGradGradGradGradGradGradGradGradGradGradGradGradGradGrad

                          Input orientation:                          
 ---------------------------------------------------------------------
 Center     Atomic      Atomic             Coordinates (Angstroms)
 Number     Number       Type             X           Y           Z
 ---------------------------------------------------------------------
      1         14           0        0.000000    1.994897   -1.400109
      2         14           0       -1.847528    0.000000    1.492517
      3         14           0        1.302149    0.000000   -1.013254
      4         14           0        0.000000   -1.421973    0.920845
      5         14           0        0.000000    1.421973    0.920845
      6         14           0       -1.302149    0.000000   -1.013254
      7         14           0        0.000000   -1.994897   -1.400109
      8         14           0        1.847528    0.000000    1.492517
 ---------------------------------------------------------------------
                    Distance matrix (angstroms):
                    1          2          3          4          5
     1  Si   0.000000
     2  Si   3.969920   0.000000
     3  Si   2.413476   4.024842   0.000000
     4  Si   4.130597   2.400454   2.730996   0.000000
     5  Si   2.390622   2.400454   2.730996   2.843946   0.000000
     6  Si   2.413476   2.564435   2.604299   2.730996   2.730996
     7  Si   3.989795   3.969920   2.413476   2.390622   4.130597
     8  Si   3.969920   3.695057   2.564435   2.400454   2.400454
                    6          7          8
     6  Si   0.000000
     7  Si   2.413476   0.000000
     8  Si   4.024842   3.969920   0.000000
 Stoichiometry    Si8(1-,2)
 Framework group  C2V[SGV(Si4),SGV'(Si4)]
 Deg. of freedom     7
 Full point group                 C2V     NOp   4
 Largest Abelian subgroup         C2V     NOp   4
 Largest concise Abelian subgroup C2V     NOp   4
                         Standard orientation:                         
 ---------------------------------------------------------------------
 Center     Atomic      Atomic             Coordinates (Angstroms)
 Number     Number       Type             X           Y           Z
 ---------------------------------------------------------------------
      1         14           0        0.000000    1.994897   -1.400109
      2         14           0       -1.847528    0.000000    1.492517
      3         14           0        1.302149    0.000000   -1.013254
      4         14           0        0.000000   -1.421973    0.920845
      5         14           0        0.000000    1.421973    0.920845
      6         14           0       -1.302149    0.000000   -1.013254
      7         14           0        0.000000   -1.994897   -1.400109
      8         14           0        1.847528    0.000000    1.492517
 ---------------------------------------------------------------------
 Rotational constants (GHZ):      0.8129251      0.8084915      0.7486685
 Standard basis: GTBas3 (6D, 7F)
 There are    88 symmetry adapted basis functions of A1  symmetry.
 There are    40 symmetry adapted basis functions of A2  symmetry.
 There are    64 symmetry adapted basis functions of B1  symmetry.
 There are    64 symmetry adapted basis functions of B2  symmetry.
 Integral buffers will be    131072 words long.
 Raffenetti 2 integral format.
 Two-electron integral symmetry is turned on.
   256 basis functions,   544 primitive gaussians,   280 cartesian basis functions
    57 alpha electrons       56 beta electrons
       nuclear repulsion energy      1000.9313449269 Hartrees.
 NAtoms=    8 NActive=    8 NUniq=    4 SFac= 3.00D+00 NAtFMM=   80 NAOKFM=F Big=F
 One-electron integrals computed using PRISM.
 NBasis=   256 RedAO= T  NBF=    88    40    64    64
 NBsUse=   256 1.00D-06 NBFU=    88    40    64    64
 Initial guess read from the read-write file.
 B after Tr=     0.000000    0.000000    0.000000
[...]
  Beta virt. eigenvalues --    3.93660   3.93790   3.95335   3.95798   3.96337
  Beta virt. eigenvalues --    3.96742   4.00109   4.00149   4.01052   4.01542
  Beta virt. eigenvalues --    4.01542   4.02540   4.03374   4.04145   4.04228
  Beta virt. eigenvalues --    4.05704   4.06352   4.08926   4.09825   4.13204
  Beta virt. eigenvalues --    4.14415   4.16629   4.17473   4.17474   4.17831
  Beta virt. eigenvalues --    4.18245   4.19521   4.20744   4.20813   4.22286
  Beta virt. eigenvalues --    4.22907   4.23224   4.24118   4.24168   4.25745
  Beta virt. eigenvalues --    4.26276   4.26373   4.28492   4.29686   4.30498
  Beta virt. eigenvalues --    4.30690   4.31328   4.31780   4.32305   4.32452
  Beta virt. eigenvalues --    4.33063   4.33159   4.35049   4.36093   4.36287
  Beta virt. eigenvalues --    4.37458   4.38843   4.38971   4.40792   4.40991
  Beta virt. eigenvalues --    4.42654   4.42737   4.44104   4.44314   4.45634
  Beta virt. eigenvalues --    4.46022   4.46851   4.48982   4.49445   4.50630
  Beta virt. eigenvalues --    4.51419   4.51485   4.52175   4.52607   4.53459
  Beta virt. eigenvalues --    4.53716   4.55692   4.56372   4.56814   4.57588
  Beta virt. eigenvalues --    4.57807   4.59746   4.60911   4.61004   4.61006
  Beta virt. eigenvalues --    4.62225   4.64231   4.65896   4.66296   4.67505
  Beta virt. eigenvalues --    4.67759   4.68685   4.70535   4.71801   4.73398
  Beta virt. eigenvalues --    4.73713   4.74091   4.74352   4.74854   4.75205
  Beta virt. eigenvalues --    4.75887   4.76327   4.77934   4.78383   4.79300
  Beta virt. eigenvalues --    4.79447   4.83274   4.83576   4.84864   4.85236
  Beta virt. eigenvalues --    4.85905   4.87887   4.88248   4.88329   4.88945
  Beta virt. eigenvalues --    4.90150   4.90959   4.92557   4.92757   4.93434
  Beta virt. eigenvalues --    4.94318   4.95287   4.95494   4.96090   4.96270
  Beta virt. eigenvalues --    4.97302   4.98047   4.98818   4.99572   5.00647
  Beta virt. eigenvalues --    5.03217   5.03778   5.06030   5.06326   5.06597
  Beta virt. eigenvalues --    5.06973   5.08878   5.09005   5.10169   5.11877
  Beta virt. eigenvalues --    5.13312   5.13761   5.15182   5.18941   5.20295
  Beta virt. eigenvalues --    5.21540   5.22435   5.24181   5.25018   5.25405
  Beta virt. eigenvalues --    5.26444   5.29575   5.30454   5.32049   5.33450
  Beta virt. eigenvalues --    5.34143   5.37184   5.37611   5.38182   5.39360
  Beta virt. eigenvalues --    5.39419   5.46486   5.50381   5.51573   5.51782
  Beta virt. eigenvalues --    5.54098   5.54992   5.57112   5.57833   5.62500
  Beta virt. eigenvalues --    5.63268   5.64268   5.67241   5.73949   5.74360
  Beta virt. eigenvalues --    5.95536   6.05066   6.08192   6.14723   6.59221
  Beta virt. eigenvalues --    6.61420   6.76708   6.78415   6.84259   6.94269
  Beta virt. eigenvalues --    6.95086   6.98583   6.99396   7.01578   7.06268
  Beta virt. eigenvalues --    7.09002   7.11968   7.15856   7.16421   7.16489
  Beta virt. eigenvalues --    7.17216   7.19127   7.19685   7.21925   7.22112
  Beta virt. eigenvalues --    7.23275   7.26532   7.28498   7.30823   7.32272
  Beta virt. eigenvalues --    7.32369   7.36089   7.36830   7.41378   7.44270
  Beta virt. eigenvalues --    7.47022   7.47809   7.50324   7.54422   7.60157
  Beta virt. eigenvalues --    7.60307   7.61007   7.61152   7.72948  14.10520
  Beta virt. eigenvalues --   14.13437  14.13587  14.14436  14.18857  14.19461
  Beta virt. eigenvalues --   14.22570  14.26388  14.27895  14.32027  14.36518
  Beta virt. eigenvalues --   14.38704  14.45279  14.58051  14.73266  14.75618
  Beta virt. eigenvalues --   14.77577  14.89491  14.91416  14.96874  15.03334
  Beta virt. eigenvalues --   15.06288  15.12453  15.14826  41.22729  41.46468
  Beta virt. eigenvalues --   41.62371  41.67341  43.05651  44.93829  45.19567
  Beta virt. eigenvalues --   45.28294
          Condensed to atoms (all electrons):
              1          2          3          4          5          6
     1  Si  13.483428  -0.007552   0.286881   0.005696   0.272049   0.286881
     2  Si  -0.007552  13.553557   0.016114   0.275693   0.275693   0.189588
     3  Si   0.286881   0.016114  13.091407   0.035313   0.035313   0.044003
     4  Si   0.005696   0.275693   0.035313  12.981383   0.051397   0.035313
     5  Si   0.272049   0.275693   0.035313   0.051397  12.981383   0.035313
     6  Si   0.286881   0.189588   0.044003   0.035313   0.035313  13.091407
     7  Si  -0.013734  -0.007552   0.286881   0.272049   0.005696   0.286881
     8  Si  -0.007552  -0.019673   0.189588   0.275693   0.275693   0.016114
              7          8
     1  Si  -0.013734  -0.007552
     2  Si  -0.007552  -0.019673
     3  Si   0.286881   0.189588
     4  Si   0.272049   0.275693
     5  Si   0.005696   0.275693
     6  Si   0.286881   0.016114
     7  Si  13.483428  -0.007552
     8  Si  -0.007552  13.553557
 Mulliken atomic charges:
              1
     1  Si  -0.306098
     2  Si  -0.275867
     3  Si   0.014501
     4  Si   0.067464
     5  Si   0.067464
     6  Si   0.014501
     7  Si  -0.306098
     8  Si  -0.275867
 Sum of Mulliken atomic charges =  -1.00000
 Mulliken charges with hydrogens summed into heavy atoms:
              1
     1  Si  -0.306098
     2  Si  -0.275867
     3  Si   0.014501
     4  Si   0.067464
     5  Si   0.067464
     6  Si   0.014501
     7  Si  -0.306098
     8  Si  -0.275867
 Sum of Mulliken charges with hydrogens summed into heavy atoms =  -1.00000
          Atomic-Atomic Spin Densities.
              1          2          3          4          5          6
     1  Si   0.094179  -0.000174  -0.005380   0.002251  -0.003448  -0.005380
     2  Si  -0.000174   0.340691   0.011544  -0.026420  -0.026420   0.081622
     3  Si  -0.005380   0.011544   0.036123  -0.024708  -0.024708  -0.021756
     4  Si   0.002251  -0.026420  -0.024708   0.070680   0.029637  -0.024708
     5  Si  -0.003448  -0.026420  -0.024708   0.029637   0.070680  -0.024708
     6  Si  -0.005380   0.081622  -0.021756  -0.024708  -0.024708   0.036123
     7  Si   0.004180  -0.000174  -0.005380  -0.003448   0.002251  -0.005380
     8  Si  -0.000174  -0.010941   0.081622  -0.026420  -0.026420   0.011544
              7          8
     1  Si   0.004180  -0.000174
     2  Si  -0.000174  -0.010941
     3  Si  -0.005380   0.081622
     4  Si  -0.003448  -0.026420
     5  Si   0.002251  -0.026420
     6  Si  -0.005380   0.011544
     7  Si   0.094179  -0.000174
     8  Si  -0.000174   0.340691
 Mulliken atomic spin densities:
              1
     1  Si   0.086053
     2  Si   0.369727
     3  Si   0.047356
     4  Si  -0.003136
     5  Si  -0.003136
     6  Si   0.047356
     7  Si   0.086053
     8  Si   0.369727
 Sum of Mulliken atomic spin densities =   1.00000
 Electronic spatial extent (au):  <R**2>=           2008.4400
 Charge=             -1.0000 electrons
 Dipole moment (field-independent basis, Debye):
    X=              0.0000    Y=              0.0000    Z=              0.3717  Tot=              0.3717
 Quadrupole moment (field-independent basis, Debye-Ang):
   XX=           -129.8264   YY=           -130.7164   ZZ=           -131.5802
   XY=              0.0000   XZ=              0.0000   YZ=              0.0000
 Traceless Quadrupole moment (field-independent basis, Debye-Ang):
   XX=              0.8812   YY=             -0.0087   ZZ=             -0.8725
   XY=              0.0000   XZ=              0.0000   YZ=              0.0000
 Octapole moment (field-independent basis, Debye-Ang**2):
  XXX=              0.0000  YYY=              0.0000  ZZZ=             -0.2151  XYY=              0.0000
  XXY=              0.0000  XXZ=            -28.0328  XZZ=              0.0000  YZZ=              0.0000
  YYZ=             31.1802  XYZ=              0.0000
 Hexadecapole moment (field-independent basis, Debye-Ang**3):
 XXXX=          -1279.1236 YYYY=          -1438.3488 ZZZZ=          -1381.9261 XXXY=              0.0000
 XXXZ=              0.0000 YYYX=              0.0000 YYYZ=              0.0000 ZZZX=              0.0000
 ZZZY=              0.0000 XXYY=           -407.5628 XXZZ=           -498.0905 YYZZ=           -510.2558
 XXYZ=              0.0000 YYXZ=              0.0000 ZZXY=              0.0000
 N-N= 1.000985602926D+03 E-N=-1.129026792228D+04  KE= 3.466656721263D+03
 Symmetry A1   KE= 1.582728125277D+03
 Symmetry A2   KE= 1.525375363817D+02
 Symmetry B1   KE= 8.645153780717D+02
 Symmetry B2   KE= 8.668756815327D+02
                          Isotropic Fermi Contact Couplings
        Atom                 a.u.       MegaHertz       Gauss      10(-4) cm-1
     1  Si(29)             0.00098      -0.86669      -0.30926      -0.28910
     2  Si(29)            -0.01268      11.26633       4.02011       3.75804
     3  Si(29)            -0.11809     104.95009      37.44880      35.00758
     4  Si(29)            -0.05495      48.83948      17.42714      16.29110
     5  Si(29)            -0.05495      48.83948      17.42714      16.29110
     6  Si(29)            -0.11809     104.95009      37.44880      35.00758
     7  Si(29)             0.00098      -0.86669      -0.30926      -0.28910
     8  Si(29)            -0.01268      11.26633       4.02011       3.75804
 --------------------------------------------------------
       Center         ----  Spin Dipole Couplings  ----
                      3XX-RR        3YY-RR        3ZZ-RR
 --------------------------------------------------------
     1   Atom        0.221430     -0.073380     -0.148051
     2   Atom        0.295517     -0.317163      0.021646
     3   Atom       -0.081339     -0.164519      0.245858
     4   Atom        0.188950     -0.037186     -0.151765
     5   Atom        0.188950     -0.037186     -0.151765
     6   Atom       -0.081339     -0.164519      0.245858
     7   Atom        0.221430     -0.073380     -0.148051
     8   Atom        0.295517     -0.317163      0.021646
 --------------------------------------------------------
                        XY            XZ            YZ
 --------------------------------------------------------
     1   Atom        0.000000      0.000000     -0.035710
     2   Atom        0.000000      0.461334      0.000000
     3   Atom        0.000000      0.307211      0.000000
     4   Atom        0.000000      0.000000      0.015129
     5   Atom        0.000000      0.000000     -0.015129
     6   Atom        0.000000     -0.307211      0.000000
     7   Atom        0.000000      0.000000      0.035710
     8   Atom        0.000000     -0.461334      0.000000
 --------------------------------------------------------


 ---------------------------------------------------------------------------------
              Anisotropic Spin Dipole Couplings in Principal Axis System
 ---------------------------------------------------------------------------------

       Atom             a.u.   MegaHertz   Gauss  10(-4) cm-1        Axes

              Baa    -0.1624    17.226     6.147     5.746  0.0000  0.3724  0.9281
     1 Si(29) Bbb    -0.0591     6.264     2.235     2.090  0.0000  0.9281 -0.3724
              Bcc     0.2214   -23.490    -8.382    -7.835  1.0000  0.0000  0.0000
 
              Baa    -0.3226    34.228    12.213    11.417 -0.5981  0.0000  0.8014
     2 Si(29) Bbb    -0.3172    33.646    12.006    11.223  0.0000  1.0000  0.0000
              Bcc     0.6398   -67.874   -24.219   -22.640  0.8014  0.0000  0.5981
 
              Baa    -0.2658    28.197    10.061     9.405  0.8573  0.0000 -0.5148
     3 Si(29) Bbb    -0.1645    17.453     6.228     5.822  0.0000  1.0000  0.0000
              Bcc     0.4303   -45.650   -16.289   -15.227  0.5148  0.0000  0.8573
 
              Baa    -0.1537    16.308     5.819     5.440  0.0000 -0.1287  0.9917
     4 Si(29) Bbb    -0.0352     3.736     1.333     1.246  0.0000  0.9917  0.1287
              Bcc     0.1890   -20.045    -7.152    -6.686  1.0000  0.0000  0.0000
 
              Baa    -0.1537    16.308     5.819     5.440  0.0000  0.1287  0.9917
     5 Si(29) Bbb    -0.0352     3.736     1.333     1.246  0.0000  0.9917 -0.1287
              Bcc     0.1890   -20.045    -7.152    -6.686  1.0000  0.0000  0.0000
 
              Baa    -0.2658    28.197    10.061     9.405  0.8573  0.0000  0.5148
     6 Si(29) Bbb    -0.1645    17.453     6.228     5.822  0.0000  1.0000  0.0000
              Bcc     0.4303   -45.650   -16.289   -15.227 -0.5148  0.0000  0.8573
 
              Baa    -0.1624    17.226     6.147     5.746  0.0000 -0.3724  0.9281
     7 Si(29) Bbb    -0.0591     6.264     2.235     2.090  0.0000  0.9281  0.3724
              Bcc     0.2214   -23.490    -8.382    -7.835  1.0000  0.0000  0.0000
 
              Baa    -0.3226    34.228    12.213    11.417  0.5981  0.0000  0.8014
     8 Si(29) Bbb    -0.3172    33.646    12.006    11.223  0.0000  1.0000  0.0000
              Bcc     0.6398   -67.874   -24.219   -22.640  0.8014  0.0000 -0.5981
 

 ---------------------------------------------------------------------------------

 1\1\GINC-NODE43\SP\UHF\GFHFB2\Si8(1-,2)\TAM\21-Dec-2011\0\\#N Geom=All
 Check Guess=TCheck SCRF=Check HF/GFHFB2 SCF=Tight\\si8-a\\-1,2\Si,0,0.
 ,1.9942575531,-1.4010641452\Si,0,-1.8464256947,0.,1.4928533799\Si,0,1.
 3023290183,0.,-1.012027616\Si,0,0.,-1.4232947542,0.9202383814\Si,0,0.,
 1.4232947542,0.9202383814\Si,0,-1.3023290183,0.,-1.012027616\Si,0,0.,-
 1.9942575531,-1.4010641452\Si,0,1.8464256947,0.,1.4928533799\\Version=
 AM64L-G09RevA.02\State=2-B1\HF=-2311.4952012\S2=0.823348\S2-1=0.\S2A=0
 .754029\RMSD=9.793e-09\Dipole=0.,0.,0.1462232\Quadrupole=0.6551746,-0.
 0064589,-0.6487157,0.,0.,0.\PG=C02V [SGV(Si4),SGV'(Si4)]\\@


 A ROPE OVER THE TOP OF A FENCE HAS THE SAME LENGTH ON EACH SIDE.
 WEIGHS 1/3 POUND PER FOOT.  ON ONE END HANGS A MONKEY HOLDING A
 BANANA, AND ON THE OTHER END A WEIGHT EQUAL TO THE WEIGHT
 OF THE MONKEY.  THE BANANA WEIGHS TWO OUNCES PER INCH.
 THE ROPE IS AS LONG AS THE AGE OF THE MONKEY, 
 AND THE WEIGHT OF THE MONKEY (IN OUNCES) IS AS MUCH
 AS THE AGE OF THE MONKEY'S MOTHER.  THE COMBINED AGES OF MONKEY
 AND MOTHER ARE THIRTY YEARS.  HALF THE WEIGHT OF THE MONKEY,
  PLUS THE WEIGHT OF THE BANANA, IS ONE FOURTH AS MUCH AS THE WEIGHT
 OF THE WEIGHT AND THE ROPE.
 THE MONKEY'S MOTHER IS HALF AS OLD AS THE MONKEY WILL BE
 WHEN IT IS 3 TIMES AS OLD AS ITS MOTHER WAS WHEN
 SHE WAS HALF AS OLD AS THE MONKEY WILL BE WHEN IT IS
 AS OLD AS ITS MOTHER WILL BE WHEN SHE IS 4 TIMES AS
 OLD AS THE MONKEY WAS WHEN IT WAS TWICE AS OLD AS 
 ITS MOTHER WAS WHEN SHE WAS ONE THIRD AS OLD AS THE
 MONKEY WAS WHEN IT WAS AS OLD AS ITS MOTHER WAS WHEN 
 SHE WAS 3 TIMES AS OLD AS THE MONKEY WAS WHEN IT WAS AS OLD AS ITS
 MOTHER WAS WHEN SHE WAS 3 TIMES AS OLD AS THE MONKEY 
 WAS WHEN IT WAS ONE FOURTH WAS OLD AS IT IS NOW.

 HOW LONG IS THE BANANA?
 Diagonal vibrational polarizability:
        0.0000000       0.0000000       0.0000000

 Temperature=              298.150000 Pressure=                      1.000000
 E(ZPE)=                     0.011217 E(Thermal)=                    0.022563
 E(CCSD(T))=             -2312.065755 E(Empiric)=                   -0.116489
 DE(Plus)=                  -0.018328 DE(2DF)=                      -0.275132
 E(Delta-G3XP)=             -2.512297 DE(HF)=                       -0.052946
 G4(0 K)=                -2315.029730 G4 Energy=                 -2315.018384
 G4 Enthalpy=            -2315.017440 G4 Free Energy=            -2315.069390
 1\1\GINC-NODE43\Mixed\G4\G4\Si8(1-,2)\TAM\21-Dec-2011\0\\# G4 scfcyc=5
 00 scf=xqc\\si8-a\\-1,2\Si,0,0.,1.9942575531,-1.4010641452\Si,0,-1.846
 4256947,0.,1.4928533799\Si,0,1.3023290183,0.,-1.012027616\Si,0,0.,-1.4
 232947542,0.9202383814\Si,0,0.,1.4232947542,0.9202383814\Si,0,-1.30232
 90183,0.,-1.012027616\Si,0,0.,-1.9942575531,-1.4010641452\Si,0,1.84642
 56947,0.,1.4928533799\\Version=AM64L-G09RevA.02\State=2-B1\MP2/GTBas1=
 -2311.9925675\MP4/GTBas1=-2312.0906177\CCSD(T)/G3Bas1=-2312.0657554\MP
 2/GTBas2=-2312.0090752\MP4/GTBas2=-2312.1089455\MP2/GTBas3=-2312.24258
 49\MP4/GTBas3=-2312.3657501\HF/GTLargeXP=-2311.4441113\MP2/GTLargeXP=-
 2314.7713897\HF/GFHFB1=-2311.4875852\HF/GFHFB2=-2311.4952012\G4=-2315.
 0297299\FreqCoord=0.,3.7686006138,-2.647627529,-3.4892388877,0.,2.8210
 840445,2.4610451795,0.,-1.9124550333,0.,-2.6896372919,1.7389985177,0.,
 2.6896372919,1.7389985177,-2.4610451795,0.,-1.9124550333,0.,-3.7686006
 138,-2.647627529,3.4892388877,0.,2.8210840445\PG=C02V [SGV(Si4),SGV'(S
 i4)]\NImag=0\\0.03954197,0.,0.10301277,0.,-0.03862587,0.08159681,-0.00
 021281,0.00141906,-0.00015011,0.09268654,-0.00146848,-0.00660124,-0.00
 234869,0.,0.03652141,0.00416874,-0.00008003,-0.00209992,-0.03679825,0.
 ,0.05254257,-0.01364031,0.01513508,-0.00696994,-0.00850820,0.,0.002182
 11,0.07992744,0.02154177,-0.03679085,0.00813642,0.,0.01795278,0.,0.,0.
 06709300,-0.00825570,0.00757946,-0.00614241,0.00296300,0.,-0.00937636,
 0.00024870,0.,0.05305786,0.00135526,0.,0.,-0.03917526,0.02131980,0.008
 85645,-0.00414534,0.00579118,0.01112144,0.08058753,0.,-0.00870810,0.00
 432540,0.02368277,-0.02012709,-0.00992963,0.00078193,-0.00808488,0.011
 27053,0.,0.08001446,0.,0.01135420,-0.00050429,0.01313439,-0.00304139,-
 0.01035745,0.00949918,-0.00928360,-0.00346650,0.,0.02064319,0.08487885
 ,-0.01217558,0.,0.,-0.03917526,-0.02131980,0.00885645,-0.00414534,-0.0
 0579118,0.01112144,0.01687398,0.,0.,0.08058753,0.,-0.00278116,0.027943
 60,-0.02368278,-0.02012709,0.00992963,-0.00078193,-0.00808488,-0.01127
 053,0.,-0.01210126,-0.00029320,0.,0.08001446,0.,0.00705421,-0.06572644
 ,0.01313439,0.00304139,-0.01035745,0.00949918,0.00928360,-0.00346650,0
 .,0.00029320,0.00899979,0.,-0.02064319,0.08487885,-0.01364031,-0.01513
 508,0.00696994,-0.00137460,0.,0.01146300,-0.03447335,0.,-0.00397372,-0
 .00414534,-0.00078193,-0.00949918,-0.00414534,0.00078193,-0.00949918,0
 .07992744,-0.02154177,-0.03679086,0.00813642,0.,0.00666304,0.,0.,-0.00
 195735,0.,-0.00579118,-0.00808488,-0.00928360,0.00579118,-0.00808488,0
 .00928360,0.,0.06709300,0.00825570,0.00757946,-0.00614241,0.00496946,0
 .,-0.02360152,0.00397372,0.,-0.00086215,-0.01112144,0.01127053,-0.0034
 6650,-0.01112144,-0.01127053,-0.00346650,-0.00024870,0.,0.05305786,-0.
 00101541,0.,0.,-0.00021281,0.00146848,0.00416873,-0.01364031,-0.021541
 77,-0.00825570,-0.01217558,0.,0.,0.00135526,0.,0.,-0.01364031,0.021541
 77,0.00825570,0.03954197,0.,-0.00473932,-0.00521860,-0.00141906,-0.006
 60123,0.00008003,-0.01513508,-0.03679086,-0.00757946,0.,-0.00278116,-0
 .00705421,0.,-0.00870810,-0.01135420,0.01513508,-0.03679085,-0.0075794
 6,0.,0.10301277,0.,0.00521860,0.00111859,-0.00015011,0.00234868,-0.002
 09992,-0.00696994,-0.00813642,-0.00614241,0.,-0.02794360,-0.06572644,0
 .,-0.00432540,-0.00050429,0.00696994,-0.00813642,-0.00614241,0.,0.0386
 2587,0.08159681,-0.00021281,-0.00141906,0.00015011,-0.00402762,0.,-0.0
 0289724,-0.00137460,0.,-0.00496946,-0.03917526,-0.02368278,-0.01313439
 ,-0.03917526,0.02368277,-0.01313439,-0.00850820,0.,-0.00296300,-0.0002
 1281,0.00141906,0.00015011,0.09268654,0.00146848,-0.00660123,-0.002348
 68,0.,-0.00768060,0.,0.,0.00666304,0.,-0.02131980,-0.02012709,-0.00304
 139,0.02131980,-0.02012709,0.00304139,0.,0.01795278,0.,-0.00146848,-0.
 00660124,0.00234869,0.,0.03652141,-0.00416873,-0.00008003,-0.00209992,
 0.00289724,0.,0.00535007,-0.01146300,0.,-0.02360152,-0.00885645,-0.009
 92963,-0.01035745,-0.00885645,0.00992963,-0.01035745,-0.00218211,0.,-0
 .00937636,-0.00416874,0.00008003,-0.00209992,0.03679825,0.,0.05254257\
 \0.,0.00000658,0.00000140,0.00000590,0.,0.00000395,0.00001391,0.,-0.00
 000413,0.,0.00000708,-0.00000122,0.,-0.00000708,-0.00000122,-0.0000139
 1,0.,-0.00000413,0.,-0.00000658,0.00000140,-0.00000590,0.,0.00000395\\
 \@
 Job cpu time:  0 days 11 hours 28 minutes 33.0 seconds.
 File lengths (MBytes):  RWF=   2292 Int=      0 D2E=      0 Chk=     44 Scr=      1
 Normal termination of Gaussian 09 at Wed Dec 21 09:24:33 2011.
