 Entering Gaussian System, Link 0=g09
 Initial command:
 /usr/local/chem/g09A2/l1.exe /temp0/tam/Gau-30520.inp -scrdir=/temp0/tam/
 Entering Link 1 = /usr/local/chem/g09A2/l1.exe PID=     30522.
  
 Copyright (c) 1988,1990,1992,1993,1995,1998,2003,2009, Gaussian, Inc.
                  All Rights Reserved.
  
 This is part of the Gaussian(R) 09 program.  It is based on
 the Gaussian(R) 03 system (copyright 2003, Gaussian, Inc.),
 the Gaussian(R) 98 system (copyright 1998, Gaussian, Inc.),
 the Gaussian(R) 94 system (copyright 1995, Gaussian, Inc.),
 the Gaussian 92(TM) system (copyright 1992, Gaussian, Inc.),
 the Gaussian 90(TM) system (copyright 1990, Gaussian, Inc.),
 the Gaussian 88(TM) system (copyright 1988, Gaussian, Inc.),
 the Gaussian 86(TM) system (copyright 1986, Carnegie Mellon
 University), and the Gaussian 82(TM) system (copyright 1983,
 Carnegie Mellon University). Gaussian is a federally registered
 trademark of Gaussian, Inc.
  
 This software contains proprietary and confidential information,
 including trade secrets, belonging to Gaussian, Inc.
  
 This software is provided under written license and may be
 used, copied, transmitted, or stored only in accord with that
 written license.
  
 The following legend is applicable only to US Government
 contracts under FAR:
  
                    RESTRICTED RIGHTS LEGEND
  
 Use, reproduction and disclosure by the US Government is
 subject to restrictions as set forth in subparagraphs (a)
 and (c) of the Commercial Computer Software - Restricted
 Rights clause in FAR 52.227-19.
  
 Gaussian, Inc.
 340 Quinnipiac St., Bldg. 40, Wallingford CT 06492
  
  
 ---------------------------------------------------------------
 Warning -- This program may not be used in any manner that
 competes with the business of Gaussian, Inc. or will provide
 assistance to any competitor of Gaussian, Inc.  The licensee
 of this program is prohibited from giving any competitor of
 Gaussian, Inc. access to this program.  By using this program,
 the user acknowledges that Gaussian, Inc. is engaged in the
 business of creating and licensing software in the field of
 computational chemistry and represents and warrants to the
 licensee that it is not a competitor of Gaussian, Inc. and that
 it will not use this program in any manner prohibited above.
 ---------------------------------------------------------------
  

 Cite this work as:
 Gaussian 09, Revision A.02,
 M. J. Frisch, G. W. Trucks, H. B. Schlegel, G. E. Scuseria, 
 M. A. Robb, J. R. Cheeseman, G. Scalmani, V. Barone, B. Mennucci, 
 G. A. Petersson, H. Nakatsuji, M. Caricato, X. Li, H. P. Hratchian, 
 A. F. Izmaylov, J. Bloino, G. Zheng, J. L. Sonnenberg, M. Hada, 
 M. Ehara, K. Toyota, R. Fukuda, J. Hasegawa, M. Ishida, T. Nakajima, 
 Y. Honda, O. Kitao, H. Nakai, T. Vreven, J. A. Montgomery, Jr., 
 J. E. Peralta, F. Ogliaro, M. Bearpark, J. J. Heyd, E. Brothers, 
 K. N. Kudin, V. N. Staroverov, R. Kobayashi, J. Normand, 
 K. Raghavachari, A. Rendell, J. C. Burant, S. S. Iyengar, J. Tomasi, 
 M. Cossi, N. Rega, J. M. Millam, M. Klene, J. E. Knox, J. B. Cross, 
 V. Bakken, C. Adamo, J. Jaramillo, R. Gomperts, R. E. Stratmann, 
 O. Yazyev, A. J. Austin, R. Cammi, C. Pomelli, J. W. Ochterski, 
 R. L. Martin, K. Morokuma, V. G. Zakrzewski, G. A. Voth, 
 P. Salvador, J. J. Dannenberg, S. Dapprich, A. D. Daniels, 
 O. Farkas, J. B. Foresman, J. V. Ortiz, J. Cioslowski, 
 and D. J. Fox, Gaussian, Inc., Wallingford CT, 2009.
 
 ******************************************
 Gaussian 09:  AM64L-G09RevA.02 11-Jun-2009
                16-Jun-2013 
 ******************************************
 %NprocShared=8
 Will use up to    8 processors via shared memory.
 %mem=70050MB
 %chk=S9L-ne-d-01
 -----------------------
 # G4 scfcyc=500 scf=xqc
 -----------------------
 1/14=-1,18=20,19=15,26=3,38=1/1,3;
 2/9=110,12=2,17=6,18=5,40=1/2;
 3/5=35,7=104,11=2,16=1,25=1,30=1,71=1,74=-5/1,2,3;
 4//1;
 5/5=2,7=500,8=3,13=1,38=5/2,8;
 6/7=2,8=2,9=2,10=2,28=1/1;
 7//1,2,3,16;
 1/14=-1,18=20,19=15/3(2);
 2/9=110/2;
 99//99;
 2/9=110/2;
 3/5=35,7=104,11=2,16=1,25=1,30=1,71=1,74=-5/1,2,3;
 4/5=5,16=3/1;
 5/5=2,7=500,8=3,13=1,38=5/2,8;
 7//1,2,3,16;
 1/14=-1,18=20,19=15/3(-5);
 2/9=110/2;
 6/7=2,8=2,9=2,10=2,19=2,28=1/1;
 99/9=1/99;
 -------
 si3-n-t
 -------
 Symbolic Z-matrix:
 Charge =  0 Multiplicity = 3
 Si                    1.14751  -0.66252   0. 
 Si                   -1.14751  -0.66252   0. 
 Si                    0.        1.32503   0. 
 

 GradGradGradGradGradGradGradGradGradGradGradGradGradGradGradGradGradGrad
 Berny optimization.
 Initialization pass.
                           ----------------------------
                           !    Initial Parameters    !
                           ! (Angstroms and Degrees)  !
 --------------------------                            --------------------------
 ! Name  Definition              Value          Derivative Info.                !
 --------------------------------------------------------------------------------
 ! R1    R(1,2)                  2.295          estimate D2E/DX2                !
 ! R2    R(1,3)                  2.295          estimate D2E/DX2                !
 ! R3    R(2,3)                  2.295          estimate D2E/DX2                !
 --------------------------------------------------------------------------------
 Trust Radius=3.00D-01 FncErr=1.00D-07 GrdErr=1.00D-06
 Number of steps in this run=  20 maximum allowed number of steps= 100.
 GradGradGradGradGradGradGradGradGradGradGradGradGradGradGradGradGradGrad

                          Input orientation:                          
 ---------------------------------------------------------------------
 Center     Atomic      Atomic             Coordinates (Angstroms)
 Number     Number       Type             X           Y           Z
 ---------------------------------------------------------------------
      1         14           0        1.147512   -0.662516    0.000000
      2         14           0       -1.147512   -0.662516    0.000000
      3         14           0        0.000000    1.325033    0.000000
 ---------------------------------------------------------------------
                    Distance matrix (angstroms):
                    1          2          3
     1  Si   0.000000
     2  Si   2.295024   0.000000
     3  Si   2.295024   2.295024   0.000000
 Stoichiometry    Si3(3)
 Framework group  D3H[3C2(Si)]
 Deg. of freedom     1
 Full point group                 D3H     NOp  12
 Largest Abelian subgroup         C2V     NOp   4
 Largest concise Abelian subgroup C2      NOp   2
                         Standard orientation:                         
 ---------------------------------------------------------------------
 Center     Atomic      Atomic             Coordinates (Angstroms)
 Number     Number       Type             X           Y           Z
 ---------------------------------------------------------------------
      1         14           0        0.000000    1.325033    0.000000
      2         14           0       -1.147512   -0.662516    0.000000
      3         14           0        1.147512   -0.662516    0.000000
 ---------------------------------------------------------------------
 Rotational constants (GHZ):      6.8591875      6.8591875      3.4295937
 Standard basis: GTBas3 (6D, 7F)
 There are    37 symmetry adapted basis functions of A1  symmetry.
 There are    13 symmetry adapted basis functions of A2  symmetry.
 There are    29 symmetry adapted basis functions of B1  symmetry.
 There are    17 symmetry adapted basis functions of B2  symmetry.
 Integral buffers will be    131072 words long.
 Raffenetti 2 integral format.
 Two-electron integral symmetry is turned on.
    96 basis functions,   204 primitive gaussians,   105 cartesian basis functions
    22 alpha electrons       20 beta electrons
       nuclear repulsion energy       135.5786215952 Hartrees.
 NAtoms=    3 NActive=    3 NUniq=    1 SFac= 3.00D+00 NAtFMM=   80 NAOKFM=F Big=F
 One-electron integrals computed using PRISM.
 NBasis=    96 RedAO= T  NBF=    37    13    29    17
 NBsUse=    96 1.00D-06 NBFU=    37    13    29    17
 Harris functional with IExCor=  402 diagonalized for initial guess.
 ExpMin= 7.78D-02 ExpMax= 1.61D+04 ExpMxC= 2.43D+03 IAcc=2 IRadAn=         0 AccDes= 0.00D+00
 HarFok:  IExCor=  402 AccDes= 0.00D+00 IRadAn=         0 IDoV= 1
 ScaDFX=  1.000000  1.000000  1.000000  1.000000
 FoFCou: FMM=F IPFlag=           0 FMFlag=      100000 FMFlg1=           0
         NFxFlg=           0 DoJE=T BraDBF=F KetDBF=T FulRan=T
         Omega=  0.000000  0.000000  1.000000  0.000000  0.000000 ICntrl=     500 IOpCl=  0
         NMat0=    1 NMatS0=    1 NMatT0=    0 NMatD0=    1 NMtDS0=    0 NMtDT0=    0
         I1Cent=           4 NGrid=           0.
 Petite list used in FoFCou.
 Initial guess orbital symmetries:
 Alpha Orbitals:
       Occupied  (A1') (E') (E') (A1') (E') (E') (A1') (E') (E')
                 (E') (E') (A2') (E") (E") (A2") (A1') (E') (E')
                 (A2") (A1') (E') (E')
       Virtual   (E") (E") (A2') (E') (E') (A1') (A2") (A1') (A1')
                 (E') (E') (E") (E") (E') (E') (E") (E") (A2")
                 (A2') (E') (E') (E') (E') (A1") (E') (E') (E")
                 (E") (A1') (E') (E') (A2') (A1') (A2") (A1') (E')
                 (E') (A2") (E') (E') (E") (E") (A1') (E') (E')
                 (E") (E") (A2') (E') (E') (E") (E") (E') (E')
                 (A1") (A2') (A1') (E") (E") (A2") (A2') (E') (E')
                 (E') (E') (A1") (E") (E") (A1') (E') (E') (A1')
                 (E') (E')
 Beta  Orbitals:
       Occupied  (A1') (E') (E') (A1') (E') (E') (A1') (E') (E')
                 (E') (E') (A2') (E") (E") (A2") (A1') (E') (E')
                 (A2") (A1')
       Virtual   (E') (E') (E") (E") (A2') (E') (E') (A1') (A2")
                 (A1') (A1') (E') (E') (E") (E") (E') (E') (E")
                 (E") (A2") (A2') (E') (E') (E') (E') (A1") (E')
                 (E') (E") (E") (A1') (E') (E') (A2') (A1') (A2")
                 (A1') (E') (E') (A2") (E') (E') (E") (E") (A1')
                 (E') (E') (E") (E") (A2') (E') (E') (E") (E")
                 (E') (E') (A1") (A2') (A1') (E") (E") (A2") (A2')
                 (E') (E') (E') (E') (A1") (E") (E") (A1') (E')
                 (E') (A1') (E') (E')
 The electronic state of the initial guess is 3-A1'.
 Initial guess <Sx>= 0.0000 <Sy>= 0.0000 <Sz>= 1.0000 <S**2>= 2.0000 S= 1.0000
 Requested convergence on RMS density matrix=1.00D-08 within 128 cycles.
 Requested convergence on MAX density matrix=1.00D-06.
 Requested convergence on             energy=1.00D-06.
 No special actions if energy rises.
 Keep R1 and R2 ints in memory in canonical form, NReq=32991295.
 Integral accuracy reduced to 1.0D-05 until final iterations.
 Initial convergence to 1.0D-05 achieved.  Increase integral accuracy.
 SCF Done:  E(UB3LYP) =  -868.376200011     A.U. after   12 cycles
             Convg  =    0.1966D-08             -V/T =  2.0033
 <Sx>= 0.0000 <Sy>= 0.0000 <Sz>= 1.0000 <S**2>= 2.0058 S= 1.0019
 <L.S>= 0.000000000000E+00
 Annihilation of the first spin contaminant:
 S**2 before annihilation     2.0058,   after     2.0000
 QCSCF skips out because SCF is already converged.

 **********************************************************************

            Population analysis using the SCF density.

 **********************************************************************

 Orbital symmetries:
 Alpha Orbitals:
       Occupied  (A1') (E') (E') (A1') (E') (E') (E') (E') (A2')
                 (A2") (E") (E") (A1') (E') (E') (A1') (E') (E')
                 (A1') (A2") (E') (E')
       Virtual   (E") (E") (A2') (E') (E') (A1') (A1') (A2") (A1')
                 (E') (E') (E') (E') (E") (E") (E") (E") (A2")
                 (A2') (E') (E') (E') (E') (A1") (E') (E') (E")
                 (E") (A1') (E') (E') (A2') (A1') (A2") (E') (E')
                 (A1') (E') (E') (A2") (E") (E") (A1') (E') (E')
                 (E") (E") (A2') (E') (E') (E") (E") (E') (E')
                 (A1") (A2') (A1') (E") (E") (A2") (A2') (E') (E')
                 (E') (E') (A1") (E") (E") (A1') (E') (E') (A1')
                 (E') (E')
 Beta  Orbitals:
       Occupied  (A1') (E') (E') (A1') (E') (E') (A2") (E") (E")
                 (E') (E') (A2') (A1') (E') (E') (A1') (E') (E')
                 (A2") (A1')
       Virtual   (E') (E') (E") (E") (A2') (E') (E') (A1') (A2")
                 (A1') (A1') (E') (E') (E') (E') (E") (E") (E")
                 (E") (A2") (A2') (E') (E') (E') (E') (A1") (E')
                 (E') (A1') (E") (E") (E') (E') (A2') (A1') (A2")
                 (E') (E') (A1') (E') (E') (A2") (E") (E") (A1')
                 (E') (E') (E") (E") (A2') (E') (E') (E") (E")
                 (A1") (E') (E') (A2') (A1') (E") (E") (A2") (A2')
                 (E') (E') (E') (E') (A1") (E") (E") (A1') (E')
                 (E') (A1') (E') (E')
 The electronic state is 3-A1'.
 Alpha  occ. eigenvalues --  -66.15252 -66.15252 -66.15252  -5.30039  -5.30020
 Alpha  occ. eigenvalues --   -5.30020  -3.66064  -3.66064  -3.66038  -3.65897
 Alpha  occ. eigenvalues --   -3.65893  -3.65893  -3.65689  -3.65610  -3.65610
 Alpha  occ. eigenvalues --   -0.59751  -0.41011  -0.41011  -0.25374  -0.24977
 Alpha  occ. eigenvalues --   -0.22590  -0.22590
 Alpha virt. eigenvalues --   -0.08248  -0.08248  -0.00489   0.01651   0.01651
 Alpha virt. eigenvalues --    0.09535   0.14399   0.15453   0.17138   0.18327
 Alpha virt. eigenvalues --    0.18327   0.21724   0.21724   0.22299   0.22299
 Alpha virt. eigenvalues --    0.26902   0.26902   0.27128   0.29247   0.30755
 Alpha virt. eigenvalues --    0.30755   0.37298   0.37298   0.42075   0.46977
 Alpha virt. eigenvalues --    0.46977   0.50670   0.50670   0.50755   0.70180
 Alpha virt. eigenvalues --    0.70180   0.72269   0.74303   0.78728   0.90547
 Alpha virt. eigenvalues --    0.90547   0.91117   0.92332   0.92332   0.93652
 Alpha virt. eigenvalues --    0.94815   0.94815   0.96546   1.06225   1.06225
 Alpha virt. eigenvalues --    1.10250   1.10250   1.14063   1.23596   1.23596
 Alpha virt. eigenvalues --    1.28213   1.28213   1.35053   1.35053   1.35739
 Alpha virt. eigenvalues --    1.36865   1.62760   1.64459   1.64459   1.69282
 Alpha virt. eigenvalues --    1.69393   1.71263   1.71263   1.80975   1.80975
 Alpha virt. eigenvalues --    1.83436   1.86592   1.86592   2.03898   2.10074
 Alpha virt. eigenvalues --    2.10074   2.40574   2.68185   2.68185
  Beta  occ. eigenvalues --  -66.15002 -66.15002 -66.15002  -5.29757  -5.29740
  Beta  occ. eigenvalues --   -5.29740  -3.65747  -3.65744  -3.65744  -3.65402
  Beta  occ. eigenvalues --   -3.65402  -3.65377  -3.65327  -3.65248  -3.65248
  Beta  occ. eigenvalues --   -0.57386  -0.37179  -0.37179  -0.24349  -0.22740
  Beta virt. eigenvalues --   -0.14528  -0.14528  -0.07300  -0.07300   0.02997
  Beta virt. eigenvalues --    0.03139   0.03139   0.10415   0.15976   0.16130
  Beta virt. eigenvalues --    0.19870   0.19976   0.19976   0.23319   0.23319
  Beta virt. eigenvalues --    0.24537   0.24537   0.27210   0.27210   0.28080
  Beta virt. eigenvalues --    0.30847   0.31970   0.31970   0.39266   0.39266
  Beta virt. eigenvalues --    0.44008   0.49715   0.49715   0.51593   0.51861
  Beta virt. eigenvalues --    0.51861   0.71519   0.71519   0.74966   0.75267
  Beta virt. eigenvalues --    0.81002   0.92455   0.92455   0.93048   0.93462
  Beta virt. eigenvalues --    0.93462   0.94391   0.96715   0.96715   0.98638
  Beta virt. eigenvalues --    1.08253   1.08253   1.12316   1.12316   1.15981
  Beta virt. eigenvalues --    1.25038   1.25038   1.28934   1.28934   1.37400
  Beta virt. eigenvalues --    1.37483   1.37483   1.39385   1.63964   1.65317
  Beta virt. eigenvalues --    1.65317   1.69609   1.70635   1.71752   1.71752
  Beta virt. eigenvalues --    1.82813   1.82813   1.84381   1.87123   1.87123
  Beta virt. eigenvalues --    2.04311   2.11298   2.11298   2.41753   2.69380
  Beta virt. eigenvalues --    2.69380
          Condensed to atoms (all electrons):
              1          2          3
     1  Si  13.486469   0.256765   0.256765
     2  Si   0.256765  13.486469   0.256765
     3  Si   0.256765   0.256765  13.486469
 Mulliken atomic charges:
              1
     1  Si   0.000000
     2  Si   0.000000
     3  Si   0.000000
 Sum of Mulliken atomic charges =   0.00000
 Mulliken charges with hydrogens summed into heavy atoms:
              1
     1  Si   0.000000
     2  Si   0.000000
     3  Si   0.000000
 Sum of Mulliken charges with hydrogens summed into heavy atoms =   0.00000
          Atomic-Atomic Spin Densities.
              1          2          3
     1  Si   0.623367   0.021650   0.021650
     2  Si   0.021650   0.623367   0.021650
     3  Si   0.021650   0.021650   0.623367
 Mulliken atomic spin densities:
              1
     1  Si   0.666667
     2  Si   0.666667
     3  Si   0.666667
 Sum of Mulliken atomic spin densities =   2.00000
 Electronic spatial extent (au):  <R**2>=            352.5543
 Charge=              0.0000 electrons
 Dipole moment (field-independent basis, Debye):
    X=              0.0000    Y=              0.0000    Z=              0.0000  Tot=              0.0000
 Quadrupole moment (field-independent basis, Debye-Ang):
   XX=            -40.3434   YY=            -40.3434   ZZ=            -39.3229
   XY=              0.0000   XZ=              0.0000   YZ=              0.0000
 Traceless Quadrupole moment (field-independent basis, Debye-Ang):
   XX=             -0.3402   YY=             -0.3402   ZZ=              0.6803
   XY=              0.0000   XZ=              0.0000   YZ=              0.0000
 Octapole moment (field-independent basis, Debye-Ang**2):
  XXX=              0.0000  YYY=             -2.5478  ZZZ=              0.0000  XYY=              0.0000
  XXY=              2.5478  XXZ=              0.0000  XZZ=              0.0000  YZZ=              0.0000
  YYZ=              0.0000  XYZ=              0.0000
 Hexadecapole moment (field-independent basis, Debye-Ang**3):
 XXXX=           -297.1839 YYYY=           -297.1839 ZZZZ=            -74.2001 XXXY=              0.0000
 XXXZ=              0.0000 YYYX=              0.0000 YYYZ=              0.0000 ZZZX=              0.0000
 ZZZY=              0.0000 XXYY=            -99.0613 XXZZ=            -58.7543 YYZZ=            -58.7543
 XXYZ=              0.0000 YYXZ=              0.0000 ZZXY=              0.0000
 N-N= 1.355786215952D+02 E-N=-3.494663898810D+03  KE= 1.297015527726D+03
 Symmetry A1   KE= 7.543276164748D+02
 Symmetry A2   KE= 3.643518848037D+01
 Symmetry B1   KE= 4.307602136071D+02
 Symmetry B2   KE= 7.549250916409D+01
                          Isotropic Fermi Contact Couplings
        Atom                 a.u.       MegaHertz       Gauss      10(-4) cm-1
     1  Si(29)             0.12475     -55.43490     -19.78055     -18.49109
     2  Si(29)             0.12475     -55.43490     -19.78055     -18.49109
     3  Si(29)             0.12475     -55.43490     -19.78055     -18.49109
 --------------------------------------------------------
       Center         ----  Spin Dipole Couplings  ----
                      3XX-RR        3YY-RR        3ZZ-RR
 --------------------------------------------------------
     1   Atom        0.778912     -0.077765     -0.701147
     2   Atom        0.136405      0.564743     -0.701147
     3   Atom        0.136405      0.564743     -0.701147
 --------------------------------------------------------
                        XY            XZ            YZ
 --------------------------------------------------------
     1   Atom        0.000000      0.000000      0.000000
     2   Atom       -0.370952      0.000000      0.000000
     3   Atom        0.370952      0.000000      0.000000
 --------------------------------------------------------


 ---------------------------------------------------------------------------------
              Anisotropic Spin Dipole Couplings in Principal Axis System
 ---------------------------------------------------------------------------------

       Atom             a.u.   MegaHertz   Gauss  10(-4) cm-1        Axes

              Baa    -0.7011    74.381    26.541    24.811  0.0000  0.0000  1.0000
     1 Si(29) Bbb    -0.0778     8.250     2.944     2.752  0.0000  1.0000  0.0000
              Bcc     0.7789   -82.630   -29.484   -27.562  1.0000  0.0000  0.0000
 
              Baa    -0.7011    74.381    26.541    24.811  0.0000  0.0000  1.0000
     2 Si(29) Bbb    -0.0778     8.250     2.944     2.752  0.8660  0.5000  0.0000
              Bcc     0.7789   -82.630   -29.484   -27.562 -0.5000  0.8660  0.0000
 
              Baa    -0.7011    74.381    26.541    24.811  0.0000  0.0000  1.0000
     3 Si(29) Bbb    -0.0778     8.250     2.944     2.752  0.8660 -0.5000  0.0000
              Bcc     0.7789   -82.630   -29.484   -27.562  0.5000  0.8660  0.0000
 

 ---------------------------------------------------------------------------------

 Calling FoFJK, ICntrl=      2127 FMM=F ISym2X=1 I1Cent= 0 IOpClX= 1 NMat=1 NMatS=1 NMatT=0.
 ***** Axes restored to original set *****
 -------------------------------------------------------------------
 Center     Atomic                   Forces (Hartrees/Bohr)
 Number     Number              X              Y              Z
 -------------------------------------------------------------------
      1       14          -0.000033514    0.000019350    0.000000000
      2       14           0.000033514    0.000019350    0.000000000
      3       14           0.000000000   -0.000038699    0.000000000
 -------------------------------------------------------------------
 Cartesian Forces:  Max     0.000038699 RMS     0.000022343

 GradGradGradGradGradGradGradGradGradGradGradGradGradGradGradGradGradGrad
 Berny optimization.
 Internal  Forces:  Max     0.000022343 RMS     0.000022343
 Search for a local minimum.
 Step number   1 out of a maximum of   20
 All quantities printed in internal units (Hartrees-Bohrs-Radians)
 Mixed Optimization -- En-DIIS/RFO-DIIS
 Second derivative matrix not updated -- first step.
 The second derivative matrix:
                          R1        R2        R3
           R1           0.14844
           R2           0.00000   0.14844
           R3           0.00000   0.00000   0.14844
     Eigenvalues ---    0.14844   0.14844   0.14844
 RFO step:  Lambda=-1.00887674D-08 EMin= 1.48444663D-01
 Linear search not attempted -- first point.
 Iteration  1 RMS(Cart)=  0.00008690 RMS(Int)=  0.00000000
 Iteration  2 RMS(Cart)=  0.00000000 RMS(Int)=  0.00000000
 ClnCor:  largest displacement from symmetrization is 3.11D-13 for atom     2.
 Variable       Old X    -DE/DX   Delta X   Delta X   Delta X     New X
                                 (Linear)    (Quad)   (Total)
    R1        4.33697  -0.00002   0.00000  -0.00015  -0.00015   4.33682
    R2        4.33697  -0.00002   0.00000  -0.00015  -0.00015   4.33682
    R3        4.33697  -0.00002   0.00000  -0.00015  -0.00015   4.33682
         Item               Value     Threshold  Converged?
 Maximum Force            0.000022     0.000450     YES
 RMS     Force            0.000022     0.000300     YES
 Maximum Displacement     0.000087     0.001800     YES
 RMS     Displacement     0.000087     0.001200     YES
 Predicted change in Energy=-5.044384D-09
 Optimization completed.
    -- Stationary point found.
                           ----------------------------
                           !   Optimized Parameters   !
                           ! (Angstroms and Degrees)  !
 --------------------------                            --------------------------
 ! Name  Definition              Value          Derivative Info.                !
 --------------------------------------------------------------------------------
 ! R1    R(1,2)                  2.295          -DE/DX =    0.0                 !
 ! R2    R(1,3)                  2.295          -DE/DX =    0.0                 !
 ! R3    R(2,3)                  2.295          -DE/DX =    0.0                 !
 --------------------------------------------------------------------------------
 GradGradGradGradGradGradGradGradGradGradGradGradGradGradGradGradGradGrad

                          Input orientation:                          
 ---------------------------------------------------------------------
 Center     Atomic      Atomic             Coordinates (Angstroms)
 Number     Number       Type             X           Y           Z
 ---------------------------------------------------------------------
      1         14           0        1.147512   -0.662516    0.000000
      2         14           0       -1.147512   -0.662516    0.000000
      3         14           0        0.000000    1.325033    0.000000
 ---------------------------------------------------------------------
                    Distance matrix (angstroms):
                    1          2          3
     1  Si   0.000000
     2  Si   2.295024   0.000000
     3  Si   2.295024   2.295024   0.000000
 Stoichiometry    Si3(3)
 Framework group  D3H[3C2(Si)]
 Deg. of freedom     1
 Full point group                 D3H     NOp  12
 Largest Abelian subgroup         C2V     NOp   4
 Largest concise Abelian subgroup C2      NOp   2
                         Standard orientation:                         
 ---------------------------------------------------------------------
 Center     Atomic      Atomic             Coordinates (Angstroms)
 Number     Number       Type             X           Y           Z
 ---------------------------------------------------------------------
      1         14           0        0.000000    1.325033    0.000000
      2         14           0        1.147512   -0.662516    0.000000
      3         14           0       -1.147512   -0.662516    0.000000
 ---------------------------------------------------------------------
 Rotational constants (GHZ):      6.8591875      6.8591875      3.4295937
 1\1\GINC-NODE96\FOpt\UB3LYP\GTBas3\Si3(3)\TAM\16-Jun-2013\0\\# G4 scfc
 yc=500 scf=xqc\\si3-n-t\\0,3\Si,1.1475120303,-0.6625163796,0.\Si,-1.14
 75120303,-0.6625163796,0.\Si,0.,1.3250327591,0.\\Version=AM64L-G09RevA
 .02\State=3-A1'\HF=-868.3762\S2=2.005821\S2-1=0.\S2A=2.00002\RMSD=1.96
 6e-09\RMSF=2.234e-05\Dipole=0.,0.,0.\Quadrupole=-0.2529031,-0.2529031,
 0.5058062,0.,0.,0.\PG=D03H [3C2(Si1)]\\@


 Sacred cows make the best hamburger.
                               -- Mark Twain
 Job cpu time:  0 days  0 hours  0 minutes 33.5 seconds.
 File lengths (MBytes):  RWF=      9 Int=      0 D2E=      0 Chk=      9 Scr=      1
 Normal termination of Gaussian 09 at Sun Jun 16 12:51:49 2013.
 Link1:  Proceeding to internal job step number  2.
 ----------------------------------------------------------
 #N Geom=AllCheck Guess=TCheck SCRF=Check B3LYP/GTBas3 Freq
 ----------------------------------------------------------
 1/10=4,29=7,30=1,38=1,40=1/1,3;
 2/12=2,40=1/2;
 3/5=35,11=2,14=-4,16=1,25=1,30=1,70=2,71=2,74=-5,116=-2/1,2,3;
 4/5=101/1;
 5/5=2,7=500,8=3,13=1,98=1/2,8;
 8/6=4,10=90,11=11/1;
 11/6=1,8=1,9=11,15=111,16=1/1,2,10;
 10/6=1/2;
 6/7=2,8=2,9=2,10=2,18=1,28=1/1;
 7/8=1,10=1,25=1/1,2,3,16;
 1/10=4,30=1/3;
 99//99;
 -------
 si3-n-t
 -------
 Redundant internal coordinates taken from checkpoint file:
 S9L-ne-d-01.chk
 Charge =  0 Multiplicity = 3
 Si,0,1.1475120303,-0.6625163796,0.
 Si,0,-1.1475120303,-0.6625163796,0.
 Si,0,0.,1.3250327591,0.
 Recover connectivity data from disk.

 GradGradGradGradGradGradGradGradGradGradGradGradGradGradGradGradGradGrad
 Berny optimization.
 Initialization pass.
                           ----------------------------
                           !    Initial Parameters    !
                           ! (Angstroms and Degrees)  !
 --------------------------                            --------------------------
 ! Name  Definition              Value          Derivative Info.                !
 --------------------------------------------------------------------------------
 ! R1    R(1,2)                  2.295          calculate D2E/DX2 analytically  !
 ! R2    R(1,3)                  2.295          calculate D2E/DX2 analytically  !
 ! R3    R(2,3)                  2.295          calculate D2E/DX2 analytically  !
 --------------------------------------------------------------------------------
 Trust Radius=3.00D-01 FncErr=1.00D-07 GrdErr=1.00D-07
 Number of steps in this run=   2 maximum allowed number of steps=   2.
 GradGradGradGradGradGradGradGradGradGradGradGradGradGradGradGradGradGrad

                          Input orientation:                          
 ---------------------------------------------------------------------
 Center     Atomic      Atomic             Coordinates (Angstroms)
 Number     Number       Type             X           Y           Z
 ---------------------------------------------------------------------
      1         14           0        1.147512   -0.662516    0.000000
      2         14           0       -1.147512   -0.662516    0.000000
      3         14           0        0.000000    1.325033    0.000000
 ---------------------------------------------------------------------
                    Distance matrix (angstroms):
                    1          2          3
     1  Si   0.000000
     2  Si   2.295024   0.000000
     3  Si   2.295024   2.295024   0.000000
 Stoichiometry    Si3(3)
 Framework group  D3H[3C2(Si)]
 Deg. of freedom     1
 Full point group                 D3H     NOp  12
 Largest Abelian subgroup         C2V     NOp   4
 Largest concise Abelian subgroup C2      NOp   2
                         Standard orientation:                         
 ---------------------------------------------------------------------
 Center     Atomic      Atomic             Coordinates (Angstroms)
 Number     Number       Type             X           Y           Z
 ---------------------------------------------------------------------
      1         14           0        0.000000    1.325033    0.000000
      2         14           0        1.147512   -0.662516    0.000000
      3         14           0       -1.147512   -0.662516    0.000000
 ---------------------------------------------------------------------
 Rotational constants (GHZ):      6.8591875      6.8591875      3.4295937
 Standard basis: GTBas3 (6D, 7F)
 There are    37 symmetry adapted basis functions of A1  symmetry.
 There are    13 symmetry adapted basis functions of A2  symmetry.
 There are    29 symmetry adapted basis functions of B1  symmetry.
 There are    17 symmetry adapted basis functions of B2  symmetry.
 Integral buffers will be    131072 words long.
 Raffenetti 2 integral format.
 Two-electron integral symmetry is turned on.
    96 basis functions,   204 primitive gaussians,   105 cartesian basis functions
    22 alpha electrons       20 beta electrons
       nuclear repulsion energy       135.5786215952 Hartrees.
 NAtoms=    3 NActive=    3 NUniq=    1 SFac= 3.00D+00 NAtFMM=   80 NAOKFM=F Big=F
 One-electron integrals computed using PRISM.
 NBasis=    96 RedAO= T  NBF=    37    13    29    17
 NBsUse=    96 1.00D-06 NBFU=    37    13    29    17
 Initial guess read from the checkpoint file:  S9L-ne-d-01.chk
 B after Tr=     0.000000    0.000000    0.000000
         Rot=    0.000000    0.000000    1.000000    0.000000 Ang= 180.00 deg.
 Initial guess orbital symmetries:
 Alpha Orbitals:
       Occupied  (A1') (E') (E') (A1') (E') (E') (E') (E') (A2')
                 (A2") (E") (E") (A1') (E') (E') (A1') (E') (E')
                 (A1') (A2") (E') (E')
       Virtual   (E") (E") (A2') (E') (E') (A1') (A1') (A2") (A1')
                 (E') (E') (E') (E') (E") (E") (E") (E") (A2")
                 (A2') (E') (E') (E') (E') (A1") (E') (E') (E")
                 (E") (A1') (E') (E') (A2') (A1') (A2") (E') (E')
                 (A1') (E') (E') (A2") (E") (E") (A1') (E') (E')
                 (E") (E") (A2') (E') (E') (E") (E") (E') (E')
                 (A1") (A2') (A1') (E") (E") (A2") (A2') (E') (E')
                 (E') (E') (A1") (E") (E") (A1') (E') (E') (A1')
                 (E') (E')
 Beta  Orbitals:
       Occupied  (A1') (E') (E') (A1') (E') (E') (A2") (E") (E")
                 (E') (E') (A2') (A1') (E') (E') (A1') (E') (E')
                 (A2") (A1')
       Virtual   (E') (E') (E") (E") (A2') (E') (E') (A1') (A2")
                 (A1') (A1') (E') (E') (E') (E') (E") (E") (E")
                 (E") (A2") (A2') (E') (E') (E') (E') (A1") (E')
                 (E') (A1') (E") (E") (E') (E') (A2') (A1') (A2")
                 (E') (E') (A1') (E') (E') (A2") (E") (E") (A1')
                 (E') (E') (E") (E") (A2') (E') (E') (E") (E")
                 (A1") (E') (E') (A2') (A1') (E") (E") (A2") (A2')
                 (E') (E') (E') (E') (A1") (E") (E") (A1') (E')
                 (E') (A1') (E') (E')
 Initial guess <Sx>= 0.0000 <Sy>= 0.0000 <Sz>= 1.0000 <S**2>= 2.0058 S= 1.0019
 Requested convergence on RMS density matrix=1.00D-08 within 128 cycles.
 Requested convergence on MAX density matrix=1.00D-06.
 Requested convergence on             energy=1.00D-06.
 No special actions if energy rises.
 Keep R1 and R2 ints in memory in canonical form, NReq=32991295.
 SCF Done:  E(UB3LYP) =  -868.376200011     A.U. after    1 cycles
             Convg  =    0.3032D-09             -V/T =  2.0033
 <Sx>= 0.0000 <Sy>= 0.0000 <Sz>= 1.0000 <S**2>= 2.0058 S= 1.0019
 <L.S>= 0.000000000000E+00
 Annihilation of the first spin contaminant:
 S**2 before annihilation     2.0058,   after     2.0000
 QCSCF skips out because SCF is already converged.
 Range of M.O.s used for correlation:     1    96
 NBasis=    96 NAE=    22 NBE=    20 NFC=     0 NFV=     0
 NROrb=     96 NOA=    22 NOB=    20 NVA=    74 NVB=    76

 **** Warning!!: The smallest beta delta epsilon is  0.82120869D-01

 Symmetrizing basis deriv contribution to polar:
 IMax=3 JMax=2 DiffMx= 0.00D+00
 G2DrvN: will do     4 centers at a time, making    1 passes doing MaxLOS=3.
 Calling FoFCou, ICntrl=  3107 FMM=F I1Cent=   0 AccDes= 0.00D+00.
 FoFDir/FoFCou used for L=0 through L=3.
 End of G2Drv Frequency-dependent properties file   721 does not exist.
 End of G2Drv Frequency-dependent properties file   722 does not exist.
          IDoAtm=111
          Differentiating once with respect to electric field.
                with respect to dipole field.
          Differentiating once with respect to nuclear coordinates.
          Keep R1 and R2 ints in memory in canonical form, NReq=32916792.
          There are     6 degrees of freedom in the 1st order CPHF.  IDoFFX=4.
      6 vectors produced by pass  0 Test12= 5.25D-14 1.67D-08 XBig12= 6.71D+02 1.13D+01.
 AX will form     6 AO Fock derivatives at one time.
      6 vectors produced by pass  1 Test12= 5.25D-14 1.67D-08 XBig12= 2.66D+02 5.10D+00.
      6 vectors produced by pass  2 Test12= 5.25D-14 1.67D-08 XBig12= 1.32D+01 1.40D+00.
      6 vectors produced by pass  3 Test12= 5.25D-14 1.67D-08 XBig12= 5.92D-01 3.91D-01.
      6 vectors produced by pass  4 Test12= 5.25D-14 1.67D-08 XBig12= 2.64D-02 6.30D-02.
      6 vectors produced by pass  5 Test12= 5.25D-14 1.67D-08 XBig12= 1.44D-03 1.59D-02.
      6 vectors produced by pass  6 Test12= 5.25D-14 1.67D-08 XBig12= 1.34D-04 3.97D-03.
      6 vectors produced by pass  7 Test12= 5.25D-14 1.67D-08 XBig12= 5.76D-06 6.38D-04.
      6 vectors produced by pass  8 Test12= 5.25D-14 1.67D-08 XBig12= 7.72D-08 8.92D-05.
      5 vectors produced by pass  9 Test12= 5.25D-14 1.67D-08 XBig12= 2.53D-09 2.34D-05.
      2 vectors produced by pass 10 Test12= 5.25D-14 1.67D-08 XBig12= 5.87D-11 2.39D-06.
      1 vectors produced by pass 11 Test12= 5.25D-14 1.67D-08 XBig12= 1.08D-12 3.14D-07.
      1 vectors produced by pass 12 Test12= 5.25D-14 1.67D-08 XBig12= 1.17D-14 3.08D-08.
 Inverted reduced A of dimension    63 with in-core refinement.
 Isotropic polarizability for W=    0.000000       92.30 Bohr**3.
 End of Minotr Frequency-dependent properties file   721 does not exist.
 End of Minotr Frequency-dependent properties file   722 does not exist.

 **********************************************************************

            Population analysis using the SCF density.

 **********************************************************************

 Orbital symmetries:
 Alpha Orbitals:
       Occupied  (A1') (E') (E') (A1') (E') (E') (E') (E') (A2')
                 (A2") (E") (E") (A1') (E') (E') (A1') (E') (E')
                 (A1') (A2") (E') (E')
       Virtual   (E") (E") (A2') (E') (E') (A1') (A1') (A2") (A1')
                 (E') (E') (E') (E') (E") (E") (E") (E") (A2")
                 (A2') (E') (E') (E') (E') (A1") (E') (E') (E")
                 (E") (A1') (E') (E') (A2') (A1') (A2") (E') (E')
                 (A1') (E') (E') (A2") (E") (E") (A1') (E') (E')
                 (E") (E") (A2') (E') (E') (E") (E") (E') (E')
                 (A1") (A2') (A1') (E") (E") (A2") (A2') (E') (E')
                 (E') (E') (A1") (E") (E") (A1') (E') (E') (A1')
                 (E') (E')
 Beta  Orbitals:
       Occupied  (A1') (E') (E') (A1') (E') (E') (A2") (E") (E")
                 (E') (E') (A2') (A1') (E') (E') (A1') (E') (E')
                 (A2") (A1')
       Virtual   (E') (E') (E") (E") (A2') (E') (E') (A1') (A2")
                 (A1') (A1') (E') (E') (E') (E') (E") (E") (E")
                 (E") (A2") (A2') (E') (E') (E') (E') (A1") (E')
                 (E') (A1') (E") (E") (E') (E') (A2') (A1') (A2")
                 (E') (E') (A1') (E') (E') (A2") (E") (E") (A1')
                 (E') (E') (E") (E") (A2') (E') (E') (E") (E")
                 (A1") (E') (E') (A2') (A1') (E") (E") (A2") (A2')
                 (E') (E') (E') (E') (A1") (E") (E") (A1') (E')
                 (E') (A1') (E') (E')
 The electronic state is 3-A1'.
 Alpha  occ. eigenvalues --  -66.15252 -66.15252 -66.15252  -5.30039  -5.30020
 Alpha  occ. eigenvalues --   -5.30020  -3.66064  -3.66064  -3.66038  -3.65897
 Alpha  occ. eigenvalues --   -3.65893  -3.65893  -3.65689  -3.65610  -3.65610
 Alpha  occ. eigenvalues --   -0.59751  -0.41011  -0.41011  -0.25374  -0.24977
 Alpha  occ. eigenvalues --   -0.22590  -0.22590
 Alpha virt. eigenvalues --   -0.08248  -0.08248  -0.00489   0.01651   0.01651
 Alpha virt. eigenvalues --    0.09535   0.14399   0.15453   0.17138   0.18327
 Alpha virt. eigenvalues --    0.18327   0.21724   0.21724   0.22299   0.22299
 Alpha virt. eigenvalues --    0.26902   0.26902   0.27128   0.29247   0.30755
 Alpha virt. eigenvalues --    0.30755   0.37298   0.37298   0.42075   0.46977
 Alpha virt. eigenvalues --    0.46977   0.50670   0.50670   0.50755   0.70180
 Alpha virt. eigenvalues --    0.70180   0.72269   0.74303   0.78728   0.90547
 Alpha virt. eigenvalues --    0.90547   0.91117   0.92332   0.92332   0.93652
 Alpha virt. eigenvalues --    0.94815   0.94815   0.96546   1.06225   1.06225
 Alpha virt. eigenvalues --    1.10250   1.10250   1.14063   1.23596   1.23596
 Alpha virt. eigenvalues --    1.28213   1.28213   1.35053   1.35053   1.35739
 Alpha virt. eigenvalues --    1.36865   1.62760   1.64459   1.64459   1.69282
 Alpha virt. eigenvalues --    1.69393   1.71263   1.71263   1.80975   1.80975
 Alpha virt. eigenvalues --    1.83436   1.86592   1.86592   2.03898   2.10074
 Alpha virt. eigenvalues --    2.10074   2.40574   2.68185   2.68185
  Beta  occ. eigenvalues --  -66.15002 -66.15002 -66.15002  -5.29757  -5.29740
  Beta  occ. eigenvalues --   -5.29740  -3.65747  -3.65744  -3.65744  -3.65402
  Beta  occ. eigenvalues --   -3.65402  -3.65377  -3.65327  -3.65248  -3.65248
  Beta  occ. eigenvalues --   -0.57386  -0.37179  -0.37179  -0.24349  -0.22740
  Beta virt. eigenvalues --   -0.14528  -0.14528  -0.07300  -0.07300   0.02997
  Beta virt. eigenvalues --    0.03139   0.03139   0.10415   0.15976   0.16130
  Beta virt. eigenvalues --    0.19870   0.19976   0.19976   0.23319   0.23319
  Beta virt. eigenvalues --    0.24537   0.24537   0.27210   0.27210   0.28080
  Beta virt. eigenvalues --    0.30847   0.31970   0.31970   0.39266   0.39266
  Beta virt. eigenvalues --    0.44008   0.49715   0.49715   0.51593   0.51861
  Beta virt. eigenvalues --    0.51861   0.71519   0.71519   0.74966   0.75267
  Beta virt. eigenvalues --    0.81002   0.92455   0.92455   0.93048   0.93462
  Beta virt. eigenvalues --    0.93462   0.94391   0.96715   0.96715   0.98638
  Beta virt. eigenvalues --    1.08253   1.08253   1.12316   1.12316   1.15981
  Beta virt. eigenvalues --    1.25038   1.25038   1.28934   1.28934   1.37400
  Beta virt. eigenvalues --    1.37483   1.37483   1.39385   1.63964   1.65317
  Beta virt. eigenvalues --    1.65317   1.69609   1.70635   1.71752   1.71752
  Beta virt. eigenvalues --    1.82813   1.82813   1.84381   1.87123   1.87123
  Beta virt. eigenvalues --    2.04311   2.11298   2.11298   2.41753   2.69380
  Beta virt. eigenvalues --    2.69380
          Condensed to atoms (all electrons):
              1          2          3
     1  Si  13.486469   0.256765   0.256765
     2  Si   0.256765  13.486469   0.256765
     3  Si   0.256765   0.256765  13.486469
 Mulliken atomic charges:
              1
     1  Si   0.000000
     2  Si   0.000000
     3  Si   0.000000
 Sum of Mulliken atomic charges =   0.00000
 Mulliken charges with hydrogens summed into heavy atoms:
              1
     1  Si   0.000000
     2  Si   0.000000
     3  Si   0.000000
 Sum of Mulliken charges with hydrogens summed into heavy atoms =   0.00000
          Atomic-Atomic Spin Densities.
              1          2          3
     1  Si   0.623367   0.021650   0.021650
     2  Si   0.021650   0.623367   0.021650
     3  Si   0.021650   0.021650   0.623367
 Mulliken atomic spin densities:
              1
     1  Si   0.666667
     2  Si   0.666667
     3  Si   0.666667
 Sum of Mulliken atomic spin densities =   2.00000
 APT atomic charges:
              1
     1  Si  -0.000037
     2  Si  -0.000009
     3  Si  -0.000009
 Sum of APT charges=  -0.00005
 APT Atomic charges with hydrogens summed into heavy atoms:
              1
     1  Si  -0.000037
     2  Si  -0.000009
     3  Si  -0.000009
 Sum of APT charges=  -0.00005
 Electronic spatial extent (au):  <R**2>=            352.5543
 Charge=              0.0000 electrons
 Dipole moment (field-independent basis, Debye):
    X=              0.0000    Y=              0.0000    Z=              0.0000  Tot=              0.0000
 Quadrupole moment (field-independent basis, Debye-Ang):
   XX=            -40.3434   YY=            -40.3434   ZZ=            -39.3229
   XY=              0.0000   XZ=              0.0000   YZ=              0.0000
 Traceless Quadrupole moment (field-independent basis, Debye-Ang):
   XX=             -0.3402   YY=             -0.3402   ZZ=              0.6803
   XY=              0.0000   XZ=              0.0000   YZ=              0.0000
 Octapole moment (field-independent basis, Debye-Ang**2):
  XXX=              0.0000  YYY=             -2.5478  ZZZ=              0.0000  XYY=              0.0000
  XXY=              2.5478  XXZ=              0.0000  XZZ=              0.0000  YZZ=              0.0000
  YYZ=              0.0000  XYZ=              0.0000
 Hexadecapole moment (field-independent basis, Debye-Ang**3):
 XXXX=           -297.1839 YYYY=           -297.1839 ZZZZ=            -74.2001 XXXY=              0.0000
 XXXZ=              0.0000 YYYX=              0.0000 YYYZ=              0.0000 ZZZX=              0.0000
 ZZZY=              0.0000 XXYY=            -99.0613 XXZZ=            -58.7543 YYZZ=            -58.7543
 XXYZ=              0.0000 YYXZ=              0.0000 ZZXY=              0.0000
 N-N= 1.355786215952D+02 E-N=-3.494663898172D+03  KE= 1.297015527524D+03
 Symmetry A1   KE= 7.543276163685D+02
 Symmetry A2   KE= 3.643518847350D+01
 Symmetry B1   KE= 4.307602135494D+02
 Symmetry B2   KE= 7.549250913242D+01
  Exact polarizability: 110.293   0.000 110.298   0.000   0.000  56.310
 Approx polarizability: 256.263   0.000 256.263   0.000   0.000 105.154
                          Isotropic Fermi Contact Couplings
        Atom                 a.u.       MegaHertz       Gauss      10(-4) cm-1
     1  Si(29)             0.12475     -55.43490     -19.78055     -18.49109
     2  Si(29)             0.12475     -55.43490     -19.78055     -18.49109
     3  Si(29)             0.12475     -55.43490     -19.78055     -18.49109
 --------------------------------------------------------
       Center         ----  Spin Dipole Couplings  ----
                      3XX-RR        3YY-RR        3ZZ-RR
 --------------------------------------------------------
     1   Atom        0.778912     -0.077765     -0.701147
     2   Atom        0.136405      0.564743     -0.701147
     3   Atom        0.136405      0.564743     -0.701147
 --------------------------------------------------------
                        XY            XZ            YZ
 --------------------------------------------------------
     1   Atom        0.000000      0.000000      0.000000
     2   Atom        0.370952      0.000000      0.000000
     3   Atom       -0.370952      0.000000      0.000000
 --------------------------------------------------------


 ---------------------------------------------------------------------------------
              Anisotropic Spin Dipole Couplings in Principal Axis System
 ---------------------------------------------------------------------------------

       Atom             a.u.   MegaHertz   Gauss  10(-4) cm-1        Axes

              Baa    -0.7011    74.381    26.541    24.811  0.0000  0.0000  1.0000
     1 Si(29) Bbb    -0.0778     8.250     2.944     2.752  0.0000  1.0000  0.0000
              Bcc     0.7789   -82.630   -29.484   -27.562  1.0000  0.0000  0.0000
 
              Baa    -0.7011    74.381    26.541    24.811  0.0000  0.0000  1.0000
     2 Si(29) Bbb    -0.0778     8.250     2.944     2.752  0.8660 -0.5000  0.0000
              Bcc     0.7789   -82.630   -29.484   -27.562  0.5000  0.8660  0.0000
 
              Baa    -0.7011    74.381    26.541    24.811  0.0000  0.0000  1.0000
     3 Si(29) Bbb    -0.0778     8.250     2.944     2.752  0.8660  0.5000  0.0000
              Bcc     0.7789   -82.630   -29.484   -27.562 -0.5000  0.8660  0.0000
 

 ---------------------------------------------------------------------------------

 Calling FoFJK, ICntrl=    100127 FMM=F ISym2X=1 I1Cent= 0 IOpClX= 1 NMat=1 NMatS=1 NMatT=0.
 Full mass-weighted force constant matrix:
 Low frequencies ---   -0.0149   -0.0142    0.0047    8.1880    8.1880   11.5142
 Low frequencies ---  318.3141  318.3141  493.2990
 Diagonal vibrational polarizability:
        0.1035377       0.1033827       0.0000000
 Harmonic frequencies (cm**-1), IR intensities (KM/Mole), Raman scattering
 activities (A**4/AMU), depolarization ratios for plane and unpolarized
 incident light, reduced masses (AMU), force constants (mDyne/A),
 and normal coordinates:
                     1                      2                      3
                    E'                     E'                     A1'
 Frequencies --   318.3141               318.3141               493.2990
 Red. masses --    27.9769                27.9769                27.9769
 Frc consts  --     1.6702                 1.6702                 4.0112
 IR Inten    --     0.3893                 0.3898                 0.0000
  Atom  AN      X      Y      Z        X      Y      Z        X      Y      Z
     1  14    -0.08   0.57   0.00     0.57   0.08   0.00     0.00   0.58   0.00
     2  14    -0.46  -0.35   0.00    -0.35   0.46   0.00     0.50  -0.29   0.00
     3  14     0.53  -0.22   0.00    -0.22  -0.53   0.00    -0.50  -0.29   0.00

 -------------------
 - Thermochemistry -
 -------------------
 Temperature   298.150 Kelvin.  Pressure   1.00000 Atm.
 Atom     1 has atomic number 14 and mass  27.97693
 Atom     2 has atomic number 14 and mass  27.97693
 Atom     3 has atomic number 14 and mass  27.97693
 Molecular mass:    83.93079 amu.
 Principal axes and moments of inertia in atomic units:
                           1         2         3
     Eigenvalues --   263.11297 263.11297 526.22594
           X            0.00000   1.00000   0.00000
           Y            1.00000   0.00000   0.00000
           Z            0.00000   0.00000   1.00000
 This molecule is an oblate symmetric top.
 Rotational symmetry number  6.
 Rotational temperatures (Kelvin)      0.32919     0.32919     0.16459
 Rotational constants (GHZ):           6.85919     6.85919     3.42959
 Zero-point vibrational energy       6758.5 (Joules/Mol)
                                    1.61531 (Kcal/Mol)
 Warning -- explicit consideration of   3 degrees of freedom as
           vibrations may cause significant error
 Vibrational temperatures:    457.98   457.98   709.75
          (Kelvin)
 
 Zero-point correction=                           0.002574 (Hartree/Particle)
 Thermal correction to Energy=                    0.006431
 Thermal correction to Enthalpy=                  0.007376
 Thermal correction to Gibbs Free Energy=        -0.024094
 Sum of electronic and zero-point Energies=           -868.373626
 Sum of electronic and thermal Energies=              -868.369769
 Sum of electronic and thermal Enthalpies=            -868.368824
 Sum of electronic and thermal Free Energies=         -868.400294
 
                     E (Thermal)             CV                S
                      KCal/Mol        Cal/Mol-Kelvin    Cal/Mol-Kelvin
 Total                    4.036             10.504             66.233
 Electronic               0.000              0.000              2.183
 Translational            0.889              2.981             39.196
 Rotational               0.889              2.981             21.542
 Vibrational              2.258              4.542              3.313
 Vibration     1          0.705              1.639              1.319
 Vibration     2          0.705              1.639              1.319
 Vibration     3          0.849              1.265              0.675
                       Q            Log10(Q)             Ln(Q)
 Total Bot       0.120924D+12         11.082514         25.518432
 Total V=0       0.184733D+13         12.266545         28.244763
 Vib (Bot)       0.117120D+00         -0.931368         -2.144553
 Vib (Bot)    1  0.591150D+00         -0.228302         -0.525685
 Vib (Bot)    2  0.591150D+00         -0.228302         -0.525685
 Vib (Bot)    3  0.335148D+00         -0.474764         -1.093184
 Vib (V=0)       0.178922D+01          0.252663          0.581778
 Vib (V=0)    1  0.127425D+01          0.105254          0.242356
 Vib (V=0)    2  0.127425D+01          0.105254          0.242356
 Vib (V=0)    3  0.110193D+01          0.042155          0.097066
 Electronic      0.300000D+01          0.477121          1.098612
 Translational   0.302230D+08          7.480337         17.224113
 Rotational      0.113874D+05          4.056424          9.340260
 ***** Axes restored to original set *****
 -------------------------------------------------------------------
 Center     Atomic                   Forces (Hartrees/Bohr)
 Number     Number              X              Y              Z
 -------------------------------------------------------------------
      1       14          -0.000033516    0.000019351    0.000000000
      2       14           0.000033516    0.000019351    0.000000000
      3       14           0.000000000   -0.000038701    0.000000000
 -------------------------------------------------------------------
 Cartesian Forces:  Max     0.000038701 RMS     0.000022344

 GradGradGradGradGradGradGradGradGradGradGradGradGradGradGradGradGradGrad
 Berny optimization.
 Internal  Forces:  Max     0.000022344 RMS     0.000022344
 Search for a local minimum.
 Step number   1 out of a maximum of    2
 All quantities printed in internal units (Hartrees-Bohrs-Radians)
 Second derivative matrix not updated -- analytic derivatives used.
 The second derivative matrix:
                          R1        R2        R3
           R1           0.07630
           R2           0.00479   0.07630
           R3           0.00479   0.00479   0.07630
     Eigenvalues ---    0.07151   0.07151   0.08588
 Angle between quadratic step and forces=   0.00 degrees.
 Linear search not attempted -- first point.
 Iteration  1 RMS(Cart)=  0.00015021 RMS(Int)=  0.00000000
 Iteration  2 RMS(Cart)=  0.00000000 RMS(Int)=  0.00000000
 ClnCor:  largest displacement from symmetrization is 1.01D-12 for atom     2.
 Variable       Old X    -DE/DX   Delta X   Delta X   Delta X     New X
                                 (Linear)    (Quad)   (Total)
    R1        4.33697  -0.00002   0.00000  -0.00026  -0.00026   4.33671
    R2        4.33697  -0.00002   0.00000  -0.00026  -0.00026   4.33671
    R3        4.33697  -0.00002   0.00000  -0.00026  -0.00026   4.33671
         Item               Value     Threshold  Converged?
 Maximum Force            0.000022     0.000450     YES
 RMS     Force            0.000022     0.000300     YES
 Maximum Displacement     0.000150     0.001800     YES
 RMS     Displacement     0.000150     0.001200     YES
 Predicted change in Energy=-8.720154D-09
 Optimization completed.
    -- Stationary point found.
                           ----------------------------
                           !   Optimized Parameters   !
                           ! (Angstroms and Degrees)  !
 --------------------------                            --------------------------
 ! Name  Definition              Value          Derivative Info.                !
 --------------------------------------------------------------------------------
 ! R1    R(1,2)                  2.295          -DE/DX =    0.0                 !
 ! R2    R(1,3)                  2.295          -DE/DX =    0.0                 !
 ! R3    R(2,3)                  2.295          -DE/DX =    0.0                 !
 --------------------------------------------------------------------------------
 GradGradGradGradGradGradGradGradGradGradGradGradGradGradGradGradGradGrad

 1\1\GINC-NODE96\Freq\UB3LYP\GTBas3\Si3(3)\TAM\16-Jun-2013\0\\#N Geom=A
 llCheck Guess=TCheck SCRF=Check B3LYP/GTBas3 Freq\\si3-n-t\\0,3\Si,1.1
 475120303,-0.6625163796,0.\Si,-1.1475120303,-0.6625163796,0.\Si,0.,1.3
 250327591,0.\\Version=AM64L-G09RevA.02\State=3-A1'\HF=-868.3762\S2=2.0
 05821\S2-1=0.\S2A=2.00002\RMSD=3.032e-10\RMSF=2.234e-05\ZeroPoint=0.00
 25742\Thermal=0.0064313\Dipole=0.,0.,0.\DipoleDeriv=0.0304678,-0.05286
 3,0.,-0.052863,-0.0305731,0.,0.,0.,-0.0000043,0.0305112,0.0528821,0.,0
 .0528484,-0.0305376,0.,0.,0.,-0.0000011,-0.061058,-0.0000191,0.,0.0000
 145,0.0610317,0.,0.,0.,-0.0000011\Polar=110.2965489,-0.0017964,110.294
 4745,0.,0.,56.3095751\PG=D03H [3C2(Si1)]\NImag=0\\0.10017855,-0.037163
 87,0.05726542,0.,0.,0.00004732,-0.08227913,0.00623931,0.,0.10017855,-0
 .00623931,0.00355715,0.,0.03716387,0.05726542,0.,0.,-0.00002366,0.,0.,
 0.00004732,-0.01790192,0.03092889,0.,-0.01790192,-0.03092889,0.,0.0358
 0885,0.04340751,-0.06082006,0.,-0.04340751,-0.06082006,0.,0.,0.1216351
 2,0.,0.,-0.00002366,0.,0.,-0.00002366,0.,0.,0.00004732\\0.00003352,-0.
 00001935,0.,-0.00003352,-0.00001935,0.,0.,0.00003870,0.\\\@


 OLD HORSE! OLD HORSE! WHAT BROUGHT YOU HERE?
 FROM SACARAP' TO PORTLAND PIER
 I'VE CARTED STONE THIS MANY A YEAR;
 TILL, KILLED BY BLOWS AND SORE ABUSE,
 THEY SALTED ME DOWN FOR SAILORS' USE.
 THE SAILORS THEY DO ME DESPISE;
 THEY TURN ME OVER AND DAMN MY EYES;
 CUT OFF MY MEAT, AND SCRAPE MY BONES,
 AND PITCH ME OVER TO DAVY JONES.

    SAILORS' COMPLAINT ABOUT THE BEEF
    SERVED ON SHIPBOARD, CIRCA 1835.
 Job cpu time:  0 days  0 hours  1 minutes  8.9 seconds.
 File lengths (MBytes):  RWF=     12 Int=      0 D2E=      0 Chk=      9 Scr=      1
 Normal termination of Gaussian 09 at Sun Jun 16 12:51:59 2013.
 Link1:  Proceeding to internal job step number  3.
 -----------------------------------------------------------------
 #N Geom=AllCheck Guess=TCheck SCRF=Check CCSD(T,E4T,FrzG4)/GTBas1
 -----------------------------------------------------------------
 1/29=7,38=1,40=1/1;
 2/12=2,40=1/2;
 3/5=33,11=9,14=-4,16=1,25=1,30=1,70=2,116=-2/1,2,3;
 4/5=101/1;
 5/5=2,7=500,8=3,13=1/2,8;
 8/6=4,9=120000,10=6/1,4;
 9/5=7,14=4/13;
 6/7=2,8=2,9=2,10=2/1;
 99/5=1,9=1/99;
 -------
 si3-n-t
 -------
 Redundant internal coordinates taken from checkpoint file:
 S9L-ne-d-01.chk
 Charge =  0 Multiplicity = 3
 Si,0,1.1475120303,-0.6625163796,0.
 Si,0,-1.1475120303,-0.6625163796,0.
 Si,0,0.,1.3250327591,0.
 Recover connectivity data from disk.
                          Input orientation:                          
 ---------------------------------------------------------------------
 Center     Atomic      Atomic             Coordinates (Angstroms)
 Number     Number       Type             X           Y           Z
 ---------------------------------------------------------------------
      1         14           0        1.147512   -0.662516    0.000000
      2         14           0       -1.147512   -0.662516    0.000000
      3         14           0        0.000000    1.325033    0.000000
 ---------------------------------------------------------------------
                    Distance matrix (angstroms):
                    1          2          3
     1  Si   0.000000
     2  Si   2.295024   0.000000
     3  Si   2.295024   2.295024   0.000000
 Stoichiometry    Si3(3)
 Framework group  D3H[3C2(Si)]
 Deg. of freedom     1
 Full point group                 D3H     NOp  12
 Largest Abelian subgroup         C2V     NOp   4
 Largest concise Abelian subgroup C2      NOp   2
                         Standard orientation:                         
 ---------------------------------------------------------------------
 Center     Atomic      Atomic             Coordinates (Angstroms)
 Number     Number       Type             X           Y           Z
 ---------------------------------------------------------------------
      1         14           0        0.000000    1.325033    0.000000
      2         14           0        1.147512   -0.662516    0.000000
      3         14           0       -1.147512   -0.662516    0.000000
 ---------------------------------------------------------------------
 Rotational constants (GHZ):      6.8591875      6.8591875      3.4295937
 Standard basis: GTBas1 (6D, 7F)
 There are    24 symmetry adapted basis functions of A1  symmetry.
 There are     6 symmetry adapted basis functions of A2  symmetry.
 There are    18 symmetry adapted basis functions of B1  symmetry.
 There are     9 symmetry adapted basis functions of B2  symmetry.
 Integral buffers will be    131072 words long.
 Raffenetti 2 integral format.
 Two-electron integral symmetry is turned on.
    57 basis functions,   156 primitive gaussians,    57 cartesian basis functions
    22 alpha electrons       20 beta electrons
       nuclear repulsion energy       135.5786215952 Hartrees.
 NAtoms=    3 NActive=    3 NUniq=    1 SFac= 3.00D+00 NAtFMM=   80 NAOKFM=F Big=F
 One-electron integrals computed using PRISM.
 NBasis=    57 RedAO= T  NBF=    24     6    18     9
 NBsUse=    57 1.00D-06 NBFU=    24     6    18     9
 Initial guess read from the checkpoint file:  S9L-ne-d-01.chk
 B after Tr=     0.000000    0.000000    0.000000
         Rot=    1.000000    0.000000    0.000000    0.000000 Ang=   0.00 deg.
 Initial guess orbital symmetries:
 Alpha Orbitals:
       Occupied  (A1') (E') (E') (A1') (E') (E') (E') (E') (A2')
                 (A2") (E") (E") (A1') (E') (E') (A1') (E') (E')
                 (A1') (A2") (E') (E')
       Virtual   (E") (E") (A2') (E') (E') (A1') (A1') (A2") (A1')
                 (E') (E') (?A) (?A) (E") (E") (E") (E") (A2")
                 (A2') (?A) (?A) (?A) (?A) (A1") (?A) (?A) (E")
                 (E") (A1') (?A) (?A) (A2') (A1') (?A) (?A)
 Beta  Orbitals:
       Occupied  (A1') (E') (E') (A1') (E') (E') (A2") (E") (E")
                 (E') (E') (A2') (A1') (E') (E') (A1') (E') (E')
                 (A2") (A1')
       Virtual   (E') (E') (E") (E") (A2') (E') (E') (A1') (A2")
                 (A1') (A1') (E') (E') (?A) (?A) (E") (E") (E")
                 (E") (A2") (A2') (?A) (?A) (?A) (?A) (A1") (?A)
                 (?A) (A1') (E") (E") (?A) (?A) (A2') (A1') (?A)
                 (?A)
 Initial guess <Sx>= 0.0000 <Sy>= 0.0000 <Sz>= 1.0000 <S**2>= 2.0048 S= 1.0016
 Requested convergence on RMS density matrix=1.00D-08 within 128 cycles.
 Requested convergence on MAX density matrix=1.00D-06.
 Requested convergence on             energy=1.00D-06.
 No special actions if energy rises.
 Keep R1 and R2 ints in memory in canonical form, NReq=3583074.
 SCF Done:  E(UHF) =  -866.620479321     A.U. after   12 cycles
             Convg  =    0.5194D-08             -V/T =  2.0001
 <Sx>= 0.0000 <Sy>= 0.0000 <Sz>= 1.0000 <S**2>= 2.0175 S= 1.0058
 <L.S>= 0.000000000000E+00
 Annihilation of the first spin contaminant:
 S**2 before annihilation     2.0175,   after     2.0002
 QCSCF skips out because SCF is already converged.
 ExpMin= 7.78D-02 ExpMax= 1.61D+04 ExpMxC= 2.43D+03 IAcc=3 IRadAn=         5 AccDes= 0.00D+00
 HarFok:  IExCor=  205 AccDes= 0.00D+00 IRadAn=         5 IDoV=-2
 ScaDFX=  1.000000  1.000000  1.000000  1.000000
 Range of M.O.s used for correlation:    16    57
 NBasis=    57 NAE=    22 NBE=    20 NFC=    15 NFV=     0
 NROrb=     42 NOA=     7 NOB=     5 NVA=    35 NVB=    37
 Semi-Direct transformation.
 ModeAB=           4 MOrb=             7 LenV=    9181386076
 LASXX=        58377 LTotXX=       58377 LenRXX=      123907
 LTotAB=       65530 MaxLAS=      302232 LenRXY=           0
 NonZer=      182284 LenScr=      785920 LnRSAI=      302232
 LnScr1=      906240 LExtra=           0 Total=      2118299
 MaxDsk=          -1 SrtSym=           T ITran=            4
 JobTyp=1 Pass  1:  I=   1 to   7.
 (rs|ai) integrals will be sorted in core.
 ModeAB=           4 MOrb=             5 LenV=    9181386076
 LASXX=        43129 LTotXX=       43129 LenRXX=       76061
 LTotAB=       32932 MaxLAS=      215880 LenRXY=           0
 NonZer=      119190 LenScr=      785920 LnRSAI=      215880
 LnScr1=      785920 LExtra=           0 Total=      1863781
 MaxDsk=          -1 SrtSym=           T ITran=            4
 JobTyp=2 Pass  1:  I=   1 to   5.
 (rs|ai) integrals will be sorted in core.
 Spin components of T(2) and E(2):
     alpha-alpha T2 =       0.2465891776D-01 E2=     -0.3396124328D-01
     alpha-beta  T2 =       0.1298733366D+00 E2=     -0.1748756609D+00
     beta-beta   T2 =       0.2161597063D-01 E2=     -0.2487607880D-01
 ANorm=    0.1084503677D+01
 E2 =    -0.2337129830D+00 EUMP2 =    -0.86685419230432D+03
 (S**2,0)=  0.20175D+01           (S**2,1)=  0.20030D+01
 E(PUHF)=      -0.86662285244D+03        E(PMP2)=      -0.86685558690D+03
 R2 and R3 integrals will be kept in memory, NReq=     3554062.
 Iterations=  50 Convergence= 0.100D-06
 Iteration Nr.   1
 **********************
 DD1Dir will call FoFMem   1 times, MxPair=       102
 NAB=    35 NAA=    21 NBB=    10.
 E(PMP3)=      -0.86687879171D+03
 MP4(R+Q)=  0.10796603D-01
 Time for triples=        2.71 seconds.
 MP4(T)=   -0.17387241D-01
 E3=       -0.23935180D-01        EUMP3=      -0.86687812748D+03
 E4(DQ)=    0.30181882D-03        UMP4(DQ)=   -0.86687782567D+03
 E4(SDQ)=  -0.37889165D-02        UMP4(SDQ)=  -0.86688191640D+03
 E4(SDTQ)= -0.21176157D-01        UMP4(SDTQ)= -0.86689930364D+03
 DE(Corr)= -0.24682801     E(Corr)=     -866.86730733    
 NORM(A)=   0.10979079D+01
 Iteration Nr.   2
 **********************
 DD1Dir will call FoFMem   1 times, MxPair=       102
 NAB=    35 NAA=    21 NBB=    10.
 DE(Corr)= -0.25813059     E(CORR)=     -866.87860991     Delta=-1.13D-02
 NORM(A)=   0.11116599D+01
 Iteration Nr.   3
 **********************
 DD1Dir will call FoFMem   1 times, MxPair=       102
 NAB=    35 NAA=    21 NBB=    10.
 DE(Corr)= -0.25999770     E(CORR)=     -866.88047702     Delta=-1.87D-03
 NORM(A)=   0.11149485D+01
 Iteration Nr.   4
 **********************
 DD1Dir will call FoFMem   1 times, MxPair=       102
 NAB=    35 NAA=    21 NBB=    10.
 DE(Corr)= -0.26112633     E(CORR)=     -866.88160565     Delta=-1.13D-03
 NORM(A)=   0.11170619D+01
 Iteration Nr.   5
 **********************
 DD1Dir will call FoFMem   1 times, MxPair=       102
 NAB=    35 NAA=    21 NBB=    10.
 DE(Corr)= -0.26133544     E(CORR)=     -866.88181476     Delta=-2.09D-04
 NORM(A)=   0.11176295D+01
 Iteration Nr.   6
 **********************
 DD1Dir will call FoFMem   1 times, MxPair=       102
 NAB=    35 NAA=    21 NBB=    10.
 DE(Corr)= -0.26136106     E(CORR)=     -866.88184038     Delta=-2.56D-05
 NORM(A)=   0.11176380D+01
 Iteration Nr.   7
 **********************
 DD1Dir will call FoFMem   1 times, MxPair=       102
 NAB=    35 NAA=    21 NBB=    10.
 DE(Corr)= -0.26135858     E(CORR)=     -866.88183790     Delta= 2.48D-06
 NORM(A)=   0.11176833D+01
 Iteration Nr.   8
 **********************
 DD1Dir will call FoFMem   1 times, MxPair=       102
 NAB=    35 NAA=    21 NBB=    10.
 DE(Corr)= -0.26135830     E(CORR)=     -866.88183762     Delta= 2.81D-07
 NORM(A)=   0.11176737D+01
 Iteration Nr.   9
 **********************
 DD1Dir will call FoFMem   1 times, MxPair=       102
 NAB=    35 NAA=    21 NBB=    10.
 DE(Corr)= -0.26135945     E(CORR)=     -866.88183877     Delta=-1.15D-06
 NORM(A)=   0.11176779D+01
 Iteration Nr.  10
 **********************
 DD1Dir will call FoFMem   1 times, MxPair=       102
 NAB=    35 NAA=    21 NBB=    10.
 DE(Corr)= -0.26135897     E(CORR)=     -866.88183829     Delta= 4.79D-07
 NORM(A)=   0.11176766D+01
 Iteration Nr.  11
 **********************
 DD1Dir will call FoFMem   1 times, MxPair=       102
 NAB=    35 NAA=    21 NBB=    10.
 DE(Corr)= -0.26135915     E(CORR)=     -866.88183848     Delta=-1.81D-07
 NORM(A)=   0.11176769D+01
 Iteration Nr.  12
 **********************
 DD1Dir will call FoFMem   1 times, MxPair=       102
 NAB=    35 NAA=    21 NBB=    10.
 DE(Corr)= -0.26135903     E(CORR)=     -866.88183836     Delta= 1.20D-07
 NORM(A)=   0.11176768D+01
 Iteration Nr.  13
 **********************
 DD1Dir will call FoFMem   1 times, MxPair=       102
 NAB=    35 NAA=    21 NBB=    10.
 DE(Corr)= -0.26135904     E(CORR)=     -866.88183836     Delta=-9.17D-09
 NORM(A)=   0.11176768D+01
 Largest amplitude= 8.02D-02
 Time for triples=        2.98 seconds.
 T4(CCSD)= -0.19322922D-01
 T5(CCSD)=  0.91506024D-03
 CCSD(T)= -0.86690024623D+03

 S**2, projected HF & approx projected MPn energies after annihilation of
 unwanted spin states (see manual for definitions):

 spins       (S**2,0) (S**2,1)    PUHF        PMP2        PMP3        PMP4
 annihilated
 s+1         1.99989  2.00008 -866.622852 -866.855587 -866.878791
 s+1,s+2     2.00000  2.00000 -866.622840 -866.855576 -866.878782
 s+1 to s+3  2.00000  2.00000 -866.622840 -866.855576 -866.878782
 s+1 to s+4  2.00000  2.00000 -866.622840 -866.855576 -866.878782
 s+1 to s+5  2.00000  2.00000 -866.622840


 **********************************************************************

            Population analysis using the SCF density.

 **********************************************************************

 Orbital symmetries:
 Alpha Orbitals:
       Occupied  (E') (E') (A1') (A1') (E') (E') (E') (E') (A2')
                 (A1') (E') (E') (A2") (E") (E") (A1') (E') (E')
                 (A1') (E') (E') (A2")
       Virtual   (E") (E") (A2') (E') (E') (A1') (A1') (E') (E')
                 (A2") (E') (E') (E") (E") (A2') (E') (E') (A1')
                 (A2") (E") (E") (E') (E') (A1') (A1") (E') (E')
                 (E") (E") (E') (E') (A2') (A1') (E') (E')
 Beta  Orbitals:
       Occupied  (E') (E') (A1') (A1') (E') (E') (A2") (E") (E")
                 (A1') (E') (E') (E') (E') (A2') (A1') (E') (E')
                 (A2") (A1')
       Virtual   (E') (E') (E") (E") (E') (E') (A2') (A1') (A1')
                 (A2") (E') (E') (E") (E") (E') (E') (E') (E')
                 (A2') (A2") (A1') (E") (E") (E') (E') (A1') (A1")
                 (E') (E') (E") (E") (E') (E') (A2') (A1') (E')
                 (E')
 The electronic state is 3-A1'.
 Alpha  occ. eigenvalues --  -68.79653 -68.79653 -68.79650  -6.15507  -6.15475
 Alpha  occ. eigenvalues --   -6.15475  -4.26156  -4.26156  -4.26115  -4.25800
 Alpha  occ. eigenvalues --   -4.25698  -4.25698  -4.25471  -4.25459  -4.25459
 Alpha  occ. eigenvalues --   -0.81810  -0.56037  -0.56037  -0.35766  -0.32031
 Alpha  occ. eigenvalues --   -0.32031  -0.31789
 Alpha virt. eigenvalues --    0.02239   0.02239   0.09696   0.11831   0.11831
 Alpha virt. eigenvalues --    0.24627   0.30467   0.32177   0.32177   0.35812
 Alpha virt. eigenvalues --    0.42169   0.42169   0.42765   0.42765   0.47403
 Alpha virt. eigenvalues --    0.49596   0.49596   0.59952   0.63595   0.70032
 Alpha virt. eigenvalues --    0.70032   0.75811   0.75811   0.86821   0.89833
 Alpha virt. eigenvalues --    0.90646   0.90646   0.98638   0.98638   1.23280
 Alpha virt. eigenvalues --    1.23280   1.24700   3.10491   3.27201   3.27201
  Beta  occ. eigenvalues --  -68.79257 -68.79257 -68.79254  -6.15019  -6.14995
  Beta  occ. eigenvalues --   -6.14995  -4.25258  -4.25247  -4.25247  -4.25007
  Beta  occ. eigenvalues --   -4.24911  -4.24911  -4.24617  -4.24617  -4.24586
  Beta  occ. eigenvalues --   -0.75764  -0.46022  -0.46022  -0.30706  -0.29041
  Beta virt. eigenvalues --   -0.02829  -0.02829   0.03469   0.03469   0.14323
  Beta virt. eigenvalues --    0.14323   0.16933   0.25848   0.32658   0.36151
  Beta virt. eigenvalues --    0.36234   0.36234   0.43217   0.43217   0.45535
  Beta virt. eigenvalues --    0.45535   0.51483   0.51483   0.51919   0.65875
  Beta virt. eigenvalues --    0.67228   0.73911   0.73911   0.79377   0.79377
  Beta virt. eigenvalues --    0.87971   0.92690   0.95098   0.95098   1.00319
  Beta virt. eigenvalues --    1.00319   1.24910   1.24910   1.28425   3.11442
  Beta virt. eigenvalues --    3.28167   3.28167
          Condensed to atoms (all electrons):
              1          2          3
     1  Si  13.628898   0.185551   0.185551
     2  Si   0.185551  13.628898   0.185551
     3  Si   0.185551   0.185551  13.628898
 Mulliken atomic charges:
              1
     1  Si   0.000000
     2  Si   0.000000
     3  Si   0.000000
 Sum of Mulliken atomic charges =   0.00000
 Mulliken charges with hydrogens summed into heavy atoms:
              1
     1  Si   0.000000
     2  Si   0.000000
     3  Si   0.000000
 Sum of Mulliken charges with hydrogens summed into heavy atoms =   0.00000
          Atomic-Atomic Spin Densities.
              1          2          3
     1  Si   0.502431   0.082118   0.082118
     2  Si   0.082118   0.502431   0.082118
     3  Si   0.082118   0.082118   0.502431
 Mulliken atomic spin densities:
              1
     1  Si   0.666667
     2  Si   0.666667
     3  Si   0.666667
 Sum of Mulliken atomic spin densities =   2.00000
 Electronic spatial extent (au):  <R**2>=            357.4202
 Charge=              0.0000 electrons
 Dipole moment (field-independent basis, Debye):
    X=              0.0000    Y=              0.0000    Z=              0.0000  Tot=              0.0000
 Quadrupole moment (field-independent basis, Debye-Ang):
   XX=            -42.8197   YY=            -42.8197   ZZ=            -40.9153
   XY=              0.0000   XZ=              0.0000   YZ=              0.0000
 Traceless Quadrupole moment (field-independent basis, Debye-Ang):
   XX=             -0.6348   YY=             -0.6348   ZZ=              1.2696
   XY=              0.0000   XZ=              0.0000   YZ=              0.0000
 Octapole moment (field-independent basis, Debye-Ang**2):
  XXX=              0.0000  YYY=             -5.8345  ZZZ=              0.0000  XYY=              0.0000
  XXY=              5.8345  XXZ=              0.0000  XZZ=              0.0000  YZZ=              0.0000
  YYZ=              0.0000  XYZ=              0.0000
 Hexadecapole moment (field-independent basis, Debye-Ang**3):
 XXXX=           -315.7734 YYYY=           -315.7734 ZZZZ=            -82.2845 XXXY=              0.0000
 XXXZ=              0.0000 YYYX=              0.0000 YYYZ=              0.0000 ZZZX=              0.0000
 ZZZY=              0.0000 XXYY=           -105.2578 XXZZ=            -63.2289 YYZZ=            -63.2289
 XXYZ=              0.0000 YYXZ=              0.0000 ZZXY=              0.0000
 N-N= 1.355786215952D+02 E-N=-3.495170264055D+03  KE= 1.298607055109D+03
 Symmetry A1   KE= 7.549724619003D+02
 Symmetry A2   KE= 3.660045945546D+01
 Symmetry B1   KE= 4.314835602603D+02
 Symmetry B2   KE= 7.555057349320D+01
 1\1\GINC-NODE96\SP\UCCSD(T)\GTBas1\Si3(3)\TAM\16-Jun-2013\0\\#N Geom=A
 llCheck Guess=TCheck SCRF=Check CCSD(T,E4T,FrzG4)/GTBas1\\si3-n-t\\0,3
 \Si,0,1.1475120303,-0.6625163796,0.\Si,0,-1.1475120303,-0.6625163796,0
 .\Si,0,0.,1.3250327591,0.\\Version=AM64L-G09RevA.02\State=3-A1'\HF=-86
 6.6204793\MP2=-866.8541923\MP3=-866.8781275\MP4D=-866.8886223\MP4DQ=-8
 66.8778257\MP4SDTQ=-866.8993036\PUHF=-866.6228524\PMP2-0=-866.8555869\
 PMP3-0=-866.8787917\MP4SDQ=-866.8819164\CCSD=-866.8818384\CCSD(T)=-866
 .9002462\S2=2.017458\S2-1=2.002968\S2A=2.000169\RMSD=5.194e-09\PG=D03H
  [3C2(Si1)]\\@


 IF AT FIRST YOU DON'T SUCCEED, TRY, TRY AGAIN.
 THEN GIVE UP;
 THERE'S NO USE BEING A DAMN FOOL ABOUT IT.

                                 -- W. C. FIELDS
 Job cpu time:  0 days  0 hours  0 minutes 30.5 seconds.
 File lengths (MBytes):  RWF=     23 Int=      0 D2E=      0 Chk=      9 Scr=      1
 Normal termination of Gaussian 09 at Sun Jun 16 12:52:03 2013.
 Link1:  Proceeding to internal job step number  4.
 ---------------------------------------------------------
 #N Geom=AllCheck Guess=TCheck SCRF=Check MP4=FrzG4/GTBas2
 ---------------------------------------------------------
 1/29=7,38=1,40=1/1;
 2/12=2,40=1/2;
 3/5=34,11=9,14=-4,16=1,25=1,30=1,70=2,116=-2/1,2,3;
 4/5=101/1;
 5/5=2,7=500,8=3,13=1/2,8;
 8/6=4,9=120000,10=6/1,4;
 9/5=5/13;
 6/7=2,8=2,9=2,10=2/1;
 99/5=1,9=1/99;
 -------
 si3-n-t
 -------
 Redundant internal coordinates taken from checkpoint file:
 S9L-ne-d-01.chk
 Charge =  0 Multiplicity = 3
 Si,0,1.1475120303,-0.6625163796,0.
 Si,0,-1.1475120303,-0.6625163796,0.
 Si,0,0.,1.3250327591,0.
 Recover connectivity data from disk.
                          Input orientation:                          
 ---------------------------------------------------------------------
 Center     Atomic      Atomic             Coordinates (Angstroms)
 Number     Number       Type             X           Y           Z
 ---------------------------------------------------------------------
      1         14           0        1.147512   -0.662516    0.000000
      2         14           0       -1.147512   -0.662516    0.000000
      3         14           0        0.000000    1.325033    0.000000
 ---------------------------------------------------------------------
                    Distance matrix (angstroms):
                    1          2          3
     1  Si   0.000000
     2  Si   2.295024   0.000000
     3  Si   2.295024   2.295024   0.000000
 Stoichiometry    Si3(3)
 Framework group  D3H[3C2(Si)]
 Deg. of freedom     1
 Full point group                 D3H     NOp  12
 Largest Abelian subgroup         C2V     NOp   4
 Largest concise Abelian subgroup C2      NOp   2
                         Standard orientation:                         
 ---------------------------------------------------------------------
 Center     Atomic      Atomic             Coordinates (Angstroms)
 Number     Number       Type             X           Y           Z
 ---------------------------------------------------------------------
      1         14           0        0.000000    1.325033    0.000000
      2         14           0        1.147512   -0.662516    0.000000
      3         14           0       -1.147512   -0.662516    0.000000
 ---------------------------------------------------------------------
 Rotational constants (GHZ):      6.8591875      6.8591875      3.4295937
 Standard basis: GTBas2 (6D, 7F)
 There are    29 symmetry adapted basis functions of A1  symmetry.
 There are     7 symmetry adapted basis functions of A2  symmetry.
 There are    22 symmetry adapted basis functions of B1  symmetry.
 There are    11 symmetry adapted basis functions of B2  symmetry.
 Integral buffers will be    131072 words long.
 Raffenetti 2 integral format.
 Two-electron integral symmetry is turned on.
    69 basis functions,   168 primitive gaussians,    69 cartesian basis functions
    22 alpha electrons       20 beta electrons
       nuclear repulsion energy       135.5786215952 Hartrees.
 NAtoms=    3 NActive=    3 NUniq=    1 SFac= 3.00D+00 NAtFMM=   80 NAOKFM=F Big=F
 One-electron integrals computed using PRISM.
 NBasis=    69 RedAO= T  NBF=    29     7    22    11
 NBsUse=    69 1.00D-06 NBFU=    29     7    22    11
 Initial guess read from the checkpoint file:  S9L-ne-d-01.chk
 B after Tr=     0.000000    0.000000    0.000000
         Rot=    1.000000    0.000000    0.000000    0.000000 Ang=   0.00 deg.
 Initial guess orbital symmetries:
 Alpha Orbitals:
       Occupied  (E') (E') (A1') (A1') (E') (E') (E') (E') (A2')
                 (A1') (E') (E') (A2") (E") (E") (A1') (E') (E')
                 (A1') (E') (E') (A2")
       Virtual   (E") (E") (A2') (E') (E') (A1') (A1') (E') (E')
                 (A2") (E') (E') (E") (E") (A2') (E') (E') (A1')
                 (A2") (E") (E") (E') (E') (A1') (A1") (E') (E')
                 (E") (E") (E') (E') (A2') (A1') (E') (E') (?A)
                 (?A) (?A) (?A) (?A) (?B) (?A) (?A) (?A) (?A) (?B)
                 (?B)
 Beta  Orbitals:
       Occupied  (E') (E') (A1') (A1') (E') (E') (A2") (E") (E")
                 (A1') (E') (E') (E') (E') (A2') (A1') (E') (E')
                 (A2") (A1')
       Virtual   (E') (E') (E") (E") (E') (E') (A2') (A1') (A1')
                 (A2") (E') (E') (E") (E") (E') (E') (E') (E')
                 (A2') (A2") (A1') (E") (E") (E') (E') (A1') (A1")
                 (E') (E') (E") (E") (E') (E') (A2') (A1') (E')
                 (E') (?A) (?A) (?A) (?A) (?A) (?B) (?A) (?A) (?A)
                 (?A) (?B) (?B)
 Initial guess <Sx>= 0.0000 <Sy>= 0.0000 <Sz>= 1.0000 <S**2>= 2.0175 S= 1.0058
 Requested convergence on RMS density matrix=1.00D-08 within 128 cycles.
 Requested convergence on MAX density matrix=1.00D-06.
 Requested convergence on             energy=1.00D-06.
 No special actions if energy rises.
 Keep R1 and R2 ints in memory in canonical form, NReq=6688416.
 SCF Done:  E(UHF) =  -866.622411361     A.U. after   12 cycles
             Convg  =    0.5384D-08             -V/T =  2.0002
 <Sx>= 0.0000 <Sy>= 0.0000 <Sz>= 1.0000 <S**2>= 2.0232 S= 1.0077
 <L.S>= 0.000000000000E+00
 Annihilation of the first spin contaminant:
 S**2 before annihilation     2.0232,   after     2.0003
 QCSCF skips out because SCF is already converged.
 ExpMin= 3.31D-02 ExpMax= 1.61D+04 ExpMxC= 2.43D+03 IAcc=3 IRadAn=         5 AccDes= 0.00D+00
 HarFok:  IExCor=  205 AccDes= 0.00D+00 IRadAn=         5 IDoV=-2
 ScaDFX=  1.000000  1.000000  1.000000  1.000000
 Range of M.O.s used for correlation:    16    69
 NBasis=    69 NAE=    22 NBE=    20 NFC=    15 NFV=     0
 NROrb=     54 NOA=     7 NOB=     5 NVA=    47 NVB=    49

 **** Warning!!: The largest alpha MO coefficient is  0.21238455D+02


 **** Warning!!: The largest beta MO coefficient is  0.21505395D+02

 Semi-Direct transformation.
 ModeAB=           4 MOrb=             7 LenV=    9181363153
 LASXX=       130031 LTotXX=      130031 LenRXX=      271684
 LTotAB=      141653 MaxLAS=      556416 LenRXY=           0
 NonZer=      401715 LenScr=     1204224 LnRSAI=      556416
 LnScr1=     1571840 LExtra=           0 Total=      3604164
 MaxDsk=          -1 SrtSym=           T ITran=            4
 JobTyp=1 Pass  1:  I=   1 to   7.
 (rs|ai) integrals will be sorted in core.
[...]
                 (E") (A2") (A1') (A2') (A2") (E") (E") (A1') (E")
                 (E") (A2") (A1') (E') (E') (A2") (E') (E') (E")
                 (E") (E') (E') (A1') (A2") (E') (E') (E") (E")
                 (E') (E') (A2') (A2') (E") (E") (E') (E') (A1")
                 (A2') (E") (E") (A1') (E') (E') (A2") (E") (E")
                 (A1') (E') (E') (E') (E') (A1') (E") (E") (A1")
                 (A2') (E') (E') (A1') (E') (E') (E") (E") (A1")
                 (E') (E') (E") (E") (A2") (E') (E') (A1") (A2')
                 (E') (E') (A2') (A2") (E") (E") (E') (E') (E")
                 (E") (E') (E') (A1') (E") (E") (A1") (A2') (A1')
                 (E') (E') (E') (E') (A2') (E") (E") (A1') (A2")
                 (E') (E') (A1") (E") (E") (E') (E') (A2') (A1')
                 (E') (E') (A2") (E") (E") (A1') (E') (E') (A2')
                 (E') (E') (A1') (E') (E')
 Beta  Orbitals:
       Occupied  (A1') (E') (E') (A1') (E') (E') (A2") (E") (E")
                 (A1') (E') (E') (E') (E') (A2') (A1') (E') (E')
                 (A2") (A1')
       Virtual   (E') (E') (E") (E") (E') (E') (A1') (A2") (E')
                 (E') (A1') (A2') (E") (E") (E') (E') (A2') (E')
                 (E') (A1') (A2") (E') (E') (A1') (E") (E") (A1')
                 (E") (E") (E') (E') (A2') (A2") (E') (E') (E')
                 (E') (A1') (A1") (E') (E') (E") (E") (A2") (A1')
                 (E') (E') (A2') (A2") (E') (E') (A1') (E") (E")
                 (E') (E') (E") (E") (A2') (E") (E") (E') (E')
                 (E') (E') (A2') (E') (E') (A2") (A1") (A1') (E")
                 (E") (E") (E") (A1') (A2") (A1") (E') (E') (A1')
                 (E') (E') (E') (E') (A2') (E") (E") (A1') (E')
                 (E') (A2") (A1') (A1') (E") (E") (A2") (E') (E')
                 (A2') (E") (E") (E') (E') (A1') (E') (E') (E")
                 (E") (A2') (E') (E') (A2") (A1") (E') (E') (E')
                 (E') (E") (E") (E") (E") (A1") (E') (E') (A2')
                 (A1') (A2") (A1") (E") (E") (E') (E') (A2') (E')
                 (E') (E") (E") (E') (E') (A1') (A1') (A2") (E")
                 (E") (A2') (A1') (E') (E') (E') (E') (A1") (E')
                 (E') (E") (E") (A2") (A1') (A2') (A2") (E") (E")
                 (A1') (E") (E") (A2") (A1') (A2") (E') (E') (E')
                 (E') (E") (E") (E') (E') (A1') (A2") (E') (E')
                 (E") (E") (E') (E') (A2') (A2') (E") (E") (A1")
                 (E') (E') (A2') (E") (E") (A1') (E') (E') (A2")
                 (E") (E") (A1') (E') (E') (E') (E') (A1') (E")
                 (E") (A1") (A2') (E') (E') (A1') (E') (E') (E")
                 (E") (A1") (E') (E') (E") (E") (A2") (E') (E')
                 (A1") (A2') (E') (E') (A2') (A2") (E") (E") (E')
                 (E') (E") (E") (E') (E') (A1') (E") (E") (A1")
                 (A2') (A1') (E') (E') (E') (E') (A2') (E") (E")
                 (A1') (A2") (E') (E') (A1") (E") (E") (E') (E')
                 (A2') (A1') (E') (E') (A2") (E") (E") (A1') (E')
                 (E') (A2') (E') (E') (A1') (E') (E')
 The electronic state is 3-A1'.
 Alpha  occ. eigenvalues --  -68.80729 -68.80729 -68.80729  -6.15345  -6.15312
 Alpha  occ. eigenvalues --   -6.15312  -4.26062  -4.26062  -4.26017  -4.25695
 Alpha  occ. eigenvalues --   -4.25591  -4.25591  -4.25334  -4.25320  -4.25320
 Alpha  occ. eigenvalues --   -0.80728  -0.55737  -0.55737  -0.35283  -0.32059
 Alpha  occ. eigenvalues --   -0.32059  -0.31783
 Alpha virt. eigenvalues --    0.01828   0.01828   0.03036   0.03036   0.04031
 Alpha virt. eigenvalues --    0.04593   0.05800   0.05800   0.06834   0.06990
 Alpha virt. eigenvalues --    0.07268   0.07268   0.10438   0.10438   0.10811
 Alpha virt. eigenvalues --    0.15214   0.15214   0.18013   0.20061   0.20917
 Alpha virt. eigenvalues --    0.21100   0.21100   0.26289   0.26289   0.27156
 Alpha virt. eigenvalues --    0.27438   0.27728   0.27728   0.27800   0.27800
 Alpha virt. eigenvalues --    0.31023   0.36413   0.36413   0.39374   0.39374
 Alpha virt. eigenvalues --    0.43817   0.43972   0.45961   0.45961   0.49370
 Alpha virt. eigenvalues --    0.49370   0.55913   0.58219   0.58219   0.59122
 Alpha virt. eigenvalues --    0.59578   0.61765   0.61765   0.62666   0.64635
 Alpha virt. eigenvalues --    0.68348   0.68348   0.70817   0.70817   0.75338
 Alpha virt. eigenvalues --    0.75338   0.77148   0.78363   0.78363   0.80960
 Alpha virt. eigenvalues --    0.80960   0.85015   0.85015   0.87782   0.88917
 Alpha virt. eigenvalues --    0.88917   0.90123   0.90883   0.91763   0.93056
 Alpha virt. eigenvalues --    0.93056   0.94199   0.94199   0.95663   1.00218
 Alpha virt. eigenvalues --    1.00330   1.01663   1.01663   1.03061   1.05630
 Alpha virt. eigenvalues --    1.05630   1.06000   1.06000   1.08444   1.22242
 Alpha virt. eigenvalues --    1.22242   1.30770   1.35174   1.35174   1.35820
 Alpha virt. eigenvalues --    1.40706   1.43739   1.48043   1.48043   1.48216
 Alpha virt. eigenvalues --    1.48216   1.49308   1.49311   1.54157   1.54157
 Alpha virt. eigenvalues --    1.62934   1.62934   1.66167   1.66180   1.66180
 Alpha virt. eigenvalues --    1.66620   1.66620   1.69325   1.69518   1.69518
 Alpha virt. eigenvalues --    1.70128   1.78977   1.79782   1.79782   1.80742
 Alpha virt. eigenvalues --    1.80742   1.82079   1.82079   1.88366   1.88366
 Alpha virt. eigenvalues --    1.89081   1.89888   1.89888   1.91430   1.98166
 Alpha virt. eigenvalues --    1.99012   1.99090   1.99837   1.99837   2.00441
 Alpha virt. eigenvalues --    2.00441   2.01527   2.02439   2.02439   2.10601
 Alpha virt. eigenvalues --    2.10601   2.13174   2.13174   2.13507   2.34151
 Alpha virt. eigenvalues --    2.38627   2.38876   2.39442   2.39442   2.62242
 Alpha virt. eigenvalues --    2.62799   2.62799   2.84057   2.84057   2.89840
 Alpha virt. eigenvalues --    2.99462   2.99462   3.00723   3.00723   3.12780
 Alpha virt. eigenvalues --    3.13264   3.15749   3.16703   3.19212   3.19212
 Alpha virt. eigenvalues --    3.29064   3.29656   3.29656   3.31903   3.32452
 Alpha virt. eigenvalues --    3.32724   3.32724   3.32905   3.36849   3.36849
 Alpha virt. eigenvalues --    3.37742   3.37742   3.42186   3.42186   3.43340
 Alpha virt. eigenvalues --    3.43883   3.49143   3.49143   3.50857   3.50857
 Alpha virt. eigenvalues --    3.52880   3.52880   3.53358   3.58847   3.60760
 Alpha virt. eigenvalues --    3.60760   3.66358   3.66358   3.66761   3.67115
 Alpha virt. eigenvalues --    3.67308   3.67308   3.71118   3.72063   3.72063
 Alpha virt. eigenvalues --    3.74567   3.77102   3.77102   3.79520   3.89210
 Alpha virt. eigenvalues --    3.89210   3.94560   3.94560   3.95773   4.01952
 Alpha virt. eigenvalues --    4.01952   4.02622   4.04002   4.08596   4.08596
 Alpha virt. eigenvalues --    4.10321   4.13005   4.13005   4.14515   4.14515
 Alpha virt. eigenvalues --    4.14939   4.17106   4.17106   4.22985   4.22985
 Alpha virt. eigenvalues --    4.24322   4.26093   4.26093   4.30746   4.32372
 Alpha virt. eigenvalues --    4.37158   4.37158   4.40017   4.55211   4.60474
 Alpha virt. eigenvalues --    4.60474   4.63093   4.63093   4.63914   4.63914
 Alpha virt. eigenvalues --    4.70281   4.70281   4.76542   4.80392   4.80392
 Alpha virt. eigenvalues --    4.99853   5.00159   5.03961   5.04725   5.04725
 Alpha virt. eigenvalues --    5.43993   5.43993   5.52719   6.24848   6.24848
 Alpha virt. eigenvalues --    6.25417   6.28477   6.67287   6.67287   6.83737
 Alpha virt. eigenvalues --    6.96460   6.96460   6.98789   6.98789   7.13287
 Alpha virt. eigenvalues --    7.13784   7.32317   7.32317  13.00482  13.38317
 Alpha virt. eigenvalues --   13.38317  13.58181  13.66169  13.66169  14.71432
 Alpha virt. eigenvalues --   14.90451  14.90451  38.76178  39.64012  39.64012
  Beta  occ. eigenvalues --  -68.80298 -68.80298 -68.80298  -6.14878  -6.14853
  Beta  occ. eigenvalues --   -6.14853  -4.25111  -4.25098  -4.25098  -4.24850
  Beta  occ. eigenvalues --   -4.24750  -4.24750  -4.24432  -4.24432  -4.24398
  Beta  occ. eigenvalues --   -0.74497  -0.45474  -0.45474  -0.31054  -0.29390
  Beta virt. eigenvalues --   -0.02246  -0.02246   0.02625   0.02625   0.03173
  Beta virt. eigenvalues --    0.03173   0.04204   0.04599   0.06320   0.06320
  Beta virt. eigenvalues --    0.07265   0.07383   0.07543   0.07543   0.11114
  Beta virt. eigenvalues --    0.11114   0.16052   0.16403   0.16403   0.18486
  Beta virt. eigenvalues --    0.21184   0.23139   0.23139   0.25713   0.27341
  Beta virt. eigenvalues --    0.27341   0.28690   0.29656   0.29656   0.29716
  Beta virt. eigenvalues --    0.29716   0.30324   0.32127   0.37656   0.37656
  Beta virt. eigenvalues --    0.41730   0.41730   0.44714   0.45050   0.48562
  Beta virt. eigenvalues --    0.48562   0.50036   0.50036   0.57310   0.59417
  Beta virt. eigenvalues --    0.59548   0.59548   0.61765   0.62849   0.63186
  Beta virt. eigenvalues --    0.63186   0.68158   0.69989   0.69989   0.72575
  Beta virt. eigenvalues --    0.72575   0.76104   0.76104   0.77863   0.78953
  Beta virt. eigenvalues --    0.78953   0.81933   0.81933   0.86887   0.86887
  Beta virt. eigenvalues --    0.88891   0.91235   0.91235   0.91541   0.91719
  Beta virt. eigenvalues --    0.92639   0.93986   0.93986   0.95268   0.95268
  Beta virt. eigenvalues --    0.97533   1.00696   1.00834   1.02978   1.02978
  Beta virt. eigenvalues --    1.04300   1.06914   1.06914   1.07520   1.07520
  Beta virt. eigenvalues --    1.11571   1.22717   1.22717   1.31407   1.36733
  Beta virt. eigenvalues --    1.36733   1.37569   1.41998   1.46775   1.50088
  Beta virt. eigenvalues --    1.50088   1.50162   1.50169   1.50169   1.50666
  Beta virt. eigenvalues --    1.55336   1.55336   1.64498   1.64498   1.66917
  Beta virt. eigenvalues --    1.66991   1.66991   1.68067   1.68067   1.70627
  Beta virt. eigenvalues --    1.70861   1.70861   1.71294   1.79740   1.80522
  Beta virt. eigenvalues --    1.80522   1.81837   1.81837   1.82756   1.82756
  Beta virt. eigenvalues --    1.88696   1.88696   1.90252   1.91831   1.91831
  Beta virt. eigenvalues --    1.93250   1.98826   1.99528   1.99802   2.00782
  Beta virt. eigenvalues --    2.00782   2.01136   2.01136   2.02198   2.03783
  Beta virt. eigenvalues --    2.03783   2.11301   2.11301   2.13906   2.13906
  Beta virt. eigenvalues --    2.14789   2.35139   2.39004   2.40149   2.40149
  Beta virt. eigenvalues --    2.40224   2.62744   2.64190   2.64190   2.85000
  Beta virt. eigenvalues --    2.85000   2.90580   3.00712   3.00712   3.01210
  Beta virt. eigenvalues --    3.01210   3.13504   3.14122   3.16670   3.16975
  Beta virt. eigenvalues --    3.19541   3.19541   3.30548   3.30785   3.30785
  Beta virt. eigenvalues --    3.32955   3.33242   3.33674   3.33822   3.33822
  Beta virt. eigenvalues --    3.37858   3.37858   3.38784   3.38784   3.43440
  Beta virt. eigenvalues --    3.43440   3.44565   3.44843   3.50325   3.50325
  Beta virt. eigenvalues --    3.51823   3.51823   3.53458   3.53458   3.54220
  Beta virt. eigenvalues --    3.60051   3.61216   3.61216   3.67574   3.67652
  Beta virt. eigenvalues --    3.67652   3.67982   3.68154   3.68154   3.71739
  Beta virt. eigenvalues --    3.73295   3.73295   3.75129   3.77887   3.77887
  Beta virt. eigenvalues --    3.80918   3.90014   3.90014   3.95772   3.95772
  Beta virt. eigenvalues --    3.96741   4.02866   4.02866   4.03780   4.05018
  Beta virt. eigenvalues --    4.09362   4.09362   4.10823   4.13701   4.13701
  Beta virt. eigenvalues --    4.14998   4.14998   4.15462   4.17811   4.17811
  Beta virt. eigenvalues --    4.23935   4.23935   4.25284   4.27067   4.27067
  Beta virt. eigenvalues --    4.31734   4.33775   4.37801   4.37801   4.40658
  Beta virt. eigenvalues --    4.55571   4.61247   4.61247   4.63754   4.63754
  Beta virt. eigenvalues --    4.64461   4.64461   4.71347   4.71347   4.77180
  Beta virt. eigenvalues --    4.80910   4.80910   5.00495   5.01486   5.04545
  Beta virt. eigenvalues --    5.05575   5.05575   5.44680   5.44680   5.53537
  Beta virt. eigenvalues --    6.25270   6.25270   6.26051   6.28703   6.67630
  Beta virt. eigenvalues --    6.67630   6.84141   6.96685   6.96685   6.99485
  Beta virt. eigenvalues --    6.99485   7.13864   7.14075   7.32873   7.32873
  Beta virt. eigenvalues --   13.00660  13.38494  13.38494  13.58794  13.67157
  Beta virt. eigenvalues --   13.67157  14.72432  14.91038  14.91038  38.76490
  Beta virt. eigenvalues --   39.64306  39.64306
          Condensed to atoms (all electrons):
              1          2          3
     1  Si  13.222287   0.388856   0.388856
     2  Si   0.388856  13.222287   0.388856
     3  Si   0.388856   0.388856  13.222287
 Mulliken atomic charges:
              1
     1  Si   0.000000
     2  Si   0.000000
     3  Si   0.000000
 Sum of Mulliken atomic charges =   0.00000
 Mulliken charges with hydrogens summed into heavy atoms:
              1
     1  Si   0.000000
     2  Si   0.000000
     3  Si   0.000000
 Sum of Mulliken charges with hydrogens summed into heavy atoms =   0.00000
          Atomic-Atomic Spin Densities.
              1          2          3
     1  Si   0.558876   0.053896   0.053896
     2  Si   0.053896   0.558876   0.053896
     3  Si   0.053896   0.053896   0.558876
 Mulliken atomic spin densities:
              1
     1  Si   0.666667
     2  Si   0.666667
     3  Si   0.666667
 Sum of Mulliken atomic spin densities =   2.00000
 Electronic spatial extent (au):  <R**2>=            355.8513
 Charge=              0.0000 electrons
 Dipole moment (field-independent basis, Debye):
    X=              0.0000    Y=              0.0000    Z=              0.0000  Tot=              0.0000
 Quadrupole moment (field-independent basis, Debye-Ang):
   XX=            -41.7771   YY=            -41.7771   ZZ=            -40.8902
   XY=              0.0000   XZ=              0.0000   YZ=              0.0000
 Traceless Quadrupole moment (field-independent basis, Debye-Ang):
   XX=             -0.2956   YY=             -0.2956   ZZ=              0.5912
   XY=              0.0000   XZ=              0.0000   YZ=              0.0000
 Octapole moment (field-independent basis, Debye-Ang**2):
  XXX=              0.0000  YYY=             -4.2809  ZZZ=              0.0000  XYY=              0.0000
  XXY=              4.2809  XXZ=              0.0000  XZZ=              0.0000  YZZ=              0.0000
  YYZ=              0.0000  XYZ=              0.0000
 Hexadecapole moment (field-independent basis, Debye-Ang**3):
 XXXX=           -314.2333 YYYY=           -314.2333 ZZZZ=            -84.5443 XXXY=              0.0000
 XXXZ=              0.0000 YYYX=              0.0000 YYYZ=              0.0000 ZZZX=              0.0000
 ZZZY=              0.0000 XXYY=           -104.7444 XXZZ=            -62.0259 YYZZ=            -62.0259
 XXYZ=              0.0000 YYXZ=              0.0000 ZZXY=              0.0000
 N-N= 1.355786215952D+02 E-N=-3.495655806088D+03  KE= 1.298851093539D+03
 Symmetry A1   KE= 7.552561388566D+02
 Symmetry A2   KE= 3.655982348019D+01
 Symmetry B1   KE= 4.316320410979D+02
 Symmetry B2   KE= 7.540309010466D+01
                          Isotropic Fermi Contact Couplings
        Atom                 a.u.       MegaHertz       Gauss      10(-4) cm-1
     1  Si(29)            -0.05684      25.25758       9.01253       8.42502
     2  Si(29)            -0.05684      25.25758       9.01253       8.42502
     3  Si(29)            -0.05684      25.25758       9.01253       8.42502
 --------------------------------------------------------
       Center         ----  Spin Dipole Couplings  ----
                      3XX-RR        3YY-RR        3ZZ-RR
 --------------------------------------------------------
     1   Atom        0.845919     -0.045428     -0.800490
     2   Atom        0.177408      0.623082     -0.800490
     3   Atom        0.177408      0.623082     -0.800490
 --------------------------------------------------------
                        XY            XZ            YZ
 --------------------------------------------------------
     1   Atom        0.000000      0.000000      0.000000
     2   Atom        0.385965      0.000000      0.000000
     3   Atom       -0.385965      0.000000      0.000000
 --------------------------------------------------------


 ---------------------------------------------------------------------------------
              Anisotropic Spin Dipole Couplings in Principal Axis System
 ---------------------------------------------------------------------------------

       Atom             a.u.   MegaHertz   Gauss  10(-4) cm-1        Axes

              Baa    -0.8005    84.919    30.301    28.326  0.0000  0.0000  1.0000
     1 Si(29) Bbb    -0.0454     4.819     1.720     1.608  0.0000  1.0000  0.0000
              Bcc     0.8459   -89.738   -32.021   -29.934  1.0000  0.0000  0.0000
 
              Baa    -0.8005    84.919    30.301    28.326  0.0000  0.0000  1.0000
     2 Si(29) Bbb    -0.0454     4.819     1.720     1.608  0.8660 -0.5000  0.0000
              Bcc     0.8459   -89.738   -32.021   -29.934  0.5000  0.8660  0.0000
 
              Baa    -0.8005    84.919    30.301    28.326  0.0000  0.0000  1.0000
     3 Si(29) Bbb    -0.0454     4.819     1.720     1.608  0.8660  0.5000  0.0000
              Bcc     0.8459   -89.738   -32.021   -29.934 -0.5000  0.8660  0.0000
 

 ---------------------------------------------------------------------------------

 1\1\GINC-NODE96\SP\UHF\GFHFB2\Si3(3)\TAM\16-Jun-2013\0\\#N Geom=AllChe
 ck Guess=TCheck SCRF=Check HF/GFHFB2 SCF=Tight\\si3-n-t\\0,3\Si,0,1.14
 75120303,-0.6625163796,0.\Si,0,-1.1475120303,-0.6625163796,0.\Si,0,0.,
 1.3250327591,0.\\Version=AM64L-G09RevA.02\State=3-A1'\HF=-866.7211963\
 S2=2.031798\S2-1=0.\S2A=2.000566\RMSD=2.202e-09\Dipole=0.,0.,0.\Quadru
 pole=-0.2197748,-0.2197748,0.4395496,0.,0.,0.\PG=D03H [3C2(Si1)]\\@


 NEVER LOSE YOUR IGNORANCE, IT CAN'T BE REPLACED.
   -- ANDY CAPP
 Diagonal vibrational polarizability:
        0.0000000       0.0000000       0.0000000

 Temperature=              298.150000 Pressure=                      1.000000
 E(ZPE)=                     0.002537 E(Thermal)=                    0.006410
 E(CCSD(T))=              -866.900246 E(Empiric)=                   -0.040522
 DE(Plus)=                  -0.004132 DE(2DF)=                      -0.080942
 E(Delta-G3XP)=             -0.940844 DE(HF)=                       -0.021104
 G4(0 K)=                 -867.985254 G4 Energy=                  -867.981380
 G4 Enthalpy=             -867.980436 G4 Free Energy=             -868.011937
 1\1\GINC-NODE96\Mixed\G4\G4\Si3(3)\TAM\16-Jun-2013\0\\# G4 scfcyc=500 
 scf=xqc\\si3-n-t\\0,3\Si,0,1.1475120303,-0.6625163796,0.\Si,0,-1.14751
 20303,-0.6625163796,0.\Si,0,0.,1.3250327591,0.\\Version=AM64L-G09RevA.
 02\State=3-A1'\MP2/GTBas1=-866.8541923\MP4/GTBas1=-866.8993036\CCSD(T)
 /G3Bas1=-866.9002462\MP2/GTBas2=-866.858149\MP4/GTBas2=-866.9034352\MP
 2/GTBas3=-866.9275605\MP4/GTBas3=-866.9802461\HF/GTLargeXP=-866.700718
 8\MP2/GTLargeXP=-867.8723615\HF/GFHFB1=-866.7186262\HF/GFHFB2=-866.721
 1963\G4=-867.9852537\FreqCoord=2.1684834714,-1.2519745159,0.,-2.168483
 4714,-1.2519745159,0.,0.,2.5039490319,0.\PG=D03H [3C2(Si1)]\NImag=0\\0
 .10017855,-0.03716387,0.05726542,0.,0.,0.00004732,-0.08227913,0.006239
 31,0.,0.10017855,-0.00623931,0.00355715,0.,0.03716387,0.05726542,0.,0.
 ,-0.00002366,0.,0.,0.00004732,-0.01790192,0.03092889,0.,-0.01790192,-0
 .03092889,0.,0.03580885,0.04340751,-0.06082006,0.,-0.04340751,-0.06082
 006,0.,0.,0.12163512,0.,0.,-0.00002366,0.,0.,-0.00002366,0.,0.,0.00004
 732\\0.00003352,-0.00001935,0.,-0.00003352,-0.00001935,0.,0.,0.0000387
 0,0.\\\@
 Job cpu time:  0 days  0 hours 29 minutes 29.1 seconds.
 File lengths (MBytes):  RWF=     82 Int=      0 D2E=      0 Chk=      9 Scr=      1
 Normal termination of Gaussian 09 at Sun Jun 16 12:58:57 2013.
