 Entering Gaussian System, Link 0=g09
 Initial command:
 /usr/local/chem/g09A2/l1.exe /temp0/tam/Gau-15330.inp -scrdir=/temp0/tam/
 Entering Link 1 = /usr/local/chem/g09A2/l1.exe PID=     15331.
  
 Copyright (c) 1988,1990,1992,1993,1995,1998,2003,2009, Gaussian, Inc.
                  All Rights Reserved.
  
 This is part of the Gaussian(R) 09 program.  It is based on
 the Gaussian(R) 03 system (copyright 2003, Gaussian, Inc.),
 the Gaussian(R) 98 system (copyright 1998, Gaussian, Inc.),
 the Gaussian(R) 94 system (copyright 1995, Gaussian, Inc.),
 the Gaussian 92(TM) system (copyright 1992, Gaussian, Inc.),
 the Gaussian 90(TM) system (copyright 1990, Gaussian, Inc.),
 the Gaussian 88(TM) system (copyright 1988, Gaussian, Inc.),
 the Gaussian 86(TM) system (copyright 1986, Carnegie Mellon
 University), and the Gaussian 82(TM) system (copyright 1983,
 Carnegie Mellon University). Gaussian is a federally registered
 trademark of Gaussian, Inc.
  
 This software contains proprietary and confidential information,
 including trade secrets, belonging to Gaussian, Inc.
  
 This software is provided under written license and may be
 used, copied, transmitted, or stored only in accord with that
 written license.
  
 The following legend is applicable only to US Government
 contracts under FAR:
  
                    RESTRICTED RIGHTS LEGEND
  
 Use, reproduction and disclosure by the US Government is
 subject to restrictions as set forth in subparagraphs (a)
 and (c) of the Commercial Computer Software - Restricted
 Rights clause in FAR 52.227-19.
  
 Gaussian, Inc.
 340 Quinnipiac St., Bldg. 40, Wallingford CT 06492
  
  
 ---------------------------------------------------------------
 Warning -- This program may not be used in any manner that
 competes with the business of Gaussian, Inc. or will provide
 assistance to any competitor of Gaussian, Inc.  The licensee
 of this program is prohibited from giving any competitor of
 Gaussian, Inc. access to this program.  By using this program,
 the user acknowledges that Gaussian, Inc. is engaged in the
 business of creating and licensing software in the field of
 computational chemistry and represents and warrants to the
 licensee that it is not a competitor of Gaussian, Inc. and that
 it will not use this program in any manner prohibited above.
 ---------------------------------------------------------------
  

 Cite this work as:
 Gaussian 09, Revision A.02,
 M. J. Frisch, G. W. Trucks, H. B. Schlegel, G. E. Scuseria, 
 M. A. Robb, J. R. Cheeseman, G. Scalmani, V. Barone, B. Mennucci, 
 G. A. Petersson, H. Nakatsuji, M. Caricato, X. Li, H. P. Hratchian, 
 A. F. Izmaylov, J. Bloino, G. Zheng, J. L. Sonnenberg, M. Hada, 
 M. Ehara, K. Toyota, R. Fukuda, J. Hasegawa, M. Ishida, T. Nakajima, 
 Y. Honda, O. Kitao, H. Nakai, T. Vreven, J. A. Montgomery, Jr., 
 J. E. Peralta, F. Ogliaro, M. Bearpark, J. J. Heyd, E. Brothers, 
 K. N. Kudin, V. N. Staroverov, R. Kobayashi, J. Normand, 
 K. Raghavachari, A. Rendell, J. C. Burant, S. S. Iyengar, J. Tomasi, 
 M. Cossi, N. Rega, J. M. Millam, M. Klene, J. E. Knox, J. B. Cross, 
 V. Bakken, C. Adamo, J. Jaramillo, R. Gomperts, R. E. Stratmann, 
 O. Yazyev, A. J. Austin, R. Cammi, C. Pomelli, J. W. Ochterski, 
 R. L. Martin, K. Morokuma, V. G. Zakrzewski, G. A. Voth, 
 P. Salvador, J. J. Dannenberg, S. Dapprich, A. D. Daniels, 
 O. Farkas, J. B. Foresman, J. V. Ortiz, J. Cioslowski, 
 and D. J. Fox, Gaussian, Inc., Wallingford CT, 2009.
 
 ******************************************
 Gaussian 09:  AM64L-G09RevA.02 11-Jun-2009
                 8-Jan-2012 
 ******************************************
 %NprocShared=12
 Will use up to   12 processors via shared memory.
 %mem=70990MB
 %chk=S9L-ne-d-01
 -----------------------
 # G4 scfcyc=500 scf=xqc
 -----------------------
 1/14=-1,18=20,19=15,26=3,38=1/1,3;
 2/9=110,12=2,17=6,18=5,40=1/2;
 3/5=35,7=104,11=2,16=1,25=1,30=1,71=1,74=-5/1,2,3;
 4//1;
 5/5=2,7=500,8=3,13=1,38=5/2,8;
 6/7=2,8=2,9=2,10=2,28=1/1;
 7//1,2,3,16;
 1/14=-1,18=20,19=15/3(2);
 2/9=110/2;
 99//99;
 2/9=110/2;
 3/5=35,7=104,11=2,16=1,25=1,30=1,71=1,74=-5/1,2,3;
 4/5=5,16=3/1;
 5/5=2,7=500,8=3,13=1,38=5/2,8;
 7//1,2,3,16;
 1/14=-1,18=20,19=15/3(-5);
 2/9=110/2;
 6/7=2,8=2,9=2,10=2,19=2,28=1/1;
 99/9=1/99;
 --------
 si13-c-d
 --------
 Symbolic Z-matrix:
 Charge =  1 Multiplicity = 2
 Si                    0.       -1.64358  -1.50364 
 Si                    0.       -3.17413   0.25259 
 Si                    1.36792  -1.36792   0.75629 
 Si                    1.64358   0.       -1.50364 
 Si                    1.36792   1.36792   0.75629 
 Si                    0.        3.17413   0.25259 
 Si                   -1.36792   1.36792   0.75629 
 Si                    0.        0.        2.38142 
 Si                   -1.36792  -1.36792   0.75629 
 Si                   -1.64358   0.       -1.50364 
 Si                    0.        1.64358  -1.50364 
 Si                    3.17413   0.        0.25259 
 Si                   -3.17413   0.        0.25259 
 

 GradGradGradGradGradGradGradGradGradGradGradGradGradGradGradGradGradGrad
 Berny optimization.
 Initialization pass.
                           ----------------------------
                           !    Initial Parameters    !
                           ! (Angstroms and Degrees)  !
 --------------------------                            --------------------------
 ! Name  Definition              Value          Derivative Info.                !
 --------------------------------------------------------------------------------
 ! R1    R(1,2)                  2.3296         estimate D2E/DX2                !
 ! R2    R(1,3)                  2.656          estimate D2E/DX2                !
 ! R3    R(1,4)                  2.3244         estimate D2E/DX2                !
 ! R4    R(1,9)                  2.656          estimate D2E/DX2                !
 ! R5    R(1,10)                 2.3244         estimate D2E/DX2                !
 ! R6    R(2,3)                  2.3211         estimate D2E/DX2                !
 ! R7    R(2,9)                  2.3211         estimate D2E/DX2                !
 ! R8    R(3,4)                  2.656          estimate D2E/DX2                !
 ! R9    R(3,5)                  2.7358         estimate D2E/DX2                !
 ! R10   R(3,8)                  2.5266         estimate D2E/DX2                !
 ! R11   R(3,9)                  2.7358         estimate D2E/DX2                !
 ! R12   R(3,12)                 2.3211         estimate D2E/DX2                !
 ! R13   R(4,5)                  2.656          estimate D2E/DX2                !
 ! R14   R(4,11)                 2.3244         estimate D2E/DX2                !
 ! R15   R(4,12)                 2.3296         estimate D2E/DX2                !
 ! R16   R(5,6)                  2.3211         estimate D2E/DX2                !
 ! R17   R(5,7)                  2.7358         estimate D2E/DX2                !
 ! R18   R(5,8)                  2.5266         estimate D2E/DX2                !
 ! R19   R(5,11)                 2.656          estimate D2E/DX2                !
 ! R20   R(5,12)                 2.3211         estimate D2E/DX2                !
 ! R21   R(6,7)                  2.3211         estimate D2E/DX2                !
 ! R22   R(6,11)                 2.3296         estimate D2E/DX2                !
 ! R23   R(7,8)                  2.5266         estimate D2E/DX2                !
 ! R24   R(7,9)                  2.7358         estimate D2E/DX2                !
 ! R25   R(7,10)                 2.656          estimate D2E/DX2                !
 ! R26   R(7,11)                 2.656          estimate D2E/DX2                !
 ! R27   R(7,13)                 2.3211         estimate D2E/DX2                !
 ! R28   R(8,9)                  2.5266         estimate D2E/DX2                !
 ! R29   R(9,10)                 2.656          estimate D2E/DX2                !
 ! R30   R(9,13)                 2.3211         estimate D2E/DX2                !
 ! R31   R(10,11)                2.3244         estimate D2E/DX2                !
 ! R32   R(10,13)                2.3296         estimate D2E/DX2                !
 ! A1    A(2,1,4)              117.6827         estimate D2E/DX2                !
 ! A2    A(2,1,10)             117.6827         estimate D2E/DX2                !
 ! A3    A(3,1,10)             106.9053         estimate D2E/DX2                !
 ! A4    A(4,1,9)              106.9053         estimate D2E/DX2                !
 ! A5    A(4,1,10)              90.0            estimate D2E/DX2                !
 ! A6    A(1,3,5)               95.9572         estimate D2E/DX2                !
 ! A7    A(1,3,8)              108.9441         estimate D2E/DX2                !
 ! A8    A(1,3,12)             106.0992         estimate D2E/DX2                !
 ! A9    A(2,3,4)              106.0992         estimate D2E/DX2                !
 ! A10   A(2,3,5)              141.0946         estimate D2E/DX2                !
 ! A11   A(2,3,8)              103.9942         estimate D2E/DX2                !
 ! A12   A(2,3,12)             150.4765         estimate D2E/DX2                !
 ! A13   A(4,3,8)              108.9441         estimate D2E/DX2                !
 ! A14   A(4,3,9)               95.9572         estimate D2E/DX2                !
 ! A15   A(5,3,9)               90.0            estimate D2E/DX2                !
 ! A16   A(8,3,12)             103.9942         estimate D2E/DX2                !
 ! A17   A(9,3,12)             141.0946         estimate D2E/DX2                !
 ! A18   A(1,4,5)              106.9053         estimate D2E/DX2                !
 ! A19   A(1,4,11)              90.0            estimate D2E/DX2                !
 ! A20   A(1,4,12)             117.6827         estimate D2E/DX2                !
 ! A21   A(3,4,11)             106.9053         estimate D2E/DX2                !
 ! A22   A(11,4,12)            117.6827         estimate D2E/DX2                !
 ! A23   A(3,5,6)              141.0946         estimate D2E/DX2                !
 ! A24   A(3,5,7)               90.0            estimate D2E/DX2                !
 ! A25   A(3,5,11)              95.9572         estimate D2E/DX2                !
 ! A26   A(4,5,6)              106.0992         estimate D2E/DX2                !
 ! A27   A(4,5,7)               95.9572         estimate D2E/DX2                !
 ! A28   A(4,5,8)              108.9441         estimate D2E/DX2                !
 ! A29   A(6,5,8)              103.9942         estimate D2E/DX2                !
 ! A30   A(6,5,12)             150.4765         estimate D2E/DX2                !
 ! A31   A(7,5,12)             141.0946         estimate D2E/DX2                !
 ! A32   A(8,5,11)             108.9441         estimate D2E/DX2                !
 ! A33   A(8,5,12)             103.9942         estimate D2E/DX2                !
 ! A34   A(11,5,12)            106.0992         estimate D2E/DX2                !
 ! A35   A(5,7,9)               90.0            estimate D2E/DX2                !
 ! A36   A(5,7,10)              95.9572         estimate D2E/DX2                !
 ! A37   A(5,7,13)             141.0946         estimate D2E/DX2                !
 ! A38   A(6,7,8)              103.9942         estimate D2E/DX2                !
 ! A39   A(6,7,9)              141.0946         estimate D2E/DX2                !
 ! A40   A(6,7,10)             106.0992         estimate D2E/DX2                !
 ! A41   A(6,7,13)             150.4765         estimate D2E/DX2                !
 ! A42   A(8,7,10)             108.9441         estimate D2E/DX2                !
 ! A43   A(8,7,11)             108.9441         estimate D2E/DX2                !
 ! A44   A(8,7,13)             103.9942         estimate D2E/DX2                !
 ! A45   A(9,7,11)              95.9572         estimate D2E/DX2                !
 ! A46   A(11,7,13)            106.0992         estimate D2E/DX2                !
 ! A47   A(3,8,7)               99.935          estimate D2E/DX2                !
 ! A48   A(5,8,9)               99.935          estimate D2E/DX2                !
 ! A49   A(1,9,7)               95.9572         estimate D2E/DX2                !
 ! A50   A(1,9,8)              108.9441         estimate D2E/DX2                !
 ! A51   A(1,9,13)             106.0992         estimate D2E/DX2                !
 ! A52   A(2,9,7)              141.0946         estimate D2E/DX2                !
 ! A53   A(2,9,8)              103.9942         estimate D2E/DX2                !
 ! A54   A(2,9,10)             106.0992         estimate D2E/DX2                !
 ! A55   A(2,9,13)             150.4765         estimate D2E/DX2                !
 ! A56   A(3,9,7)               90.0            estimate D2E/DX2                !
 ! A57   A(3,9,10)              95.9572         estimate D2E/DX2                !
 ! A58   A(3,9,13)             141.0946         estimate D2E/DX2                !
 ! A59   A(8,9,10)             108.9441         estimate D2E/DX2                !
 ! A60   A(8,9,13)             103.9942         estimate D2E/DX2                !
 ! A61   A(1,10,7)             106.9053         estimate D2E/DX2                !
 ! A62   A(1,10,11)             90.0            estimate D2E/DX2                !
 ! A63   A(1,10,13)            117.6827         estimate D2E/DX2                !
 ! A64   A(9,10,11)            106.9053         estimate D2E/DX2                !
 ! A65   A(11,10,13)           117.6827         estimate D2E/DX2                !
 ! A66   A(4,11,6)             117.6827         estimate D2E/DX2                !
 ! A67   A(4,11,7)             106.9053         estimate D2E/DX2                !
 ! A68   A(4,11,10)             90.0            estimate D2E/DX2                !
 ! A69   A(5,11,10)            106.9053         estimate D2E/DX2                !
 ! A70   A(6,11,10)            117.6827         estimate D2E/DX2                !
 ! D1    D(10,1,3,5)           -39.2158         estimate D2E/DX2                !
 ! D2    D(10,1,3,8)            18.12           estimate D2E/DX2                !
 ! D3    D(10,1,3,12)          -93.2982         estimate D2E/DX2                !
 ! D4    D(2,1,4,5)            -58.858          estimate D2E/DX2                !
 ! D5    D(2,1,4,11)          -121.6431         estimate D2E/DX2                !
 ! D6    D(2,1,4,12)             0.0            estimate D2E/DX2                !
 ! D7    D(9,1,4,5)              0.0            estimate D2E/DX2                !
 ! D8    D(9,1,4,11)           -62.7852         estimate D2E/DX2                !
 ! D9    D(9,1,4,12)            58.858          estimate D2E/DX2                !
 ! D10   D(10,1,4,5)            62.7852         estimate D2E/DX2                !
 ! D11   D(10,1,4,11)            0.0            estimate D2E/DX2                !
 ! D12   D(10,1,4,12)          121.6431         estimate D2E/DX2                !
 ! D13   D(4,1,9,7)             39.2158         estimate D2E/DX2                !
 ! D14   D(4,1,9,8)            -18.12           estimate D2E/DX2                !
 ! D15   D(4,1,9,13)            93.2982         estimate D2E/DX2                !
 ! D16   D(2,1,10,7)            58.858          estimate D2E/DX2                !
 ! D17   D(2,1,10,11)          121.6431         estimate D2E/DX2                !
 ! D18   D(2,1,10,13)            0.0            estimate D2E/DX2                !
 ! D19   D(3,1,10,7)             0.0            estimate D2E/DX2                !
 ! D20   D(3,1,10,11)           62.7852         estimate D2E/DX2                !
 ! D21   D(3,1,10,13)          -58.858          estimate D2E/DX2                !
 ! D22   D(4,1,10,7)           -62.7852         estimate D2E/DX2                !
 ! D23   D(4,1,10,11)            0.0            estimate D2E/DX2                !
 ! D24   D(4,1,10,13)         -121.6431         estimate D2E/DX2                !
 ! D25   D(2,3,4,11)            93.2982         estimate D2E/DX2                !
 ! D26   D(8,3,4,11)           -18.12           estimate D2E/DX2                !
 ! D27   D(9,3,4,11)            39.2158         estimate D2E/DX2                !
 ! D28   D(1,3,5,6)             38.5989         estimate D2E/DX2                !
 ! D29   D(1,3,5,7)             58.8138         estimate D2E/DX2                !
 ! D30   D(1,3,5,11)             0.0            estimate D2E/DX2                !
 ! D31   D(2,3,5,6)              0.0            estimate D2E/DX2                !
 ! D32   D(2,3,5,7)             20.2148         estimate D2E/DX2                !
 ! D33   D(2,3,5,11)           -38.5989         estimate D2E/DX2                !
 ! D34   D(9,3,5,6)            -20.2148         estimate D2E/DX2                !
 ! D35   D(9,3,5,7)              0.0            estimate D2E/DX2                !
 ! D36   D(9,3,5,11)           -58.8138         estimate D2E/DX2                !
 ! D37   D(1,3,8,7)            -27.5565         estimate D2E/DX2                !
 ! D38   D(2,3,8,7)            -85.2544         estimate D2E/DX2                !
 ! D39   D(4,3,8,7)             27.5565         estimate D2E/DX2                !
 ! D40   D(12,3,8,7)            85.2544         estimate D2E/DX2                !
 ! D41   D(4,3,9,7)            -58.8138         estimate D2E/DX2                !
 ! D42   D(4,3,9,10)             0.0            estimate D2E/DX2                !
 ! D43   D(4,3,9,13)           -38.5989         estimate D2E/DX2                !
 ! D44   D(5,3,9,7)              0.0            estimate D2E/DX2                !
 ! D45   D(5,3,9,10)            58.8138         estimate D2E/DX2                !
 ! D46   D(5,3,9,13)            20.2148         estimate D2E/DX2                !
 ! D47   D(12,3,9,7)           -20.2148         estimate D2E/DX2                !
 ! D48   D(12,3,9,10)           38.5989         estimate D2E/DX2                !
 ! D49   D(12,3,9,13)            0.0            estimate D2E/DX2                !
 ! D50   D(1,4,5,6)            -93.2982         estimate D2E/DX2                !
 ! D51   D(1,4,5,7)            -39.2158         estimate D2E/DX2                !
 ! D52   D(1,4,5,8)             18.12           estimate D2E/DX2                !
 ! D53   D(1,4,11,6)           121.6431         estimate D2E/DX2                !
 ! D54   D(1,4,11,7)            62.7852         estimate D2E/DX2                !
 ! D55   D(1,4,11,10)            0.0            estimate D2E/DX2                !
 ! D56   D(3,4,11,6)            58.858          estimate D2E/DX2                !
 ! D57   D(3,4,11,7)             0.0            estimate D2E/DX2                !
 ! D58   D(3,4,11,10)          -62.7852         estimate D2E/DX2                !
 ! D59   D(12,4,11,6)            0.0            estimate D2E/DX2                !
 ! D60   D(12,4,11,7)          -58.858          estimate D2E/DX2                !
 ! D61   D(12,4,11,10)        -121.6431         estimate D2E/DX2                !
 ! D62   D(3,5,7,9)              0.0            estimate D2E/DX2                !
 ! D63   D(3,5,7,10)           -58.8138         estimate D2E/DX2                !
 ! D64   D(3,5,7,13)           -20.2148         estimate D2E/DX2                !
 ! D65   D(4,5,7,9)             58.8138         estimate D2E/DX2                !
 ! D66   D(4,5,7,10)             0.0            estimate D2E/DX2                !
 ! D67   D(4,5,7,13)            38.5989         estimate D2E/DX2                !
 ! D68   D(12,5,7,9)            20.2148         estimate D2E/DX2                !
 ! D69   D(12,5,7,10)          -38.5989         estimate D2E/DX2                !
 ! D70   D(12,5,7,13)            0.0            estimate D2E/DX2                !
 ! D71   D(4,5,8,9)            -27.5565         estimate D2E/DX2                !
 ! D72   D(6,5,8,9)             85.2544         estimate D2E/DX2                !
 ! D73   D(11,5,8,9)            27.5565         estimate D2E/DX2                !
 ! D74   D(12,5,8,9)           -85.2544         estimate D2E/DX2                !
 ! D75   D(3,5,11,10)           39.2158         estimate D2E/DX2                !
 ! D76   D(8,5,11,10)          -18.12           estimate D2E/DX2                !
 ! D77   D(12,5,11,10)          93.2982         estimate D2E/DX2                !
 ! D78   D(6,7,8,3)            -85.2544         estimate D2E/DX2                !
 ! D79   D(10,7,8,3)            27.5565         estimate D2E/DX2                !
 ! D80   D(11,7,8,3)           -27.5565         estimate D2E/DX2                !
 ! D81   D(13,7,8,3)            85.2544         estimate D2E/DX2                !
 ! D82   D(5,7,9,1)            -58.8138         estimate D2E/DX2                !
 ! D83   D(5,7,9,2)            -20.2148         estimate D2E/DX2                !
 ! D84   D(5,7,9,3)              0.0            estimate D2E/DX2                !
 ! D85   D(6,7,9,1)            -38.5989         estimate D2E/DX2                !
 ! D86   D(6,7,9,2)              0.0            estimate D2E/DX2                !
 ! D87   D(6,7,9,3)             20.2148         estimate D2E/DX2                !
 ! D88   D(11,7,9,1)             0.0            estimate D2E/DX2                !
 ! D89   D(11,7,9,2)            38.5989         estimate D2E/DX2                !
 ! D90   D(11,7,9,3)            58.8138         estimate D2E/DX2                !
 ! D91   D(5,7,10,1)            39.2158         estimate D2E/DX2                !
 ! D92   D(6,7,10,1)            93.2982         estimate D2E/DX2                !
 ! D93   D(8,7,10,1)           -18.12           estimate D2E/DX2                !
 ! D94   D(8,7,11,4)            18.12           estimate D2E/DX2                !
 ! D95   D(9,7,11,4)           -39.2158         estimate D2E/DX2                !
 ! D96   D(13,7,11,4)          -93.2982         estimate D2E/DX2                !
 ! D97   D(5,8,9,1)             27.5565         estimate D2E/DX2                !
 ! D98   D(5,8,9,2)             85.2544         estimate D2E/DX2                !
 ! D99   D(5,8,9,10)           -27.5565         estimate D2E/DX2                !
 ! D100  D(5,8,9,13)           -85.2544         estimate D2E/DX2                !
 ! D101  D(2,9,10,11)          -93.2982         estimate D2E/DX2                !
 ! D102  D(3,9,10,11)          -39.2158         estimate D2E/DX2                !
 ! D103  D(8,9,10,11)           18.12           estimate D2E/DX2                !
 ! D104  D(1,10,11,4)            0.0            estimate D2E/DX2                !
 ! D105  D(1,10,11,5)          -62.7852         estimate D2E/DX2                !
 ! D106  D(1,10,11,6)         -121.6431         estimate D2E/DX2                !
 ! D107  D(9,10,11,4)           62.7852         estimate D2E/DX2                !
 ! D108  D(9,10,11,5)            0.0            estimate D2E/DX2                !
 ! D109  D(9,10,11,6)          -58.858          estimate D2E/DX2                !
 ! D110  D(13,10,11,4)         121.6431         estimate D2E/DX2                !
 ! D111  D(13,10,11,5)          58.858          estimate D2E/DX2                !
 ! D112  D(13,10,11,6)           0.0            estimate D2E/DX2                !
 --------------------------------------------------------------------------------
 Trust Radius=3.00D-01 FncErr=1.00D-07 GrdErr=1.00D-06
 Number of steps in this run= 100 maximum allowed number of steps= 100.
 GradGradGradGradGradGradGradGradGradGradGradGradGradGradGradGradGradGrad

                          Input orientation:                          
 ---------------------------------------------------------------------
 Center     Atomic      Atomic             Coordinates (Angstroms)
 Number     Number       Type             X           Y           Z
 ---------------------------------------------------------------------
      1         14           0        0.000000   -1.643579   -1.503642
      2         14           0        0.000000   -3.174131    0.252589
      3         14           0        1.367921   -1.367921    0.756288
      4         14           0        1.643579    0.000000   -1.503642
      5         14           0        1.367921    1.367921    0.756288
      6         14           0        0.000000    3.174131    0.252589
      7         14           0       -1.367921    1.367921    0.756288
      8         14           0        0.000000    0.000000    2.381423
      9         14           0       -1.367921   -1.367921    0.756288
     10         14           0       -1.643579    0.000000   -1.503642
     11         14           0        0.000000    1.643579   -1.503642
     12         14           0        3.174131    0.000000    0.252589
     13         14           0       -3.174131    0.000000    0.252589
 ---------------------------------------------------------------------
                    Distance matrix (angstroms):
                    1          2          3          4          5
     1  Si   0.000000
     2  Si   2.329579   0.000000
     3  Si   2.656027   2.321059   0.000000
     4  Si   2.324372   3.982563   2.656027   0.000000
     5  Si   4.005948   4.770236   2.735841   2.656027   0.000000
     6  Si   5.127834   6.348262   4.770236   3.982563   2.321059
     7  Si   4.005948   4.770236   3.869063   4.005948   2.735841
     8  Si   4.218422   3.821916   2.526554   4.218422   2.526554
     9  Si   2.656027   2.321059   2.735841   4.005948   3.869063
    10  Si   2.324372   3.982563   4.005948   3.287158   4.005948
    11  Si   3.287158   5.127834   4.005948   2.324372   2.656027
    12  Si   3.982563   4.488899   2.321059   2.329579   2.321059
    13  Si   3.982563   4.488899   4.770236   5.127834   4.770236
                    6          7          8          9         10
     6  Si   0.000000
     7  Si   2.321059   0.000000
     8  Si   3.821916   2.526554   0.000000
     9  Si   4.770236   2.735841   2.526554   0.000000
    10  Si   3.982563   2.656027   4.218422   2.656027   0.000000
    11  Si   2.329579   2.656027   4.218422   4.005948   2.324372
    12  Si   4.488899   4.770236   3.821916   4.770236   5.127834
    13  Si   4.488899   2.321059   3.821916   2.321059   2.329579
                   11         12         13
    11  Si   0.000000
    12  Si   3.982563   0.000000
    13  Si   3.982563   6.348262   0.000000
 Stoichiometry    Si13(1+,2)
 Framework group  C4V[C4(Si),2SGV(Si4),2SGD(Si2)]
 Deg. of freedom     6
 Full point group                 C4V     NOp   8
 Largest Abelian subgroup         C2V     NOp   4
 Largest concise Abelian subgroup C2V     NOp   4
                         Standard orientation:                         
 ---------------------------------------------------------------------
 Center     Atomic      Atomic             Coordinates (Angstroms)
 Number     Number       Type             X           Y           Z
 ---------------------------------------------------------------------
      1         14           0        0.000000    1.643579   -1.534593
      2         14           0        0.000000    3.174131    0.221638
      3         14           0       -1.367921    1.367921    0.725337
      4         14           0       -1.643579    0.000000   -1.534593
      5         14           0       -1.367921   -1.367921    0.725337
      6         14           0        0.000000   -3.174131    0.221638
      7         14           0        1.367921   -1.367921    0.725337
      8         14           0        0.000000    0.000000    2.350472
      9         14           0        1.367921    1.367921    0.725337
     10         14           0        1.643579    0.000000   -1.534593
     11         14           0        0.000000   -1.643579   -1.534593
     12         14           0       -3.174131    0.000000    0.221638
     13         14           0        3.174131    0.000000    0.221638
 ---------------------------------------------------------------------
 Rotational constants (GHZ):      0.3592471      0.3592471      0.2733863
 Standard basis: GTBas3 (6D, 7F)
 There are   135 symmetry adapted basis functions of A1  symmetry.
 There are    75 symmetry adapted basis functions of A2  symmetry.
 There are   103 symmetry adapted basis functions of B1  symmetry.
 There are   103 symmetry adapted basis functions of B2  symmetry.
 Integral buffers will be    131072 words long.
 Raffenetti 2 integral format.
 Two-electron integral symmetry is turned on.
   416 basis functions,   884 primitive gaussians,   455 cartesian basis functions
    91 alpha electrons       90 beta electrons
       nuclear repulsion energy      2461.3628839251 Hartrees.
 NAtoms=   13 NActive=   13 NUniq=    4 SFac= 3.00D+00 NAtFMM=   80 NAOKFM=F Big=F
 One-electron integrals computed using PRISM.
 NBasis=   416 RedAO= T  NBF=   135    75   103   103
 NBsUse=   416 1.00D-06 NBFU=   135    75   103   103
 Harris functional with IExCor=  402 diagonalized for initial guess.
 ExpMin= 7.78D-02 ExpMax= 1.61D+04 ExpMxC= 2.43D+03 IAcc=2 IRadAn=         0 AccDes= 0.00D+00
 HarFok:  IExCor=  402 AccDes= 0.00D+00 IRadAn=         0 IDoV= 1
 ScaDFX=  1.000000  1.000000  1.000000  1.000000
 FoFCou: FMM=F IPFlag=           0 FMFlag=      100000 FMFlg1=           0
         NFxFlg=           0 DoJE=T BraDBF=F KetDBF=T FulRan=T
         Omega=  0.000000  0.000000  1.000000  0.000000  0.000000 ICntrl=     500 IOpCl=  0
         NMat0=    1 NMatS0=    1 NMatT0=    0 NMatD0=    1 NMtDS0=    0 NMtDT0=    0
         I1Cent=           4 NGrid=           0.
 Petite list used in FoFCou.
 Initial guess orbital symmetries:
 Alpha Orbitals:
       Occupied  (E) (E) (B1) (A1) (B2) (E) (E) (A1) (E) (E) (B2)
                 (A1) (A1) (E) (E) (A1) (B1) (A1) (B2) (E) (E)
                 (E) (E) (B2) (A1) (A1) (B2) (E) (E) (A2) (B1)
                 (E) (E) (A1) (A1) (B1) (E) (E) (A1) (E) (E) (B2)
                 (B1) (E) (E) (A2) (A1) (E) (E) (B2) (A1) (E) (E)
                 (B2) (B1) (E) (E) (A2) (B2) (E) (E) (A1) (A1)
                 (E) (E) (A1) (E) (E) (A1) (B2) (A1) (B1) (E) (E)
                 (E) (E) (A1) (B2) (A1) (E) (E) (B1) (E) (E) (B2)
                 (A2) (A1) (E) (E) (A1) (E)
       Virtual   (E) (B1) (B2) (A1) (B1) (E) (E) (A1) (A1) (E)
                 (E) (E) (E) (A1) (B2) (E) (E) (A2) (B2) (E) (E)
                 (B1) (E) (E) (A2) (B2) (A1) (A1) (B1) (E) (E)
                 (A1) (E) (E) (B1) (A1) (E) (E) (B2) (B2) (E) (E)
                 (B1) (A1) (E) (E) (A1) (A2) (A1) (E) (E) (B1)
                 (B2) (E) (E) (A1) (B2) (E) (E) (B2) (E) (E) (E)
                 (E) (A1) (E) (E) (A2) (A1) (B1) (E) (E) (A2) (B2)
                 (B1) (E) (E) (A1) (B1) (A1) (E) (E) (B2) (B1)
                 (A2) (E) (E) (B2) (A1) (E) (E) (B1) (A2) (E) (E)
                 (A1) (E) (E) (A1) (B2) (E) (E) (E) (E) (A1) (B2)
                 (B2) (B1) (A1) (E) (E) (A2) (E) (E) (B2) (B1)
                 (A1) (A2) (A1) (E) (E) (E) (E) (B2) (E) (E) (B2)
                 (E) (E) (B1) (A2) (E) (E) (A1) (B1) (E) (E) (B2)
                 (E) (E) (A1) (A2) (B2) (A1) (E) (E) (A1) (B2)
                 (B1) (A1) (E) (E) (B1) (E) (E) (A1) (B2) (A1)
                 (E) (E) (E) (E) (A2) (B1) (B1) (A1) (E) (E) (A2)
                 (A1) (E) (E) (B2) (A1) (E) (E) (B2) (E) (E) (B1)
                 (E) (E) (B2) (E) (E) (E) (E) (A2) (B1) (A1) (B2)
                 (E) (E) (A1) (A2) (B1) (B2) (E) (E) (A1) (B1)
                 (E) (E) (A1) (E) (E) (B2) (E) (E) (A2) (B2) (B1)
                 (A1) (E) (E) (E) (E) (A1) (E) (E) (B1) (B2) (A2)
                 (E) (E) (A1) (E) (E) (B2) (E) (E) (B1) (B2) (A2)
                 (E) (E) (B2) (A1) (A2) (A2) (A1) (B1) (E) (E)
                 (A1) (A2) (E) (E) (A1) (B1) (B2) (E) (E) (A1)
                 (E) (E) (A1) (B2) (A1) (B1) (E) (E) (B2) (E) (E)
                 (E) (E) (B1) (B1) (B2) (A2) (E) (E) (E) (E) (A1)
                 (E) (E) (A2) (B2) (E) (E) (B1) (B2) (A1) (E) (E)
                 (E) (E) (A2) (A1) (A1) (E) (E) (B1) (B2) (B2)
                 (E) (E) (E) (E) (A1) (E) (E) (E) (E) (A2) (B1)
                 (B2) (B1) (B2) (A1) (A2) (E) (E) (B2) (B1) (A1)
                 (A1) (E) (E) (A1) (E) (E) (B2)
 Beta  Orbitals:
       Occupied  (E) (E) (B1) (A1) (B2) (E) (E) (A1) (E) (E) (B2)
                 (A1) (A1) (E) (E) (A1) (B1) (A1) (B2) (E) (E)
                 (E) (E) (B2) (A1) (A1) (B2) (E) (E) (A2) (B1)
                 (E) (E) (A1) (A1) (B1) (E) (E) (A1) (E) (E) (B2)
                 (B1) (E) (E) (A2) (A1) (E) (E) (B2) (A1) (E) (E)
                 (B2) (B1) (E) (E) (A2) (B2) (E) (E) (A1) (A1)
                 (E) (E) (A1) (E) (E) (A1) (B2) (A1) (B1) (E) (E)
                 (E) (E) (A1) (B2) (A1) (E) (E) (B1) (E) (E) (B2)
                 (A2) (A1) (E) (E) (A1)
       Virtual   (E) (E) (B1) (B2) (A1) (B1) (E) (E) (A1) (A1)
                 (E) (E) (E) (E) (A1) (B2) (E) (E) (A2) (B2) (E)
                 (E) (B1) (E) (E) (A2) (B2) (A1) (A1) (B1) (E)
                 (E) (A1) (E) (E) (B1) (A1) (E) (E) (B2) (B2) (E)
                 (E) (B1) (A1) (E) (E) (A1) (A2) (A1) (E) (E) (B1)
                 (B2) (E) (E) (A1) (B2) (E) (E) (B2) (E) (E) (E)
                 (E) (A1) (E) (E) (A2) (A1) (B1) (E) (E) (A2) (B2)
                 (B1) (E) (E) (A1) (B1) (A1) (E) (E) (B2) (B1)
                 (A2) (E) (E) (B2) (A1) (E) (E) (B1) (A2) (E) (E)
                 (A1) (E) (E) (A1) (B2) (E) (E) (E) (E) (A1) (B2)
                 (B2) (B1) (A1) (E) (E) (A2) (E) (E) (B2) (B1)
                 (A1) (A2) (A1) (E) (E) (E) (E) (B2) (E) (E) (B2)
                 (E) (E) (B1) (A2) (E) (E) (A1) (B1) (E) (E) (B2)
                 (E) (E) (A1) (A2) (B2) (A1) (E) (E) (A1) (B2)
                 (B1) (A1) (E) (E) (B1) (E) (E) (A1) (B2) (A1)
                 (E) (E) (E) (E) (A2) (B1) (B1) (A1) (E) (E) (A2)
                 (A1) (E) (E) (B2) (A1) (E) (E) (B2) (E) (E) (B1)
                 (E) (E) (B2) (E) (E) (E) (E) (A2) (B1) (A1) (B2)
                 (E) (E) (A1) (A2) (B1) (B2) (E) (E) (A1) (B1)
                 (E) (E) (A1) (E) (E) (B2) (E) (E) (A2) (B2) (B1)
                 (A1) (E) (E) (E) (E) (A1) (E) (E) (B1) (B2) (A2)
                 (E) (E) (A1) (E) (E) (B2) (E) (E) (B1) (B2) (A2)
                 (E) (E) (B2) (A1) (A2) (A2) (A1) (B1) (E) (E)
                 (A1) (A2) (E) (E) (A1) (B1) (B2) (E) (E) (A1)
                 (E) (E) (A1) (B2) (A1) (B1) (E) (E) (B2) (E) (E)
                 (E) (E) (B1) (B1) (B2) (A2) (E) (E) (E) (E) (A1)
                 (E) (E) (A2) (B2) (E) (E) (B1) (B2) (A1) (E) (E)
                 (E) (E) (A2) (A1) (A1) (E) (E) (B1) (B2) (B2)
                 (E) (E) (E) (E) (A1) (E) (E) (E) (E) (A2) (B1)
                 (B2) (B1) (B2) (A1) (A2) (E) (E) (B2) (B1) (A1)
                 (A1) (E) (E) (A1) (E) (E) (B2)
 Initial guess <Sx>= 0.0000 <Sy>= 0.0000 <Sz>= 0.5000 <S**2>= 0.7500 S= 0.5000
 Requested convergence on RMS density matrix=1.00D-08 within 128 cycles.
 Requested convergence on MAX density matrix=1.00D-06.
 Requested convergence on             energy=1.00D-06.
 No special actions if energy rises.
 Integral accuracy reduced to 1.0D-05 until final iterations.
 Density matrix breaks symmetry, PCut= 1.00D-04
 Density has only Abelian symmetry.
 Density matrix breaks symmetry, PCut= 1.00D-04
 Density has only Abelian symmetry.
 Density matrix breaks symmetry, PCut= 1.00D-04
 Density has only Abelian symmetry.
 Density matrix breaks symmetry, PCut= 1.00D-04
 Density has only Abelian symmetry.
 Density matrix breaks symmetry, PCut= 1.00D-04
 Density has only Abelian symmetry.
 EnCoef did     2 forward-backward iterations
 Density matrix breaks symmetry, PCut= 1.00D-04
 Density has only Abelian symmetry.
 Density matrix breaks symmetry, PCut= 1.00D-04
 Density has only Abelian symmetry.
 Density matrix breaks symmetry, PCut= 1.00D-04
 Density has only Abelian symmetry.
 Initial convergence to 1.0D-05 achieved.  Increase integral accuracy.
 Density matrix breaks symmetry, PCut= 1.00D-04
 Density has only Abelian symmetry.
 Density matrix breaks symmetry, PCut= 1.00D-04
 Density has only Abelian symmetry.
 Density matrix breaks symmetry, PCut= 1.00D-04
 Density has only Abelian symmetry.
 Density matrix breaks symmetry, PCut= 1.00D-04
 Density has only Abelian symmetry.
 Density matrix breaks symmetry, PCut= 1.00D-04
 Density has only Abelian symmetry.
 Density matrix breaks symmetry, PCut= 1.00D-04
 Density has only Abelian symmetry.
 Density matrix breaks symmetry, PCut= 1.00D-04
 Density has only Abelian symmetry.
 Density matrix breaks symmetry, PCut= 1.00D-04
 Density has only Abelian symmetry.
 Density matrix breaks symmetry, PCut= 1.00D-04
 Density has only Abelian symmetry.
 Density matrix breaks symmetry, PCut= 1.00D-04
 Density has only Abelian symmetry.
 Density matrix breaks symmetry, PCut= 1.00D-04
 Density has only Abelian symmetry.
 Density matrix breaks symmetry, PCut= 1.00D-04
 Density has only Abelian symmetry.
 Density matrix breaks symmetry, PCut= 1.00D-04
 Density has only Abelian symmetry.
 Density matrix breaks symmetry, PCut= 1.00D-04
 Density has only Abelian symmetry.
 SCF Done:  E(UB3LYP) =  -3763.14204268     A.U. after   21 cycles
             Convg  =    0.4861D-08             -V/T =  2.0034
 <Sx>= 0.0000 <Sy>= 0.0000 <Sz>= 0.5000 <S**2>= 0.7625 S= 0.5062
 <L.S>= 0.000000000000E+00
 Annihilation of the first spin contaminant:
 S**2 before annihilation     0.7625,   after     0.7501
 QCSCF skips out because SCF is already converged.

 **********************************************************************

            Population analysis using the SCF density.

 **********************************************************************

 Orbital symmetries:
 Alpha Orbitals:
       Occupied  (E) (E) (B1) (A1) (E) (E) (E) (E) (E) (E) (A1)
                 (E) (E) (A1) (E) (E) (B1) (E) (E) (E) (E) (E)
                 (E) (A1) (E) (E) (B2) (?A) (?A) (?B) (B2) (?B)
                 (?A) (?A) (B2) (?A) (?A) (?B) (B2) (?A) (?A) (?B)
                 (?A) (B2) (?B) (?A) (B2) (?A) (B2) (?A) (B2) (?A)
                 (?A) (?B) (B2) (?A) (E) (E) (A1) (?A) (B2) (?B)
                 (?A) (?A) (B2) (?C) (?D) (?D) (?C) (?C) (?C) (?E)
                 (?D) (?D) (?D) (?D) (?C) (?C) (?D) (?C) (?D) (?E)
                 (?C) (?D) (?D) (?E) (?C) (?C) (?D) (?D) (?D)
       Virtual   (?D) (?C) (?E) (?C) (?E) (?D) (?C) (?D) (?D) (?D)
                 (?C) (?D) (?D) (?C) (?C) (?D) (?D) (?E) (?C) (?E)
                 (?D) (?D) (?D) (?D) (?E) (?C) (?C) (?C) (?E) (?D)
                 (?D) (?C) (?E) (?D) (?D) (?C) (?C) (?D) (?D) (?C)
                 (?D) (?C) (?D) (?E) (?C) (?D) (?D) (?D) (?E) (?D)
                 (?E) (?C) (?C) (?C) (?D) (?C) (?D) (?D) (?D) (?D)
                 (?D) (?C) (?D) (?D) (?E) (?C) (?C) (?D) (?D) (?E)
                 (?E) (?D) (?D) (?D) (?D) (?E) (?C) (?C) (?D) (?C)
                 (?D) (?E) (?C) (?E) (?E) (?C) (?D) (?D) (?D) (?D)
                 (?C) (?E) (?C) (?D) (?E) (?D) (?D) (?D) (?C) (?C)
                 (?D) (?D) (?D) (?D) (?C) (?C) (?E) (?C) (?C) (?E)
                 (?D) (?D) (?D) (?D) (?C) (?E) (?C) (?E) (?C) (?D)
                 (?D) (?C) (?D) (?D) (?D) (?D) (?E) (?D) (?D) (?C)
                 (?C) (?E) (?D) (?D) (?E) (?D) (?D) (?C) (?D) (?D)
                 (?C) (?E) (?C) (?C) (?D) (?D) (?C) (?C) (?C) (?E)
                 (?D) (?D) (?E) (?C) (?D) (?D) (?C) (?D) (?D) (?C)
                 (?E) (?D) (?E) (?D) (?E) (?C) (?D) (?D) (?C) (?E)
                 (?D) (?D) (?C) (?D) (?C) (?D) (?C) (?D) (?D) (?E)
                 (?D) (?D) (?C) (?D) (?D) (?D) (?D) (?E) (?E) (?C)
                 (?C) (?C) (?D) (?D) (?E) (?E) (?C) (?D) (?D) (?C)
                 (?E) (?D) (?D) (?C) (?D) (?D) (?C) (?D) (?D) (?E)
                 (?E) (?C) (?D) (?D) (?C) (?D) (?D) (?C) (?D) (?D)
                 (?E) (?C) (?E) (?C) (?D) (?D) (?D) (?D) (?C) (?D)
                 (?D) (?E) (?C) (?E) (?D) (?D) (?C) (?C) (?E) (?E)
                 (?E) (?C) (?D) (?D) (?C) (?E) (?D) (?D) (?E) (?C)
                 (?D) (?D) (?C) (?C) (?D) (?D) (?C) (?D) (?D) (?E)
                 (?C) (?C) (?D) (?D) (?C) (?D) (?D) (?E) (?E) (?C)
                 (?E) (?D) (?D) (?D) (?D) (?D) (?D) (?E) (?C) (?C)
                 (?D) (?D) (?E) (?C) (?C) (?D) (?D) (?D) (?D) (?E)
                 (?C) (?C) (?D) (?D) (?E) (?C) (?C) (?D) (?D) (?D)
                 (?D) (?C) (?D) (?D) (?D) (?D) (E) (E) (?C) (B1)
                 (?C) (B2) (A2) (E) (E) (?C) (B1) (?C) (?C) (E)
                 (E) (A1) (E) (E) (B2)
 Beta  Orbitals:
       Occupied  (E) (E) (B1) (A1) (E) (E) (E) (E) (E) (E) (A1)
                 (E) (E) (A1) (E) (E) (B1) (E) (E) (E) (E) (E)
                 (E) (A1) (E) (E) (B2) (?A) (?A) (?B) (B2) (?A)
                 (?B) (?A) (B2) (?A) (?A) (?B) (B2) (?A) (?A) (B2)
                 (?A) (?B) (?B) (?A) (B2) (?A) (B2) (?A) (B2) (?A)
                 (?A) (?B) (B2) (?A) (E) (A1) (E) (?B) (?A) (?A)
                 (B2) (?A) (B2) (?C) (?D) (?D) (?C) (?C) (?C) (?E)
                 (?D) (?D) (?D) (?D) (?C) (?C) (?C) (?D) (?D) (?E)
                 (?D) (?C) (?D) (?E) (?C) (?C) (?D) (?D)
       Virtual   (?D) (?D) (?C) (?E) (?C) (?E) (?C) (?D) (?D) (?D)
                 (?D) (?C) (?D) (?D) (?C) (?C) (?D) (?D) (?E) (?C)
                 (?D) (?D) (?E) (?D) (?D) (?E) (?C) (?C) (?C) (?E)
                 (?D) (?C) (?D) (?E) (?D) (?D) (?C) (?D) (?C) (?D)
                 (?C) (?D) (?C) (?D) (?E) (?C) (?D) (?D) (?E) (?D)
                 (?D) (?E) (?C) (?C) (?C) (?C) (?D) (?D) (?D) (?D)
                 (?D) (?C) (?D) (?D) (?D) (?E) (?C) (?C) (?D) (?D)
                 (?E) (?E) (?D) (?D) (?D) (?D) (?E) (?C) (?C) (?D)
                 (?C) (?D) (?E) (?C) (?E) (?E) (?C) (?D) (?D) (?D)
                 (?D) (?C) (?E) (?C) (?D) (?E) (?D) (?D) (?D) (?C)
                 (?C) (?D) (?D) (?D) (?D) (?C) (?C) (?E) (?C) (?C)
                 (?D) (?E) (?D) (?D) (?D) (?C) (?E) (?C) (?E) (?C)
                 (?D) (?D) (?C) (?D) (?D) (?D) (?E) (?D) (?D) (?D)
                 (?C) (?C) (?E) (?D) (?D) (?E) (?D) (?D) (?C) (?D)
                 (?D) (?C) (?E) (?C) (?C) (?D) (?D) (?C) (?C) (?C)
                 (?E) (?D) (?D) (?E) (?C) (?D) (?D) (?C) (?D) (?D)
                 (?C) (?E) (?D) (?E) (?D) (?E) (?C) (?D) (?D) (?C)
                 (?E) (?D) (?D) (?C) (?D) (?C) (?D) (?C) (?D) (?D)
                 (?E) (?D) (?D) (?C) (?D) (?D) (?D) (?E) (?D) (?E)
                 (?C) (?C) (?C) (?D) (?D) (?E) (?E) (?C) (?D) (?D)
                 (?C) (?E) (?D) (?D) (?C) (?D) (?D) (?C) (?D) (?D)
                 (?E) (?E) (?C) (?D) (?D) (?C) (?D) (?D) (?C) (?D)
                 (?E) (?D) (?C) (?E) (?C) (?D) (?D) (?D) (?D) (?C)
                 (?D) (?D) (?E) (?C) (?E) (?D) (?D) (?C) (?C) (?E)
                 (?E) (?E) (?C) (?D) (?D) (?C) (?E) (?D) (?D) (?E)
                 (?C) (?D) (?D) (?C) (?C) (?D) (?D) (?C) (?D) (?E)
                 (?D) (?C) (?C) (?D) (?C) (?D) (?D) (?D) (?E) (?E)
                 (?C) (?E) (?D) (?D) (?D) (?D) (?D) (?D) (?E) (?C)
                 (?C) (?D) (?D) (?E) (?C) (?C) (?D) (?D) (?D) (?D)
                 (?E) (?C) (?C) (?D) (?D) (?E) (?C) (?C) (?D) (?D)
                 (?D) (?D) (?C) (?D) (?D) (?D) (?D) (?E) (?E) (?C)
                 (?E) (?C) (B2) (?E) (?F) (?F) (?C) (B1) (?C) (?C)
                 (?F) (?F) (A1) (?F) (?F) (B2)
 Unable to determine electronic state:  an orbital has unidentified symmetry.
 Alpha  occ. eigenvalues --  -66.30738 -66.30738 -66.30737 -66.30736 -66.29246
 Alpha  occ. eigenvalues --  -66.29246 -66.29181 -66.29180 -66.28442 -66.28441
 Alpha  occ. eigenvalues --  -66.27730 -66.27174 -66.27174  -5.45207  -5.45207
 Alpha  occ. eigenvalues --   -5.45206  -5.45204  -5.43805  -5.43805  -5.43704
 Alpha  occ. eigenvalues --   -5.43704  -5.43127  -5.43127  -5.42258  -5.41736
 Alpha  occ. eigenvalues --   -5.41736  -3.81222  -3.81220  -3.81220  -3.81219
 Alpha  occ. eigenvalues --   -3.81072  -3.81072  -3.81071  -3.81071  -3.80854
 Alpha  occ. eigenvalues --   -3.80851  -3.80850  -3.80847  -3.79839  -3.79838
 Alpha  occ. eigenvalues --   -3.79616  -3.79616  -3.79612  -3.79611  -3.79479
 Alpha  occ. eigenvalues --   -3.79478  -3.79469  -3.79468  -3.79416  -3.79416
 Alpha  occ. eigenvalues --   -3.79146  -3.79146  -3.78959  -3.78958  -3.78766
 Alpha  occ. eigenvalues --   -3.78766  -3.78121  -3.78082  -3.77983  -3.77622
 Alpha  occ. eigenvalues --   -3.77621  -3.77549  -3.77548  -3.77475  -3.77475
 Alpha  occ. eigenvalues --   -0.83281  -0.76327  -0.75841  -0.71152  -0.68822
 Alpha  occ. eigenvalues --   -0.62383  -0.59702  -0.59180  -0.58936  -0.53512
 Alpha  occ. eigenvalues --   -0.53322  -0.50515  -0.47258  -0.44685  -0.44671
 Alpha  occ. eigenvalues --   -0.44503  -0.42701  -0.40474  -0.40469  -0.40287
 Alpha  occ. eigenvalues --   -0.38413  -0.37639  -0.37055  -0.36047  -0.35533
 Alpha  occ. eigenvalues --   -0.30221
 Alpha virt. eigenvalues --   -0.27267  -0.25020  -0.24619  -0.22275  -0.19645
 Alpha virt. eigenvalues --   -0.18614  -0.18462  -0.18367  -0.17851  -0.17686
 Alpha virt. eigenvalues --   -0.17387  -0.15584  -0.15207  -0.12666  -0.11611
 Alpha virt. eigenvalues --   -0.10947  -0.10424  -0.09007  -0.08439  -0.07342
 Alpha virt. eigenvalues --   -0.07261  -0.07187  -0.06579  -0.06543  -0.05715
 Alpha virt. eigenvalues --   -0.03808  -0.02675  -0.01175  -0.00963   0.00304
 Alpha virt. eigenvalues --    0.00475   0.00495   0.01348   0.01495   0.01882
 Alpha virt. eigenvalues --    0.03555   0.04140   0.04511   0.05047   0.05776
 Alpha virt. eigenvalues --    0.06451   0.06486   0.06684   0.08683   0.09431
 Alpha virt. eigenvalues --    0.09908   0.10220   0.10552   0.10563   0.10629
 Alpha virt. eigenvalues --    0.10960   0.11726   0.11833   0.13773   0.13960
 Alpha virt. eigenvalues --    0.14013   0.14039   0.14952   0.15336   0.17014
 Alpha virt. eigenvalues --    0.17168   0.17197   0.17463   0.17557   0.18528
 Alpha virt. eigenvalues --    0.18564   0.19017   0.19370   0.19522   0.20065
 Alpha virt. eigenvalues --    0.21027   0.21334   0.21410   0.21942   0.22048
 Alpha virt. eigenvalues --    0.22203   0.22313   0.25629   0.27534   0.27987
 Alpha virt. eigenvalues --    0.28013   0.28369   0.28620   0.30464   0.31579
 Alpha virt. eigenvalues --    0.32817   0.33228   0.33343   0.34317   0.34482
 Alpha virt. eigenvalues --    0.34861   0.35091   0.36287   0.36413   0.36439
 Alpha virt. eigenvalues --    0.36617   0.38513   0.38581   0.38779   0.39564
 Alpha virt. eigenvalues --    0.40271   0.40428   0.41360   0.41443   0.43642
 Alpha virt. eigenvalues --    0.43833   0.44090   0.44309   0.44499   0.45544
 Alpha virt. eigenvalues --    0.45663   0.45749   0.47896   0.47942   0.48096
 Alpha virt. eigenvalues --    0.48995   0.52935   0.53203   0.53311   0.53472
 Alpha virt. eigenvalues --    0.53636   0.54711   0.55274   0.55297   0.57633
 Alpha virt. eigenvalues --    0.57836   0.57911   0.58033   0.58157   0.58384
 Alpha virt. eigenvalues --    0.61554   0.61733   0.62100   0.62553   0.63333
 Alpha virt. eigenvalues --    0.64105   0.64196   0.65608   0.65927   0.66057
 Alpha virt. eigenvalues --    0.68228   0.70574   0.71858   0.73187   0.73247
 Alpha virt. eigenvalues --    0.73351   0.74400   0.75283   0.76654   0.76707
 Alpha virt. eigenvalues --    0.80603   0.80793   0.81051   0.84070   0.84992
 Alpha virt. eigenvalues --    0.85093   0.86015   0.87886   0.88151   0.88271
 Alpha virt. eigenvalues --    0.89369   0.89476   0.89666   0.89853   0.90267
 Alpha virt. eigenvalues --    0.91670   0.93128   0.93249   0.95121   0.95416
 Alpha virt. eigenvalues --    0.96657   0.96988   0.98326   0.98826   0.98911
 Alpha virt. eigenvalues --    0.99122   0.99346   1.01600   1.01693   1.02190
 Alpha virt. eigenvalues --    1.04303   1.04637   1.05761   1.07634   1.08071
 Alpha virt. eigenvalues --    1.09680   1.09832   1.09849   1.10358   1.11616
 Alpha virt. eigenvalues --    1.12810   1.13377   1.13624   1.13754   1.14463
 Alpha virt. eigenvalues --    1.14533   1.16153   1.18200   1.18279   1.19474
 Alpha virt. eigenvalues --    1.20063   1.21136   1.21160   1.21577   1.21800
 Alpha virt. eigenvalues --    1.21878   1.22648   1.26776   1.26797   1.27224
 Alpha virt. eigenvalues --    1.27513   1.27857   1.28307   1.28409   1.28661
 Alpha virt. eigenvalues --    1.33460   1.33461   1.33528   1.35884   1.36102
 Alpha virt. eigenvalues --    1.36259   1.36688   1.37448   1.38508   1.38666
 Alpha virt. eigenvalues --    1.38678   1.39938   1.40217   1.41623   1.42751
 Alpha virt. eigenvalues --    1.42854   1.43763   1.43951   1.45794   1.46110
 Alpha virt. eigenvalues --    1.46328   1.48289   1.48778   1.50951   1.52358
 Alpha virt. eigenvalues --    1.52675   1.54516   1.57521   1.57817   1.61818
 Alpha virt. eigenvalues --    1.62484   1.62607   1.62941   1.67045   1.67324
 Alpha virt. eigenvalues --    1.68609   1.68660   1.68801   1.70937   1.71707
 Alpha virt. eigenvalues --    1.71891   1.72054   1.74622   1.75137   1.75138
 Alpha virt. eigenvalues --    1.75484   1.76037   1.77099   1.77160   1.77186
 Alpha virt. eigenvalues --    1.78387   1.78767   1.79838   1.80333   1.81625
 Alpha virt. eigenvalues --    1.81770   1.82171   1.82196   1.85504   1.85618
 Alpha virt. eigenvalues --    1.86484   1.86597   1.87671   1.87917   1.88701
 Alpha virt. eigenvalues --    1.90247   1.90262   1.90393   1.91610   1.94115
 Alpha virt. eigenvalues --    1.94355   1.94548   1.96069   1.96148   1.97101
 Alpha virt. eigenvalues --    1.98245   1.99839   2.00634   2.00662   2.07120
 Alpha virt. eigenvalues --    2.07531   2.09626   2.10007   2.10326   2.14804
 Alpha virt. eigenvalues --    2.14880   2.15534   2.18404   2.18608   2.24001
 Alpha virt. eigenvalues --    2.24191   2.24533   2.26306   2.27999   2.34639
 Alpha virt. eigenvalues --    2.37477   2.40597   2.46387   2.70924   2.71838
 Alpha virt. eigenvalues --    2.81590   2.85409   2.86975   2.91225   3.15730
 Alpha virt. eigenvalues --    3.16083   3.28209   3.35188   3.35302   4.06233
  Beta  occ. eigenvalues --  -66.30711 -66.30711 -66.30709 -66.30709 -66.29252
  Beta  occ. eigenvalues --  -66.29251 -66.29181 -66.29180 -66.28398 -66.28397
  Beta  occ. eigenvalues --  -66.27687 -66.27080 -66.27079  -5.45179  -5.45178
  Beta  occ. eigenvalues --   -5.45178  -5.45176  -5.43805  -5.43805  -5.43711
  Beta  occ. eigenvalues --   -5.43710  -5.43073  -5.43073  -5.42211  -5.41630
  Beta  occ. eigenvalues --   -5.41630  -3.81163  -3.81162  -3.81161  -3.81161
  Beta  occ. eigenvalues --   -3.81043  -3.81042  -3.81042  -3.81041  -3.80807
  Beta  occ. eigenvalues --   -3.80805  -3.80802  -3.80800  -3.79855  -3.79854
  Beta  occ. eigenvalues --   -3.79623  -3.79622  -3.79594  -3.79594  -3.79488
  Beta  occ. eigenvalues --   -3.79487  -3.79471  -3.79470  -3.79420  -3.79419
  Beta  occ. eigenvalues --   -3.79020  -3.79020  -3.78928  -3.78927  -3.78727
  Beta  occ. eigenvalues --   -3.78727  -3.78094  -3.77966  -3.77922  -3.77494
  Beta  occ. eigenvalues --   -3.77493  -3.77425  -3.77425  -3.77297  -3.77296
  Beta  occ. eigenvalues --   -0.83035  -0.76242  -0.75474  -0.70900  -0.68615
  Beta  occ. eigenvalues --   -0.61985  -0.59419  -0.59131  -0.58468  -0.53370
  Beta  occ. eigenvalues --   -0.52631  -0.50107  -0.47051  -0.44413  -0.44165
  Beta  occ. eigenvalues --   -0.44163  -0.42447  -0.40475  -0.39735  -0.39540
  Beta  occ. eigenvalues --   -0.38184  -0.37030  -0.36041  -0.35977  -0.35201
  Beta virt. eigenvalues --   -0.27196  -0.25436  -0.24596  -0.24526  -0.21906
  Beta virt. eigenvalues --   -0.19402  -0.18319  -0.18309  -0.18177  -0.17573
  Beta virt. eigenvalues --   -0.17233  -0.17203  -0.15393  -0.15030  -0.12474
  Beta virt. eigenvalues --   -0.11382  -0.10916  -0.09999  -0.08838  -0.07903
  Beta virt. eigenvalues --   -0.07062  -0.07005  -0.06911  -0.06391  -0.06259
  Beta virt. eigenvalues --   -0.05274  -0.03609  -0.02195  -0.01066  -0.00810
  Beta virt. eigenvalues --    0.00414   0.00630   0.00683   0.01514   0.01547
  Beta virt. eigenvalues --    0.02423   0.03597   0.04559   0.04611   0.05467
  Beta virt. eigenvalues --    0.06008   0.06511   0.06648   0.07017   0.08811
  Beta virt. eigenvalues --    0.09607   0.09945   0.10597   0.10645   0.10721
  Beta virt. eigenvalues --    0.10930   0.11119   0.11810   0.12025   0.13925
  Beta virt. eigenvalues --    0.14160   0.14164   0.14387   0.15177   0.15430
  Beta virt. eigenvalues --    0.17066   0.17355   0.17412   0.17613   0.17804
  Beta virt. eigenvalues --    0.18590   0.18673   0.19230   0.19476   0.19769
  Beta virt. eigenvalues --    0.20369   0.21098   0.21483   0.21626   0.22083
  Beta virt. eigenvalues --    0.22169   0.22362   0.22638   0.25959   0.27674
  Beta virt. eigenvalues --    0.28196   0.28309   0.28621   0.29086   0.30722
  Beta virt. eigenvalues --    0.31703   0.33172   0.33265   0.33805   0.34459
  Beta virt. eigenvalues --    0.34839   0.35138   0.35302   0.36441   0.36519
  Beta virt. eigenvalues --    0.36713   0.36807   0.38604   0.38962   0.39022
  Beta virt. eigenvalues --    0.39707   0.40460   0.40830   0.41464   0.41693
  Beta virt. eigenvalues --    0.43794   0.44015   0.44358   0.44513   0.44719
  Beta virt. eigenvalues --    0.45745   0.45756   0.46224   0.48115   0.48123
  Beta virt. eigenvalues --    0.48318   0.49255   0.53080   0.53368   0.53429
  Beta virt. eigenvalues --    0.53540   0.53965   0.54918   0.55491   0.55574
  Beta virt. eigenvalues --    0.57727   0.58158   0.58178   0.58248   0.58481
  Beta virt. eigenvalues --    0.58508   0.61719   0.62022   0.62170   0.62953
  Beta virt. eigenvalues --    0.63652   0.64222   0.64420   0.65785   0.66065
  Beta virt. eigenvalues --    0.66354   0.68495   0.70741   0.72034   0.73409
  Beta virt. eigenvalues --    0.73436   0.73630   0.74606   0.75477   0.76768
  Beta virt. eigenvalues --    0.76938   0.80878   0.81064   0.81110   0.84371
  Beta virt. eigenvalues --    0.85099   0.85261   0.86416   0.88111   0.88282
  Beta virt. eigenvalues --    0.88566   0.89450   0.89610   0.89940   0.90092
  Beta virt. eigenvalues --    0.90547   0.91910   0.93259   0.93611   0.95287
  Beta virt. eigenvalues --    0.95602   0.96801   0.97358   0.98367   0.98895
  Beta virt. eigenvalues --    0.99232   0.99656   0.99711   1.01894   1.01959
  Beta virt. eigenvalues --    1.02469   1.04386   1.05029   1.05935   1.07756
  Beta virt. eigenvalues --    1.08449   1.09936   1.10014   1.10043   1.10565
  Beta virt. eigenvalues --    1.11834   1.12988   1.13639   1.13707   1.14069
  Beta virt. eigenvalues --    1.14652   1.14859   1.16397   1.18408   1.18578
  Beta virt. eigenvalues --    1.19647   1.20269   1.21322   1.21351   1.21772
  Beta virt. eigenvalues --    1.21966   1.22179   1.22876   1.27025   1.27072
  Beta virt. eigenvalues --    1.27379   1.27790   1.28082   1.28439   1.28580
  Beta virt. eigenvalues --    1.28970   1.33558   1.33686   1.33736   1.35996
  Beta virt. eigenvalues --    1.36390   1.36423   1.36845   1.37668   1.38628
  Beta virt. eigenvalues --    1.38834   1.38885   1.40047   1.40545   1.41789
  Beta virt. eigenvalues --    1.42868   1.43090   1.44011   1.44164   1.45971
  Beta virt. eigenvalues --    1.46263   1.46679   1.48449   1.48977   1.51285
  Beta virt. eigenvalues --    1.52495   1.52764   1.54652   1.57619   1.57950
  Beta virt. eigenvalues --    1.61912   1.62544   1.62668   1.63069   1.67231
  Beta virt. eigenvalues --    1.67402   1.68723   1.68825   1.68909   1.71026
  Beta virt. eigenvalues --    1.71760   1.72113   1.72184   1.74657   1.75209
  Beta virt. eigenvalues --    1.75378   1.75740   1.76142   1.77156   1.77308
  Beta virt. eigenvalues --    1.77367   1.78466   1.78959   1.79966   1.80432
  Beta virt. eigenvalues --    1.81782   1.82057   1.82323   1.82339   1.85606
  Beta virt. eigenvalues --    1.85822   1.86568   1.86787   1.87782   1.88025
  Beta virt. eigenvalues --    1.88882   1.90370   1.90382   1.90551   1.91777
  Beta virt. eigenvalues --    1.94270   1.94445   1.94735   1.96180   1.96282
  Beta virt. eigenvalues --    1.97214   1.98351   1.99986   2.00698   2.00822
  Beta virt. eigenvalues --    2.07256   2.07665   2.09748   2.10099   2.10458
  Beta virt. eigenvalues --    2.14841   2.15019   2.15674   2.18465   2.18723
  Beta virt. eigenvalues --    2.24059   2.24361   2.24708   2.26450   2.28067
  Beta virt. eigenvalues --    2.34759   2.37615   2.40683   2.46518   2.70939
  Beta virt. eigenvalues --    2.72259   2.81799   2.85560   2.87235   2.91368
  Beta virt. eigenvalues --    3.15785   3.16362   3.28317   3.35256   3.35484
  Beta virt. eigenvalues --    4.06331
          Condensed to atoms (all electrons):
              1          2          3          4          5          6
     1  Si  13.458869   0.140919   0.000418   0.175831   0.005507   0.002569
     2  Si   0.140919  13.686100   0.159424  -0.006839   0.007312  -0.001334
     3  Si   0.000418   0.159424  13.293990  -0.008372   0.017231   0.007312
     4  Si   0.175831  -0.006839  -0.008372  13.417320  -0.008372  -0.006839
     5  Si   0.005507   0.007312   0.017231  -0.008372  13.293990   0.159424
     6  Si   0.002569  -0.001334   0.007312  -0.006839   0.159424  13.686100
     7  Si   0.005507   0.007312  -0.013138   0.010230   0.051389   0.159424
     8  Si   0.012810  -0.036243   0.078739   0.009310   0.078739  -0.036243
     9  Si   0.000418   0.159424   0.051389   0.010230  -0.013138   0.007312
    10  Si   0.175831  -0.006839   0.010230  -0.026637   0.010230  -0.006839
    11  Si  -0.037785   0.002569   0.005507   0.175831   0.000418   0.140919
    12  Si  -0.007027  -0.018233   0.165589   0.167288   0.165589  -0.018233
    13  Si  -0.007027  -0.018233   0.002748   0.002109   0.002748  -0.018233
              7          8          9         10         11         12
     1  Si   0.005507   0.012810   0.000418   0.175831  -0.037785  -0.007027
     2  Si   0.007312  -0.036243   0.159424  -0.006839   0.002569  -0.018233
     3  Si  -0.013138   0.078739   0.051389   0.010230   0.005507   0.165589
     4  Si   0.010230   0.009310   0.010230  -0.026637   0.175831   0.167288
     5  Si   0.051389   0.078739  -0.013138   0.010230   0.000418   0.165589
     6  Si   0.159424  -0.036243   0.007312  -0.006839   0.140919  -0.018233
     7  Si  13.293990   0.078739   0.017231  -0.008372   0.000418   0.002748
     8  Si   0.078739  13.784753   0.078739   0.009310   0.012810  -0.027372
     9  Si   0.017231   0.078739  13.293990  -0.008372   0.005507   0.002748
    10  Si  -0.008372   0.009310  -0.008372  13.417320   0.175831   0.002109
    11  Si   0.000418   0.012810   0.005507   0.175831  13.458869  -0.007027
    12  Si   0.002748  -0.027372   0.002748   0.002109  -0.007027  13.608839
    13  Si   0.165589  -0.027372   0.165589   0.167288  -0.007027  -0.000778
             13
     1  Si  -0.007027
     2  Si  -0.018233
     3  Si   0.002748
     4  Si   0.002109
     5  Si   0.002748
     6  Si  -0.018233
     7  Si   0.165589
     8  Si  -0.027372
     9  Si   0.165589
    10  Si   0.167288
    11  Si  -0.007027
    12  Si  -0.000778
    13  Si  13.608839
 Mulliken atomic charges:
              1
     1  Si   0.073159
     2  Si  -0.075337
     3  Si   0.228933
     4  Si   0.088910
     5  Si   0.228933
     6  Si  -0.075337
     7  Si   0.228933
     8  Si  -0.016720
     9  Si   0.228933
    10  Si   0.088910
    11  Si   0.073159
    12  Si  -0.036238
    13  Si  -0.036238
 Sum of Mulliken atomic charges =   1.00000
 Mulliken charges with hydrogens summed into heavy atoms:
              1
     1  Si   0.073159
     2  Si  -0.075337
     3  Si   0.228933
     4  Si   0.088910
     5  Si   0.228933
     6  Si  -0.075337
     7  Si   0.228933
     8  Si  -0.016720
     9  Si   0.228933
    10  Si   0.088910
    11  Si   0.073159
    12  Si  -0.036238
    13  Si  -0.036238
 Sum of Mulliken charges with hydrogens summed into heavy atoms =   1.00000
          Atomic-Atomic Spin Densities.
              1          2          3          4          5          6
     1  Si   0.131340  -0.018998   0.003774  -0.003773  -0.003237   0.001004
     2  Si  -0.018998   0.240926   0.010209  -0.002448   0.003411  -0.000738
     3  Si   0.003774   0.010209   0.054867   0.003627  -0.011335   0.003411
     4  Si  -0.003773  -0.002448   0.003627  -0.001479   0.003627  -0.002448
     5  Si  -0.003237   0.003411  -0.011335   0.003627   0.054867   0.010209
     6  Si   0.001004  -0.000738   0.003411  -0.002448   0.010209   0.240926
     7  Si  -0.003237   0.003411  -0.006846   0.000833   0.007032   0.010209
     8  Si   0.002420  -0.010472   0.000962   0.001091   0.000962  -0.010472
     9  Si   0.003774   0.010209   0.007032   0.000833  -0.006846   0.003411
    10  Si  -0.003773  -0.002448   0.000833   0.001104   0.000833  -0.002448
    11  Si  -0.006916   0.001004  -0.003237  -0.003773   0.003774  -0.018998
    12  Si   0.000061  -0.000254   0.000085   0.001678   0.000085  -0.000254
    13  Si   0.000061  -0.000254   0.000044   0.000005   0.000044  -0.000254
              7          8          9         10         11         12
     1  Si  -0.003237   0.002420   0.003774  -0.003773  -0.006916   0.000061
     2  Si   0.003411  -0.010472   0.010209  -0.002448   0.001004  -0.000254
     3  Si  -0.006846   0.000962   0.007032   0.000833  -0.003237   0.000085
     4  Si   0.000833   0.001091   0.000833   0.001104  -0.003773   0.001678
     5  Si   0.007032   0.000962  -0.006846   0.000833   0.003774   0.000085
     6  Si   0.010209  -0.010472   0.003411  -0.002448  -0.018998  -0.000254
     7  Si   0.054867   0.000962  -0.011335   0.003627   0.003774   0.000044
     8  Si   0.000962   0.107766   0.000962   0.001091   0.002420   0.000087
     9  Si  -0.011335   0.000962   0.054867   0.003627  -0.003237   0.000044
    10  Si   0.003627   0.001091   0.003627  -0.001479  -0.003773   0.000005
    11  Si   0.003774   0.002420  -0.003237  -0.003773   0.131340   0.000061
    12  Si   0.000044   0.000087   0.000044   0.000005   0.000061  -0.012369
    13  Si   0.000085   0.000087   0.000085   0.001678   0.000061   0.000004
             13
     1  Si   0.000061
     2  Si  -0.000254
     3  Si   0.000044
     4  Si   0.000005
     5  Si   0.000044
     6  Si  -0.000254
     7  Si   0.000085
     8  Si   0.000087
     9  Si   0.000085
    10  Si   0.001678
    11  Si   0.000061
    12  Si   0.000004
    13  Si  -0.012369
 Mulliken atomic spin densities:
              1
     1  Si   0.102500
     2  Si   0.233558
     3  Si   0.063427
     4  Si  -0.001123
     5  Si   0.063427
     6  Si   0.233558
     7  Si   0.063427
     8  Si   0.097866
     9  Si   0.063427
    10  Si  -0.001123
    11  Si   0.102500
    12  Si  -0.010723
    13  Si  -0.010723
 Sum of Mulliken atomic spin densities =   1.00000
 Electronic spatial extent (au):  <R**2>=           4486.7313
 Charge=              1.0000 electrons
 Dipole moment (field-independent basis, Debye):
    X=              0.0000    Y=              0.0000    Z=             -0.8415  Tot=              0.8415
 Quadrupole moment (field-independent basis, Debye-Ang):
   XX=           -133.9883   YY=           -148.0227   ZZ=           -149.8829
   XY=              0.0000   XZ=              0.0000   YZ=              0.0000
 Traceless Quadrupole moment (field-independent basis, Debye-Ang):
   XX=              9.9763   YY=             -4.0581   ZZ=             -5.9183
   XY=              0.0000   XZ=              0.0000   YZ=              0.0000
 Octapole moment (field-independent basis, Debye-Ang**2):
  XXX=              0.0000  YYY=              0.0000  ZZZ=            -17.1115  XYY=              0.0000
  XXY=              0.0000  XXZ=             -1.5041  XZZ=              0.0000  YZZ=              0.0000
  YYZ=              0.5818  XYZ=              0.0000
 Hexadecapole moment (field-independent basis, Debye-Ang**3):
 XXXX=          -2443.5484 YYYY=          -2725.3307 ZZZZ=          -1516.3587 XXXY=              0.0000
 XXXZ=              0.0000 YYYX=              0.0000 YYYZ=              0.0000 ZZZX=              0.0000
 ZZZY=              0.0000 XXYY=           -854.9395 XXZZ=           -683.9433 YYZZ=           -698.4251
 XXYZ=              0.0000 YYXZ=              0.0000 ZZXY=              0.0000
 N-N= 2.461362883925D+03 E-N=-2.076834133760D+04  KE= 5.625010863586D+03
 Symmetry A1   KE= 2.370795927227D+03
 Symmetry A2   KE= 5.824643808555D+02
 Symmetry B1   KE= 1.335217653734D+03
 Symmetry B2   KE= 1.336532901770D+03
                          Isotropic Fermi Contact Couplings
        Atom                 a.u.       MegaHertz       Gauss      10(-4) cm-1
     1  Si(29)             0.07263     -64.54531     -23.03137     -21.53000
     2  Si(29)             0.08243     -73.25701     -26.13992     -24.43591
     3  Si(29)            -0.01603      14.24312       5.08230       4.75099
     4  Si(29)            -0.00695       6.17859       2.20467       2.06095
     5  Si(29)            -0.01603      14.24312       5.08230       4.75099
     6  Si(29)             0.08243     -73.25701     -26.13992     -24.43591
     7  Si(29)            -0.01603      14.24312       5.08230       4.75099
     8  Si(29)             0.00435      -3.86210      -1.37809      -1.28826
     9  Si(29)            -0.01603      14.24312       5.08230       4.75099
    10  Si(29)            -0.00695       6.17859       2.20467       2.06095
    11  Si(29)             0.07263     -64.54531     -23.03137     -21.53000
    12  Si(29)            -0.00665       5.90784       2.10807       1.97064
    13  Si(29)            -0.00665       5.90784       2.10807       1.97064
 --------------------------------------------------------
       Center         ----  Spin Dipole Couplings  ----
                      3XX-RR        3YY-RR        3ZZ-RR
 --------------------------------------------------------
     1   Atom       -0.098417     -0.011537      0.109954
     2   Atom       -0.248462      0.441822     -0.193360
     3   Atom       -0.075057      0.172220     -0.097163
     4   Atom       -0.013846      0.058667     -0.044821
     5   Atom       -0.075057      0.172220     -0.097163
     6   Atom       -0.248462      0.441822     -0.193360
     7   Atom       -0.075057      0.172220     -0.097163
     8   Atom       -0.116948      0.258725     -0.141777
     9   Atom       -0.075057      0.172220     -0.097163
    10   Atom       -0.013846      0.058667     -0.044821
    11   Atom       -0.098417     -0.011537      0.109954
    12   Atom       -0.001352     -0.003309      0.004661
    13   Atom       -0.001352     -0.003309      0.004661
 --------------------------------------------------------
                        XY            XZ            YZ
 --------------------------------------------------------
     1   Atom        0.000000      0.000000     -0.135413
     2   Atom        0.000000      0.000000     -0.227797
     3   Atom       -0.070805     -0.009808      0.058711
     4   Atom        0.000000     -0.013306      0.000000
     5   Atom        0.070805     -0.009808     -0.058711
     6   Atom        0.000000      0.000000      0.227797
     7   Atom       -0.070805      0.009808     -0.058711
     8   Atom        0.000000      0.000000      0.000000
     9   Atom        0.070805      0.009808      0.058711
    10   Atom        0.000000      0.013306      0.000000
    11   Atom        0.000000      0.000000      0.135413
    12   Atom        0.000000     -0.007923      0.000000
    13   Atom        0.000000      0.007923      0.000000
 --------------------------------------------------------


 ---------------------------------------------------------------------------------
              Anisotropic Spin Dipole Couplings in Principal Axis System
 ---------------------------------------------------------------------------------

       Atom             a.u.   MegaHertz   Gauss  10(-4) cm-1        Axes

              Baa    -0.0992    10.524     3.755     3.510  0.0000  0.8394  0.5435
     1 Si(29) Bbb    -0.0984    10.440     3.725     3.483  1.0000  0.0000  0.0000
              Bcc     0.1976   -20.965    -7.481    -6.993  0.0000 -0.5435  0.8394
 
              Baa    -0.2666    28.283    10.092     9.434  0.0000  0.3061  0.9520
     2 Si(29) Bbb    -0.2485    26.358     9.405     8.792  1.0000  0.0000  0.0000
              Bcc     0.5151   -54.641   -19.497   -18.226  0.0000  0.9520 -0.3061
 
              Baa    -0.1107    11.742     4.190     3.917 -0.2545 -0.2572  0.9323
     3 Si(29) Bbb    -0.0921     9.769     3.486     3.259  0.9346  0.1825  0.3054
              Bcc     0.2028   -21.511    -7.676    -7.175 -0.2487  0.9490  0.1939
 
              Baa    -0.0498     5.278     1.883     1.761  0.3475  0.0000  0.9377
     4 Si(29) Bbb    -0.0089     0.946     0.337     0.315  0.9377  0.0000 -0.3475
              Bcc     0.0587    -6.224    -2.221    -2.076  0.0000  1.0000  0.0000
 
              Baa    -0.1107    11.742     4.190     3.917 -0.2545  0.2572  0.9323
     5 Si(29) Bbb    -0.0921     9.769     3.486     3.259  0.9346 -0.1825  0.3054
              Bcc     0.2028   -21.511    -7.676    -7.175  0.2487  0.9490 -0.1939
 
              Baa    -0.2666    28.283    10.092     9.434  0.0000 -0.3061  0.9520
     6 Si(29) Bbb    -0.2485    26.358     9.405     8.792  1.0000  0.0000  0.0000
              Bcc     0.5151   -54.641   -19.497   -18.226  0.0000  0.9520  0.3061
 
              Baa    -0.1107    11.742     4.190     3.917  0.2545  0.2572  0.9323
     7 Si(29) Bbb    -0.0921     9.769     3.486     3.259  0.9346  0.1825 -0.3054
              Bcc     0.2028   -21.511    -7.676    -7.175 -0.2487  0.9490 -0.1939
 
              Baa    -0.1418    15.040     5.367     5.017  0.0000  0.0000  1.0000
     8 Si(29) Bbb    -0.1169    12.406     4.427     4.138  1.0000  0.0000  0.0000
              Bcc     0.2587   -27.447    -9.794    -9.155  0.0000  1.0000  0.0000
 
              Baa    -0.1107    11.742     4.190     3.917  0.2545 -0.2572  0.9323
     9 Si(29) Bbb    -0.0921     9.769     3.486     3.259  0.9346 -0.1825 -0.3054
              Bcc     0.2028   -21.511    -7.676    -7.175  0.2487  0.9490  0.1939
 
              Baa    -0.0498     5.278     1.883     1.761 -0.3475  0.0000  0.9377
    10 Si(29) Bbb    -0.0089     0.946     0.337     0.315  0.9377  0.0000  0.3475
              Bcc     0.0587    -6.224    -2.221    -2.076  0.0000  1.0000  0.0000
 
              Baa    -0.0992    10.524     3.755     3.510  0.0000  0.8394 -0.5435
    11 Si(29) Bbb    -0.0984    10.440     3.725     3.483  1.0000  0.0000  0.0000
              Bcc     0.1976   -20.965    -7.481    -6.993  0.0000  0.5435  0.8394
 
              Baa    -0.0068     0.724     0.258     0.241  0.8230  0.0000  0.5680
    12 Si(29) Bbb    -0.0033     0.351     0.125     0.117  0.0000  1.0000  0.0000
              Bcc     0.0101    -1.075    -0.383    -0.358 -0.5680  0.0000  0.8230
 
              Baa    -0.0068     0.724     0.258     0.241  0.8230  0.0000 -0.5680
    13 Si(29) Bbb    -0.0033     0.351     0.125     0.117  0.0000  1.0000  0.0000
              Bcc     0.0101    -1.075    -0.383    -0.358  0.5680  0.0000  0.8230
 

 ---------------------------------------------------------------------------------

 Density matrix has only Abelian symmetry.
 Density matrix has only Abelian symmetry.
 Calling FoFJK, ICntrl=      2127 FMM=F ISym2X=1 I1Cent= 0 IOpClX= 1 NMat=1 NMatS=1 NMatT=0.
 ***** Axes restored to original set *****
 -------------------------------------------------------------------
 Center     Atomic                   Forces (Hartrees/Bohr)
 Number     Number              X              Y              Z
 -------------------------------------------------------------------
      1       14           0.000000000   -0.011740730   -0.009806192
      2       14           0.000000000   -0.037743682   -0.003562623
      3       14          -0.014320862    0.000026692    0.011199316
      4       14           0.008948907    0.000000000   -0.001307797
      5       14          -0.014320862   -0.000026692    0.011199316
      6       14           0.000000000    0.037743682   -0.003562623
      7       14           0.014320862   -0.000026692    0.011199316
      8       14           0.000000000    0.000000000   -0.001459910
      9       14           0.014320862    0.000026692    0.011199316
     10       14          -0.008948907    0.000000000   -0.001307797
     11       14           0.000000000    0.011740730   -0.009806192
     12       14           0.016156195    0.000000000   -0.006992066
     13       14          -0.016156195    0.000000000   -0.006992066
 -------------------------------------------------------------------
 Cartesian Forces:  Max     0.037743682 RMS     0.011821492

 GradGradGradGradGradGradGradGradGradGradGradGradGradGradGradGradGradGrad
 Berny optimization.
 Internal  Forces:  Max     0.016087399 RMS     0.003647449
 Search for a local minimum.
 Step number   1 out of a maximum of  100
 All quantities printed in internal units (Hartrees-Bohrs-Radians)
 Mixed Optimization -- RFO/linear search
 Second derivative matrix not updated -- first step.
     Eigenvalues ---    0.02729   0.03118   0.03854   0.04076   0.04076
     Eigenvalues ---    0.06856   0.06856   0.07344   0.07494   0.07555
     Eigenvalues ---    0.07555   0.08094   0.08344   0.08344   0.09347
     Eigenvalues ---    0.10373   0.10373   0.10491   0.11462   0.11567
     Eigenvalues ---    0.11680   0.12264   0.12264   0.12984   0.12984
     Eigenvalues ---    0.13048   0.13310   0.13409   0.13552   0.13988
     Eigenvalues ---    0.14354   0.14354   0.164921000.000001000.00000
     Eigenvalues --- 1000.000001000.000001000.000001000.000001000.00000
     Eigenvalues --- 1000.000001000.000001000.000001000.000001000.00000
     Eigenvalues --- 1000.000001000.000001000.000001000.000001000.00000
     Eigenvalues --- 1000.000001000.000001000.000001000.000001000.00000
     Eigenvalues --- 1000.000001000.000001000.000001000.000001000.00000
     Eigenvalues --- 1000.000001000.000001000.000001000.000001000.00000
     Eigenvalues --- 1000.000001000.000001000.000001000.000001000.00000
     Eigenvalues --- 1000.000001000.000001000.000001000.000001000.00000
     Eigenvalues --- 1000.000001000.000001000.000001000.000001000.00000
     Eigenvalues --- 1000.000001000.000001000.000001000.000001000.00000
     Eigenvalues --- 1000.000001000.000001000.000001000.000001000.00000
     Eigenvalues --- 1000.000001000.000001000.000001000.000001000.00000
     Eigenvalues --- 1000.000001000.000001000.000001000.000001000.00000
     Eigenvalues --- 1000.000001000.000001000.000001000.000001000.00000
     Eigenvalues --- 1000.000001000.000001000.000001000.000001000.00000
     Eigenvalues --- 1000.000001000.000001000.000001000.000001000.00000
     Eigenvalues --- 1000.000001000.000001000.000001000.000001000.00000
     Eigenvalues --- 1000.000001000.000001000.000001000.000001000.00000
     Eigenvalues --- 1000.000001000.000001000.000001000.000001000.00000
     Eigenvalues --- 1000.000001000.000001000.000001000.000001000.00000
     Eigenvalues --- 1000.000001000.000001000.000001000.000001000.00000
     Eigenvalues --- 1000.000001000.000001000.000001000.000001000.00000
     Eigenvalues --- 1000.000001000.000001000.000001000.000001000.00000
     Eigenvalues --- 1000.000001000.000001000.000001000.000001000.00000
     Eigenvalues --- 1000.000001000.000001000.000001000.000001000.00000
     Eigenvalues --- 1000.000001000.000001000.000001000.000001000.00000
     Eigenvalues --- 1000.000001000.000001000.000001000.000001000.00000
     Eigenvalues --- 1000.000001000.000001000.000001000.000001000.00000
     Eigenvalues --- 1000.000001000.000001000.000001000.000001000.00000
     Eigenvalues --- 1000.000001000.000001000.000001000.000001000.00000
     Eigenvalues --- 1000.000001000.000001000.000001000.000001000.00000
     Eigenvalues --- 1000.000001000.000001000.000001000.000001000.00000
     Eigenvalues --- 1000.000001000.000001000.000001000.000001000.00000
     Eigenvalues --- 1000.000001000.000001000.000001000.000001000.00000
     Eigenvalues --- 1000.000001000.000001000.000001000.000001000.00000
     Eigenvalues --- 1000.000001000.000001000.000001000.00000
 RFO step:  Lambda=-1.97434692D-02 EMin= 2.72947066D-02
 Linear search not attempted -- first point.
 Maximum step size (   0.300) exceeded in Quadratic search.
    -- Step size scaled by   0.795
 Iteration  1 RMS(Cart)=  0.01678266 RMS(Int)=  0.00020397
 Iteration  2 RMS(Cart)=  0.00006822 RMS(Int)=  0.00015542
 Iteration  3 RMS(Cart)=  0.00000000 RMS(Int)=  0.00015542
 Variable       Old X    -DE/DX   Delta X   Delta X   Delta X     New X
                                 (Linear)    (Quad)   (Total)
    R1        4.40227   0.00969   0.00000   0.05090   0.05101   4.45328
    R2        5.01916   0.00123   0.00000   0.00295   0.00276   5.02192
    R3        4.39243   0.00861   0.00000   0.04193   0.04197   4.43440
    R4        5.01916   0.00123   0.00000   0.00295   0.00276   5.02192
    R5        4.39243   0.00861   0.00000   0.04193   0.04197   4.43440
    R6        4.38617   0.01609   0.00000   0.08061   0.08097   4.46714
    R7        4.38617   0.01609   0.00000   0.08061   0.08097   4.46714
    R8        5.01916   0.00310   0.00000   0.02413   0.02415   5.04331
    R9        5.16999   0.00775   0.00000   0.06129   0.06128   5.23127
   R10        4.77450  -0.00126   0.00000  -0.00753  -0.00747   4.76703
   R11        5.16999  -0.00933   0.00000  -0.06605  -0.06655   5.10344
   R12        4.38617   0.00964   0.00000   0.05398   0.05398   4.44015
   R13        5.01916   0.00310   0.00000   0.02413   0.02415   5.04331
   R14        4.39243   0.00861   0.00000   0.04193   0.04197   4.43440
   R15        4.40227   0.00032   0.00000  -0.00279  -0.00287   4.39939
   R16        4.38617   0.01609   0.00000   0.08061   0.08097   4.46714
   R17        5.16999  -0.00933   0.00000  -0.06605  -0.06655   5.10344
   R18        4.77450  -0.00126   0.00000  -0.00753  -0.00747   4.76703
   R19        5.01916   0.00123   0.00000   0.00295   0.00276   5.02192
   R20        4.38617   0.00964   0.00000   0.05398   0.05398   4.44015
   R21        4.38617   0.01609   0.00000   0.08061   0.08097   4.46714
   R22        4.40227   0.00969   0.00000   0.05090   0.05101   4.45328
   R23        4.77450  -0.00126   0.00000  -0.00753  -0.00747   4.76703
   R24        5.16999   0.00775   0.00000   0.06129   0.06128   5.23127
   R25        5.01916   0.00310   0.00000   0.02413   0.02415   5.04331
   R26        5.01916   0.00123   0.00000   0.00295   0.00276   5.02192
   R27        4.38617   0.00964   0.00000   0.05398   0.05398   4.44015
   R28        4.77450  -0.00126   0.00000  -0.00753  -0.00747   4.76703
   R29        5.01916   0.00310   0.00000   0.02413   0.02415   5.04331
   R30        4.38617   0.00964   0.00000   0.05398   0.05398   4.44015
   R31        4.39243   0.00861   0.00000   0.04193   0.04197   4.43440
   R32        4.40227   0.00032   0.00000  -0.00279  -0.00287   4.39939
    A1        2.05395   0.00202   0.00000   0.01231   0.01221   2.06616
    A2        2.05395   0.00202   0.00000   0.01231   0.01221   2.06616
    A3        1.86585  -0.00316   0.00000  -0.01517  -0.01510   1.85074
    A4        1.86585  -0.00316   0.00000  -0.01517  -0.01510   1.85074
    A5        1.57080  -0.00330   0.00000  -0.01562  -0.01555   1.55525
    A6        1.67477   0.00145   0.00000   0.00460   0.00460   1.67937
    A7        1.90143   0.00221   0.00000   0.01219   0.01223   1.91366
    A8        1.85178  -0.00013   0.00000  -0.00370  -0.00368   1.84810
    A9        1.85178   0.00190   0.00000   0.00909   0.00890   1.86068
   A10        2.46256   0.00382   0.00000   0.02026   0.01977   2.48233
   A11        1.81504   0.00449   0.00000   0.02945   0.02910   1.84415
   A12        2.62631  -0.00271   0.00000  -0.01597  -0.01588   2.61044
   A13        1.90143  -0.00063   0.00000  -0.00561  -0.00572   1.89571
   A14        1.67477   0.00106   0.00000   0.00719   0.00718   1.68195
   A15        1.57080   0.00000   0.00000   0.00000   0.00000   1.57080
   A16        1.81504  -0.00078   0.00000  -0.00915  -0.00922   1.80582
[...]
   XY=              0.0000   XZ=              0.0000   YZ=              0.0000
 Octapole moment (field-independent basis, Debye-Ang**2):
  XXX=              0.0000  YYY=              0.0000  ZZZ=            -27.7951  XYY=              0.0000
  XXY=              0.0000  XXZ=             -8.7834  XZZ=              0.0000  YZZ=              0.0000
  YYZ=             -2.1697  XYZ=              0.0000
 Hexadecapole moment (field-independent basis, Debye-Ang**3):
 XXXX=          -2596.6031 YYYY=          -3063.2678 ZZZZ=          -1590.5507 XXXY=              0.0000
 XXXZ=              0.0000 YYYX=              0.0000 YYYZ=              0.0000 ZZZX=              0.0000
 ZZZY=              0.0000 XXYY=           -926.8588 XXZZ=           -704.8884 YYZZ=           -766.2581
 XXYZ=              0.0000 YYXZ=              0.0000 ZZXY=              0.0000
 N-N= 2.416827150850D+03 E-N=-2.064111409176D+04  KE= 5.633047027210D+03
 Symmetry A1   KE= 2.373885623166D+03
 Symmetry A2   KE= 5.834895245318D+02
 Symmetry B1   KE= 1.337260371865D+03
 Symmetry B2   KE= 1.338411507647D+03
                          Isotropic Fermi Contact Couplings
        Atom                 a.u.       MegaHertz       Gauss      10(-4) cm-1
     1  Si(29)             0.23584    -209.60115     -74.79090     -69.91542
     2  Si(29)             0.04179     -37.14003     -13.25249     -12.38858
     3  Si(29)            -0.07021      62.39784      22.26510      20.81368
     4  Si(29)            -0.12335     109.62140      39.11564      36.56576
     5  Si(29)            -0.07021      62.39784      22.26510      20.81368
     6  Si(29)             0.04179     -37.14003     -13.25249     -12.38858
     7  Si(29)            -0.07021      62.39784      22.26510      20.81368
     8  Si(29)             0.00556      -4.94192      -1.76340      -1.64845
     9  Si(29)            -0.07021      62.39784      22.26510      20.81368
    10  Si(29)            -0.12335     109.62140      39.11564      36.56576
    11  Si(29)             0.23584    -209.60115     -74.79090     -69.91542
    12  Si(29)            -0.04008      35.62234      12.71094      11.88233
    13  Si(29)            -0.04008      35.62234      12.71094      11.88233
 --------------------------------------------------------
       Center         ----  Spin Dipole Couplings  ----
                      3XX-RR        3YY-RR        3ZZ-RR
 --------------------------------------------------------
     1   Atom       -0.218577     -0.056446      0.275024
     2   Atom       -0.329011      0.628566     -0.299555
     3   Atom       -0.111893      0.273243     -0.161350
     4   Atom        0.008221      0.135701     -0.143922
     5   Atom       -0.111893      0.273243     -0.161350
     6   Atom       -0.329011      0.628566     -0.299555
     7   Atom       -0.111893      0.273243     -0.161350
     8   Atom        0.231695     -0.006641     -0.225054
     9   Atom       -0.111893      0.273243     -0.161350
    10   Atom        0.008221      0.135701     -0.143922
    11   Atom       -0.218577     -0.056446      0.275024
    12   Atom       -0.046440     -0.031299      0.077739
    13   Atom       -0.046440     -0.031299      0.077739
 --------------------------------------------------------
                        XY            XZ            YZ
 --------------------------------------------------------
     1   Atom        0.000000      0.000000     -0.254978
     2   Atom        0.000000      0.000000     -0.364253
     3   Atom       -0.108168      0.082445      0.161740
     4   Atom        0.000000     -0.182100      0.000000
     5   Atom        0.108168      0.082445     -0.161740
     6   Atom        0.000000      0.000000      0.364253
     7   Atom       -0.108168     -0.082445     -0.161740
     8   Atom        0.000000      0.000000      0.000000
     9   Atom        0.108168     -0.082445      0.161740
    10   Atom        0.000000      0.182100      0.000000
    11   Atom        0.000000      0.000000      0.254978
    12   Atom        0.000000      0.034078      0.000000
    13   Atom        0.000000     -0.034078      0.000000
 --------------------------------------------------------


 ---------------------------------------------------------------------------------
              Anisotropic Spin Dipole Couplings in Principal Axis System
 ---------------------------------------------------------------------------------

       Atom             a.u.   MegaHertz   Gauss  10(-4) cm-1        Axes

              Baa    -0.2186    23.188     8.274     7.735  1.0000  0.0000  0.0000
     1 Si(29) Bbb    -0.1948    20.667     7.375     6.894  0.0000  0.8789  0.4770
              Bcc     0.4134   -43.855   -15.648   -14.628  0.0000 -0.4770  0.8789
 
              Baa    -0.4254    45.132    16.104    15.054  0.0000  0.3266  0.9452
     2 Si(29) Bbb    -0.3290    34.903    12.454    11.642  1.0000  0.0000  0.0000
              Bcc     0.7544   -80.035   -28.558   -26.697  0.0000  0.9452 -0.3266
 
              Baa    -0.2898    30.745    10.970    10.255 -0.5535 -0.3264  0.7662
     3 Si(29) Bbb    -0.0507     5.381     1.920     1.795  0.8141 -0.0180  0.5804
              Bcc     0.3405   -36.126   -12.890   -12.050 -0.1757  0.9451  0.2757
 
              Baa    -0.2652    28.134    10.039     9.384  0.5543  0.0000  0.8323
     4 Si(29) Bbb     0.1295   -13.738    -4.902    -4.582  0.8323  0.0000 -0.5543
              Bcc     0.1357   -14.396    -5.137    -4.802  0.0000  1.0000  0.0000
 
              Baa    -0.2898    30.745    10.970    10.255 -0.5535  0.3264  0.7662
     5 Si(29) Bbb    -0.0507     5.381     1.920     1.795  0.8141  0.0180  0.5804
              Bcc     0.3405   -36.126   -12.890   -12.050  0.1757  0.9451 -0.2757
 
              Baa    -0.4254    45.132    16.104    15.054  0.0000 -0.3266  0.9452
     6 Si(29) Bbb    -0.3290    34.903    12.454    11.642  1.0000  0.0000  0.0000
              Bcc     0.7544   -80.035   -28.558   -26.697  0.0000  0.9452  0.3266
 
              Baa    -0.2898    30.745    10.970    10.255  0.5535  0.3264  0.7662
     7 Si(29) Bbb    -0.0507     5.381     1.920     1.795  0.8141 -0.0180 -0.5804
              Bcc     0.3405   -36.126   -12.890   -12.050 -0.1757  0.9451 -0.2757
 
              Baa    -0.2251    23.875     8.519     7.964  0.0000  0.0000  1.0000
     8 Si(29) Bbb    -0.0066     0.704     0.251     0.235  0.0000  1.0000  0.0000
              Bcc     0.2317   -24.579    -8.770    -8.199  1.0000  0.0000  0.0000
 
              Baa    -0.2898    30.745    10.970    10.255  0.5535 -0.3264  0.7662
     9 Si(29) Bbb    -0.0507     5.381     1.920     1.795  0.8141  0.0180 -0.5804
              Bcc     0.3405   -36.126   -12.890   -12.050  0.1757  0.9451  0.2757
 
              Baa    -0.2652    28.134    10.039     9.384 -0.5543  0.0000  0.8323
    10 Si(29) Bbb     0.1295   -13.738    -4.902    -4.582  0.8323  0.0000  0.5543
              Bcc     0.1357   -14.396    -5.137    -4.802  0.0000  1.0000  0.0000
 
              Baa    -0.2186    23.188     8.274     7.735  1.0000  0.0000  0.0000
    11 Si(29) Bbb    -0.1948    20.667     7.375     6.894  0.0000  0.8789 -0.4770
              Bcc     0.4134   -43.855   -15.648   -14.628  0.0000  0.4770  0.8789
 
              Baa    -0.0552     5.853     2.089     1.952  0.9687  0.0000 -0.2484
    12 Si(29) Bbb    -0.0313     3.320     1.185     1.108  0.0000  1.0000  0.0000
              Bcc     0.0865    -9.174    -3.273    -3.060  0.2484  0.0000  0.9687
 
              Baa    -0.0552     5.853     2.089     1.952  0.9687  0.0000  0.2484
    13 Si(29) Bbb    -0.0313     3.320     1.185     1.108  0.0000  1.0000  0.0000
              Bcc     0.0865    -9.174    -3.273    -3.060 -0.2484  0.0000  0.9687
 

 ---------------------------------------------------------------------------------

 1\1\GINC-NODE76\SP\UHF\GFHFB2\Si13(1+,2)\TAM\09-Jan-2012\0\\#N Geom=Al
 lCheck Guess=TCheck SCRF=Check HF/GFHFB2 SCF=Tight\\si13-c-d\\1,2\Si,0
 ,0.,-1.721710027,-1.5396408483\Si,0,0.,-3.4118195755,0.154282626\Si,0,
 1.2666100879,-1.4530570206,0.7781558551\Si,0,1.6442325787,0.,-1.463899
 5229\Si,0,1.2666100879,1.4530570206,0.7781558551\Si,0,0.,3.4118195755,
 0.154282626\Si,0,-1.2666100879,1.4530570206,0.7781558551\Si,0,0.,0.,2.
 4011889699\Si,0,-1.2666100879,-1.4530570206,0.7781558551\Si,0,-1.64423
 25787,0.,-1.4638995229\Si,0,0.,1.721710027,-1.5396408483\Si,0,3.167085
 2836,0.,0.2935335743\Si,0,-3.1670852836,0.,0.2935335743\\Version=AM64L
 -G09RevA.02\State=2-B2\HF=-3755.8802972\S2=0.976135\S2-1=0.\S2A=0.7993
 6\RMSD=3.217e-11\Dipole=0.,0.,-0.6889099\Quadrupole=2.0898017,1.783081
 6,-3.8728833,0.,0.,0.\PG=C02V [C2(Si1),SGV(Si4),SGV'(Si4),X(Si4)]\\@


 I FIND THAT THE THREE TRULY GREAT TIMES FOR THINKING THOUGHTS
 ARE WHEN I AM STANDING IN THE SHOWER, SITTING ON THE JOHN, OR WALKING.

                                    -- COLIN FLETCHER
 Diagonal vibrational polarizability:
        0.0000000       0.0000000       0.0000000

 Temperature=              298.150000 Pressure=                      1.000000
 E(ZPE)=                     0.020447 E(Thermal)=                    0.038897
 E(CCSD(T))=             -3756.812407 E(Empiric)=                   -0.180641
 DE(Plus)=                  -0.032845 DE(2DF)=                      -0.448110
 E(Delta-G3XP)=             -4.075592 DE(HF)=                       -0.086108
 G4(0 K)=                -3761.615257 G4 Energy=                 -3761.596807
 G4 Enthalpy=            -3761.595863 G4 Free Energy=            -3761.660053
 1\1\GINC-NODE76\Mixed\G4\G4\Si13(1+,2)\TAM\09-Jan-2012\0\\# G4 scfcyc=
 500 scf=xqc\\si13-c-d\\1,2\Si,0,0.,-1.721710027,-1.5396408483\Si,0,0.,
 -3.4118195755,0.154282626\Si,0,1.2666100879,-1.4530570206,0.7781558551
 \Si,0,1.6442325787,0.,-1.4638995229\Si,0,1.2666100879,1.4530570206,0.7
 781558551\Si,0,0.,3.4118195755,0.154282626\Si,0,-1.2666100879,1.453057
 0206,0.7781558551\Si,0,0.,0.,2.4011889699\Si,0,-1.2666100879,-1.453057
 0206,0.7781558551\Si,0,-1.6442325787,0.,-1.4638995229\Si,0,0.,1.721710
 027,-1.5396408483\Si,0,3.1670852836,0.,0.2935335743\Si,0,-3.1670852836
 ,0.,0.2935335743\\Version=AM64L-G09RevA.02\State=2-B2\MP2/GTBas1=-3756
 .7178278\MP4/GTBas1=-3756.8884499\CCSD(T)/G3Bas1=-3756.8124074\MP2/GTB
 as2=-3756.7478735\MP4/GTBas2=-3756.921295\MP2/GTBas3=-3757.1249113\MP4
 /GTBas3=-3757.3365597\HF/GTLargeXP=-3755.797479\MP2/GTLargeXP=-3761.23
 05491\HF/GFHFB1=-3755.8667957\HF/GFHFB2=-3755.8802972\G4=-3761.6152568
 \FreqCoord=0.,-3.2535604313,-2.9094995463,0.,-6.4474046126,0.291551910
 2,2.3935461832,-2.7458798243,1.4705014549,3.1071492725,0.,-2.766369184
 3,2.3935461832,2.7458798243,1.4705014549,0.,6.4474046126,0.2915519102,
 -2.3935461832,2.7458798243,1.4705014549,0.,0.,4.5375895464,-2.39354618
 32,-2.7458798243,1.4705014549,-3.1071492725,0.,-2.7663691843,0.,3.2535
 604313,-2.9094995463,5.9849238255,0.,0.5546980662,-5.9849238255,0.,0.5
 546980662\PG=C02V [C2(Si1),SGV(Si4),SGV'(Si4),X(Si4)]\NImag=0\\0.08683
 979,0.,0.12094824,0.,-0.02327416,0.06514583,-0.01040549,0.,0.,0.046239
 42,0.,-0.03606089,0.03237599,0.,0.11589843,0.,0.03922129,-0.02663204,0
 .,-0.00964962,0.04851775,-0.00369823,0.00110474,-0.00614864,-0.0182434
 6,-0.02046081,-0.00290341,0.09701124,0.00564849,-0.00181293,-0.0047721
 5,-0.02832168,-0.03600788,-0.01443112,0.03128534,0.08710872,-0.0050919
 1,-0.00268040,-0.01158205,-0.00388915,-0.01402545,-0.00703914,-0.00582
 282,0.00919457,0.03906262,-0.02795208,-0.02623709,-0.00299341,0.000621
 78,0.00100968,0.00285408,-0.00169804,-0.00193985,0.00248958,0.12543939
 ,-0.03297674,-0.03014349,0.00117236,-0.00099670,-0.00366169,0.00134807
 ,0.00259920,-0.00347478,0.00370598,0.,0.08932330,-0.00389832,0.0022592
 7,-0.00191051,0.00051152,-0.00030617,-0.00085955,0.00461439,0.00487009
 ,-0.01277756,0.03562444,0.,0.08069740,-0.00105970,-0.00007586,0.000903
 57,-0.00256584,0.00611380,-0.00140145,0.00534070,-0.00623589,-0.003026
 19,-0.00169804,-0.00259920,0.00461439,0.09701124,-0.00419475,-0.001992
 53,-0.00138823,-0.00107931,-0.00262057,0.00195723,0.00623589,-0.006026
 17,-0.00026656,0.00193984,-0.00347478,-0.00487009,-0.03128534,0.087108
 72,-0.00217782,-0.00364553,-0.00006931,0.00011011,-0.00012347,-0.00179
 089,-0.00302619,0.00026656,0.00379315,0.00248958,-0.00370598,-0.012777
 56,-0.00582282,-0.00919457,0.03906262,-0.00180203,0.,0.,0.00175902,0.,
 0.,-0.00256584,0.00107931,0.00011011,0.00062178,0.00099670,0.00051152,
 -0.01824346,0.02832168,-0.00388915,0.04623942,0.,0.00241701,-0.0020344
 8,0.,-0.00610792,-0.00072339,-0.00611380,-0.00262057,0.00012347,-0.001
 00968,-0.00366169,0.00030617,0.02046081,-0.03600788,0.01402544,0.,0.11
 589843,0.,0.00155040,-0.00126110,0.,0.00072339,0.00327543,-0.00140145,
 -0.00195723,-0.00179089,0.00285408,-0.00134807,-0.00085955,-0.00290341
 ,0.01443112,-0.00703914,0.,0.00964962,0.04851775,-0.00105970,0.0000758
 6,-0.00090357,-0.00256584,-0.00611380,0.00140145,-0.00701446,0.0034139
 3,0.00236248,-0.00230364,0.00366509,0.00087449,-0.02908129,-0.00722928
 ,0.00384629,-0.01824346,-0.02046081,0.00290341,0.09701124,0.00419475,-
 0.00199253,-0.00138823,0.00107931,-0.00262057,0.00195723,0.00341393,-0
 .00329871,-0.00227012,-0.00001198,0.00056090,-0.00000402,0.00722928,0.
 00144952,-0.00449464,-0.02832168,-0.03600788,0.01443112,0.03128534,0.0
 8710872,0.00217782,-0.00364552,-0.00006931,-0.00011011,-0.00012347,-0.
 00179089,-0.00236248,0.00227012,0.00273935,0.00366613,-0.00238201,0.00
 031409,-0.00384629,-0.00449464,0.00562106,0.00388915,0.01402545,-0.007
 03914,0.00582282,-0.00919457,0.03906262,0.00209991,0.,0.,-0.00135725,0
 .,0.,-0.00588902,0.00819248,0.00695669,-0.00637320,0.,0.00291947,-0.00
 588902,-0.00819248,0.00695669,-0.00135725,0.,0.,-0.00588902,0.00819248
 ,-0.00695669,0.03605035,0.,-0.00606091,-0.00366652,0.,0.00076483,-0.00
 515476,0.00798969,-0.00899080,-0.00583252,0.,0.00333765,0.,-0.00798969
 ,-0.00899080,0.00583252,0.,0.00076483,0.00515476,0.00798969,-0.0089908
 0,0.00583252,0.,0.04211882,0.,0.00147441,-0.00584685,0.,0.00302717,0.0
 0027986,0.00759206,-0.00946535,-0.01644145,-0.00079400,0.,-0.00512208,
 0.00759206,0.00946535,-0.01644145,0.,-0.00302717,0.00027986,-0.0075920
 6,0.00946535,-0.01644145,0.,0.,0.09145227,-0.00369823,-0.00110474,0.00
 614864,-0.01824346,0.02046081,0.00290341,-0.02908129,0.00722928,0.0038
 4629,-0.00230364,-0.00366509,0.00087448,-0.00701446,-0.00341393,0.0023
 6248,-0.00256584,0.00611380,0.00140145,0.00534070,-0.00623589,0.003026
 19,-0.00588902,-0.00798969,-0.00759206,0.09701124,-0.00564849,-0.00181
 293,-0.00477215,0.02832168,-0.03600788,-0.01443112,-0.00722928,0.00144
 952,0.00449464,0.00001198,0.00056090,0.00000402,-0.00341393,-0.0032987
 1,0.00227012,-0.00107931,-0.00262057,-0.00195723,0.00623589,-0.0060261
 7,0.00026656,-0.00819248,-0.00899080,-0.00946535,-0.03128534,0.0871087
 2,0.00509191,-0.00268040,-0.01158205,0.00388915,-0.01402544,-0.0070391
 4,-0.00384629,0.00449464,0.00562106,0.00366613,0.00238201,0.00031409,-
 0.00236248,-0.00227012,0.00273935,-0.00011011,0.00012347,-0.00179089,0
 .00302619,-0.00026656,0.00379315,-0.00695669,-0.00583252,-0.01644145,0
 .00582282,0.00919457,0.03906262,-0.02795208,0.02623709,0.00299341,0.00
 062178,-0.00100968,-0.00285408,-0.00230364,-0.00001198,-0.00366613,-0.
 01582260,0.,-0.00543419,-0.00230364,0.00001198,-0.00366613,0.00062178,
 0.00100968,-0.00285408,-0.00169804,-0.00193985,-0.00248958,-0.00637320
 ,0.,0.00079400,-0.00169804,0.00193984,-0.00248958,0.12543939,0.0329767
 4,-0.03014349,0.00117236,0.00099670,-0.00366169,0.00134807,0.00366509,
 0.00056090,0.00238201,0.,-0.00592126,0.,-0.00366509,0.00056090,-0.0023
 8201,-0.00099670,-0.00366169,-0.00134807,0.00259920,-0.00347478,-0.003
 70598,0.,0.00333765,0.,-0.00259920,-0.00347478,0.00370598,0.,0.0893233
 0,0.00389832,0.00225927,-0.00191051,-0.00051152,-0.00030617,-0.0008595
 5,-0.00087449,0.00000402,0.00031409,0.00543419,0.,-0.00167084,-0.00087
 448,-0.00000402,0.00031409,-0.00051152,0.00030617,-0.00085955,-0.00461
 439,-0.00487009,-0.01277756,-0.00291947,0.,-0.00512208,-0.00461439,0.0
 0487009,-0.01277756,-0.03562444,0.,0.08069740,-0.00521611,0.,0.,-0.001
 80203,0.,0.,-0.00105970,0.00419475,-0.00217782,-0.02795208,0.03297674,
 -0.00389832,-0.00369823,-0.00564849,-0.00509191,-0.01040549,0.,0.,-0.0
 0369823,0.00564849,0.00509191,0.00209991,0.,0.,-0.00105970,-0.00419475
 ,0.00217782,-0.02795208,-0.03297674,0.00389832,0.08683979,0.,-0.015080
 73,0.00505413,0.,0.00241701,-0.00155040,0.00007586,-0.00199253,0.00364
 552,0.02623709,-0.03014349,-0.00225927,-0.00110474,-0.00181293,0.00268
 040,0.,-0.03606089,-0.03922129,0.00110474,-0.00181293,0.00268040,0.,-0
 .00606091,-0.00147441,-0.00007586,-0.00199253,0.00364553,-0.02623709,-
 0.03014349,-0.00225927,0.,0.12094824,0.,-0.00505413,0.00199103,0.,0.00
 203448,-0.00126110,0.00090357,0.00138823,-0.00006931,-0.00299341,-0.00
 117236,-0.00191051,-0.00614864,0.00477215,-0.01158205,0.,-0.03237599,-
 0.02663204,0.00614864,0.00477215,-0.01158205,0.,0.00366652,-0.00584685
 ,-0.00090357,0.00138823,-0.00006931,0.00299341,-0.00117236,-0.00191051
 ,0.,0.02327416,0.06514583,-0.00304803,0.00076042,-0.00139883,0.0029706
 9,0.00065804,-0.00008650,-0.02824745,-0.01971725,0.00912591,-0.0420058
 7,0.,-0.03939807,-0.02824745,0.01971725,0.00912591,0.00297069,-0.00065
 804,-0.00008650,-0.00255080,-0.00481693,0.00121702,-0.00061659,0.,-0.0
 0191951,-0.00255080,0.00481693,0.00121702,0.00142624,0.,-0.00208420,-0
 .00304803,-0.00076042,-0.00139883,0.10801941,-0.00253295,0.00086759,0.
 00076054,-0.00214972,0.00383443,0.00005426,-0.02622886,-0.02187212,0.0
 0226814,0.,-0.01033171,0.,0.02622886,-0.02187212,-0.00226814,0.0021497
 2,0.00383443,-0.00005426,0.00366301,-0.00302266,0.00073928,0.,-0.00111
 939,0.,-0.00366301,-0.00302266,-0.00073928,0.,-0.00296988,0.,0.0025329
 5,0.00086758,-0.00076054,0.,0.05425321,-0.00283357,-0.00289224,-0.0031
 3657,-0.00024432,0.00019938,-0.00240037,0.01186446,0.00597778,0.000221
 64,-0.05073477,0.,-0.04218071,0.01186446,-0.00597778,0.00022164,-0.000
 24432,-0.00019938,-0.00240037,-0.00141128,-0.00215986,-0.00205151,0.00
 550547,0.,-0.00215417,-0.00141128,0.00215986,-0.00205151,0.00156261,0.
 ,-0.00125671,-0.00283357,0.00289224,-0.00313657,0.02730134,0.,0.058612
 80,-0.00304803,-0.00076042,0.00139883,0.00297069,-0.00065804,0.0000865
 0,-0.00255080,-0.00481693,-0.00121702,0.00142624,0.,0.00208420,-0.0025
 5080,0.00481693,-0.00121702,0.00297069,0.00065804,0.00008650,-0.028247
 45,-0.01971725,-0.00912591,-0.00061659,0.,0.00191951,-0.02824745,0.019
 71725,-0.00912591,-0.04200587,0.,0.03939807,-0.00304803,0.00076042,0.0
 0139883,-0.00507204,0.,0.00161476,0.10801941,0.00253295,0.00086758,0.0
 0076054,0.00214972,0.00383443,0.00005426,0.00366301,-0.00302266,-0.000
 73928,0.,-0.00296988,0.,-0.00366301,-0.00302266,0.00073928,-0.00214972
 ,0.00383443,-0.00005426,-0.02622886,-0.02187212,-0.00226814,0.,-0.0011
 1939,0.,0.02622886,-0.02187212,0.00226814,0.,-0.01033171,0.,-0.0025329
 5,0.00086759,-0.00076054,0.,0.00055330,0.,0.,0.05425321,0.00283357,-0.
 00289224,-0.00313657,0.00024432,0.00019938,-0.00240037,0.00141128,0.00
 215986,-0.00205151,-0.00156261,0.,-0.00125671,0.00141128,-0.00215986,-
 0.00205151,0.00024432,-0.00019938,-0.00240037,-0.01186446,-0.00597778,
 0.00022164,-0.00550547,0.,-0.00215417,-0.01186446,0.00597778,0.0002216
 4,0.05073477,0.,-0.04218071,0.00283357,0.00289224,-0.00313657,-0.00161
 476,0.,0.00171241,-0.02730134,0.,0.05861280\\0.,-0.00001251,-0.0000917
 4,0.,0.00007458,-0.00000348,-0.00010103,0.00000363,0.00000199,-0.00006
 512,0.,0.00008426,-0.00010103,-0.00000363,0.00000199,0.,-0.00007458,-0
 .00000348,0.00010103,-0.00000363,0.00000199,0.,0.,0.00006208,0.0001010
 3,0.00000363,0.00000199,0.00006512,0.,0.00008426,0.,0.00001251,-0.0000
 9174,0.00004985,0.,-0.00002406,-0.00004985,0.,-0.00002406\\\@
 Job cpu time:  2 days  8 hours 44 minutes 37.0 seconds.
 File lengths (MBytes):  RWF= 295936 Int=      0 D2E=      0 Chk=    111 Scr=      1
 Normal termination of Gaussian 09 at Mon Jan  9 07:34:52 2012.
