 Entering Gaussian System, Link 0=g09
 Initial command:
 /usr/local/chem/g09A2/l1.exe /temp0/tam/Gau-14814.inp -scrdir=/temp0/tam/
 Entering Link 1 = /usr/local/chem/g09A2/l1.exe PID=     14815.
  
 Copyright (c) 1988,1990,1992,1993,1995,1998,2003,2009, Gaussian, Inc.
                  All Rights Reserved.
  
 This is part of the Gaussian(R) 09 program.  It is based on
 the Gaussian(R) 03 system (copyright 2003, Gaussian, Inc.),
 the Gaussian(R) 98 system (copyright 1998, Gaussian, Inc.),
 the Gaussian(R) 94 system (copyright 1995, Gaussian, Inc.),
 the Gaussian 92(TM) system (copyright 1992, Gaussian, Inc.),
 the Gaussian 90(TM) system (copyright 1990, Gaussian, Inc.),
 the Gaussian 88(TM) system (copyright 1988, Gaussian, Inc.),
 the Gaussian 86(TM) system (copyright 1986, Carnegie Mellon
 University), and the Gaussian 82(TM) system (copyright 1983,
 Carnegie Mellon University). Gaussian is a federally registered
 trademark of Gaussian, Inc.
  
 This software contains proprietary and confidential information,
 including trade secrets, belonging to Gaussian, Inc.
  
 This software is provided under written license and may be
 used, copied, transmitted, or stored only in accord with that
 written license.
  
 The following legend is applicable only to US Government
 contracts under FAR:
  
                    RESTRICTED RIGHTS LEGEND
  
 Use, reproduction and disclosure by the US Government is
 subject to restrictions as set forth in subparagraphs (a)
 and (c) of the Commercial Computer Software - Restricted
 Rights clause in FAR 52.227-19.
  
 Gaussian, Inc.
 340 Quinnipiac St., Bldg. 40, Wallingford CT 06492
  
  
 ---------------------------------------------------------------
 Warning -- This program may not be used in any manner that
 competes with the business of Gaussian, Inc. or will provide
 assistance to any competitor of Gaussian, Inc.  The licensee
 of this program is prohibited from giving any competitor of
 Gaussian, Inc. access to this program.  By using this program,
 the user acknowledges that Gaussian, Inc. is engaged in the
 business of creating and licensing software in the field of
 computational chemistry and represents and warrants to the
 licensee that it is not a competitor of Gaussian, Inc. and that
 it will not use this program in any manner prohibited above.
 ---------------------------------------------------------------
  

 Cite this work as:
 Gaussian 09, Revision A.02,
 M. J. Frisch, G. W. Trucks, H. B. Schlegel, G. E. Scuseria, 
 M. A. Robb, J. R. Cheeseman, G. Scalmani, V. Barone, B. Mennucci, 
 G. A. Petersson, H. Nakatsuji, M. Caricato, X. Li, H. P. Hratchian, 
 A. F. Izmaylov, J. Bloino, G. Zheng, J. L. Sonnenberg, M. Hada, 
 M. Ehara, K. Toyota, R. Fukuda, J. Hasegawa, M. Ishida, T. Nakajima, 
 Y. Honda, O. Kitao, H. Nakai, T. Vreven, J. A. Montgomery, Jr., 
 J. E. Peralta, F. Ogliaro, M. Bearpark, J. J. Heyd, E. Brothers, 
 K. N. Kudin, V. N. Staroverov, R. Kobayashi, J. Normand, 
 K. Raghavachari, A. Rendell, J. C. Burant, S. S. Iyengar, J. Tomasi, 
 M. Cossi, N. Rega, J. M. Millam, M. Klene, J. E. Knox, J. B. Cross, 
 V. Bakken, C. Adamo, J. Jaramillo, R. Gomperts, R. E. Stratmann, 
 O. Yazyev, A. J. Austin, R. Cammi, C. Pomelli, J. W. Ochterski, 
 R. L. Martin, K. Morokuma, V. G. Zakrzewski, G. A. Voth, 
 P. Salvador, J. J. Dannenberg, S. Dapprich, A. D. Daniels, 
 O. Farkas, J. B. Foresman, J. V. Ortiz, J. Cioslowski, 
 and D. J. Fox, Gaussian, Inc., Wallingford CT, 2009.
 
 ******************************************
 Gaussian 09:  AM64L-G09RevA.02 11-Jun-2009
                 5-Mar-2012 
 ******************************************
 %NprocShared=8
 Will use up to    8 processors via shared memory.
 %mem=39050MB
 %chk=S9L-ne-d-01
 -----------------------
 # G4 scfcyc=500 scf=xqc
 -----------------------
 1/14=-1,18=20,19=15,26=3,38=1/1,3;
 2/9=110,12=2,17=6,18=5,40=1/2;
 3/5=35,7=104,11=2,16=1,25=1,30=1,71=1,74=-5/1,2,3;
 4//1;
 5/5=2,7=500,8=3,13=1,38=5/2,8;
 6/7=2,8=2,9=2,10=2,28=1/1;
 7//1,2,3,16;
 1/14=-1,18=20,19=15/3(2);
 2/9=110/2;
 99//99;
 2/9=110/2;
 3/5=35,7=104,11=2,16=1,25=1,30=1,71=1,74=-5/1,2,3;
 4/5=5,16=3/1;
 5/5=2,7=500,8=3,13=1,38=5/2,8;
 7//1,2,3,16;
 1/14=-1,18=20,19=15/3(-5);
 2/9=110/2;
 6/7=2,8=2,9=2,10=2,19=2,28=1/1;
 99/9=1/99;
 --------
 si6-an-d
 --------
 Symbolic Z-matrix:
 Charge = -1 Multiplicity = 2
 Si                    0.        1.16432   1.4091 
 Si                    0.        1.97533  -0.95257 
 Si                    0.       -1.16432   1.4091 
 Si                    0.       -1.97533  -0.95257 
 Si                    1.27369   0.       -0.45653 
 Si                   -1.27369   0.       -0.45653 
 

 GradGradGradGradGradGradGradGradGradGradGradGradGradGradGradGradGradGrad
 Berny optimization.
 Initialization pass.
                           ----------------------------
                           !    Initial Parameters    !
                           ! (Angstroms and Degrees)  !
 --------------------------                            --------------------------
 ! Name  Definition              Value          Derivative Info.                !
 --------------------------------------------------------------------------------
 ! R1    R(1,2)                  2.497          estimate D2E/DX2                !
 ! R2    R(1,3)                  2.3286         estimate D2E/DX2                !
 ! R3    R(1,5)                  2.5414         estimate D2E/DX2                !
 ! R4    R(1,6)                  2.5414         estimate D2E/DX2                !
 ! R5    R(2,5)                  2.4021         estimate D2E/DX2                !
 ! R6    R(2,6)                  2.4021         estimate D2E/DX2                !
 ! R7    R(3,4)                  2.497          estimate D2E/DX2                !
 ! R8    R(3,5)                  2.5414         estimate D2E/DX2                !
 ! R9    R(3,6)                  2.5414         estimate D2E/DX2                !
 ! R10   R(4,5)                  2.4021         estimate D2E/DX2                !
 ! R11   R(4,6)                  2.4021         estimate D2E/DX2                !
 ! R12   R(5,6)                  2.5474         estimate D2E/DX2                !
 ! A1    A(2,1,3)              108.9528         estimate D2E/DX2                !
 ! A2    A(1,3,4)              108.9528         estimate D2E/DX2                !
 ! A3    A(1,5,4)              105.224          estimate D2E/DX2                !
 ! A4    A(2,5,3)              105.224          estimate D2E/DX2                !
 ! A5    A(2,5,4)              110.6359         estimate D2E/DX2                !
 ! A6    A(1,6,4)              105.224          estimate D2E/DX2                !
 ! A7    A(2,6,3)              105.224          estimate D2E/DX2                !
 ! A8    A(2,6,4)              110.6359         estimate D2E/DX2                !
 ! D1    D(2,1,3,4)              0.0            estimate D2E/DX2                !
 --------------------------------------------------------------------------------
 Trust Radius=3.00D-01 FncErr=1.00D-07 GrdErr=1.00D-06
 Number of steps in this run=  31 maximum allowed number of steps= 100.
 GradGradGradGradGradGradGradGradGradGradGradGradGradGradGradGradGradGrad

                          Input orientation:                          
 ---------------------------------------------------------------------
 Center     Atomic      Atomic             Coordinates (Angstroms)
 Number     Number       Type             X           Y           Z
 ---------------------------------------------------------------------
      1         14           0        0.000000    1.164318    1.409095
      2         14           0        0.000000    1.975330   -0.952569
      3         14           0        0.000000   -1.164318    1.409095
      4         14           0        0.000000   -1.975330   -0.952569
      5         14           0        1.273687    0.000000   -0.456533
      6         14           0       -1.273687    0.000000   -0.456533
 ---------------------------------------------------------------------
                    Distance matrix (angstroms):
                    1          2          3          4          5
     1  Si   0.000000
     2  Si   2.497038   0.000000
     3  Si   2.328636   3.928721   0.000000
     4  Si   3.928721   3.950660   2.497038   0.000000
     5  Si   2.541355   2.402136   2.541355   2.402136   0.000000
     6  Si   2.541355   2.402136   2.541355   2.402136   2.547374
                    6
     6  Si   0.000000
 Stoichiometry    Si6(1-,2)
 Framework group  C2V[SGV(Si4),SGV'(Si2)]
 Deg. of freedom     5
 Full point group                 C2V     NOp   4
 Largest Abelian subgroup         C2V     NOp   4
 Largest concise Abelian subgroup C2V     NOp   4
                         Standard orientation:                         
 ---------------------------------------------------------------------
 Center     Atomic      Atomic             Coordinates (Angstroms)
 Number     Number       Type             X           Y           Z
 ---------------------------------------------------------------------
      1         14           0        0.000000    1.164318    1.409097
      2         14           0        0.000000    1.975330   -0.952567
      3         14           0        0.000000   -1.164318    1.409097
      4         14           0        0.000000   -1.975330   -0.952567
      5         14           0        1.273687    0.000000   -0.456531
      6         14           0       -1.273687    0.000000   -0.456531
 ---------------------------------------------------------------------
 Rotational constants (GHZ):      1.9120999      1.3128302      1.0805300
 Standard basis: GTBas3 (6D, 7F)
 There are    66 symmetry adapted basis functions of A1  symmetry.
 There are    30 symmetry adapted basis functions of A2  symmetry.
 There are    42 symmetry adapted basis functions of B1  symmetry.
 There are    54 symmetry adapted basis functions of B2  symmetry.
 Integral buffers will be    131072 words long.
 Raffenetti 2 integral format.
 Two-electron integral symmetry is turned on.
   192 basis functions,   408 primitive gaussians,   210 cartesian basis functions
    43 alpha electrons       42 beta electrons
       nuclear repulsion energy       583.3440256619 Hartrees.
 NAtoms=    6 NActive=    6 NUniq=    3 SFac= 3.00D+00 NAtFMM=   80 NAOKFM=F Big=F
 One-electron integrals computed using PRISM.
 NBasis=   192 RedAO= T  NBF=    66    30    42    54
 NBsUse=   192 1.00D-06 NBFU=    66    30    42    54
 Harris functional with IExCor=  402 diagonalized for initial guess.
 ExpMin= 7.78D-02 ExpMax= 1.61D+04 ExpMxC= 2.43D+03 IAcc=2 IRadAn=         0 AccDes= 0.00D+00
 HarFok:  IExCor=  402 AccDes= 0.00D+00 IRadAn=         0 IDoV= 1
 ScaDFX=  1.000000  1.000000  1.000000  1.000000
 FoFCou: FMM=F IPFlag=           0 FMFlag=      100000 FMFlg1=           0
         NFxFlg=           0 DoJE=T BraDBF=F KetDBF=T FulRan=T
         Omega=  0.000000  0.000000  1.000000  0.000000  0.000000 ICntrl=     500 IOpCl=  0
         NMat0=    1 NMatS0=    1 NMatT0=    0 NMatD0=    1 NMtDS0=    0 NMtDT0=    0
         I1Cent=           4 NGrid=           0.
 Petite list used in FoFCou.
 Initial guess orbital symmetries:
 Alpha Orbitals:
       Occupied  (A1) (B1) (A1) (B2) (B2) (A1) (A1) (B1) (A1) (B2)
                 (B2) (A1) (A1) (B1) (A2) (B2) (B1) (A1) (A1) (B2)
                 (A1) (B2) (A2) (B1) (A1) (B2) (B1) (A2) (B2) (A1)
                 (A1) (B2) (A1) (B1) (A1) (B2) (A1) (A2) (B1) (A1)
                 (B2) (A1) (B2)
       Virtual   (B1) (A2) (A1) (B1) (A1) (B2) (B1) (A1) (B2) (A2)
                 (B2) (A1) (B1) (B2) (A1) (A1) (A2) (A1) (A2) (B1)
                 (A1) (B2) (B2) (A1) (B1) (A1) (B2) (B1) (A2) (B2)
                 (A1) (B1) (A1) (B1) (B2) (A2) (B2) (A1) (B1) (B1)
                 (A2) (B2) (B2) (A1) (A2) (A1) (B2) (A1) (B1) (A2)
                 (A1) (B2) (B1) (A1) (A2) (A1) (B2) (B2) (B1) (A2)
                 (B1) (A1) (B2) (A1) (B2) (A1) (B1) (A1) (B2) (A1)
                 (A2) (B1) (B2) (A1) (B2) (A2) (A1) (B1) (A1) (B2)
                 (A2) (B1) (A1) (B2) (B1) (B2) (A2) (A1) (B1) (A1)
                 (B1) (A1) (B2) (A2) (B2) (B1) (B2) (A1) (A2) (A1)
                 (A1) (B1) (A2) (B2) (B1) (A1) (A2) (A1) (B2) (A2)
                 (B1) (B2) (B2) (B1) (B2) (A2) (A1) (A2) (B1) (A1)
                 (B2) (B1) (A1) (B2) (B1) (A1) (B2) (A2) (A1) (B2)
                 (A2) (B1) (A1) (B1) (A1) (B2) (B2) (A1) (A2) (B1)
                 (A2) (B2) (A1) (A1) (B2) (A1) (B2) (B1) (A1)
 Beta  Orbitals:
       Occupied  (A1) (B1) (A1) (B2) (B2) (A1) (A1) (B1) (A1) (B2)
                 (B2) (A1) (A1) (B1) (A2) (B2) (B1) (A1) (A1) (B2)
                 (A1) (B2) (A2) (B1) (A1) (B2) (B1) (A2) (B2) (A1)
                 (A1) (B2) (A1) (B1) (A1) (B2) (A1) (A2) (B1) (A1)
                 (B2) (A1)
       Virtual   (B2) (B1) (A2) (A1) (B1) (A1) (B2) (B1) (A1) (B2)
                 (A2) (B2) (A1) (B1) (B2) (A1) (A1) (A2) (A1) (A2)
                 (B1) (A1) (B2) (B2) (A1) (B1) (A1) (B2) (B1) (A2)
                 (B2) (A1) (B1) (A1) (B1) (B2) (A2) (B2) (A1) (B1)
                 (B1) (A2) (B2) (B2) (A1) (A2) (A1) (B2) (A1) (B1)
                 (A2) (A1) (B2) (B1) (A1) (A2) (A1) (B2) (B2) (B1)
                 (A2) (B1) (A1) (B2) (A1) (B2) (A1) (B1) (A1) (B2)
                 (A1) (A2) (B1) (B2) (A1) (B2) (A2) (A1) (B1) (A1)
                 (B2) (A2) (B1) (A1) (B2) (B1) (B2) (A2) (A1) (B1)
                 (A1) (B1) (A1) (B2) (A2) (B2) (B1) (B2) (A1) (A2)
                 (A1) (A1) (B1) (A2) (B2) (B1) (A1) (A2) (A1) (B2)
                 (A2) (B1) (B2) (B2) (B1) (B2) (A2) (A1) (A2) (B1)
                 (A1) (B2) (B1) (A1) (B2) (B1) (A1) (B2) (A2) (A1)
                 (B2) (A2) (B1) (A1) (B1) (A1) (B2) (B2) (A1) (A2)
                 (B1) (A2) (B2) (A1) (A1) (B2) (A1) (B2) (B1) (A1)
 The electronic state of the initial guess is 2-B2.
 Initial guess <Sx>= 0.0000 <Sy>= 0.0000 <Sz>= 0.5000 <S**2>= 0.7500 S= 0.5000
 Requested convergence on RMS density matrix=1.00D-08 within 128 cycles.
 Requested convergence on MAX density matrix=1.00D-06.
 Requested convergence on             energy=1.00D-06.
 No special actions if energy rises.
 Keep R1 and R2 ints in memory in canonical form, NReq=495764665.
 Integral accuracy reduced to 1.0D-05 until final iterations.
 Initial convergence to 1.0D-05 achieved.  Increase integral accuracy.
 SCF Done:  E(UB3LYP) =  -1737.00003560     A.U. after   17 cycles
             Convg  =    0.6854D-08             -V/T =  2.0035
 <Sx>= 0.0000 <Sy>= 0.0000 <Sz>= 0.5000 <S**2>= 0.7611 S= 0.5055
 <L.S>= 0.000000000000E+00
 Annihilation of the first spin contaminant:
 S**2 before annihilation     0.7611,   after     0.7501
 QCSCF skips out because SCF is already converged.

 **********************************************************************

            Population analysis using the SCF density.

 **********************************************************************

 Orbital symmetries:
 Alpha Orbitals:
       Occupied  (B2) (A1) (A1) (B1) (A1) (B2) (B2) (A1) (A1) (B1)
                 (A1) (B2) (B2) (A1) (B1) (A2) (A1) (B2) (B1) (A1)
                 (A2) (B1) (A1) (B2) (B1) (A1) (A2) (B2) (A1) (B2)
                 (A1) (B2) (A1) (B1) (A1) (B2) (A1) (A2) (A1) (B2)
                 (B1) (A1) (B2)
       Virtual   (B1) (A2) (A1) (B1) (A1) (B1) (B2) (A1) (B2) (A2)
                 (B2) (A1) (B2) (A1) (A1) (B1) (A1) (A2) (B2) (A1)
                 (B1) (B2) (A2) (B1) (A1) (A1) (B1) (B2) (A2) (A1)
                 (B1) (B2) (A2) (B2) (A1) (B1) (B2) (A1) (B1) (B2)
                 (A2) (B2) (B1) (A1) (A2) (A1) (A1) (B2) (B1) (A2)
                 (A1) (B2) (B1) (A1) (A1) (A2) (B2) (B2) (B1) (A1)
                 (B1) (A2) (A1) (B2) (B2) (A1) (B1) (A1) (B2) (A1)
                 (A2) (A1) (B2) (B1) (B2) (A2) (A1) (B1) (B2) (A1)
                 (A1) (B1) (B2) (A2) (B1) (B2) (A2) (A1) (B1) (A1)
                 (B2) (B1) (A1) (A2) (B2) (B1) (A1) (B2) (A2) (A1)
                 (A1) (B2) (A1) (B1) (A2) (B1) (A2) (A1) (B2) (A2)
                 (B1) (B2) (B2) (B1) (B2) (A2) (A1) (A2) (A1) (B1)
                 (B2) (B1) (A1) (B2) (B1) (A1) (B2) (A2) (A2) (A1)
                 (B2) (B1) (B1) (A1) (A1) (B2) (B2) (A2) (A1) (B1)
                 (A2) (B2) (A1) (A1) (B2) (A1) (B2) (B1) (A1)
 Beta  Orbitals:
       Occupied  (B2) (A1) (A1) (B1) (A1) (B2) (B2) (A1) (A1) (B1)
                 (A1) (B2) (B1) (A2) (A1) (B2) (A1) (B1) (B1) (A2)
                 (B2) (A1) (B1) (A1) (A2) (B2) (A1) (B2) (A1) (B2)
                 (A1) (B2) (A1) (B1) (A1) (B2) (A1) (A2) (A1) (B1)
                 (B2) (A1)
       Virtual   (B2) (B1) (A2) (B1) (A1) (A1) (B1) (B2) (B2) (A1)
                 (A2) (B2) (A1) (B2) (A1) (A1) (B1) (A1) (A2) (B2)
                 (A1) (B1) (B1) (B2) (A2) (A1) (A1) (B1) (B2) (A2)
                 (B1) (A1) (B2) (A2) (B2) (A1) (B1) (B2) (A1) (B2)
                 (B1) (A2) (B1) (B2) (A1) (A2) (A1) (A1) (B2) (B1)
                 (A2) (A1) (B2) (B1) (A1) (A1) (A2) (B2) (B2) (B1)
                 (A1) (B1) (A2) (A1) (B2) (B2) (A1) (B1) (A1) (B2)
                 (A1) (A2) (A1) (B2) (B1) (B2) (A2) (A1) (B1) (A1)
                 (B2) (B1) (A1) (A2) (B2) (B1) (B2) (A2) (A1) (B1)
                 (A1) (B2) (B1) (A1) (A2) (B2) (B1) (B2) (A1) (A2)
                 (A1) (A1) (B1) (B2) (A2) (A1) (B1) (A2) (A1) (A2)
                 (B2) (B1) (B2) (B2) (B1) (B2) (A2) (A1) (A2) (A1)
                 (B1) (B2) (B1) (A1) (B1) (B2) (A1) (B2) (A2) (A2)
                 (A1) (B2) (B1) (B1) (A1) (A1) (B2) (B2) (A2) (A1)
                 (B1) (A2) (B2) (A1) (A1) (B2) (A1) (B2) (B1) (A1)
 The electronic state is 2-B2.
 Alpha  occ. eigenvalues --  -65.98072 -65.98072 -65.97658 -65.97658 -65.97636
 Alpha  occ. eigenvalues --  -65.97636  -5.12629  -5.12629  -5.12268  -5.12264
 Alpha  occ. eigenvalues --   -5.12230  -5.12221  -3.48590  -3.48587  -3.48559
 Alpha  occ. eigenvalues --   -3.48555  -3.48219  -3.48214  -3.48173  -3.48170
 Alpha  occ. eigenvalues --   -3.48170  -3.48160  -3.48082  -3.48074  -3.48071
 Alpha  occ. eigenvalues --   -3.48066  -3.48005  -3.48002  -3.47891  -3.47836
 Alpha  occ. eigenvalues --   -0.49013  -0.36184  -0.31756  -0.27461  -0.20091
 Alpha  occ. eigenvalues --   -0.19352  -0.11979  -0.10924  -0.08792  -0.07914
 Alpha  occ. eigenvalues --   -0.07561  -0.05879  -0.02238
 Alpha virt. eigenvalues --    0.06049   0.08905   0.11876   0.12630   0.13236
 Alpha virt. eigenvalues --    0.15083   0.15230   0.15678   0.15729   0.19539
 Alpha virt. eigenvalues --    0.20626   0.26185   0.27853   0.29357   0.29767
 Alpha virt. eigenvalues --    0.29932   0.31265   0.32769   0.33361   0.33836
 Alpha virt. eigenvalues --    0.34574   0.36063   0.36141   0.36887   0.37952
 Alpha virt. eigenvalues --    0.39819   0.40315   0.40825   0.41182   0.43491
 Alpha virt. eigenvalues --    0.43989   0.45417   0.45994   0.46355   0.47508
 Alpha virt. eigenvalues --    0.48973   0.49861   0.51355   0.53617   0.53827
 Alpha virt. eigenvalues --    0.56385   0.56527   0.56621   0.59748   0.59877
 Alpha virt. eigenvalues --    0.60974   0.63703   0.64175   0.65368   0.68388
 Alpha virt. eigenvalues --    0.69233   0.74233   0.77842   0.78502   0.78824
 Alpha virt. eigenvalues --    0.79481   0.81543   0.82290   0.83836   0.86010
 Alpha virt. eigenvalues --    0.86142   0.86731   0.87257   0.87356   0.93070
 Alpha virt. eigenvalues --    0.97094   1.01075   1.02117   1.03824   1.07068
 Alpha virt. eigenvalues --    1.07984   1.08424   1.09592   1.09979   1.11519
 Alpha virt. eigenvalues --    1.11751   1.13785   1.14721   1.17733   1.17799
 Alpha virt. eigenvalues --    1.22408   1.22637   1.22815   1.23388   1.24241
 Alpha virt. eigenvalues --    1.25612   1.29568   1.31170   1.33275   1.34331
 Alpha virt. eigenvalues --    1.35944   1.36773   1.37509   1.41259   1.41469
 Alpha virt. eigenvalues --    1.42530   1.45071   1.45150   1.45480   1.48510
 Alpha virt. eigenvalues --    1.49871   1.55994   1.56215   1.56331   1.56450
 Alpha virt. eigenvalues --    1.56903   1.59807   1.62329   1.63409   1.63693
 Alpha virt. eigenvalues --    1.64710   1.68482   1.72315   1.86472   1.88035
 Alpha virt. eigenvalues --    1.88474   1.92858   1.93755   1.95043   1.95285
 Alpha virt. eigenvalues --    1.96880   1.98477   1.99514   2.00864   2.00902
 Alpha virt. eigenvalues --    2.02539   2.04616   2.09565   2.13351   2.14179
 Alpha virt. eigenvalues --    2.14794   2.15852   2.17707   2.17950   2.22440
 Alpha virt. eigenvalues --    2.22695   2.24758   2.26678   2.27403   2.28341
 Alpha virt. eigenvalues --    2.31192   2.35049   2.38857   2.56134   2.93406
 Alpha virt. eigenvalues --    2.94882   2.96880   3.02106   3.07169
  Beta  occ. eigenvalues --  -65.97953 -65.97952 -65.97667 -65.97667 -65.97574
  Beta  occ. eigenvalues --  -65.97573  -5.12497  -5.12497  -5.12278  -5.12275
  Beta  occ. eigenvalues --   -5.12154  -5.12144  -3.48484  -3.48479  -3.48202
  Beta  occ. eigenvalues --   -3.48198  -3.48185  -3.48174  -3.48126  -3.48124
  Beta  occ. eigenvalues --   -3.48108  -3.48107  -3.48100  -3.48095  -3.48001
  Beta  occ. eigenvalues --   -3.47996  -3.47899  -3.47881  -3.47841  -3.47800
  Beta  occ. eigenvalues --   -0.48715  -0.35132  -0.31116  -0.27448  -0.18959
  Beta  occ. eigenvalues --   -0.18167  -0.10674  -0.10653  -0.08473  -0.07425
  Beta  occ. eigenvalues --   -0.07178  -0.05467
  Beta virt. eigenvalues --    0.03698   0.06317   0.09260   0.12709   0.12763
  Beta virt. eigenvalues --    0.13674   0.15288   0.15640   0.16093   0.16302
  Beta virt. eigenvalues --    0.19754   0.21681   0.26661   0.28092   0.29601
  Beta virt. eigenvalues --    0.29999   0.30028   0.31623   0.32899   0.33884
  Beta virt. eigenvalues --    0.34314   0.34634   0.37064   0.37067   0.37075
  Beta virt. eigenvalues --    0.38372   0.40403   0.40438   0.41480   0.41673
  Beta virt. eigenvalues --    0.44012   0.44250   0.46057   0.46135   0.46594
  Beta virt. eigenvalues --    0.47827   0.49196   0.50657   0.51763   0.54375
  Beta virt. eigenvalues --    0.54446   0.56523   0.56667   0.57530   0.60136
  Beta virt. eigenvalues --    0.60736   0.61373   0.64089   0.64864   0.65823
  Beta virt. eigenvalues --    0.68486   0.69722   0.74764   0.78190   0.78975
  Beta virt. eigenvalues --    0.79466   0.79916   0.81812   0.82845   0.83870
  Beta virt. eigenvalues --    0.86178   0.86203   0.86908   0.87392   0.88156
  Beta virt. eigenvalues --    0.93315   0.97456   1.01454   1.02585   1.04172
  Beta virt. eigenvalues --    1.07507   1.08742   1.08926   1.10203   1.10241
  Beta virt. eigenvalues --    1.12068   1.12771   1.14178   1.14883   1.18157
  Beta virt. eigenvalues --    1.18313   1.22649   1.22851   1.23638   1.23866
  Beta virt. eigenvalues --    1.25291   1.26326   1.29796   1.31643   1.33427
  Beta virt. eigenvalues --    1.34937   1.36438   1.36888   1.37817   1.41427
  Beta virt. eigenvalues --    1.41901   1.42947   1.45534   1.45568   1.46112
  Beta virt. eigenvalues --    1.49118   1.50157   1.56429   1.56467   1.56806
  Beta virt. eigenvalues --    1.56832   1.57262   1.60053   1.62563   1.63936
  Beta virt. eigenvalues --    1.64057   1.64784   1.68855   1.72814   1.86723
  Beta virt. eigenvalues --    1.88412   1.88661   1.93208   1.94020   1.95184
  Beta virt. eigenvalues --    1.95457   1.97124   1.98621   2.00082   2.01183
  Beta virt. eigenvalues --    2.01356   2.02699   2.05014   2.09756   2.13645
  Beta virt. eigenvalues --    2.14284   2.15045   2.15897   2.17761   2.18203
  Beta virt. eigenvalues --    2.22698   2.22965   2.25138   2.26863   2.27546
  Beta virt. eigenvalues --    2.28444   2.31281   2.35387   2.38949   2.56350
  Beta virt. eigenvalues --    2.93896   2.95293   2.97212   3.02117   3.07378
          Condensed to atoms (all electrons):
              1          2          3          4          5          6
     1  Si  13.590401   0.156906   0.259596  -0.041137   0.102476   0.102476
     2  Si   0.156906  13.673236  -0.041137  -0.039994   0.234619   0.234619
     3  Si   0.259596  -0.041137  13.590401   0.156906   0.102476   0.102476
     4  Si  -0.041137  -0.039994   0.156906  13.673236   0.234619   0.234619
     5  Si   0.102476   0.234619   0.102476   0.234619  13.444928  -0.008085
     6  Si   0.102476   0.234619   0.102476   0.234619  -0.008085  13.444928
 Mulliken atomic charges:
              1
     1  Si  -0.170718
     2  Si  -0.218250
     3  Si  -0.170718
     4  Si  -0.218250
     5  Si  -0.111032
     6  Si  -0.111032
 Sum of Mulliken atomic charges =  -1.00000
 Mulliken charges with hydrogens summed into heavy atoms:
              1
     1  Si  -0.170718
     2  Si  -0.218250
     3  Si  -0.170718
     4  Si  -0.218250
     5  Si  -0.111032
     6  Si  -0.111032
 Sum of Mulliken charges with hydrogens summed into heavy atoms =  -1.00000
          Atomic-Atomic Spin Densities.
              1          2          3          4          5          6
     1  Si   0.240244   0.005333  -0.092186   0.007431   0.000922   0.000922
     2  Si   0.005333   0.363462   0.007431  -0.020141  -0.000336  -0.000336
     3  Si  -0.092186   0.007431   0.240244   0.005333   0.000922   0.000922
     4  Si   0.007431  -0.020141   0.005333   0.363462  -0.000336  -0.000336
     5  Si   0.000922  -0.000336   0.000922  -0.000336  -0.018078  -0.001174
     6  Si   0.000922  -0.000336   0.000922  -0.000336  -0.001174  -0.018078
 Mulliken atomic spin densities:
              1
     1  Si   0.162667
     2  Si   0.355412
     3  Si   0.162667
     4  Si   0.355412
     5  Si  -0.018079
     6  Si  -0.018079
 Sum of Mulliken atomic spin densities =   1.00000
 Electronic spatial extent (au):  <R**2>=           1211.9057
 Charge=             -1.0000 electrons
 Dipole moment (field-independent basis, Debye):
    X=              0.0000    Y=              0.0000    Z=              0.0256  Tot=              0.0256
 Quadrupole moment (field-independent basis, Debye-Ang):
   XX=            -87.7253   YY=           -103.9207   ZZ=            -96.0394
   XY=              0.0000   XZ=              0.0000   YZ=              0.0000
 Traceless Quadrupole moment (field-independent basis, Debye-Ang):
   XX=              8.1698   YY=             -8.0256   ZZ=             -0.1443
   XY=              0.0000   XZ=              0.0000   YZ=              0.0000
 Octapole moment (field-independent basis, Debye-Ang**2):
  XXX=              0.0000  YYY=              0.0000  ZZZ=             -9.3149  XYY=              0.0000
  XXY=              0.0000  XXZ=              3.6876  XZZ=              0.0000  YZZ=              0.0000
  YYZ=              9.4330  XYZ=              0.0000
 Hexadecapole moment (field-independent basis, Debye-Ang**3):
 XXXX=           -457.9089 YYYY=          -1243.0549 ZZZZ=           -756.2303 XXXY=              0.0000
 XXXZ=              0.0000 YYYX=              0.0000 YYYZ=              0.0000 ZZZX=              0.0000
 ZZZY=              0.0000 XXYY=           -252.3574 XXZZ=           -195.1141 YYZZ=           -357.0111
 XXYZ=              0.0000 YYXZ=              0.0000 ZZXY=              0.0000
 N-N= 5.833440256619D+02 E-N=-7.964774900251D+03  KE= 2.595854422548D+03
 Symmetry A1   KE= 1.188072677017D+03
 Symmetry A2   KE= 1.123058395314D+02
 Symmetry B1   KE= 4.685855321242D+02
 Symmetry B2   KE= 8.268903738759D+02
                          Isotropic Fermi Contact Couplings
        Atom                 a.u.       MegaHertz       Gauss      10(-4) cm-1
     1  Si(29)             0.11044     -98.15203     -35.02308     -32.73999
     2  Si(29)             0.01268     -11.26862      -4.02092      -3.75881
     3  Si(29)             0.11044     -98.15203     -35.02308     -32.73999
     4  Si(29)             0.01268     -11.26862      -4.02092      -3.75881
     5  Si(29)            -0.01897      16.86175       6.01669       5.62448
     6  Si(29)            -0.01897      16.86175       6.01669       5.62448
 --------------------------------------------------------
       Center         ----  Spin Dipole Couplings  ----
                      3XX-RR        3YY-RR        3ZZ-RR
 --------------------------------------------------------
     1   Atom       -0.137325     -0.187087      0.324411
     2   Atom       -0.331151     -0.042949      0.374100
     3   Atom       -0.137325     -0.187087      0.324411
     4   Atom       -0.331151     -0.042949      0.374100
     5   Atom       -0.001025      0.051933     -0.050908
     6   Atom       -0.001025      0.051933     -0.050908
 --------------------------------------------------------
                        XY            XZ            YZ
 --------------------------------------------------------
     1   Atom        0.000000      0.000000      0.020868
     2   Atom        0.000000      0.000000      0.471746
     3   Atom        0.000000      0.000000     -0.020868
     4   Atom        0.000000      0.000000     -0.471746
     5   Atom        0.000000      0.001027      0.000000
     6   Atom        0.000000     -0.001027      0.000000
 --------------------------------------------------------


 ---------------------------------------------------------------------------------
              Anisotropic Spin Dipole Couplings in Principal Axis System
 ---------------------------------------------------------------------------------

       Atom             a.u.   MegaHertz   Gauss  10(-4) cm-1        Axes

              Baa    -0.1879    19.937     7.114     6.650  0.0000  0.9992 -0.0407
     1 Si(29) Bbb    -0.1373    14.568     5.198     4.859  1.0000  0.0000  0.0000
              Bcc     0.3253   -34.505   -12.312   -11.510  0.0000  0.0407  0.9992
 
              Baa    -0.3502    37.151    13.256    12.392  0.0000  0.8379 -0.5458
     2 Si(29) Bbb    -0.3312    35.130    12.535    11.718  1.0000  0.0000  0.0000
              Bcc     0.6814   -72.281   -25.792   -24.110  0.0000  0.5458  0.8379
 
              Baa    -0.1879    19.937     7.114     6.650  0.0000  0.9992  0.0407
     3 Si(29) Bbb    -0.1373    14.568     5.198     4.859  1.0000  0.0000  0.0000
              Bcc     0.3253   -34.505   -12.312   -11.510  0.0000 -0.0407  0.9992
 
              Baa    -0.3502    37.151    13.256    12.392  0.0000  0.8379  0.5458
     4 Si(29) Bbb    -0.3312    35.130    12.535    11.718  1.0000  0.0000  0.0000
              Bcc     0.6814   -72.281   -25.792   -24.110  0.0000 -0.5458  0.8379
 
              Baa    -0.0509     5.403     1.928     1.802 -0.0206  0.0000  0.9998
     5 Si(29) Bbb    -0.0010     0.106     0.038     0.036  0.9998  0.0000  0.0206
              Bcc     0.0519    -5.509    -1.966    -1.838  0.0000  1.0000  0.0000
 
              Baa    -0.0509     5.403     1.928     1.802  0.0206  0.0000  0.9998
     6 Si(29) Bbb    -0.0010     0.106     0.038     0.036  0.9998  0.0000 -0.0206
              Bcc     0.0519    -5.509    -1.966    -1.838  0.0000  1.0000  0.0000
 

 ---------------------------------------------------------------------------------

 Calling FoFJK, ICntrl=      2127 FMM=F ISym2X=1 I1Cent= 0 IOpClX= 1 NMat=1 NMatS=1 NMatT=0.
 ***** Axes restored to original set *****
 -------------------------------------------------------------------
 Center     Atomic                   Forces (Hartrees/Bohr)
 Number     Number              X              Y              Z
 -------------------------------------------------------------------
      1       14           0.000000000   -0.000591140   -0.002333211
      2       14           0.000000000   -0.000807987    0.000580089
      3       14           0.000000000    0.000591140   -0.002333211
      4       14           0.000000000    0.000807987    0.000580089
      5       14          -0.003371271    0.000000000    0.001753122
      6       14           0.003371271    0.000000000    0.001753122
 -------------------------------------------------------------------
 Cartesian Forces:  Max     0.003371271 RMS     0.001535562

 GradGradGradGradGradGradGradGradGradGradGradGradGradGradGradGradGradGrad
 Berny optimization.
 Internal  Forces:  Max     0.001459382 RMS     0.000695595
 Search for a local minimum.
 Step number   1 out of a maximum of   31
 All quantities printed in internal units (Hartrees-Bohrs-Radians)
 Mixed Optimization -- En-DIIS/RFO-DIIS
 Second derivative matrix not updated -- first step.
     Eigenvalues ---    0.06454   0.08790   0.09504   0.10175   0.10261
     Eigenvalues ---    0.10572   0.10637   0.11313   0.12637   0.13700
     Eigenvalues ---    0.14535   0.160891000.000001000.000001000.00000
     Eigenvalues --- 1000.000001000.000001000.000001000.000001000.00000
     Eigenvalues --- 1000.00000
 RFO step:  Lambda=-1.08277682D-04 EMin= 6.45425387D-02
 Linear search not attempted -- first point.
 Iteration  1 RMS(Cart)=  0.00384645 RMS(Int)=  0.00000594
 Iteration  2 RMS(Cart)=  0.00000331 RMS(Int)=  0.00000363
 Iteration  3 RMS(Cart)=  0.00000000 RMS(Int)=  0.00000363
 ClnCor:  largest displacement from symmetrization is 1.09D-12 for atom     4.
 Variable       Old X    -DE/DX   Delta X   Delta X   Delta X     New X
                                 (Linear)    (Quad)   (Total)
    R1        4.71872  -0.00054   0.00000  -0.00689  -0.00689   4.71182
    R2        4.40048   0.00026   0.00000   0.00033   0.00032   4.40081
    R3        4.80246  -0.00125   0.00000  -0.01388  -0.01388   4.78859
    R4        4.80246  -0.00125   0.00000  -0.01388  -0.01388   4.78859
    R5        4.53938  -0.00041   0.00000  -0.00391  -0.00391   4.53547
    R6        4.53938  -0.00041   0.00000  -0.00391  -0.00391   4.53547
    R7        4.71872  -0.00054   0.00000  -0.00689  -0.00689   4.71182
    R8        4.80246  -0.00125   0.00000  -0.01388  -0.01388   4.78859
    R9        4.80246  -0.00125   0.00000  -0.01388  -0.01388   4.78859
   R10        4.53938  -0.00041   0.00000  -0.00391  -0.00391   4.53547
   R11        4.53938  -0.00041   0.00000  -0.00391  -0.00391   4.53547
   R12        4.81384  -0.00146   0.00000  -0.01420  -0.01420   4.79964
    A1        1.90159  -0.00004   0.00000  -0.00001  -0.00001   1.90158
    A2        1.90159  -0.00004   0.00000  -0.00001  -0.00001   1.90158
    A3        1.83651   0.00034   0.00000   0.00311   0.00311   1.83962
    A4        1.83651   0.00034   0.00000   0.00311   0.00311   1.83962
    A5        1.93096   0.00007   0.00000   0.00086   0.00086   1.93182
    A6        1.83651   0.00034   0.00000   0.00311   0.00311   1.83962
    A7        1.83651   0.00034   0.00000   0.00311   0.00311   1.83962
    A8        1.93096   0.00007   0.00000   0.00086   0.00086   1.93182
    D1        0.00000   0.00000   0.00000   0.00000   0.00000   0.00000
         Item               Value     Threshold  Converged?
 Maximum Force            0.001459     0.000450     NO 
 RMS     Force            0.000696     0.000300     NO 
 Maximum Displacement     0.007274     0.001800     NO 
 RMS     Displacement     0.003848     0.001200     NO 
 Predicted change in Energy=-5.419725D-05
 GradGradGradGradGradGradGradGradGradGradGradGradGradGradGradGradGradGrad

                          Input orientation:                          
 ---------------------------------------------------------------------
 Center     Atomic      Atomic             Coordinates (Angstroms)
 Number     Number       Type             X           Y           Z
 ---------------------------------------------------------------------
      1         14           0        0.000000    1.164403    1.405448
      2         14           0        0.000000    1.974214   -0.952771
      3         14           0        0.000000   -1.164403    1.405448
      4         14           0        0.000000   -1.974214   -0.952771
      5         14           0        1.269929    0.000000   -0.452683
      6         14           0       -1.269929    0.000000   -0.452683
 ---------------------------------------------------------------------
                    Distance matrix (angstroms):
                    1          2          3          4          5
     1  Si   0.000000
     2  Si   2.493390   0.000000
     3  Si   2.328806   3.925827   0.000000
     4  Si   3.925827   3.948429   2.493390   0.000000
     5  Si   2.534010   2.400069   2.534010   2.400069   0.000000
     6  Si   2.534010   2.400069   2.534010   2.400069   2.539858
                    6
     6  Si   0.000000
 Stoichiometry    Si6(1-,2)
 Framework group  C2V[SGV(Si4),SGV'(Si2)]
 Deg. of freedom     5
 Full point group                 C2V     NOp   4
 Largest Abelian subgroup         C2V     NOp   4
 Largest concise Abelian subgroup C2V     NOp   4
                         Standard orientation:                         
 ---------------------------------------------------------------------
 Center     Atomic      Atomic             Coordinates (Angstroms)
 Number     Number       Type             X           Y           Z
 ---------------------------------------------------------------------
      1         14           0        0.000000    1.164403    1.405451
      2         14           0        0.000000    1.974214   -0.952769
      3         14           0        0.000000   -1.164403    1.405451
      4         14           0        0.000000   -1.974214   -0.952769
      5         14           0        1.269929    0.000000   -0.452681
      6         14           0       -1.269929    0.000000   -0.452681
 ---------------------------------------------------------------------
 Rotational constants (GHZ):      1.9214301      1.3154628      1.0828080
 Standard basis: GTBas3 (6D, 7F)
 There are    66 symmetry adapted basis functions of A1  symmetry.
 There are    30 symmetry adapted basis functions of A2  symmetry.
 There are    42 symmetry adapted basis functions of B1  symmetry.
 There are    54 symmetry adapted basis functions of B2  symmetry.
 Integral buffers will be    131072 words long.
 Raffenetti 2 integral format.
 Two-electron integral symmetry is turned on.
   192 basis functions,   408 primitive gaussians,   210 cartesian basis functions
    43 alpha electrons       42 beta electrons
       nuclear repulsion energy       584.2584851243 Hartrees.
 NAtoms=    6 NActive=    6 NUniq=    3 SFac= 3.00D+00 NAtFMM=   80 NAOKFM=F Big=F
 One-electron integrals computed using PRISM.
 NBasis=   192 RedAO= T  NBF=    66    30    42    54
 NBsUse=   192 1.00D-06 NBFU=    66    30    42    54
 Initial guess read from the read-write file.
 B after Tr=     0.000000    0.000000    0.000000
         Rot=    1.000000    0.000000    0.000000    0.000000 Ang=   0.00 deg.
 Initial guess orbital symmetries:
 Alpha Orbitals:
       Occupied  (B2) (A1) (A1) (B1) (A1) (B2) (B2) (A1) (A1) (B1)
                 (A1) (B2) (B2) (A1) (B1) (A2) (A1) (B2) (B1) (A1)
                 (A2) (B1) (A1) (B2) (B1) (A1) (A2) (B2) (A1) (B2)
                 (A1) (B2) (A1) (B1) (A1) (B2) (A1) (A2) (A1) (B2)
                 (B1) (A1) (B2)
       Virtual   (B1) (A2) (A1) (B1) (A1) (B1) (B2) (A1) (B2) (A2)
                 (B2) (A1) (B2) (A1) (A1) (B1) (A1) (A2) (B2) (A1)
                 (B1) (B2) (A2) (B1) (A1) (A1) (B1) (B2) (A2) (A1)
                 (B1) (B2) (A2) (B2) (A1) (B1) (B2) (A1) (B1) (B2)
                 (A2) (B2) (B1) (A1) (A2) (A1) (A1) (B2) (B1) (A2)
                 (A1) (B2) (B1) (A1) (A1) (A2) (B2) (B2) (B1) (A1)
                 (B1) (A2) (A1) (B2) (B2) (A1) (B1) (A1) (B2) (A1)
                 (A2) (A1) (B2) (B1) (B2) (A2) (A1) (B1) (B2) (A1)
                 (A1) (B1) (B2) (A2) (B1) (B2) (A2) (A1) (B1) (A1)
                 (B2) (B1) (A1) (A2) (B2) (B1) (A1) (B2) (A2) (A1)
                 (A1) (B2) (A1) (B1) (A2) (B1) (A2) (A1) (B2) (A2)
                 (B1) (B2) (B2) (B1) (B2) (A2) (A1) (A2) (A1) (B1)
                 (B2) (B1) (A1) (B2) (B1) (A1) (B2) (A2) (A2) (A1)
                 (B2) (B1) (B1) (A1) (A1) (B2) (B2) (A2) (A1) (B1)
                 (A2) (B2) (A1) (A1) (B2) (A1) (B2) (B1) (A1)
 Beta  Orbitals:
       Occupied  (B2) (A1) (A1) (B1) (A1) (B2) (B2) (A1) (A1) (B1)
                 (A1) (B2) (B1) (A2) (A1) (B2) (A1) (B1) (B1) (A2)
                 (B2) (A1) (B1) (A1) (A2) (B2) (A1) (B2) (A1) (B2)
                 (A1) (B2) (A1) (B1) (A1) (B2) (A1) (A2) (A1) (B1)
                 (B2) (A1)
       Virtual   (B2) (B1) (A2) (B1) (A1) (A1) (B1) (B2) (B2) (A1)
                 (A2) (B2) (A1) (B2) (A1) (A1) (B1) (A1) (A2) (B2)
                 (A1) (B1) (B1) (B2) (A2) (A1) (A1) (B1) (B2) (A2)
                 (B1) (A1) (B2) (A2) (B2) (A1) (B1) (B2) (A1) (B2)
                 (B1) (A2) (B1) (B2) (A1) (A2) (A1) (A1) (B2) (B1)
                 (A2) (A1) (B2) (B1) (A1) (A1) (A2) (B2) (B2) (B1)
                 (A1) (B1) (A2) (A1) (B2) (B2) (A1) (B1) (A1) (B2)
                 (A1) (A2) (A1) (B2) (B1) (B2) (A2) (A1) (B1) (A1)
                 (B2) (B1) (A1) (A2) (B2) (B1) (B2) (A2) (A1) (B1)
                 (A1) (B2) (B1) (A1) (A2) (B2) (B1) (B2) (A1) (A2)
                 (A1) (A1) (B1) (B2) (A2) (A1) (B1) (A2) (A1) (A2)
                 (B2) (B1) (B2) (B2) (B1) (B2) (A2) (A1) (A2) (A1)
                 (B1) (B2) (B1) (A1) (B1) (B2) (A1) (B2) (A2) (A2)
                 (A1) (B2) (B1) (B1) (A1) (A1) (B2) (B2) (A2) (A1)
                 (B1) (A2) (B2) (A1) (A1) (B2) (A1) (B2) (B1) (A1)
 Initial guess <Sx>= 0.0000 <Sy>= 0.0000 <Sz>= 0.5000 <S**2>= 0.7610 S= 0.5055
 Requested convergence on RMS density matrix=1.00D-08 within 128 cycles.
 Requested convergence on MAX density matrix=1.00D-06.
 Requested convergence on             energy=1.00D-06.
 No special actions if energy rises.
 Keep R1 and R2 ints in memory in canonical form, NReq=495764665.
 SCF Done:  E(UB3LYP) =  -1737.00012280     A.U. after   11 cycles
             Convg  =    0.3036D-08             -V/T =  2.0035
 <Sx>= 0.0000 <Sy>= 0.0000 <Sz>= 0.5000 <S**2>= 0.7610 S= 0.5055
 <L.S>= 0.000000000000E+00
 Annihilation of the first spin contaminant:
 S**2 before annihilation     0.7610,   after     0.7501
 QCSCF skips out because SCF is already converged.
 Calling FoFJK, ICntrl=      2127 FMM=F ISym2X=1 I1Cent= 0 IOpClX= 1 NMat=1 NMatS=1 NMatT=0.
 ***** Axes restored to original set *****
 -------------------------------------------------------------------
 Center     Atomic                   Forces (Hartrees/Bohr)
 Number     Number              X              Y              Z
 -------------------------------------------------------------------
      1       14           0.000000000   -0.000306925   -0.001390534
      2       14           0.000000000   -0.000462172    0.000239750
      3       14           0.000000000    0.000306925   -0.001390534
      4       14           0.000000000    0.000462172    0.000239750
      5       14          -0.001994883    0.000000000    0.001150784
      6       14           0.001994883    0.000000000    0.001150784
 -------------------------------------------------------------------
 Cartesian Forces:  Max     0.001994883 RMS     0.000919102

 GradGradGradGradGradGradGradGradGradGradGradGradGradGradGradGradGradGrad
 Berny optimization.
 Using GEDIIS/GDIIS optimizer.
 Internal  Forces:  Max     0.000806977 RMS     0.000429147
 Search for a local minimum.
 Step number   2 out of a maximum of   31
 All quantities printed in internal units (Hartrees-Bohrs-Radians)
 Mixed Optimization -- En-DIIS/RFO-DIIS
 Swaping is turned off.
 Update second derivatives using D2CorX and points    1    2
 DE= -8.72D-05 DEPred=-5.42D-05 R= 1.61D+00
 SS=  1.41D+00  RLast= 3.42D-02 DXNew= 5.0454D-01 1.0255D-01
 Trust test= 1.61D+00 RLast= 3.42D-02 DXMaxT set to 3.00D-01
     Eigenvalues ---    0.03567   0.06459   0.09510   0.09962   0.10176
     Eigenvalues ---    0.10570   0.10674   0.11314   0.12640   0.13649
     Eigenvalues ---    0.14549   0.160361000.000001000.000001000.00000
     Eigenvalues --- 1000.000001000.000001000.000001000.000001000.00000
     Eigenvalues --- 1000.00000
 En-DIIS/RFO-DIIS IScMMF=        0 using points:     2    1
 RFO step:  Lambda=-2.01096349D-05.
 DIIS coeffs:      2.55710     -1.55710
 Iteration  1 RMS(Cart)=  0.00653143 RMS(Int)=  0.00002617
 Iteration  2 RMS(Cart)=  0.00001213 RMS(Int)=  0.00001905
 Iteration  3 RMS(Cart)=  0.00000000 RMS(Int)=  0.00001905
 ClnCor:  largest displacement from symmetrization is 4.50D-12 for atom     3.
 Variable       Old X    -DE/DX   Delta X   Delta X   Delta X     New X
                                  (DIIS)     (GDIIS)  (Total)
    R1        4.71182  -0.00024  -0.01073   0.00178  -0.00896   4.70286
    R2        4.40081   0.00027   0.00050   0.00146   0.00194   4.40274
    R3        4.78859  -0.00080  -0.02161  -0.00124  -0.02284   4.76574
    R4        4.78859  -0.00080  -0.02161  -0.00124  -0.02284   4.76574
    R5        4.53547  -0.00024  -0.00608   0.00045  -0.00562   4.52985
    R6        4.53547  -0.00024  -0.00608   0.00045  -0.00562   4.52985
    R7        4.71182  -0.00024  -0.01073   0.00178  -0.00896   4.70286
    R8        4.78859  -0.00080  -0.02161  -0.00124  -0.02284   4.76574
    R9        4.78859  -0.00080  -0.02161  -0.00124  -0.02284   4.76574
   R10        4.53547  -0.00024  -0.00608   0.00045  -0.00562   4.52985
   R11        4.53547  -0.00024  -0.00608   0.00045  -0.00562   4.52985
   R12        4.79964  -0.00081  -0.02212   0.00126  -0.02089   4.77875
    A1        1.90158  -0.00006  -0.00001  -0.00055  -0.00057   1.90101
    A2        1.90158  -0.00006  -0.00001  -0.00055  -0.00057   1.90101
    A3        1.83962   0.00024   0.00484   0.00065   0.00551   1.84512
    A4        1.83962   0.00024   0.00484   0.00065   0.00551   1.84512
    A5        1.93182  -0.00002   0.00133  -0.00118   0.00011   1.93193
    A6        1.83962   0.00024   0.00484   0.00065   0.00551   1.84512
    A7        1.83962   0.00024   0.00484   0.00065   0.00551   1.84512
    A8        1.93182  -0.00002   0.00133  -0.00118   0.00011   1.93193
    D1        0.00000   0.00000   0.00000   0.00000   0.00000   0.00000
         Item               Value     Threshold  Converged?
 Maximum Force            0.000807     0.000450     NO 
 RMS     Force            0.000429     0.000300     NO 
 Maximum Displacement     0.013894     0.001800     NO 
 RMS     Displacement     0.006537     0.001200     NO 
 Predicted change in Energy=-5.272630D-05
 GradGradGradGradGradGradGradGradGradGradGradGradGradGradGradGradGradGrad

                          Input orientation:                          
 ---------------------------------------------------------------------
 Center     Atomic      Atomic             Coordinates (Angstroms)
 Number     Number       Type             X           Y           Z
 ---------------------------------------------------------------------
      1         14           0        0.000000    1.164915    1.399760
      2         14           0        0.000000    1.971841   -0.954435
      3         14           0        0.000000   -1.164915    1.399760
      4         14           0        0.000000   -1.971841   -0.954435
      5         14           0        1.264402    0.000000   -0.445331
      6         14           0       -1.264402    0.000000   -0.445331
 ---------------------------------------------------------------------
                    Distance matrix (angstroms):
                    1          2          3          4          5
     1  Si   0.000000
     2  Si   2.488647   0.000000
     3  Si   2.329831   3.921922   0.000000
     4  Si   3.921922   3.943683   2.488647   0.000000
     5  Si   2.521924   2.397094   2.521924   2.397094   0.000000
     6  Si   2.521924   2.397094   2.521924   2.397094   2.528804
                    6
     6  Si   0.000000
 Stoichiometry    Si6(1-,2)
 Framework group  C2V[SGV(Si4),SGV'(Si2)]
 Deg. of freedom     5
 Full point group                 C2V     NOp   4
 Largest Abelian subgroup         C2V     NOp   4
 Largest concise Abelian subgroup C2V     NOp   4
                         Standard orientation:                         
 ---------------------------------------------------------------------
 Center     Atomic      Atomic             Coordinates (Angstroms)
 Number     Number       Type             X           Y           Z
 ---------------------------------------------------------------------
      1         14           0        0.000000    1.164915    1.399762
      2         14           0        0.000000    1.971841   -0.954433
      3         14           0        0.000000   -1.164915    1.399762
      4         14           0        0.000000   -1.971841   -0.954433
      5         14           0        1.264402    0.000000   -0.445329
      6         14           0       -1.264402    0.000000   -0.445329
 ---------------------------------------------------------------------
 Rotational constants (GHZ):      1.9351785      1.3197255      1.0863973
 Standard basis: GTBas3 (6D, 7F)
 There are    66 symmetry adapted basis functions of A1  symmetry.
 There are    30 symmetry adapted basis functions of A2  symmetry.
 There are    42 symmetry adapted basis functions of B1  symmetry.
 There are    54 symmetry adapted basis functions of B2  symmetry.
 Integral buffers will be    131072 words long.
 Raffenetti 2 integral format.
 Two-electron integral symmetry is turned on.
   192 basis functions,   408 primitive gaussians,   210 cartesian basis functions
    43 alpha electrons       42 beta electrons
       nuclear repulsion energy       585.6594162961 Hartrees.
 NAtoms=    6 NActive=    6 NUniq=    3 SFac= 3.00D+00 NAtFMM=   80 NAOKFM=F Big=F
 One-electron integrals computed using PRISM.
 NBasis=   192 RedAO= T  NBF=    66    30    42    54
 NBsUse=   192 1.00D-06 NBFU=    66    30    42    54
 Initial guess read from the read-write file.
 B after Tr=     0.000000    0.000000    0.000000
         Rot=    1.000000    0.000000    0.000000    0.000000 Ang=   0.00 deg.
 Initial guess orbital symmetries:
 Alpha Orbitals:
       Occupied  (B2) (A1) (A1) (B2) (A1) (B1) (B2) (A1) (A1) (B1)
                 (A1) (B2) (B2) (A1) (B1) (A2) (A1) (B2) (B1) (A2)
                 (A1) (B1) (A1) (B2) (B1) (A1) (A2) (B2) (A1) (B2)
                 (A1) (B2) (A1) (B1) (A1) (B2) (A1) (A2) (A1) (B2)
                 (B1) (A1) (B2)
       Virtual   (B1) (A2) (A1) (B1) (A1) (B1) (B2) (A1) (B2) (A2)
                 (B2) (A1) (B2) (A1) (A1) (B1) (A1) (A2) (B2) (A1)
                 (B1) (B2) (A2) (B1) (A1) (A1) (B1) (B2) (A2) (A1)
                 (B1) (B2) (A2) (B2) (A1) (B1) (B2) (A1) (B1) (B2)
                 (A2) (B2) (B1) (A1) (A2) (A1) (A1) (B2) (B1) (A2)
                 (A1) (B2) (B1) (A1) (A1) (A2) (B2) (B2) (B1) (A1)
                 (B1) (A2) (A1) (B2) (B2) (A1) (B1) (A1) (B2) (A1)
                 (A2) (A1) (B2) (B1) (B2) (A2) (A1) (B1) (B2) (A1)
                 (A1) (B1) (B2) (A2) (B1) (B2) (A2) (A1) (B1) (A1)
                 (B2) (B1) (A1) (A2) (B2) (B1) (A1) (B2) (A2) (A1)
                 (A1) (B2) (A1) (B1) (A2) (B1) (A2) (A1) (B2) (A2)
                 (B1) (B2) (B2) (B1) (B2) (A2) (A1) (A2) (A1) (B1)
                 (B2) (B1) (A1) (B1) (B2) (A1) (B2) (A2) (A2) (A1)
                 (B2) (B1) (B1) (A1) (B2) (A1) (B2) (A2) (A1) (B1)
                 (A2) (B2) (A1) (A1) (B2) (A1) (B2) (B1) (A1)
 Beta  Orbitals:
       Occupied  (B2) (A1) (A1) (B1) (A1) (B2) (B2) (A1) (A1) (B1)
                 (A1) (B2) (B1) (A2) (B2) (A1) (A1) (B1) (B1) (A2)
                 (B2) (A1) (B1) (A1) (A2) (B2) (A1) (B2) (A1) (B2)
                 (A1) (B2) (A1) (B1) (A1) (B2) (A1) (A2) (A1) (B1)
                 (B2) (A1)
       Virtual   (B2) (B1) (A2) (B1) (A1) (A1) (B1) (B2) (B2) (A1)
                 (A2) (B2) (A1) (B2) (A1) (A1) (B1) (A1) (A2) (B2)
                 (A1) (B1) (B2) (B1) (A2) (A1) (A1) (B1) (B2) (A2)
                 (B1) (A1) (B2) (A2) (B2) (A1) (B1) (B2) (A1) (B2)
                 (B1) (A2) (B1) (B2) (A1) (A2) (A1) (A1) (B2) (B1)
                 (A2) (A1) (B2) (B1) (A1) (A1) (A2) (B2) (B2) (B1)
                 (B1) (A1) (A2) (A1) (B2) (B2) (A1) (B1) (A1) (B2)
                 (A1) (A2) (A1) (B2) (B1) (B2) (A2) (A1) (B1) (A1)
                 (B2) (B1) (A1) (A2) (B2) (B1) (B2) (A2) (A1) (B1)
                 (A1) (B2) (B1) (A1) (A2) (B2) (B1) (B2) (A1) (A2)
                 (A1) (A1) (B1) (B2) (A2) (A1) (B1) (A2) (A1) (A2)
                 (B2) (B1) (B2) (B2) (B1) (B2) (A2) (A1) (A2) (A1)
                 (B1) (B2) (B1) (A1) (B1) (B2) (A1) (B2) (A2) (A2)
                 (A1) (B2) (B1) (B1) (A1) (B2) (A1) (B2) (A2) (A1)
                 (B1) (A2) (B2) (A1) (A1) (B2) (A1) (B2) (B1) (A1)
 Initial guess <Sx>= 0.0000 <Sy>= 0.0000 <Sz>= 0.5000 <S**2>= 0.7610 S= 0.5055
 Requested convergence on RMS density matrix=1.00D-08 within 128 cycles.
 Requested convergence on MAX density matrix=1.00D-06.
 Requested convergence on             energy=1.00D-06.
 No special actions if energy rises.
 Keep R1 and R2 ints in memory in canonical form, NReq=495764665.
 SCF Done:  E(UB3LYP) =  -1737.00017509     A.U. after   11 cycles
             Convg  =    0.5570D-08             -V/T =  2.0035
 <Sx>= 0.0000 <Sy>= 0.0000 <Sz>= 0.5000 <S**2>= 0.7609 S= 0.5054
 <L.S>= 0.000000000000E+00
 Annihilation of the first spin contaminant:
 S**2 before annihilation     0.7609,   after     0.7501
 QCSCF skips out because SCF is already converged.
 Calling FoFJK, ICntrl=      2127 FMM=F ISym2X=1 I1Cent= 0 IOpClX= 1 NMat=1 NMatS=1 NMatT=0.
 ***** Axes restored to original set *****
 -------------------------------------------------------------------
 Center     Atomic                   Forces (Hartrees/Bohr)
 Number     Number              X              Y              Z
 -------------------------------------------------------------------
      1       14           0.000000000    0.000145497    0.000122531
      2       14           0.000000000    0.000030466   -0.000212897
      3       14           0.000000000   -0.000145497    0.000122531
      4       14           0.000000000   -0.000030466   -0.000212897
      5       14           0.000138136    0.000000000    0.000090365
      6       14          -0.000138136    0.000000000    0.000090365
 -------------------------------------------------------------------
 Cartesian Forces:  Max     0.000212897 RMS     0.000110395

 GradGradGradGradGradGradGradGradGradGradGradGradGradGradGradGradGradGrad
 Berny optimization.
 Using GEDIIS/GDIIS optimizer.
 Internal  Forces:  Max     0.000207465 RMS     0.000095662
 Search for a local minimum.
 Step number   3 out of a maximum of   31
 All quantities printed in internal units (Hartrees-Bohrs-Radians)
 Mixed Optimization -- En-DIIS/RFO-DIIS
 Swaping is turned off.
 Update second derivatives using D2CorX and points    1    2    3
 DE= -5.23D-05 DEPred=-5.27D-05 R= 9.92D-01
 SS=  1.41D+00  RLast= 5.42D-02 DXNew= 5.0454D-01 1.6255D-01
 Trust test= 9.92D-01 RLast= 5.42D-02 DXMaxT set to 3.00D-01
     Eigenvalues ---    0.03608   0.06475   0.09521   0.09949   0.10177
     Eigenvalues ---    0.10562   0.10797   0.11315   0.12644   0.13654
     Eigenvalues ---    0.14570   0.161521000.000001000.000001000.00000
     Eigenvalues --- 1000.000001000.000001000.000001000.000001000.00000
     Eigenvalues --- 1000.00000
 En-DIIS/RFO-DIIS IScMMF=        0 using points:     3    2    1
 RFO step:  Lambda=-5.01033531D-07.
 DIIS coeffs:      2.64110     -4.33383      2.69273
 Iteration  1 RMS(Cart)=  0.00202870 RMS(Int)=  0.00002509
 Iteration  2 RMS(Cart)=  0.00000287 RMS(Int)=  0.00002491
 Iteration  3 RMS(Cart)=  0.00000000 RMS(Int)=  0.00002491
 ClnCor:  largest displacement from symmetrization is 7.05D-12 for atom     3.
 Variable       Old X    -DE/DX   Delta X   Delta X   Delta X     New X
                                  (DIIS)     (GDIIS)  (Total)
    R1        4.70286   0.00018   0.00385   0.00038   0.00425   4.70711
    R2        4.40274   0.00021   0.00231   0.00062   0.00296   4.40570
    R3        4.76574  -0.00004  -0.00011   0.00020   0.00008   4.76582
    R4        4.76574  -0.00004  -0.00011   0.00020   0.00008   4.76582
    R5        4.52985   0.00001   0.00130  -0.00048   0.00081   4.53066
    R6        4.52985   0.00001   0.00130  -0.00048   0.00081   4.53066
    R7        4.70286   0.00018   0.00385   0.00038   0.00425   4.70711
    R8        4.76574  -0.00004  -0.00011   0.00020   0.00008   4.76582
    R9        4.76574  -0.00004  -0.00011   0.00020   0.00008   4.76582
   R10        4.52985   0.00001   0.00130  -0.00048   0.00081   4.53066
   R11        4.52985   0.00001   0.00130  -0.00048   0.00081   4.53066
   R12        4.77875   0.00016   0.00397  -0.00037   0.00363   4.78237
    A1        1.90101  -0.00007  -0.00092  -0.00023  -0.00114   1.89987
    A2        1.90101  -0.00007  -0.00092  -0.00023  -0.00114   1.89987
    A3        1.84512   0.00005   0.00066   0.00015   0.00078   1.84590
    A4        1.84512   0.00005   0.00066   0.00015   0.00078   1.84590
    A5        1.93193  -0.00013  -0.00213  -0.00015  -0.00223   1.92969
    A6        1.84512   0.00005   0.00066   0.00015   0.00078   1.84590
    A7        1.84512   0.00005   0.00066   0.00015   0.00078   1.84590
    A8        1.93193  -0.00013  -0.00213  -0.00015  -0.00223   1.92969
    D1        0.00000   0.00000   0.00000   0.00000   0.00000   0.00000
         Item               Value     Threshold  Converged?
 Maximum Force            0.000207     0.000450     YES
 RMS     Force            0.000096     0.000300     YES
 Maximum Displacement     0.004529     0.001800     NO 
 RMS     Displacement     0.002031     0.001200     NO 
 Predicted change in Energy=-1.411396D-06
 GradGradGradGradGradGradGradGradGradGradGradGradGradGradGradGradGradGrad

                          Input orientation:                          
 ---------------------------------------------------------------------
 Center     Atomic      Atomic             Coordinates (Angstroms)
 Number     Number       Type             X           Y           Z
 ---------------------------------------------------------------------
      1         14           0        0.000000    1.165699    1.400409
      2         14           0        0.000000    1.970671   -0.956832
      3         14           0        0.000000   -1.165699    1.400409
      4         14           0        0.000000   -1.970671   -0.956832
      5         14           0        1.265361    0.000000   -0.443584
      6         14           0       -1.265361    0.000000   -0.443584
 ---------------------------------------------------------------------
                    Distance matrix (angstroms):
                    1          2          3          4          5
     1  Si   0.000000
     2  Si   2.490896   0.000000
     3  Si   2.331398   3.923442   0.000000
     4  Si   3.923442   3.941342   2.490896   0.000000
     5  Si   2.521964   2.397521   2.521964   2.397521   0.000000
     6  Si   2.521964   2.397521   2.521964   2.397521   2.530722
                    6
     6  Si   0.000000
 Stoichiometry    Si6(1-,2)
 Framework group  C2V[SGV(Si4),SGV'(Si2)]
 Deg. of freedom     5
 Full point group                 C2V     NOp   4
 Largest Abelian subgroup         C2V     NOp   4
 Largest concise Abelian subgroup C2V     NOp   4
                         Standard orientation:                         
 ---------------------------------------------------------------------
 Center     Atomic      Atomic             Coordinates (Angstroms)
 Number     Number       Type             X           Y           Z
 ---------------------------------------------------------------------
      1         14           0        0.000000    1.165699    1.400411
      2         14           0        0.000000    1.970671   -0.956830
      3         14           0        0.000000   -1.165699    1.400411
      4         14           0        0.000000   -1.970671   -0.956830
      5         14           0        1.265361    0.000000   -0.443582
      6         14           0       -1.265361    0.000000   -0.443582
 ---------------------------------------------------------------------
 Rotational constants (GHZ):      1.9321674      1.3197954      1.0861285
 Standard basis: GTBas3 (6D, 7F)
 There are    66 symmetry adapted basis functions of A1  symmetry.
 There are    30 symmetry adapted basis functions of A2  symmetry.
 There are    42 symmetry adapted basis functions of B1  symmetry.
 There are    54 symmetry adapted basis functions of B2  symmetry.
 Integral buffers will be    131072 words long.
 Raffenetti 2 integral format.
 Two-electron integral symmetry is turned on.
   192 basis functions,   408 primitive gaussians,   210 cartesian basis functions
    43 alpha electrons       42 beta electrons
       nuclear repulsion energy       585.4847705231 Hartrees.
 NAtoms=    6 NActive=    6 NUniq=    3 SFac= 3.00D+00 NAtFMM=   80 NAOKFM=F Big=F
 One-electron integrals computed using PRISM.
 NBasis=   192 RedAO= T  NBF=    66    30    42    54
 NBsUse=   192 1.00D-06 NBFU=    66    30    42    54
 Initial guess read from the read-write file.
 B after Tr=     0.000000    0.000000    0.000000
         Rot=    1.000000    0.000000    0.000000    0.000000 Ang=   0.00 deg.
 Initial guess orbital symmetries:
 Alpha Orbitals:
       Occupied  (B2) (A1) (A1) (B2) (A1) (B1) (B2) (A1) (A1) (B2)
                 (A1) (B1) (B2) (A1) (B1) (A2) (A1) (B2) (B1) (A2)
                 (A1) (B1) (A1) (B2) (B1) (A1) (A2) (B2) (A1) (B2)
                 (A1) (B2) (A1) (B1) (A1) (B2) (A1) (A2) (A1) (B2)
                 (B1) (A1) (B2)
       Virtual   (B1) (A2) (A1) (B1) (A1) (B2) (B1) (A1) (B2) (A2)
                 (B2) (A1) (B2) (A1) (A1) (B1) (A1) (A2) (B2) (A1)
                 (B1) (B2) (A2) (B1) (A1) (A1) (B1) (B2) (A2) (A1)
                 (B1) (B2) (A2) (B2) (A1) (B1) (B2) (A1) (B1) (B2)
                 (A2) (B2) (B1) (A1) (A2) (A1) (A1) (B2) (B1) (A2)
                 (A1) (B2) (B1) (A1) (A1) (A2) (B2) (B2) (B1) (B1)
                 (A1) (A2) (B2) (A1) (B2) (A1) (B1) (A1) (B2) (A1)
                 (A2) (A1) (B2) (B1) (B2) (A2) (A1) (B1) (B2) (A1)
                 (A1) (B1) (B2) (A2) (B1) (B2) (A2) (A1) (B1) (A1)
                 (B2) (B1) (A1) (B2) (A2) (B1) (B2) (A1) (A2) (A1)
                 (A1) (B2) (A1) (A2) (B1) (B1) (A2) (A1) (B2) (A2)
                 (B1) (B2) (B2) (B1) (B2) (A2) (A1) (A2) (B1) (A1)
                 (B2) (B1) (A1) (B1) (B2) (A1) (B2) (A2) (A2) (B1)
                 (A1) (B2) (B1) (A1) (B2) (A1) (B2) (A2) (A1) (B1)
                 (A2) (B2) (A1) (A1) (B2) (A1) (B2) (B1) (A1)
 Beta  Orbitals:
       Occupied  (B2) (A1) (A1) (B1) (A1) (B2) (B2) (A1) (A1) (B1)
                 (A1) (B2) (B1) (A2) (B2) (A1) (A1) (B1) (A2) (B2)
                 (B1) (A1) (B1) (A1) (A2) (B2) (A1) (B2) (A1) (B2)
                 (A1) (B2) (A1) (B1) (A1) (B2) (A2) (A1) (A1) (B1)
                 (B2) (A1)
       Virtual   (B2) (B1) (A2) (B1) (A1) (A1) (B1) (B2) (B2) (A1)
                 (A2) (B2) (A1) (B2) (A1) (A1) (B1) (A1) (A2) (B2)
                 (A1) (B1) (B2) (A2) (B1) (A1) (B1) (A1) (B2) (A2)
                 (B1) (A1) (B2) (A2) (B2) (A1) (B1) (B2) (A1) (B2)
                 (B1) (A2) (B1) (B2) (A1) (A2) (A1) (A1) (B2) (B1)
                 (A2) (A1) (B2) (B1) (A1) (A1) (A2) (B2) (B2) (B1)
                 (B1) (A1) (A2) (A1) (B2) (B2) (A1) (B1) (A1) (B2)
                 (A1) (A2) (A1) (B2) (B1) (B2) (A2) (A1) (B1) (B2)
                 (A1) (B1) (A1) (A2) (B2) (B1) (B2) (A2) (A1) (B1)
                 (A1) (B2) (B1) (A1) (A2) (B2) (B1) (B2) (A1) (A2)
                 (A1) (A1) (B2) (B1) (A2) (A1) (B1) (A2) (A1) (B2)
                 (A2) (B1) (B2) (B2) (B1) (B2) (A2) (A1) (A2) (B1)
                 (A1) (B2) (B1) (A1) (B1) (B2) (A1) (B2) (A2) (A2)
                 (B1) (A1) (B2) (B1) (A1) (B2) (A1) (B2) (A2) (A1)
                 (B1) (A2) (B2) (A1) (A1) (B2) (A1) (B2) (B1) (A1)
 Initial guess <Sx>= 0.0000 <Sy>= 0.0000 <Sz>= 0.5000 <S**2>= 0.7609 S= 0.5055
 Requested convergence on RMS density matrix=1.00D-08 within 128 cycles.
 Requested convergence on MAX density matrix=1.00D-06.
 Requested convergence on             energy=1.00D-06.
 No special actions if energy rises.
 Keep R1 and R2 ints in memory in canonical form, NReq=495764665.
 SCF Done:  E(UB3LYP) =  -1737.00017704     A.U. after   10 cycles
             Convg  =    0.9541D-08             -V/T =  2.0035
 <Sx>= 0.0000 <Sy>= 0.0000 <Sz>= 0.5000 <S**2>= 0.7609 S= 0.5055
 <L.S>= 0.000000000000E+00
 Annihilation of the first spin contaminant:
 S**2 before annihilation     0.7609,   after     0.7501
 QCSCF skips out because SCF is already converged.
 Calling FoFJK, ICntrl=      2127 FMM=F ISym2X=1 I1Cent= 0 IOpClX= 1 NMat=1 NMatS=1 NMatT=0.
 ***** Axes restored to original set *****
 -------------------------------------------------------------------
 Center     Atomic                   Forces (Hartrees/Bohr)
 Number     Number              X              Y              Z
 -------------------------------------------------------------------
      1       14           0.000000000    0.000020786   -0.000045874
      2       14           0.000000000   -0.000055590   -0.000016893
      3       14           0.000000000   -0.000020786   -0.000045874
      4       14           0.000000000    0.000055590   -0.000016893
      5       14          -0.000132623    0.000000000    0.000062767
      6       14           0.000132623    0.000000000    0.000062767
 -------------------------------------------------------------------
 Cartesian Forces:  Max     0.000132623 RMS     0.000055217

 GradGradGradGradGradGradGradGradGradGradGradGradGradGradGradGradGradGrad
 Berny optimization.
 Using GEDIIS/GDIIS optimizer.
 Internal  Forces:  Max     0.000057396 RMS     0.000033254
 Search for a local minimum.
 Step number   4 out of a maximum of   31
 All quantities printed in internal units (Hartrees-Bohrs-Radians)
 Mixed Optimization -- En-DIIS/RFO-DIIS
 Swaping is turned off.
 Update second derivatives using D2CorX and points    1    2    3    4
 DE= -1.95D-06 DEPred=-1.41D-06 R= 1.38D+00
 SS=  1.41D+00  RLast= 8.70D-03 DXNew= 5.0454D-01 2.6094D-02
 Trust test= 1.38D+00 RLast= 8.70D-03 DXMaxT set to 3.00D-01
     Eigenvalues ---    0.03476   0.04401   0.06491   0.09522   0.10129
     Eigenvalues ---    0.10176   0.10558   0.11316   0.12321   0.12643
     Eigenvalues ---    0.13668   0.145631000.000001000.000001000.00000
     Eigenvalues --- 1000.000001000.000001000.000001000.000001000.00000
     Eigenvalues --- 1000.00000
 En-DIIS/RFO-DIIS IScMMF=        0 using points:     4    3    2    1
 RFO step:  Lambda=-1.10999290D-07.
 DIIS coeffs:      1.86162     -1.73150      2.47942     -1.60953
 Iteration  1 RMS(Cart)=  0.00111495 RMS(Int)=  0.00001777
 Iteration  2 RMS(Cart)=  0.00000060 RMS(Int)=  0.00001774
 ClnCor:  largest displacement from symmetrization is 4.01D-12 for atom     4.
 Variable       Old X    -DE/DX   Delta X   Delta X   Delta X     New X
                                  (DIIS)     (GDIIS)  (Total)
    R1        4.70711   0.00002   0.00037   0.00008   0.00043   4.70755
    R2        4.40570   0.00006   0.00139  -0.00010   0.00126   4.40696
    R3        4.76582  -0.00005  -0.00240   0.00000  -0.00240   4.76342
    R4        4.76582  -0.00005  -0.00240   0.00000  -0.00240   4.76342
    R5        4.53066  -0.00003  -0.00070  -0.00002  -0.00071   4.52994
    R6        4.53066  -0.00003  -0.00070  -0.00002  -0.00071   4.52994
    R7        4.70711   0.00002   0.00037   0.00008   0.00043   4.70755
    R8        4.76582  -0.00005  -0.00240   0.00000  -0.00240   4.76342
    R9        4.76582  -0.00005  -0.00240   0.00000  -0.00240   4.76342
   R10        4.53066  -0.00003  -0.00070  -0.00002  -0.00071   4.52994
   R11        4.53066  -0.00003  -0.00070  -0.00002  -0.00071   4.52994
   R12        4.78237  -0.00004  -0.00157  -0.00004  -0.00163   4.78074
    A1        1.89987  -0.00002  -0.00050   0.00000  -0.00050   1.89937
    A2        1.89987  -0.00002  -0.00050   0.00000  -0.00050   1.89937
    A3        1.84590   0.00003   0.00089   0.00000   0.00091   1.84681
    A4        1.84590   0.00003   0.00089   0.00000   0.00091   1.84681
    A5        1.92969  -0.00002  -0.00064   0.00000  -0.00068   1.92901
    A6        1.84590   0.00003   0.00089   0.00000   0.00091   1.84681
    A7        1.84590   0.00003   0.00089   0.00000   0.00091   1.84681
    A8        1.92969  -0.00002  -0.00064   0.00000  -0.00068   1.92901
    D1        0.00000   0.00000   0.00000   0.00000   0.00000   0.00000
         Item               Value     Threshold  Converged?
 Maximum Force            0.000057     0.000450     YES
 RMS     Force            0.000033     0.000300     YES
 Maximum Displacement     0.002470     0.001800     NO 
 RMS     Displacement     0.001115     0.001200     YES
 Predicted change in Energy=-1.896894D-07
 GradGradGradGradGradGradGradGradGradGradGradGradGradGradGradGradGradGrad

                          Input orientation:                          
 ---------------------------------------------------------------------
 Center     Atomic      Atomic             Coordinates (Angstroms)
 Number     Number       Type             X           Y           Z
 ---------------------------------------------------------------------
      1         14           0        0.000000    1.166032    1.400066
      2         14           0        0.000000    1.969895   -0.957796
      3         14           0        0.000000   -1.166032    1.400066
      4         14           0        0.000000   -1.969895   -0.957796
      5         14           0        1.264929    0.000000   -0.442277
      6         14           0       -1.264929    0.000000   -0.442277
 ---------------------------------------------------------------------
                    Distance matrix (angstroms):
                    1          2          3          4          5
     1  Si   0.000000
     2  Si   2.491127   0.000000
     3  Si   2.332065   3.923462   0.000000
     4  Si   3.923462   3.939790   2.491127   0.000000
     5  Si   2.520695   2.397142   2.520695   2.397142   0.000000
     6  Si   2.520695   2.397142   2.520695   2.397142   2.529858
                    6
     6  Si   0.000000
 Stoichiometry    Si6(1-,2)
 Framework group  C2V[SGV(Si4),SGV'(Si2)]
 Deg. of freedom     5
 Full point group                 C2V     NOp   4
 Largest Abelian subgroup         C2V     NOp   4
 Largest concise Abelian subgroup C2V     NOp   4
                         Standard orientation:                         
 ---------------------------------------------------------------------
 Center     Atomic      Atomic             Coordinates (Angstroms)
 Number     Number       Type             X           Y           Z
 ---------------------------------------------------------------------
      1         14           0        0.000000    1.166032    1.400069
      2         14           0        0.000000    1.969895   -0.957794
      3         14           0        0.000000   -1.166032    1.400069
      4         14           0        0.000000   -1.969895   -0.957794
      5         14           0        1.264929    0.000000   -0.442274
      6         14           0       -1.264929    0.000000   -0.442274
 ---------------------------------------------------------------------
 Rotational constants (GHZ):      1.9327315      1.3204463      1.0864618
 Standard basis: GTBas3 (6D, 7F)
 There are    66 symmetry adapted basis functions of A1  symmetry.
 There are    30 symmetry adapted basis functions of A2  symmetry.
 There are    42 symmetry adapted basis functions of B1  symmetry.
 There are    54 symmetry adapted basis functions of B2  symmetry.
 Integral buffers will be    131072 words long.
 Raffenetti 2 integral format.
 Two-electron integral symmetry is turned on.
   192 basis functions,   408 primitive gaussians,   210 cartesian basis functions
    43 alpha electrons       42 beta electrons
       nuclear repulsion energy       585.5985663729 Hartrees.
 NAtoms=    6 NActive=    6 NUniq=    3 SFac= 3.00D+00 NAtFMM=   80 NAOKFM=F Big=F
 One-electron integrals computed using PRISM.
 NBasis=   192 RedAO= T  NBF=    66    30    42    54
 NBsUse=   192 1.00D-06 NBFU=    66    30    42    54
 Initial guess read from the read-write file.
 B after Tr=     0.000000    0.000000    0.000000
         Rot=    1.000000    0.000000    0.000000    0.000000 Ang=   0.00 deg.
 Initial guess orbital symmetries:
 Alpha Orbitals:
       Occupied  (B2) (A1) (A1) (B2) (A1) (B1) (B2) (A1) (A1) (B2)
                 (A1) (B1) (B2) (A1) (B1) (A2) (A1) (B2) (B1) (A2)
                 (A1) (B1) (A1) (B2) (B1) (A1) (A2) (B2) (A1) (B2)
                 (A1) (B2) (A1) (B1) (A1) (B2) (A1) (A2) (A1) (B2)
                 (B1) (A1) (B2)
       Virtual   (B1) (A2) (A1) (B1) (A1) (B2) (B1) (A1) (B2) (A2)
                 (B2) (A1) (B2) (A1) (A1) (B1) (A1) (A2) (B2) (A1)
                 (B1) (B2) (A2) (B1) (A1) (A1) (B1) (B2) (A2) (A1)
                 (B1) (B2) (A2) (B2) (A1) (B1) (B2) (A1) (B2) (B1)
                 (A2) (B2) (B1) (A1) (A2) (A1) (A1) (B2) (B1) (A2)
                 (A1) (B2) (B1) (A1) (A1) (A2) (B2) (B2) (B1) (B1)
                 (A1) (A2) (B2) (A1) (B2) (A1) (B1) (A1) (B2) (A1)
                 (A2) (A1) (B2) (B1) (B2) (A2) (A1) (B1) (B2) (A1)
                 (A1) (B1) (B2) (A2) (B1) (B2) (A2) (A1) (B1) (A1)
                 (B2) (B1) (A1) (B2) (A2) (B1) (B2) (A1) (A2) (A1)
                 (A1) (B2) (A2) (B1) (A1) (B1) (A2) (A1) (B2) (A2)
                 (B1) (B2) (B2) (B1) (B2) (A2) (A1) (A2) (B1) (A1)
                 (B2) (B1) (A1) (B1) (B2) (A1) (B2) (A2) (A2) (B1)
                 (A1) (B2) (B1) (A1) (B2) (A1) (B2) (A2) (A1) (B1)
                 (A2) (B2) (A1) (A1) (B2) (A1) (B2) (B1) (A1)
 Beta  Orbitals:
       Occupied  (B2) (A1) (A1) (B1) (A1) (B2) (B2) (A1) (A1) (B1)
                 (A1) (B2) (B1) (A2) (B2) (A1) (B1) (A1) (A2) (B1)
                 (B2) (A1) (B1) (A1) (A2) (B2) (A1) (B2) (A1) (B2)
                 (A1) (B2) (A1) (B1) (A1) (B2) (A2) (A1) (A1) (B1)
                 (B2) (A1)
       Virtual   (B2) (B1) (A2) (A1) (B1) (A1) (B1) (B2) (B2) (A1)
                 (A2) (B2) (A1) (B2) (A1) (B1) (A1) (A1) (A2) (B2)
                 (A1) (B1) (B2) (A2) (B1) (A1) (B1) (A1) (B2) (A2)
                 (B1) (A1) (B2) (A2) (B2) (A1) (B1) (B2) (A1) (B2)
                 (B1) (A2) (B1) (B2) (A1) (A2) (A1) (A1) (B2) (B1)
                 (A2) (A1) (B2) (B1) (A1) (A1) (A2) (B2) (B2) (B1)
                 (B1) (A1) (A2) (A1) (B2) (B2) (A1) (B1) (A1) (B2)
                 (A1) (A2) (A1) (B2) (B1) (B2) (A2) (A1) (B1) (B2)
                 (A1) (B1) (A1) (A2) (B2) (B1) (B2) (A2) (A1) (B1)
                 (A1) (B2) (B1) (A1) (A2) (B2) (B1) (B2) (A1) (A2)
                 (A1) (A1) (B2) (B1) (A2) (A1) (B1) (A2) (A1) (B2)
                 (A2) (B1) (B2) (B2) (B1) (B2) (A2) (A1) (A2) (B1)
                 (A1) (B2) (B1) (A1) (B1) (B2) (A1) (B2) (A2) (A2)
                 (B1) (A1) (B2) (B1) (A1) (B2) (A1) (B2) (A2) (A1)
                 (B1) (A2) (B2) (A1) (A1) (B2) (A1) (B2) (B1) (A1)
 Initial guess <Sx>= 0.0000 <Sy>= 0.0000 <Sz>= 0.5000 <S**2>= 0.7609 S= 0.5055
 Requested convergence on RMS density matrix=1.00D-08 within 128 cycles.
 Requested convergence on MAX density matrix=1.00D-06.
 Requested convergence on             energy=1.00D-06.
 No special actions if energy rises.
 Keep R1 and R2 ints in memory in canonical form, NReq=495764665.
 SCF Done:  E(UB3LYP) =  -1737.00017727     A.U. after   10 cycles
             Convg  =    0.3967D-08             -V/T =  2.0035
 <Sx>= 0.0000 <Sy>= 0.0000 <Sz>= 0.5000 <S**2>= 0.7609 S= 0.5055
 <L.S>= 0.000000000000E+00
 Annihilation of the first spin contaminant:
 S**2 before annihilation     0.7609,   after     0.7501
 QCSCF skips out because SCF is already converged.
 Calling FoFJK, ICntrl=      2127 FMM=F ISym2X=1 I1Cent= 0 IOpClX= 1 NMat=1 NMatS=1 NMatT=0.
 ***** Axes restored to original set *****
 -------------------------------------------------------------------
 Center     Atomic                   Forces (Hartrees/Bohr)
 Number     Number              X              Y              Z
 -------------------------------------------------------------------
      1       14           0.000000000    0.000020546    0.000060539
      2       14           0.000000000    0.000006549   -0.000011222
      3       14           0.000000000   -0.000020546    0.000060539
      4       14           0.000000000   -0.000006549   -0.000011222
      5       14           0.000063044    0.000000000   -0.000049318
      6       14          -0.000063044    0.000000000   -0.000049318
 -------------------------------------------------------------------
 Cartesian Forces:  Max     0.000063044 RMS     0.000034420

 GradGradGradGradGradGradGradGradGradGradGradGradGradGradGradGradGradGrad
 Berny optimization.
 Using GEDIIS/GDIIS optimizer.
 Internal  Forces:  Max     0.000032819 RMS     0.000016132
 Search for a local minimum.
 Step number   5 out of a maximum of   31
 All quantities printed in internal units (Hartrees-Bohrs-Radians)
 Mixed Optimization -- En-DIIS/RFO-DIIS
 Swaping is turned off.
 Update second derivatives using D2CorX and points    1    2    3    4    5
 DE= -2.30D-07 DEPred=-1.90D-07 R= 1.21D+00
 Trust test= 1.21D+00 RLast= 5.86D-03 DXMaxT set to 3.00D-01
     Eigenvalues ---    0.03465   0.04356   0.06498   0.09523   0.10002
     Eigenvalues ---    0.10175   0.10556   0.11317   0.12019   0.12642
     Eigenvalues ---    0.13676   0.145631000.000001000.000001000.00000
     Eigenvalues --- 1000.000001000.000001000.000001000.000001000.00000
     Eigenvalues --- 1000.00000
 En-DIIS/RFO-DIIS IScMMF=        0 using points:     5    4    3    2    1
 RFO step:  Lambda=-2.77679213D-08.
 DIIS coeffs:      1.30973     -0.41515     -0.00821      0.17854     -0.06492
 Iteration  1 RMS(Cart)=  0.00028386 RMS(Int)=  0.00000180
 Iteration  2 RMS(Cart)=  0.00000003 RMS(Int)=  0.00000180
 ClnCor:  largest displacement from symmetrization is 1.29D-12 for atom     3.
 Variable       Old X    -DE/DX   Delta X   Delta X   Delta X     New X
                                  (DIIS)     (GDIIS)  (Total)
    R1        4.70755   0.00001   0.00026   0.00001   0.00026   4.70781
    R2        4.40696   0.00000  -0.00012   0.00000  -0.00012   4.40685
    R3        4.76342   0.00003   0.00094   0.00000   0.00094   4.76437
    R4        4.76342   0.00003   0.00094   0.00000   0.00094   4.76437
    R5        4.52994   0.00000   0.00008   0.00000   0.00008   4.53002
    R6        4.52994   0.00000   0.00008   0.00000   0.00008   4.53002
    R7        4.70755   0.00001   0.00026   0.00001   0.00026   4.70781
    R8        4.76342   0.00003   0.00094   0.00000   0.00094   4.76437
    R9        4.76342   0.00003   0.00094   0.00000   0.00094   4.76437
   R10        4.52994   0.00000   0.00008   0.00000   0.00008   4.53002
   R11        4.52994   0.00000   0.00008   0.00000   0.00008   4.53002
   R12        4.78074   0.00002   0.00056  -0.00001   0.00056   4.78129
    A1        1.89937   0.00000   0.00003   0.00000   0.00003   1.89940
    A2        1.89937   0.00000   0.00003   0.00000   0.00003   1.89940
    A3        1.84681  -0.00001  -0.00022   0.00000  -0.00022   1.84658
    A4        1.84681  -0.00001  -0.00022   0.00000  -0.00022   1.84658
    A5        1.92901   0.00000   0.00007   0.00000   0.00008   1.92909
    A6        1.84681  -0.00001  -0.00022   0.00000  -0.00022   1.84658
    A7        1.84681  -0.00001  -0.00022   0.00000  -0.00022   1.84658
    A8        1.92901   0.00000   0.00007   0.00000   0.00008   1.92909
    D1        0.00000   0.00000   0.00000   0.00000   0.00000   0.00000
         Item               Value     Threshold  Converged?
 Maximum Force            0.000033     0.000450     YES
 RMS     Force            0.000016     0.000300     YES
 Maximum Displacement     0.000692     0.001800     YES
 RMS     Displacement     0.000284     0.001200     YES
 Predicted change in Energy=-6.754545D-08
 Optimization completed.
    -- Stationary point found.
                           ----------------------------
                           !   Optimized Parameters   !
[...]
  Beta virt. eigenvalues --    0.27596   0.28045   0.28147   0.28318   0.28572
  Beta virt. eigenvalues --    0.30521   0.31773   0.32894   0.33776   0.35444
  Beta virt. eigenvalues --    0.35745   0.35829   0.35967   0.36478   0.37305
  Beta virt. eigenvalues --    0.38644   0.39614   0.39857   0.41234   0.41256
  Beta virt. eigenvalues --    0.41806   0.42301   0.42458   0.43544   0.44127
  Beta virt. eigenvalues --    0.45349   0.46336   0.47146   0.49728   0.51019
  Beta virt. eigenvalues --    0.53087   0.53783   0.55551   0.56402   0.57182
  Beta virt. eigenvalues --    0.57478   0.58255   0.58450   0.59232   0.59259
  Beta virt. eigenvalues --    0.60860   0.61392   0.62708   0.63515   0.65414
  Beta virt. eigenvalues --    0.66070   0.67379   0.68387   0.69883   0.70644
  Beta virt. eigenvalues --    0.70780   0.71360   0.71766   0.72440   0.72906
  Beta virt. eigenvalues --    0.73224   0.74815   0.76118   0.76850   0.78936
  Beta virt. eigenvalues --    0.80040   0.81047   0.81529   0.81619   0.82949
  Beta virt. eigenvalues --    0.85922   0.85947   0.86898   0.87847   0.88213
  Beta virt. eigenvalues --    0.89698   0.90675   0.91556   0.92605   0.94057
  Beta virt. eigenvalues --    0.94546   0.94701   0.96056   0.96633   0.96937
  Beta virt. eigenvalues --    0.97015   0.97813   0.97932   1.00200   1.00297
  Beta virt. eigenvalues --    1.01244   1.02206   1.02382   1.03674   1.04069
  Beta virt. eigenvalues --    1.04285   1.05651   1.07556   1.07878   1.08998
  Beta virt. eigenvalues --    1.09042   1.09203   1.09987   1.10256   1.10871
  Beta virt. eigenvalues --    1.11528   1.11924   1.12580   1.13144   1.13161
  Beta virt. eigenvalues --    1.14539   1.14882   1.15032   1.15306   1.15672
  Beta virt. eigenvalues --    1.16084   1.16885   1.18251   1.18403   1.19828
  Beta virt. eigenvalues --    1.20179   1.21310   1.22180   1.22222   1.22356
  Beta virt. eigenvalues --    1.22440   1.24018   1.24713   1.24813   1.25563
  Beta virt. eigenvalues --    1.25660   1.25885   1.27701   1.27732   1.30893
  Beta virt. eigenvalues --    1.31470   1.38782   1.38929   1.42578   1.43663
  Beta virt. eigenvalues --    1.44955   1.51035   1.53220   1.53906   1.54924
  Beta virt. eigenvalues --    1.55713   1.56829   1.58414   1.59135   1.59966
  Beta virt. eigenvalues --    1.61144   1.62129   1.62173   1.65389   1.65437
  Beta virt. eigenvalues --    1.66430   1.66449   1.67061   1.68185   1.69230
  Beta virt. eigenvalues --    1.70321   1.70985   1.71311   1.73961   1.75896
  Beta virt. eigenvalues --    1.76194   1.76412   1.76889   1.76951   1.79040
  Beta virt. eigenvalues --    1.80361   1.80887   1.81093   1.82687   1.83279
  Beta virt. eigenvalues --    1.86471   1.86991   1.87125   1.88549   1.89403
  Beta virt. eigenvalues --    1.91363   1.91711   1.92306   1.92531   1.92648
  Beta virt. eigenvalues --    1.96156   1.96653   1.96660   1.96728   1.97821
  Beta virt. eigenvalues --    1.98815   1.99656   1.99716   1.99911   2.00982
  Beta virt. eigenvalues --    2.02668   2.02732   2.03618   2.04951   2.05025
  Beta virt. eigenvalues --    2.05458   2.05810   2.06195   2.09280   2.09399
  Beta virt. eigenvalues --    2.10384   2.11202   2.11713   2.13210   2.13456
  Beta virt. eigenvalues --    2.14035   2.14601   2.15031   2.16124   2.17041
  Beta virt. eigenvalues --    2.18804   2.19374   2.19679   2.20248   2.21129
  Beta virt. eigenvalues --    2.21680   2.24999   2.25350   2.25795   2.26585
  Beta virt. eigenvalues --    2.26844   2.27505   2.27924   2.29357   2.30365
  Beta virt. eigenvalues --    2.31843   2.33104   2.34689   2.35243   2.37413
  Beta virt. eigenvalues --    2.39459   2.40637   2.41445   2.42269   2.43542
  Beta virt. eigenvalues --    2.43909   2.46197   2.46272   2.47718   2.49244
  Beta virt. eigenvalues --    2.49475   2.50089   2.52861   2.53183   2.55028
  Beta virt. eigenvalues --    2.55486   2.57774   2.59453   2.61478   2.66293
  Beta virt. eigenvalues --    2.67271   2.67658   2.67716   2.68833   2.69617
  Beta virt. eigenvalues --    2.70104   2.85944   2.86503   2.89339   2.93093
  Beta virt. eigenvalues --    2.93661   2.96099   2.98412   3.00017   3.00478
  Beta virt. eigenvalues --    3.01141   3.05048   3.06864   3.08838   3.12695
  Beta virt. eigenvalues --    3.12700   3.15813   3.16174   3.18648   3.28795
  Beta virt. eigenvalues --    3.31004   3.32374   3.32731   3.35257   3.36937
  Beta virt. eigenvalues --    3.38177   3.38181   3.38340   3.40458   3.40825
  Beta virt. eigenvalues --    3.43672   3.44355   3.47672   3.47816   3.49082
  Beta virt. eigenvalues --    3.50861   3.52855   3.53473   3.53954   3.54183
  Beta virt. eigenvalues --    3.55782   3.56977   3.58070   3.58223   3.58461
  Beta virt. eigenvalues --    3.58573   3.60051   3.60359   3.60713   3.63241
  Beta virt. eigenvalues --    3.64648   3.64999   3.65537   3.66094   3.66127
  Beta virt. eigenvalues --    3.67390   3.69021   3.70393   3.71250   3.71521
  Beta virt. eigenvalues --    3.72578   3.73075   3.73719   3.73766   3.75034
  Beta virt. eigenvalues --    3.75126   3.76244   3.76663   3.79075   3.79105
  Beta virt. eigenvalues --    3.79302   3.80732   3.81223   3.81974   3.82235
  Beta virt. eigenvalues --    3.82633   3.83620   3.86068   3.86605   3.86971
  Beta virt. eigenvalues --    3.87170   3.88186   3.89262   3.90457   3.91476
  Beta virt. eigenvalues --    3.91717   3.92793   3.92988   3.93744   3.94223
  Beta virt. eigenvalues --    3.96056   3.96638   3.96758   3.99933   4.02335
  Beta virt. eigenvalues --    4.03455   4.03600   4.04758   4.05490   4.08330
  Beta virt. eigenvalues --    4.09368   4.10003   4.12458   4.14815   4.15085
  Beta virt. eigenvalues --    4.17336   4.18305   4.18766   4.20890   4.21478
  Beta virt. eigenvalues --    4.22949   4.23095   4.24575   4.26883   4.28977
  Beta virt. eigenvalues --    4.29991   4.31126   4.31253   4.35027   4.35691
  Beta virt. eigenvalues --    4.37455   4.37556   4.38569   4.38730   4.40168
  Beta virt. eigenvalues --    4.40527   4.44216   4.45164   4.46039   4.46796
  Beta virt. eigenvalues --    4.46914   4.47864   4.48965   4.49603   4.50824
  Beta virt. eigenvalues --    4.51758   4.53094   4.53993   4.54986   4.55682
  Beta virt. eigenvalues --    4.57041   4.58502   4.58724   4.60027   4.61538
  Beta virt. eigenvalues --    4.63951   4.64588   4.64810   4.65712   4.66350
  Beta virt. eigenvalues --    4.67792   4.68421   4.68825   4.68862   4.69368
  Beta virt. eigenvalues --    4.70604   4.72185   4.75152   4.77984   4.78081
  Beta virt. eigenvalues --    4.79551   4.79815   4.79979   4.81596   4.83027
  Beta virt. eigenvalues --    4.83244   4.83497   4.86471   4.86944   4.88351
  Beta virt. eigenvalues --    4.92016   4.92067   4.92884   4.94955   4.96775
  Beta virt. eigenvalues --    4.97128   4.97477   4.97517   4.99414   5.00045
  Beta virt. eigenvalues --    5.00928   5.01159   5.04471   5.06109   5.09918
  Beta virt. eigenvalues --    5.13542   5.13680   5.15504   5.17273   5.20560
  Beta virt. eigenvalues --    5.20872   5.24798   5.25589   5.25736   5.33548
  Beta virt. eigenvalues --    5.34560   5.37820   5.38038   5.40340   5.44276
  Beta virt. eigenvalues --    5.46768   5.46946   5.50018   5.50122   5.56801
  Beta virt. eigenvalues --    5.62001   5.65216   5.65732   5.69344   5.79792
  Beta virt. eigenvalues --    5.81496   5.82294   5.97192   6.62046   6.63472
  Beta virt. eigenvalues --    6.67478   6.76690   6.88799   6.91501   6.98036
  Beta virt. eigenvalues --    7.05670   7.08532   7.10986   7.12902   7.16253
  Beta virt. eigenvalues --    7.16881   7.20512   7.20821   7.21668   7.23581
  Beta virt. eigenvalues --    7.26643   7.27157   7.32363   7.34129   7.36697
  Beta virt. eigenvalues --    7.38701   7.45857   7.48303   7.54933   7.58954
  Beta virt. eigenvalues --    7.69790   7.75918   7.82059  14.01805  14.06493
  Beta virt. eigenvalues --   14.11508  14.12284  14.18153  14.21183  14.21593
  Beta virt. eigenvalues --   14.30505  14.37587  14.50473  14.51443  14.54689
  Beta virt. eigenvalues --   14.59677  14.64889  14.89780  15.03180  15.10796
  Beta virt. eigenvalues --   15.18127  40.89665  40.93065  41.59638  41.72111
  Beta virt. eigenvalues --   43.29346  43.32858
          Condensed to atoms (all electrons):
              1          2          3          4          5          6
     1  Si  13.318824   0.191167   0.318786  -0.012326   0.174365   0.174365
     2  Si   0.191167  13.419140  -0.012326  -0.040855   0.316094   0.316094
     3  Si   0.318786  -0.012326  13.318824   0.191167   0.174365   0.174365
     4  Si  -0.012326  -0.040855   0.191167  13.419140   0.316094   0.316094
     5  Si   0.174365   0.316094   0.174365   0.316094  13.158631   0.005957
     6  Si   0.174365   0.316094   0.174365   0.316094   0.005957  13.158631
 Mulliken atomic charges:
              1
     1  Si  -0.165180
     2  Si  -0.189314
     3  Si  -0.165180
     4  Si  -0.189314
     5  Si  -0.145506
     6  Si  -0.145506
 Sum of Mulliken atomic charges =  -1.00000
 Mulliken charges with hydrogens summed into heavy atoms:
              1
     1  Si  -0.165180
     2  Si  -0.189314
     3  Si  -0.165180
     4  Si  -0.189314
     5  Si  -0.145506
     6  Si  -0.145506
 Sum of Mulliken charges with hydrogens summed into heavy atoms =  -1.00000
          Atomic-Atomic Spin Densities.
              1          2          3          4          5          6
     1  Si   0.158205   0.020088  -0.116157   0.005738   0.020766   0.020766
     2  Si   0.020088   0.513535   0.005738  -0.027796  -0.001595  -0.001595
     3  Si  -0.116157   0.005738   0.158205   0.020088   0.020766   0.020766
     4  Si   0.005738  -0.027796   0.020088   0.513535  -0.001595  -0.001595
     5  Si   0.020766  -0.001595   0.020766  -0.001595  -0.130856  -0.025268
     6  Si   0.020766  -0.001595   0.020766  -0.001595  -0.025268  -0.130856
 Mulliken atomic spin densities:
              1
     1  Si   0.109406
     2  Si   0.508375
     3  Si   0.109406
     4  Si   0.508375
     5  Si  -0.117782
     6  Si  -0.117782
 Sum of Mulliken atomic spin densities =   1.00000
 Electronic spatial extent (au):  <R**2>=           1214.3290
 Charge=             -1.0000 electrons
 Dipole moment (field-independent basis, Debye):
    X=              0.0000    Y=              0.0000    Z=              0.1028  Tot=              0.1028
 Quadrupole moment (field-independent basis, Debye-Ang):
   XX=            -91.4620   YY=           -108.2401   ZZ=           -100.3707
   XY=              0.0000   XZ=              0.0000   YZ=              0.0000
 Traceless Quadrupole moment (field-independent basis, Debye-Ang):
   XX=              8.5623   YY=             -8.2158   ZZ=             -0.3464
   XY=              0.0000   XZ=              0.0000   YZ=              0.0000
 Octapole moment (field-independent basis, Debye-Ang**2):
  XXX=              0.0000  YYY=              0.0000  ZZZ=            -12.6573  XYY=              0.0000
  XXY=              0.0000  XXZ=              5.5470  XZZ=              0.0000  YZZ=              0.0000
  YYZ=             11.4762  XYZ=              0.0000
 Hexadecapole moment (field-independent basis, Debye-Ang**3):
 XXXX=           -500.2917 YYYY=          -1331.0912 ZZZZ=           -816.6070 XXXY=              0.0000
 XXXZ=              0.0000 YYYX=              0.0000 YYYZ=              0.0000 ZZZX=              0.0000
 ZZZY=              0.0000 XXYY=           -268.1285 XXZZ=           -210.5468 YYZZ=           -386.5981
 XXYZ=              0.0000 YYXZ=              0.0000 ZZXY=              0.0000
 N-N= 5.855985663729D+02 E-N=-7.973749299661D+03  KE= 2.599840129910D+03
 Symmetry A1   KE= 1.189468684614D+03
 Symmetry A2   KE= 1.126649609035D+02
 Symmetry B1   KE= 4.693565677860D+02
 Symmetry B2   KE= 8.283499166071D+02
                          Isotropic Fermi Contact Couplings
        Atom                 a.u.       MegaHertz       Gauss      10(-4) cm-1
     1  Si(29)             0.04754     -42.25236     -15.07669     -14.09387
     2  Si(29)             0.03230     -28.70718     -10.24344      -9.57568
     3  Si(29)             0.04754     -42.25236     -15.07669     -14.09387
     4  Si(29)             0.03230     -28.70718     -10.24344      -9.57568
     5  Si(29)            -0.06892      61.25020      21.85560      20.43087
     6  Si(29)            -0.06892      61.25020      21.85560      20.43087
 --------------------------------------------------------
       Center         ----  Spin Dipole Couplings  ----
                      3XX-RR        3YY-RR        3ZZ-RR
 --------------------------------------------------------
     1   Atom       -0.150631     -0.345853      0.496484
     2   Atom       -0.380521     -0.095615      0.476136
     3   Atom       -0.150631     -0.345853      0.496484
     4   Atom       -0.380521     -0.095615      0.476136
     5   Atom        0.038765      0.089587     -0.128352
     6   Atom        0.038765      0.089587     -0.128352
 --------------------------------------------------------
                        XY            XZ            YZ
 --------------------------------------------------------
     1   Atom        0.000000      0.000000      0.165452
     2   Atom        0.000000      0.000000      0.569097
     3   Atom        0.000000      0.000000     -0.165452
     4   Atom        0.000000      0.000000     -0.569097
     5   Atom        0.000000      0.028849      0.000000
     6   Atom        0.000000     -0.028849      0.000000
 --------------------------------------------------------


 ---------------------------------------------------------------------------------
              Anisotropic Spin Dipole Couplings in Principal Axis System
 ---------------------------------------------------------------------------------

       Atom             a.u.   MegaHertz   Gauss  10(-4) cm-1        Axes

              Baa    -0.3772    40.013    14.278    13.347  0.0000  0.9825 -0.1861
     1 Si(29) Bbb    -0.1506    15.980     5.702     5.330  1.0000  0.0000  0.0000
              Bcc     0.5278   -55.993   -19.980   -18.677  0.0000  0.1861  0.9825
 
              Baa    -0.4466    47.378    16.905    15.803  0.0000  0.8511 -0.5249
     2 Si(29) Bbb    -0.3805    40.367    14.404    13.465  1.0000  0.0000  0.0000
              Bcc     0.8271   -87.745   -31.310   -29.269  0.0000  0.5249  0.8511
 
              Baa    -0.3772    40.013    14.278    13.347  0.0000  0.9825  0.1861
     3 Si(29) Bbb    -0.1506    15.980     5.702     5.330  1.0000  0.0000  0.0000
              Bcc     0.5278   -55.993   -19.980   -18.677  0.0000 -0.1861  0.9825
 
              Baa    -0.4466    47.378    16.905    15.803  0.0000  0.8511  0.5249
     4 Si(29) Bbb    -0.3805    40.367    14.404    13.465  1.0000  0.0000  0.0000
              Bcc     0.8271   -87.745   -31.310   -29.269  0.0000 -0.5249  0.8511
 
              Baa    -0.1332    14.130     5.042     4.713 -0.1655  0.0000  0.9862
     5 Si(29) Bbb     0.0436    -4.626    -1.651    -1.543  0.9862  0.0000  0.1655
              Bcc     0.0896    -9.504    -3.391    -3.170  0.0000  1.0000  0.0000
 
              Baa    -0.1332    14.130     5.042     4.713  0.1655  0.0000  0.9862
     6 Si(29) Bbb     0.0436    -4.626    -1.651    -1.543  0.9862  0.0000 -0.1655
              Bcc     0.0896    -9.504    -3.391    -3.170  0.0000  1.0000  0.0000
 

 ---------------------------------------------------------------------------------

 1\1\GINC-NODE64\SP\UHF\GFHFB2\Si6(1-,2)\TAM\05-Mar-2012\0\\#N Geom=All
 Check Guess=TCheck SCRF=Check HF/GFHFB2 SCF=Tight\\si6-an-d\\-1,2\Si,0
 ,0.,1.1660322969,1.4000664265\Si,0,0.,1.9698948615,-0.9577963082\Si,0,
 0.,-1.1660322969,1.4000664265\Si,0,0.,-1.9698948615,-0.9577963082\Si,0
 ,1.2649290149,0.,-0.4422765283\Si,0,-1.2649290149,0.,-0.4422765283\\Ve
 rsion=AM64L-G09RevA.02\State=2-B2\HF=-1733.626832\S2=0.85238\S2-1=0.\S
 2A=0.758443\RMSD=9.265e-09\Dipole=0.,0.,0.0404262\Quadrupole=6.3658506
 ,-6.108283,-0.2575676,0.,0.,0.\PG=C02V [SGV(Si4),SGV'(Si2)]\\@


 WE SHOULD BE CAREFUL TO GET OUT OF AN EXPERIENCE ONLY THE WISDOM
 THAT IS IN IT -- AND STOP THERE;
 LEST WE BE LIKE THE CAT THAT SITS DOWN ON A HOT STOVE-LID.
 SHE WILL NEVER SIT DOWN ON A HOT STOVE LID AGAIN;
 BUT ALSO SHE WILL NEVER SIT DOWN ON A COLD ONE ANY MORE.

                                                     -- MARK TWAIN
 Diagonal vibrational polarizability:
        0.0000000       0.0000000       0.0000000

 Temperature=              298.150000 Pressure=                      1.000000
 E(ZPE)=                     0.008109 E(Thermal)=                    0.016220
 E(CCSD(T))=             -1734.048330 E(Empiric)=                   -0.087977
 DE(Plus)=                  -0.014747 DE(2DF)=                      -0.204521
 E(Delta-G3XP)=             -1.883875 DE(HF)=                       -0.039941
 G4(0 K)=                -1736.271282 G4 Energy=                 -1736.263171
 G4 Enthalpy=            -1736.262227 G4 Free Energy=            -1736.304755
 1\1\GINC-NODE64\Mixed\G4\G4\Si6(1-,2)\TAM\05-Mar-2012\0\\# G4 scfcyc=5
 00 scf=xqc\\si6-an-d\\-1,2\Si,0,0.,1.1660322969,1.4000664265\Si,0,0.,1
 .9698948615,-0.9577963082\Si,0,0.,-1.1660322969,1.4000664265\Si,0,0.,-
 1.9698948615,-0.9577963082\Si,0,1.2649290149,0.,-0.4422765283\Si,0,-1.
 2649290149,0.,-0.4422765283\\Version=AM64L-G09RevA.02\State=2-B2\MP2/G
 TBas1=-1733.9913022\MP4/GTBas1=-1734.0624318\CCSD(T)/G3Bas1=-1734.0483
 296\MP2/GTBas2=-1734.0047792\MP4/GTBas2=-1734.0771786\MP2/GTBas3=-1734
 .1781525\MP4/GTBas3=-1734.2669529\HF/GTLargeXP=-1733.5882696\MP2/GTLar
 geXP=-1736.0755043\HF/GFHFB1=-1733.621173\HF/GFHFB2=-1733.626832\G4=-1
 736.2712819\FreqCoord=0.,2.2034817033,2.6457421139,0.,3.7225617988,-1.
 8099727135,0.,-2.2034817033,2.6457421139,0.,-3.7225617988,-1.809972713
 5,2.3903694156,0.,-0.8357815136,-2.3903694156,0.,-0.8357815136\PG=C02V
  [SGV(Si4),SGV'(Si2)]\NImag=0\\0.01973683,0.,0.11199340,0.,0.01955772,
 0.07733691,0.00075162,0.,0.,0.02552850,0.,-0.00425826,0.01417941,0.,0.
 10364045,0.,0.01860119,-0.03257717,0.,-0.04145341,0.04722921,0.0030783
 7,0.,0.,-0.00430714,0.,0.,0.01973683,0.,-0.07692152,0.00425830,0.,-0.0
 0668599,0.00302493,0.,0.11199340,0.,-0.00425830,0.00296657,0.,0.001523
 12,-0.00749365,0.,-0.01955772,0.07733691,-0.00430714,0.,0.,-0.00327067
 ,0.,0.,0.00075162,0.,0.,0.02552850,0.,-0.00668599,-0.00152312,0.,-0.01
 075531,-0.00060233,0.,-0.00425826,-0.01417941,0.,0.10364045,0.,-0.0030
 2493,-0.00749365,0.,0.00060233,0.00104079,0.,-0.01860119,-0.03257717,0
 .,0.04145341,0.04722921,-0.00962984,0.00070055,0.00910300,-0.00935116,
 0.01357254,-0.00415557,-0.00962984,-0.00070055,0.00910299,-0.00935116,
 -0.01357254,-0.00415557,0.10223354,0.01165968,-0.01206382,-0.01823615,
 0.02471617,-0.04097045,0.01021481,-0.01165968,-0.01206382,0.01823615,-
 0.02471617,-0.04097045,-0.01021481,0.,0.10230217,0.01742155,-0.0154378
 3,-0.02011633,-0.00708235,0.01257428,-0.00409959,0.01742155,0.01543784
 ,-0.02011634,-0.00708234,-0.01257428,-0.00409959,-0.01528662,0.,0.0526
 7414,-0.00962984,-0.00070055,-0.00910299,-0.00935116,-0.01357254,0.004
 15557,-0.00962984,0.00070055,-0.00910300,-0.00935116,0.01357254,0.0041
 5557,-0.06427155,0.,-0.00539178,0.10223354,-0.01165968,-0.01206382,-0.
 01823615,-0.02471617,-0.04097045,0.01021481,0.01165968,-0.01206382,0.0
 1823615,0.02471617,-0.04097045,-0.01021481,0.,0.00376636,0.,0.,0.10230
 217,-0.01742155,-0.01543784,-0.02011634,0.00708234,0.01257428,-0.00409
 959,-0.01742155,0.01543783,-0.02011633,0.00708235,-0.01257428,-0.00409
 959,0.00539178,0.,-0.00424228,0.01528662,0.,0.05267414\\0.,-0.00002054
 ,-0.00006055,0.,-0.00000655,0.00001123,0.,0.00002054,-0.00006055,0.,0.
 00000655,0.00001123,-0.00006303,0.,0.00004932,0.00006303,0.,0.00004932
 \\\@
 Job cpu time:  0 days  4 hours 30 minutes 36.4 seconds.
 File lengths (MBytes):  RWF=    768 Int=      0 D2E=      0 Chk=     25 Scr=      1
 Normal termination of Gaussian 09 at Mon Mar  5 13:12:37 2012.
