 Entering Gaussian System, Link 0=g09
 Initial command:
 /usr/local/chem/g09A2/l1.exe /temp0/tam/Gau-19863.inp -scrdir=/temp0/tam/
 Entering Link 1 = /usr/local/chem/g09A2/l1.exe PID=     19864.
  
 Copyright (c) 1988,1990,1992,1993,1995,1998,2003,2009, Gaussian, Inc.
                  All Rights Reserved.
  
 This is part of the Gaussian(R) 09 program.  It is based on
 the Gaussian(R) 03 system (copyright 2003, Gaussian, Inc.),
 the Gaussian(R) 98 system (copyright 1998, Gaussian, Inc.),
 the Gaussian(R) 94 system (copyright 1995, Gaussian, Inc.),
 the Gaussian 92(TM) system (copyright 1992, Gaussian, Inc.),
 the Gaussian 90(TM) system (copyright 1990, Gaussian, Inc.),
 the Gaussian 88(TM) system (copyright 1988, Gaussian, Inc.),
 the Gaussian 86(TM) system (copyright 1986, Carnegie Mellon
 University), and the Gaussian 82(TM) system (copyright 1983,
 Carnegie Mellon University). Gaussian is a federally registered
 trademark of Gaussian, Inc.
  
 This software contains proprietary and confidential information,
 including trade secrets, belonging to Gaussian, Inc.
  
 This software is provided under written license and may be
 used, copied, transmitted, or stored only in accord with that
 written license.
  
 The following legend is applicable only to US Government
 contracts under FAR:
  
                    RESTRICTED RIGHTS LEGEND
  
 Use, reproduction and disclosure by the US Government is
 subject to restrictions as set forth in subparagraphs (a)
 and (c) of the Commercial Computer Software - Restricted
 Rights clause in FAR 52.227-19.
  
 Gaussian, Inc.
 340 Quinnipiac St., Bldg. 40, Wallingford CT 06492
  
  
 ---------------------------------------------------------------
 Warning -- This program may not be used in any manner that
 competes with the business of Gaussian, Inc. or will provide
 assistance to any competitor of Gaussian, Inc.  The licensee
 of this program is prohibited from giving any competitor of
 Gaussian, Inc. access to this program.  By using this program,
 the user acknowledges that Gaussian, Inc. is engaged in the
 business of creating and licensing software in the field of
 computational chemistry and represents and warrants to the
 licensee that it is not a competitor of Gaussian, Inc. and that
 it will not use this program in any manner prohibited above.
 ---------------------------------------------------------------
  

 Cite this work as:
 Gaussian 09, Revision A.02,
 M. J. Frisch, G. W. Trucks, H. B. Schlegel, G. E. Scuseria, 
 M. A. Robb, J. R. Cheeseman, G. Scalmani, V. Barone, B. Mennucci, 
 G. A. Petersson, H. Nakatsuji, M. Caricato, X. Li, H. P. Hratchian, 
 A. F. Izmaylov, J. Bloino, G. Zheng, J. L. Sonnenberg, M. Hada, 
 M. Ehara, K. Toyota, R. Fukuda, J. Hasegawa, M. Ishida, T. Nakajima, 
 Y. Honda, O. Kitao, H. Nakai, T. Vreven, J. A. Montgomery, Jr., 
 J. E. Peralta, F. Ogliaro, M. Bearpark, J. J. Heyd, E. Brothers, 
 K. N. Kudin, V. N. Staroverov, R. Kobayashi, J. Normand, 
 K. Raghavachari, A. Rendell, J. C. Burant, S. S. Iyengar, J. Tomasi, 
 M. Cossi, N. Rega, J. M. Millam, M. Klene, J. E. Knox, J. B. Cross, 
 V. Bakken, C. Adamo, J. Jaramillo, R. Gomperts, R. E. Stratmann, 
 O. Yazyev, A. J. Austin, R. Cammi, C. Pomelli, J. W. Ochterski, 
 R. L. Martin, K. Morokuma, V. G. Zakrzewski, G. A. Voth, 
 P. Salvador, J. J. Dannenberg, S. Dapprich, A. D. Daniels, 
 O. Farkas, J. B. Foresman, J. V. Ortiz, J. Cioslowski, 
 and D. J. Fox, Gaussian, Inc., Wallingford CT, 2009.
 
 ******************************************
 Gaussian 09:  AM64L-G09RevA.02 11-Jun-2009
                20-Dec-2011 
 ******************************************
 %NprocShared=12
 Will use up to   12 processors via shared memory.
 %mem=70050MB
 %chk=S9L-ne-d-01
 -----------------------
 # G4 scfcyc=500 scf=xqc
 -----------------------
 1/14=-1,18=20,19=15,26=3,38=1/1,3;
 2/9=110,12=2,17=6,18=5,40=1/2;
 3/5=35,7=104,11=2,16=1,25=1,30=1,71=1,74=-5/1,2,3;
 4//1;
 5/5=2,7=500,8=3,13=1,38=5/2,8;
 6/7=2,8=2,9=2,10=2,28=1/1;
 7//1,2,3,16;
 1/14=-1,18=20,19=15/3(2);
 2/9=110/2;
 99//99;
 2/9=110/2;
 3/5=35,7=104,11=2,16=1,25=1,30=1,71=1,74=-5/1,2,3;
 4/5=5,16=3/1;
 5/5=2,7=500,8=3,13=1,38=5/2,8;
 7//1,2,3,16;
 1/14=-1,18=20,19=15/3(-5);
 2/9=110/2;
 6/7=2,8=2,9=2,10=2,19=2,28=1/1;
 99/9=1/99;
 -----------
 si10-dian-s
 -----------
 Symbolic Z-matrix:
 Charge = -2 Multiplicity = 1
 Si                    0.        0.        2.58644 
 Si                    0.        1.91944   0.97096 
 Si                    1.91944   0.        0.97096 
 Si                   -1.91944   0.        0.97096 
 Si                    0.       -1.91944   0.97096 
 Si                    1.35725   1.35725  -0.97096 
 Si                   -1.35725   1.35725  -0.97096 
 Si                    0.        0.       -2.58644 
 Si                    1.35725  -1.35725  -0.97096 
 Si                   -1.35725  -1.35725  -0.97096 
 

 GradGradGradGradGradGradGradGradGradGradGradGradGradGradGradGradGradGrad
 Berny optimization.
 Initialization pass.
                           ----------------------------
                           !    Initial Parameters    !
                           ! (Angstroms and Degrees)  !
 --------------------------                            --------------------------
 ! Name  Definition              Value          Derivative Info.                !
 --------------------------------------------------------------------------------
 ! R1    R(1,2)                  2.5088         estimate D2E/DX2                !
 ! R2    R(1,3)                  2.5088         estimate D2E/DX2                !
 ! R3    R(1,4)                  2.5088         estimate D2E/DX2                !
 ! R4    R(1,5)                  2.5088         estimate D2E/DX2                !
 ! R5    R(2,3)                  2.7145         estimate D2E/DX2                !
 ! R6    R(2,4)                  2.7145         estimate D2E/DX2                !
 ! R7    R(2,6)                  2.435          estimate D2E/DX2                !
 ! R8    R(2,7)                  2.435          estimate D2E/DX2                !
 ! R9    R(3,5)                  2.7145         estimate D2E/DX2                !
 ! R10   R(3,6)                  2.435          estimate D2E/DX2                !
 ! R11   R(3,9)                  2.435          estimate D2E/DX2                !
 ! R12   R(4,5)                  2.7145         estimate D2E/DX2                !
 ! R13   R(4,7)                  2.435          estimate D2E/DX2                !
 ! R14   R(4,10)                 2.435          estimate D2E/DX2                !
 ! R15   R(5,9)                  2.435          estimate D2E/DX2                !
 ! R16   R(5,10)                 2.435          estimate D2E/DX2                !
 ! R17   R(6,7)                  2.7145         estimate D2E/DX2                !
 ! R18   R(6,8)                  2.5088         estimate D2E/DX2                !
 ! R19   R(6,9)                  2.7145         estimate D2E/DX2                !
 ! R20   R(7,8)                  2.5088         estimate D2E/DX2                !
 ! R21   R(7,10)                 2.7145         estimate D2E/DX2                !
 ! R22   R(8,9)                  2.5088         estimate D2E/DX2                !
 ! R23   R(8,10)                 2.5088         estimate D2E/DX2                !
 ! R24   R(9,10)                 2.7145         estimate D2E/DX2                !
 ! A1    A(2,1,5)               99.8292         estimate D2E/DX2                !
 ! A2    A(3,1,4)               99.8292         estimate D2E/DX2                !
 ! A3    A(1,2,6)              109.6876         estimate D2E/DX2                !
 ! A4    A(1,2,7)              109.6876         estimate D2E/DX2                !
 ! A5    A(3,2,4)               90.0            estimate D2E/DX2                !
 ! A6    A(3,2,7)              103.3489         estimate D2E/DX2                !
 ! A7    A(4,2,6)              103.3489         estimate D2E/DX2                !
 ! A8    A(1,3,6)              109.6876         estimate D2E/DX2                !
 ! A9    A(1,3,9)              109.6876         estimate D2E/DX2                !
 ! A10   A(2,3,5)               90.0            estimate D2E/DX2                !
 ! A11   A(2,3,9)              103.3489         estimate D2E/DX2                !
 ! A12   A(5,3,6)              103.3489         estimate D2E/DX2                !
 ! A13   A(1,4,7)              109.6876         estimate D2E/DX2                !
 ! A14   A(1,4,10)             109.6876         estimate D2E/DX2                !
 ! A15   A(2,4,5)               90.0            estimate D2E/DX2                !
 ! A16   A(2,4,10)             103.3489         estimate D2E/DX2                !
 ! A17   A(5,4,7)              103.3489         estimate D2E/DX2                !
 ! A18   A(1,5,9)              109.6876         estimate D2E/DX2                !
 ! A19   A(1,5,10)             109.6876         estimate D2E/DX2                !
 ! A20   A(3,5,4)               90.0            estimate D2E/DX2                !
 ! A21   A(3,5,10)             103.3489         estimate D2E/DX2                !
 ! A22   A(4,5,9)              103.3489         estimate D2E/DX2                !
 ! A23   A(2,6,8)              109.6875         estimate D2E/DX2                !
 ! A24   A(2,6,9)              103.3489         estimate D2E/DX2                !
 ! A25   A(3,6,7)              103.3489         estimate D2E/DX2                !
 ! A26   A(3,6,8)              109.6875         estimate D2E/DX2                !
 ! A27   A(7,6,9)               90.0            estimate D2E/DX2                !
 ! A28   A(2,7,8)              109.6875         estimate D2E/DX2                !
 ! A29   A(2,7,10)             103.3489         estimate D2E/DX2                !
 ! A30   A(4,7,6)              103.3489         estimate D2E/DX2                !
 ! A31   A(4,7,8)              109.6875         estimate D2E/DX2                !
 ! A32   A(6,7,10)              90.0            estimate D2E/DX2                !
 ! A33   A(6,8,10)              99.8292         estimate D2E/DX2                !
 ! A34   A(7,8,9)               99.8292         estimate D2E/DX2                !
 ! A35   A(3,9,8)              109.6875         estimate D2E/DX2                !
 ! A36   A(3,9,10)             103.3489         estimate D2E/DX2                !
 ! A37   A(5,9,6)              103.3489         estimate D2E/DX2                !
 ! A38   A(5,9,8)              109.6875         estimate D2E/DX2                !
 ! A39   A(6,9,10)              90.0            estimate D2E/DX2                !
 ! A40   A(4,10,8)             109.6875         estimate D2E/DX2                !
 ! A41   A(4,10,9)             103.3489         estimate D2E/DX2                !
 ! A42   A(5,10,7)             103.3489         estimate D2E/DX2                !
 ! A43   A(5,10,8)             109.6875         estimate D2E/DX2                !
 ! A44   A(7,10,9)              90.0            estimate D2E/DX2                !
 ! D1    D(5,1,2,6)            -36.299          estimate D2E/DX2                !
 ! D2    D(5,1,2,7)             36.299          estimate D2E/DX2                !
 ! D3    D(4,1,3,6)             36.299          estimate D2E/DX2                !
 ! D4    D(4,1,3,9)            -36.299          estimate D2E/DX2                !
 ! D5    D(3,1,4,7)            -36.299          estimate D2E/DX2                !
 ! D6    D(3,1,4,10)            36.299          estimate D2E/DX2                !
 ! D7    D(2,1,5,9)             36.299          estimate D2E/DX2                !
 ! D8    D(2,1,5,10)           -36.299          estimate D2E/DX2                !
 ! D9    D(4,2,3,5)              0.0            estimate D2E/DX2                !
 ! D10   D(4,2,3,9)             55.0493         estimate D2E/DX2                !
 ! D11   D(7,2,3,5)            -55.0493         estimate D2E/DX2                !
 ! D12   D(7,2,3,9)              0.0            estimate D2E/DX2                !
 ! D13   D(3,2,4,5)              0.0            estimate D2E/DX2                !
 ! D14   D(3,2,4,10)           -55.0493         estimate D2E/DX2                !
 ! D15   D(6,2,4,5)             55.0493         estimate D2E/DX2                !
 ! D16   D(6,2,4,10)             0.0            estimate D2E/DX2                !
 ! D17   D(1,2,6,8)             82.6924         estimate D2E/DX2                !
 ! D18   D(1,2,6,9)             23.066          estimate D2E/DX2                !
 ! D19   D(4,2,6,8)             23.066          estimate D2E/DX2                !
 ! D20   D(4,2,6,9)            -36.5604         estimate D2E/DX2                !
 ! D21   D(1,2,7,8)            -82.6924         estimate D2E/DX2                !
 ! D22   D(1,2,7,10)           -23.066          estimate D2E/DX2                !
 ! D23   D(3,2,7,8)            -23.066          estimate D2E/DX2                !
 ! D24   D(3,2,7,10)            36.5604         estimate D2E/DX2                !
 ! D25   D(2,3,5,4)              0.0            estimate D2E/DX2                !
 ! D26   D(2,3,5,10)            55.0493         estimate D2E/DX2                !
 ! D27   D(6,3,5,4)            -55.0493         estimate D2E/DX2                !
 ! D28   D(6,3,5,10)             0.0            estimate D2E/DX2                !
 ! D29   D(1,3,6,7)            -23.066          estimate D2E/DX2                !
 ! D30   D(1,3,6,8)            -82.6924         estimate D2E/DX2                !
 ! D31   D(5,3,6,7)             36.5604         estimate D2E/DX2                !
 ! D32   D(5,3,6,8)            -23.066          estimate D2E/DX2                !
 ! D33   D(1,3,9,8)             82.6924         estimate D2E/DX2                !
 ! D34   D(1,3,9,10)            23.066          estimate D2E/DX2                !
 ! D35   D(2,3,9,8)             23.066          estimate D2E/DX2                !
 ! D36   D(2,3,9,10)           -36.5604         estimate D2E/DX2                !
 ! D37   D(2,4,5,3)              0.0            estimate D2E/DX2                !
 ! D38   D(2,4,5,9)            -55.0493         estimate D2E/DX2                !
 ! D39   D(7,4,5,3)             55.0493         estimate D2E/DX2                !
 ! D40   D(7,4,5,9)              0.0            estimate D2E/DX2                !
 ! D41   D(1,4,7,6)             23.066          estimate D2E/DX2                !
 ! D42   D(1,4,7,8)             82.6924         estimate D2E/DX2                !
 ! D43   D(5,4,7,6)            -36.5604         estimate D2E/DX2                !
 ! D44   D(5,4,7,8)             23.066          estimate D2E/DX2                !
 ! D45   D(1,4,10,8)           -82.6924         estimate D2E/DX2                !
 ! D46   D(1,4,10,9)           -23.066          estimate D2E/DX2                !
 ! D47   D(2,4,10,8)           -23.066          estimate D2E/DX2                !
 ! D48   D(2,4,10,9)            36.5604         estimate D2E/DX2                !
 ! D49   D(1,5,9,6)            -23.066          estimate D2E/DX2                !
 ! D50   D(1,5,9,8)            -82.6924         estimate D2E/DX2                !
 ! D51   D(4,5,9,6)             36.5604         estimate D2E/DX2                !
 ! D52   D(4,5,9,8)            -23.066          estimate D2E/DX2                !
 ! D53   D(1,5,10,7)            23.066          estimate D2E/DX2                !
 ! D54   D(1,5,10,8)            82.6924         estimate D2E/DX2                !
 ! D55   D(3,5,10,7)           -36.5604         estimate D2E/DX2                !
 ! D56   D(3,5,10,8)            23.066          estimate D2E/DX2                !
 ! D57   D(3,6,7,4)              0.0            estimate D2E/DX2                !
 ! D58   D(3,6,7,10)           -55.0493         estimate D2E/DX2                !
 ! D59   D(9,6,7,4)             55.0493         estimate D2E/DX2                !
 ! D60   D(9,6,7,10)             0.0            estimate D2E/DX2                !
 ! D61   D(2,6,8,10)           -36.299          estimate D2E/DX2                !
 ! D62   D(3,6,8,10)            36.299          estimate D2E/DX2                !
 ! D63   D(2,6,9,5)              0.0            estimate D2E/DX2                !
 ! D64   D(2,6,9,10)            55.0493         estimate D2E/DX2                !
 ! D65   D(7,6,9,5)            -55.0493         estimate D2E/DX2                !
 ! D66   D(7,6,9,10)             0.0            estimate D2E/DX2                !
 ! D67   D(2,7,8,9)             36.299          estimate D2E/DX2                !
 ! D68   D(4,7,8,9)            -36.299          estimate D2E/DX2                !
 ! D69   D(2,7,10,5)             0.0            estimate D2E/DX2                !
 ! D70   D(2,7,10,9)           -55.0493         estimate D2E/DX2                !
 ! D71   D(6,7,10,5)            55.0493         estimate D2E/DX2                !
 ! D72   D(6,7,10,9)             0.0            estimate D2E/DX2                !
 ! D73   D(7,8,9,3)            -36.299          estimate D2E/DX2                !
 ! D74   D(7,8,9,5)             36.299          estimate D2E/DX2                !
 ! D75   D(6,8,10,4)            36.299          estimate D2E/DX2                !
 ! D76   D(6,8,10,5)           -36.299          estimate D2E/DX2                !
 ! D77   D(3,9,10,4)             0.0            estimate D2E/DX2                !
 ! D78   D(3,9,10,7)            55.0493         estimate D2E/DX2                !
 ! D79   D(6,9,10,4)           -55.0493         estimate D2E/DX2                !
 ! D80   D(6,9,10,7)             0.0            estimate D2E/DX2                !
 --------------------------------------------------------------------------------
 Trust Radius=3.00D-01 FncErr=1.00D-07 GrdErr=1.00D-06
 Number of steps in this run= 100 maximum allowed number of steps= 100.
 GradGradGradGradGradGradGradGradGradGradGradGradGradGradGradGradGradGrad

                          Input orientation:                          
 ---------------------------------------------------------------------
 Center     Atomic      Atomic             Coordinates (Angstroms)
 Number     Number       Type             X           Y           Z
 ---------------------------------------------------------------------
      1         14           0        0.000000    0.000000    2.586443
      2         14           0        0.000000    1.919444    0.970956
      3         14           0        1.919444    0.000000    0.970956
      4         14           0       -1.919444    0.000000    0.970956
      5         14           0        0.000000   -1.919444    0.970956
      6         14           0        1.357252    1.357252   -0.970956
      7         14           0       -1.357252    1.357252   -0.970956
      8         14           0        0.000000    0.000000   -2.586443
      9         14           0        1.357252   -1.357252   -0.970956
     10         14           0       -1.357252   -1.357252   -0.970956
 ---------------------------------------------------------------------
                    Distance matrix (angstroms):
                    1          2          3          4          5
     1  Si   0.000000
     2  Si   2.508797   0.000000
     3  Si   2.508797   2.714504   0.000000
     4  Si   2.508797   2.714504   3.838888   0.000000
     5  Si   2.508797   3.838888   2.714504   2.714504   0.000000
     6  Si   4.042197   2.434998   2.434998   4.043500   4.043500
     7  Si   4.042197   2.434998   4.043500   2.434998   4.043500
     8  Si   5.172886   4.042197   4.042197   4.042197   4.042197
     9  Si   4.042197   4.043500   2.434998   4.043500   2.434998
    10  Si   4.042197   4.043500   4.043500   2.434998   2.434998
                    6          7          8          9         10
     6  Si   0.000000
     7  Si   2.714504   0.000000
     8  Si   2.508797   2.508797   0.000000
     9  Si   2.714504   3.838888   2.508797   0.000000
    10  Si   3.838888   2.714504   2.508797   2.714504   0.000000
 Stoichiometry    Si10(2-)
 Framework group  D4D[C4(Si.Si),4SGD(Si2)]
 Deg. of freedom     3
 Full point group                 D4D     NOp  16
 Largest Abelian subgroup         C2V     NOp   4
 Largest concise Abelian subgroup C2V     NOp   4
                         Standard orientation:                         
 ---------------------------------------------------------------------
 Center     Atomic      Atomic             Coordinates (Angstroms)
 Number     Number       Type             X           Y           Z
 ---------------------------------------------------------------------
      1         14           0        0.000000    0.000000    2.586443
      2         14           0        0.000000    1.919444    0.970956
      3         14           0        1.919444    0.000000    0.970956
      4         14           0       -1.919444    0.000000    0.970956
      5         14           0        0.000000   -1.919444    0.970956
      6         14           0        1.357252    1.357252   -0.970956
      7         14           0       -1.357252    1.357252   -0.970956
      8         14           0        0.000000    0.000000   -2.586443
      9         14           0        1.357252   -1.357252   -0.970956
     10         14           0       -1.357252   -1.357252   -0.970956
 ---------------------------------------------------------------------
 Rotational constants (GHZ):      0.6128812      0.5065873      0.5065873
 Standard basis: GTBas3 (6D, 7F)
 There are   106 symmetry adapted basis functions of A1  symmetry.
 There are    58 symmetry adapted basis functions of A2  symmetry.
 There are    78 symmetry adapted basis functions of B1  symmetry.
 There are    78 symmetry adapted basis functions of B2  symmetry.
 Integral buffers will be    131072 words long.
 Raffenetti 2 integral format.
 Two-electron integral symmetry is turned on.
   320 basis functions,   680 primitive gaussians,   350 cartesian basis functions
    71 alpha electrons       71 beta electrons
       nuclear repulsion energy      1515.7688611296 Hartrees.
 NAtoms=   10 NActive=   10 NUniq=    2 SFac= 3.00D+00 NAtFMM=   80 NAOKFM=F Big=F
 One-electron integrals computed using PRISM.
 NBasis=   320 RedAO= T  NBF=   106    58    78    78
 NBsUse=   320 1.00D-06 NBFU=   106    58    78    78
 Harris functional with IExCor=  402 diagonalized for initial guess.
 ExpMin= 7.78D-02 ExpMax= 1.61D+04 ExpMxC= 2.43D+03 IAcc=2 IRadAn=         0 AccDes= 0.00D+00
 HarFok:  IExCor=  402 AccDes= 0.00D+00 IRadAn=         0 IDoV= 1
 ScaDFX=  1.000000  1.000000  1.000000  1.000000
 FoFCou: FMM=F IPFlag=           0 FMFlag=      100000 FMFlg1=           0
         NFxFlg=           0 DoJE=T BraDBF=F KetDBF=T FulRan=T
         Omega=  0.000000  0.000000  1.000000  0.000000  0.000000 ICntrl=     500 IOpCl=  0
         NMat0=    1 NMatS0=    1 NMatT0=    0 NMatD0=    1 NMtDS0=    0 NMtDT0=    0
         I1Cent=           4 NGrid=           0.
 Petite list used in FoFCou.
 Initial guess orbital symmetries:
       Occupied  (E2) (E2) (E1) (E1) (E3) (E3) (B2) (A1) (A1) (B2)
                 (E1) (E1) (E2) (E2) (A1) (E3) (E3) (B2) (A1) (B2)
                 (A1) (E1) (E1) (E2) (E2) (E3) (E3) (B2) (B1) (A1)
                 (E3) (E3) (E2) (E2) (E1) (E1) (E1) (E1) (A2) (E2)
                 (E2) (B2) (E3) (E3) (B2) (A1) (E1) (E1) (E3) (E3)
                 (A1) (B2) (E1) (E1) (A1) (E2) (E2) (E3) (E3) (A1)
                 (B2) (E1) (E1) (E3) (E3) (E2) (E2) (B2) (E1) (E1)
                 (A1)
       Virtual   (E3) (E3) (B1) (E2) (E2) (E3) (E3) (E1) (E1) (E2)
                 (E2) (A1) (B2) (B2) (E1) (E1) (A1) (A2) (E3) (E3)
                 (E1) (E1) (E2) (E2) (E3) (E3) (B2) (E1) (E1) (A1)
                 (E3) (E3) (B2) (E2) (E2) (A1) (E2) (E2) (E3) (E3)
                 (A1) (B2) (B1) (E3) (E3) (E2) (E2) (E1) (E1) (B2)
                 (E3) (E3) (E2) (E2) (E1) (E1) (E1) (E1) (B2) (A1)
                 (B1) (A2) (E3) (E3) (E1) (E1) (E2) (E2) (A1) (E1)
                 (E1) (B2) (E2) (E2) (E3) (E3) (E2) (E2) (E3) (E3)
                 (A1) (E1) (E1) (A1) (E2) (E2) (E3) (E3) (A2) (B1)
                 (E1) (E1) (B2) (B2) (E1) (E1) (E2) (E2) (B2) (E1)
                 (E1) (A1) (E3) (E3) (E2) (E2) (A2) (E3) (E3) (E3)
                 (E3) (E2) (E2) (A1) (B2) (A1) (E2) (E2) (E1) (E1)
                 (E3) (E3) (E1) (E1) (E3) (E3) (B2) (E2) (E2) (E3)
                 (E3) (E1) (E1) (B2) (A1) (B1) (E2) (E2) (E1) (E1)
                 (E1) (E1) (B1) (E1) (E1) (E3) (E3) (E2) (E2) (A2)
                 (A1) (E3) (E3) (B2) (A1) (E2) (E2) (B2) (E2) (E2)
                 (E3) (E3) (E1) (E1) (B2) (E3) (E3) (B1) (A1) (E2)
                 (E2) (E2) (E2) (E1) (E1) (A2) (A1) (A2) (E3) (E3)
                 (E3) (E3) (E1) (E1) (B2) (E1) (E1) (A1) (E2) (E2)
                 (E2) (E2) (B2) (B2) (E3) (E3) (E1) (E1) (E3) (E3)
                 (E2) (E2) (A1) (E1) (E1) (A2) (E1) (E1) (E2) (E2)
                 (B2) (E3) (E3) (B1) (A1) (E3) (E3) (E2) (E2) (E1)
                 (E1) (E3) (E3) (E1) (E1) (B2) (E2) (E2) (B1) (E1)
                 (E1) (E2) (E2) (A1) (E3) (E3) (E2) (E2) (A1) (A2)
                 (B2) (E2) (E2) (E3) (E3) (E1) (E1) (A1) (B2)
 The electronic state of the initial guess is 1-A1.
 Requested convergence on RMS density matrix=1.00D-08 within 128 cycles.
 Requested convergence on MAX density matrix=1.00D-06.
 Requested convergence on             energy=1.00D-06.
 No special actions if energy rises.
 Keep R1 ints in memory in canonical form, NReq=1908641289.
 Integral accuracy reduced to 1.0D-05 until final iterations.
 Initial convergence to 1.0D-05 achieved.  Increase integral accuracy.
 SCF Done:  E(RB3LYP) =  -2894.98903108     A.U. after   13 cycles
             Convg  =    0.2822D-08             -V/T =  2.0036
 QCSCF skips out because SCF is already converged.

 **********************************************************************

            Population analysis using the SCF density.

 **********************************************************************

 Orbital symmetries:
       Occupied  (A1) (B2) (E2) (E2) (E1) (E1) (E3) (E3) (B2) (A1)
                 (A1) (B2) (A1) (E1) (E1) (E2) (E2) (B2) (E3) (E3)
                 (E1) (E1) (E3) (E3) (B2) (A1) (B1) (E3) (E3) (E2)
                 (E2) (E1) (E1) (A2) (A1) (E1) (E1) (E2) (E2) (B2)
                 (E3) (E3) (A1) (E1) (E1) (E2) (E2) (E3) (E3) (B2)
                 (A1) (B2) (E1) (E1) (A1) (E2) (E2) (E3) (E3) (B2)
                 (A1) (E1) (E1) (E3) (E3) (E2) (E2) (B2) (E1) (E1)
                 (A1)
       Virtual   (E3) (E3) (B1) (E2) (E2) (E3) (E3) (E2) (E2) (E1)
                 (E1) (A1) (B2) (B2) (E1) (E1) (A1) (A2) (E3) (E3)
                 (E1) (E1) (B2) (E1) (E1) (E2) (E2) (A1) (E3) (E3)
                 (B2) (E2) (E2) (E3) (E3) (A1) (E3) (E3) (A1) (B1)
                 (E2) (E2) (E2) (E2) (B2) (E1) (E1) (E3) (E3) (B2)
                 (E1) (E1) (A2) (E3) (E3) (E3) (E3) (B2) (E1) (E1)
                 (E2) (E2) (A1) (B1) (E1) (E1) (E2) (E2) (E1) (E1)
                 (A1) (E3) (E3) (B2) (E2) (E2) (E2) (E2) (E3) (E3)
                 (A1) (E1) (E1) (A1) (E2) (E2) (E3) (E3) (B1) (A2)
                 (B2) (E1) (E1) (B2) (E1) (E1) (E2) (E2) (A1) (E3)
                 (E3) (B2) (E1) (E1) (E2) (E2) (A2) (E3) (E3) (E3)
                 (E3) (E2) (E2) (A1) (B2) (A1) (E2) (E2) (E1) (E1)
                 (E3) (E3) (E1) (E1) (E3) (E3) (B2) (E2) (E2) (E3)
                 (E3) (B2) (E1) (E1) (A1) (B1) (E2) (E2) (E1) (E1)
                 (E1) (E1) (B1) (E1) (E1) (E3) (E3) (E2) (E2) (A2)
                 (B2) (A1) (E3) (E3) (B2) (A1) (E2) (E2) (E2) (E2)
                 (E3) (E3) (B2) (E1) (E1) (E3) (E3) (B1) (A1) (E2)
                 (E2) (A1) (E2) (E2) (E1) (E1) (A2) (E3) (E3) (A2)
                 (E1) (E1) (E3) (E3) (B2) (E1) (E1) (E2) (E2) (A1)
                 (E2) (E2) (B2) (B2) (E3) (E3) (E1) (E1) (E3) (E3)
                 (E2) (E2) (A2) (E1) (E1) (E1) (E1) (A1) (E2) (E2)
                 (B2) (B1) (E3) (E3) (A1) (E3) (E3) (E2) (E2) (E1)
                 (E1) (E3) (E3) (E1) (E1) (B2) (E1) (E1) (E2) (E2)
                 (B1) (E2) (E2) (A1) (E3) (E3) (A1) (E2) (E2) (A2)
                 (B2) (E2) (E2) (E3) (E3) (E1) (E1) (A1) (B2)
 The electronic state is 1-A1.
 Alpha  occ. eigenvalues --  -65.87445 -65.87444 -65.86531 -65.86531 -65.86530
 Alpha  occ. eigenvalues --  -65.86530 -65.86530 -65.86530 -65.86529 -65.86527
 Alpha  occ. eigenvalues --   -5.01775  -5.01775  -5.01000  -5.00998  -5.00998
 Alpha  occ. eigenvalues --   -5.00993  -5.00993  -5.00990  -5.00990  -5.00990
 Alpha  occ. eigenvalues --   -3.37707  -3.37707  -3.37707  -3.37707  -3.37342
 Alpha  occ. eigenvalues --   -3.37341  -3.36931  -3.36930  -3.36930  -3.36927
 Alpha  occ. eigenvalues --   -3.36927  -3.36920  -3.36920  -3.36914  -3.36802
 Alpha  occ. eigenvalues --   -3.36800  -3.36800  -3.36797  -3.36797  -3.36795
 Alpha  occ. eigenvalues --   -3.36793  -3.36793  -3.36722  -3.36712  -3.36712
 Alpha  occ. eigenvalues --   -3.36700  -3.36700  -3.36688  -3.36688  -3.36683
 Alpha  occ. eigenvalues --   -0.37534  -0.28665  -0.27527  -0.27527  -0.17748
 Alpha  occ. eigenvalues --   -0.13437  -0.13437  -0.13262  -0.13262  -0.03559
 Alpha  occ. eigenvalues --   -0.03024   0.00481   0.00481   0.02827   0.02827
 Alpha  occ. eigenvalues --    0.02935   0.02935   0.04924   0.06063   0.06063
 Alpha  occ. eigenvalues --    0.06803
 Alpha virt. eigenvalues --    0.17741   0.17741   0.21202   0.23197   0.23197
 Alpha virt. eigenvalues --    0.23697   0.23697   0.24068   0.24068   0.24341
 Alpha virt. eigenvalues --    0.24341   0.25097   0.25928   0.28752   0.31082
 Alpha virt. eigenvalues --    0.31082   0.33786   0.35210   0.37441   0.37441
 Alpha virt. eigenvalues --    0.38591   0.38591   0.39302   0.40741   0.40741
 Alpha virt. eigenvalues --    0.40835   0.40835   0.41315   0.41438   0.41438
 Alpha virt. eigenvalues --    0.43210   0.43559   0.43559   0.43948   0.43948
 Alpha virt. eigenvalues --    0.45393   0.48112   0.48112   0.50039   0.50478
 Alpha virt. eigenvalues --    0.50569   0.50569   0.51888   0.51888   0.53699
 Alpha virt. eigenvalues --    0.54022   0.54022   0.54970   0.54970   0.57166
 Alpha virt. eigenvalues --    0.57302   0.57302   0.60008   0.60023   0.60023
 Alpha virt. eigenvalues --    0.61589   0.61589   0.61592   0.61664   0.61664
 Alpha virt. eigenvalues --    0.61893   0.61893   0.62684   0.65512   0.67607
 Alpha virt. eigenvalues --    0.67607   0.68820   0.68820   0.72243   0.72243
 Alpha virt. eigenvalues --    0.72517   0.76174   0.76174   0.76840   0.77099
 Alpha virt. eigenvalues --    0.77099   0.81378   0.81378   0.81679   0.81679
 Alpha virt. eigenvalues --    0.82423   0.84420   0.84420   0.85851   0.87856
 Alpha virt. eigenvalues --    0.87856   0.87871   0.87871   0.89780   0.90079
 Alpha virt. eigenvalues --    0.90915   0.92146   0.92146   0.94021   0.95243
 Alpha virt. eigenvalues --    0.95243   0.96070   0.96070   0.96487   0.97527
 Alpha virt. eigenvalues --    0.97527   0.97838   0.97891   0.97891   0.98314
 Alpha virt. eigenvalues --    0.98314   1.02316   1.03823   1.03823   1.11695
 Alpha virt. eigenvalues --    1.11695   1.12378   1.12378   1.17153   1.19066
 Alpha virt. eigenvalues --    1.20239   1.22155   1.22155   1.23488   1.23488
 Alpha virt. eigenvalues --    1.24098   1.24098   1.25857   1.25857   1.27021
 Alpha virt. eigenvalues --    1.27021   1.28389   1.28640   1.28640   1.29934
 Alpha virt. eigenvalues --    1.29934   1.30313   1.30989   1.30989   1.37506
 Alpha virt. eigenvalues --    1.41405   1.42452   1.42452   1.42481   1.42481
 Alpha virt. eigenvalues --    1.49045   1.49045   1.50424   1.51564   1.51564
 Alpha virt. eigenvalues --    1.51804   1.51804   1.53374   1.53374   1.53394
 Alpha virt. eigenvalues --    1.53994   1.54073   1.54086   1.54086   1.60906
 Alpha virt. eigenvalues --    1.61702   1.62400   1.62400   1.63034   1.63034
 Alpha virt. eigenvalues --    1.63130   1.63130   1.65944   1.66320   1.66320
 Alpha virt. eigenvalues --    1.67416   1.67416   1.67815   1.72259   1.72926
 Alpha virt. eigenvalues --    1.72926   1.75160   1.75255   1.75255   1.75747
 Alpha virt. eigenvalues --    1.75747   1.77706   1.79079   1.79079   1.81777
 Alpha virt. eigenvalues --    1.83410   1.83410   1.83568   1.83568   1.86843
 Alpha virt. eigenvalues --    1.88559   1.88559   1.91240   1.91240   1.93893
 Alpha virt. eigenvalues --    2.01979   2.01979   2.07301   2.08735   2.09633
 Alpha virt. eigenvalues --    2.09633   2.12379   2.12379   2.14921   2.14921
 Alpha virt. eigenvalues --    2.14975   2.14975   2.15407   2.17044   2.17044
 Alpha virt. eigenvalues --    2.17274   2.17274   2.18108   2.20879   2.20879
 Alpha virt. eigenvalues --    2.21068   2.23391   2.23900   2.23900   2.24052
 Alpha virt. eigenvalues --    2.26906   2.26906   2.27424   2.27424   2.29838
 Alpha virt. eigenvalues --    2.29838   2.34023   2.34023   2.38679   2.38679
 Alpha virt. eigenvalues --    2.41076   2.42238   2.42238   2.42256   2.42256
 Alpha virt. eigenvalues --    2.44009   2.49883   2.49883   2.54745   2.56633
 Alpha virt. eigenvalues --    2.56633   2.68699   2.70413   2.70413   2.88986
 Alpha virt. eigenvalues --    3.11564   3.24367   3.24367   3.26901   3.26901
 Alpha virt. eigenvalues --    3.27252   3.27252   3.29935   3.39787
          Condensed to atoms (all electrons):
              1          2          3          4          5          6
     1  Si  13.707952   0.168280   0.168280   0.168280   0.168280  -0.032953
     2  Si   0.168280  13.686965   0.017627   0.017627  -0.035767   0.204066
     3  Si   0.168280   0.017627  13.686965  -0.035767   0.017627   0.204066
     4  Si   0.168280   0.017627  -0.035767  13.686965   0.017627  -0.021145
     5  Si   0.168280  -0.035767   0.017627   0.017627  13.686965  -0.021145
     6  Si  -0.032953   0.204066   0.204066  -0.021145  -0.021145  13.686965
     7  Si  -0.032953   0.204066  -0.021145   0.204066  -0.021145   0.017627
     8  Si   0.000259  -0.032953  -0.032953  -0.032953  -0.032953   0.168280
     9  Si  -0.032953  -0.021145   0.204066  -0.021145   0.204066   0.017627
    10  Si  -0.032953  -0.021145  -0.021145   0.204066   0.204066  -0.035767
              7          8          9         10
     1  Si  -0.032953   0.000259  -0.032953  -0.032953
     2  Si   0.204066  -0.032953  -0.021145  -0.021145
     3  Si  -0.021145  -0.032953   0.204066  -0.021145
     4  Si   0.204066  -0.032953  -0.021145   0.204066
     5  Si  -0.021145  -0.032953   0.204066   0.204066
     6  Si   0.017627   0.168280   0.017627  -0.035767
     7  Si  13.686965   0.168280  -0.035767   0.017627
     8  Si   0.168280  13.707952   0.168280   0.168280
     9  Si  -0.035767   0.168280  13.686965   0.017627
    10  Si   0.017627   0.168280   0.017627  13.686965
 Mulliken atomic charges:
              1
     1  Si  -0.249520
     2  Si  -0.187620
     3  Si  -0.187620
     4  Si  -0.187620
     5  Si  -0.187620
     6  Si  -0.187620
     7  Si  -0.187620
     8  Si  -0.249520
     9  Si  -0.187620
    10  Si  -0.187620
 Sum of Mulliken atomic charges =  -2.00000
 Mulliken charges with hydrogens summed into heavy atoms:
              1
     1  Si  -0.249520
     2  Si  -0.187620
     3  Si  -0.187620
     4  Si  -0.187620
     5  Si  -0.187620
     6  Si  -0.187620
     7  Si  -0.187620
     8  Si  -0.249520
     9  Si  -0.187620
    10  Si  -0.187620
 Sum of Mulliken charges with hydrogens summed into heavy atoms =  -2.00000
 Electronic spatial extent (au):  <R**2>=           2917.0074
 Charge=             -2.0000 electrons
 Dipole moment (field-independent basis, Debye):
    X=              0.0000    Y=              0.0000    Z=              0.0000  Tot=              0.0000
 Quadrupole moment (field-independent basis, Debye-Ang):
   XX=           -174.0019   YY=           -174.0019   ZZ=           -186.6298
   XY=              0.0000   XZ=              0.0000   YZ=              0.0000
 Traceless Quadrupole moment (field-independent basis, Debye-Ang):
   XX=              4.2093   YY=              4.2093   ZZ=             -8.4186
   XY=              0.0000   XZ=              0.0000   YZ=              0.0000
 Octapole moment (field-independent basis, Debye-Ang**2):
  XXX=              0.0000  YYY=              0.0000  ZZZ=              0.0000  XYY=              0.0000
  XXY=              0.0000  XXZ=              0.0000  XZZ=              0.0000  YZZ=              0.0000
  YYZ=              0.0000  XYZ=              0.0000
 Hexadecapole moment (field-independent basis, Debye-Ang**3):
 XXXX=          -1814.7221 YYYY=          -1814.7221 ZZZZ=          -2631.6694 XXXY=              0.0000
 XXXZ=              0.0000 YYYX=              0.0000 YYYZ=              0.0000 ZZZX=              0.0000
 ZZZY=              0.0000 XXYY=           -604.9074 XXZZ=           -686.0767 YYZZ=           -686.0767
 XXYZ=              0.0000 YYXZ=              0.0000 ZZXY=              0.0000
 N-N= 1.515768861130D+03 E-N=-9.963003517622D+03  KE= 2.884693665005D+03
 Symmetry A1   KE= 1.293349534871D+03
 Symmetry A2   KE= 3.371312890877D+02
 Symmetry B1   KE= 6.271064205230D+02
 Symmetry B2   KE= 6.271064205230D+02
 Calling FoFJK, ICntrl=      2127 FMM=F ISym2X=1 I1Cent= 0 IOpClX= 0 NMat=1 NMatS=1 NMatT=0.
 ***** Axes restored to original set *****
 -------------------------------------------------------------------
 Center     Atomic                   Forces (Hartrees/Bohr)
 Number     Number              X              Y              Z
 -------------------------------------------------------------------
      1       14           0.000000000    0.000000000   -0.002061509
      2       14           0.000000000   -0.002919078    0.000242499
      3       14          -0.002919078    0.000000000    0.000242499
      4       14           0.002919078    0.000000000    0.000242499
      5       14           0.000000000    0.002919078    0.000242499
      6       14          -0.002064100   -0.002064100   -0.000242499
      7       14           0.002064100   -0.002064100   -0.000242499
      8       14           0.000000000    0.000000000    0.002061509
      9       14          -0.002064100    0.002064100   -0.000242499
     10       14           0.002064100    0.002064100   -0.000242499
 -------------------------------------------------------------------
 Cartesian Forces:  Max     0.002919078 RMS     0.001603519

 GradGradGradGradGradGradGradGradGradGradGradGradGradGradGradGradGradGrad
 Berny optimization.
 Internal  Forces:  Max     0.001366088 RMS     0.000397852
 Search for a local minimum.
 Step number   1 out of a maximum of  100
 All quantities printed in internal units (Hartrees-Bohrs-Radians)
 Mixed Optimization -- En-DIIS/RFO-DIIS
 Second derivative matrix not updated -- first step.
     Eigenvalues ---    0.03085   0.03085   0.04051   0.04051   0.05398
     Eigenvalues ---    0.05880   0.05880   0.07282   0.07905   0.07905
     Eigenvalues ---    0.08039   0.08039   0.08448   0.08448   0.08871
     Eigenvalues ---    0.09496   0.09874   0.09874   0.12066   0.12687
     Eigenvalues ---    0.13688   0.13688   0.15213   0.152131000.00000
     Eigenvalues --- 1000.000001000.000001000.000001000.000001000.00000
     Eigenvalues --- 1000.000001000.000001000.000001000.000001000.00000
     Eigenvalues --- 1000.000001000.000001000.000001000.000001000.00000
     Eigenvalues --- 1000.000001000.000001000.000001000.000001000.00000
     Eigenvalues --- 1000.000001000.000001000.000001000.000001000.00000
     Eigenvalues --- 1000.000001000.000001000.000001000.000001000.00000
     Eigenvalues --- 1000.000001000.000001000.000001000.000001000.00000
     Eigenvalues --- 1000.000001000.000001000.000001000.000001000.00000
     Eigenvalues --- 1000.000001000.000001000.000001000.000001000.00000
     Eigenvalues --- 1000.000001000.000001000.000001000.000001000.00000
     Eigenvalues --- 1000.000001000.000001000.000001000.000001000.00000
     Eigenvalues --- 1000.000001000.000001000.000001000.000001000.00000
     Eigenvalues --- 1000.000001000.000001000.000001000.000001000.00000
     Eigenvalues --- 1000.000001000.000001000.000001000.000001000.00000
     Eigenvalues --- 1000.000001000.000001000.000001000.000001000.00000
     Eigenvalues --- 1000.000001000.000001000.000001000.000001000.00000
     Eigenvalues --- 1000.000001000.000001000.000001000.000001000.00000
     Eigenvalues --- 1000.000001000.000001000.000001000.000001000.00000
     Eigenvalues --- 1000.000001000.000001000.000001000.000001000.00000
     Eigenvalues --- 1000.000001000.000001000.000001000.000001000.00000
     Eigenvalues --- 1000.000001000.000001000.000001000.000001000.00000
     Eigenvalues --- 1000.000001000.000001000.000001000.000001000.00000
     Eigenvalues --- 1000.000001000.000001000.000001000.000001000.00000
     Eigenvalues --- 1000.000001000.000001000.000001000.000001000.00000
     Eigenvalues --- 1000.000001000.000001000.00000
 RFO step:  Lambda=-3.16053382D-04 EMin= 3.08527814D-02
 Linear search not attempted -- first point.
 Iteration  1 RMS(Cart)=  0.00305135 RMS(Int)=  0.00000319
 Iteration  2 RMS(Cart)=  0.00000226 RMS(Int)=  0.00000118
 Iteration  3 RMS(Cart)=  0.00000000 RMS(Int)=  0.00000118
 ClnCor:  largest displacement from symmetrization is 4.82D-09 for atom     9.
 Variable       Old X    -DE/DX   Delta X   Delta X   Delta X     New X
                                 (Linear)    (Quad)   (Total)
    R1        4.74094  -0.00091   0.00000  -0.01275  -0.01275   4.72819
    R2        4.74094  -0.00091   0.00000  -0.01275  -0.01275   4.72819
    R3        4.74094  -0.00091   0.00000  -0.01275  -0.01275   4.72819
    R4        4.74094  -0.00091   0.00000  -0.01275  -0.01275   4.72819
    R5        5.12967  -0.00137   0.00000  -0.01828  -0.01828   5.11139
    R6        5.12967  -0.00137   0.00000  -0.01828  -0.01828   5.11139
    R7        4.60148  -0.00029   0.00000  -0.00296  -0.00296   4.59852
    R8        4.60148  -0.00029   0.00000  -0.00296  -0.00296   4.59852
    R9        5.12967  -0.00137   0.00000  -0.01828  -0.01828   5.11139
   R10        4.60148  -0.00029   0.00000  -0.00296  -0.00296   4.59852
   R11        4.60148  -0.00029   0.00000  -0.00296  -0.00296   4.59852
   R12        5.12967  -0.00137   0.00000  -0.01828  -0.01828   5.11139
   R13        4.60148  -0.00029   0.00000  -0.00296  -0.00296   4.59852
   R14        4.60148  -0.00029   0.00000  -0.00296  -0.00296   4.59852
   R15        4.60148  -0.00029   0.00000  -0.00296  -0.00296   4.59852
   R16        4.60148  -0.00029   0.00000  -0.00296  -0.00296   4.59852
   R17        5.12967  -0.00137   0.00000  -0.01828  -0.01828   5.11139
   R18        4.74094  -0.00091   0.00000  -0.01275  -0.01275   4.72819
   R19        5.12967  -0.00137   0.00000  -0.01828  -0.01828   5.11139
   R20        4.74094  -0.00091   0.00000  -0.01275  -0.01275   4.72819
   R21        5.12967  -0.00137   0.00000  -0.01828  -0.01828   5.11139
   R22        4.74094  -0.00091   0.00000  -0.01275  -0.01275   4.72819
   R23        4.74094  -0.00091   0.00000  -0.01275  -0.01275   4.72819
   R24        5.12967  -0.00137   0.00000  -0.01828  -0.01828   5.11139
    A1        1.74235  -0.00018   0.00000  -0.00208  -0.00208   1.74027
    A2        1.74235  -0.00018   0.00000  -0.00208  -0.00208   1.74027
    A3        1.91441   0.00017   0.00000   0.00230   0.00230   1.91671
    A4        1.91441   0.00017   0.00000   0.00230   0.00230   1.91671
    A5        1.57080   0.00000   0.00000   0.00000   0.00000   1.57080
    A6        1.80378  -0.00005   0.00000  -0.00069  -0.00069   1.80309
    A7        1.80378  -0.00005   0.00000  -0.00069  -0.00069   1.80309
    A8        1.91441   0.00017   0.00000   0.00230   0.00230   1.91671
    A9        1.91441   0.00017   0.00000   0.00230   0.00230   1.91671
   A10        1.57080   0.00000   0.00000   0.00000   0.00000   1.57080
   A11        1.80378  -0.00005   0.00000  -0.00069  -0.00069   1.80309
   A12        1.80378  -0.00005   0.00000  -0.00069  -0.00069   1.80309
   A13        1.91441   0.00017   0.00000   0.00230   0.00230   1.91671
   A14        1.91441   0.00017   0.00000   0.00230   0.00230   1.91671
   A15        1.57080   0.00000   0.00000   0.00000   0.00000   1.57080
   A16        1.80378  -0.00005   0.00000  -0.00069  -0.00069   1.80309
   A17        1.80378  -0.00005   0.00000  -0.00069  -0.00069   1.80309
   A18        1.91441   0.00017   0.00000   0.00230   0.00230   1.91671
   A19        1.91441   0.00017   0.00000   0.00230   0.00230   1.91671
   A20        1.57080   0.00000   0.00000   0.00000   0.00000   1.57080
   A21        1.80378  -0.00005   0.00000  -0.00069  -0.00069   1.80309
   A22        1.80378  -0.00005   0.00000  -0.00069  -0.00069   1.80309
   A23        1.91441   0.00017   0.00000   0.00230   0.00230   1.91671
   A24        1.80378  -0.00005   0.00000  -0.00069  -0.00069   1.80309
   A25        1.80378  -0.00005   0.00000  -0.00069  -0.00069   1.80309
   A26        1.91441   0.00017   0.00000   0.00230   0.00230   1.91671
   A27        1.57080   0.00000   0.00000   0.00000   0.00000   1.57080
   A28        1.91441   0.00017   0.00000   0.00230   0.00230   1.91671
   A29        1.80378  -0.00005   0.00000  -0.00069  -0.00069   1.80309
   A30        1.80378  -0.00005   0.00000  -0.00069  -0.00069   1.80309
   A31        1.91441   0.00017   0.00000   0.00230   0.00230   1.91671
   A32        1.57080   0.00000   0.00000   0.00000   0.00000   1.57080
   A33        1.74235  -0.00018   0.00000  -0.00208  -0.00208   1.74027
   A34        1.74235  -0.00018   0.00000  -0.00208  -0.00208   1.74027
   A35        1.91441   0.00017   0.00000   0.00230   0.00230   1.91671
   A36        1.80378  -0.00005   0.00000  -0.00069  -0.00069   1.80309
   A37        1.80378  -0.00005   0.00000  -0.00069  -0.00069   1.80309
   A38        1.91441   0.00017   0.00000   0.00230   0.00230   1.91671
   A39        1.57080   0.00000   0.00000   0.00000   0.00000   1.57080
   A40        1.91441   0.00017   0.00000   0.00230   0.00230   1.91671
   A41        1.80378  -0.00005   0.00000  -0.00069  -0.00069   1.80309
   A42        1.80378  -0.00005   0.00000  -0.00069  -0.00069   1.80309
   A43        1.91441   0.00017   0.00000   0.00230   0.00230   1.91671
   A44        1.57080   0.00000   0.00000   0.00000   0.00000   1.57080
    D1       -0.63354   0.00010   0.00000   0.00154   0.00154  -0.63200
    D2        0.63354  -0.00010   0.00000  -0.00154  -0.00154   0.63200
    D3        0.63354  -0.00010   0.00000  -0.00154  -0.00154   0.63200
    D4       -0.63354   0.00010   0.00000   0.00154   0.00154  -0.63200
    D5       -0.63354   0.00010   0.00000   0.00154   0.00154  -0.63200
    D6        0.63354  -0.00010   0.00000  -0.00154  -0.00154   0.63200
    D7        0.63354  -0.00010   0.00000  -0.00154  -0.00154   0.63200
    D8       -0.63354   0.00010   0.00000   0.00154   0.00154  -0.63200
    D9        0.00000   0.00000   0.00000   0.00000   0.00000   0.00000
   D10        0.96079   0.00015   0.00000   0.00216   0.00215   0.96295
   D11       -0.96079  -0.00015   0.00000  -0.00216  -0.00215  -0.96295
   D12        0.00000   0.00000   0.00000   0.00000   0.00000   0.00000
   D13        0.00000   0.00000   0.00000   0.00000   0.00000   0.00000
   D14       -0.96079  -0.00015   0.00000  -0.00216  -0.00215  -0.96295
   D15        0.96079   0.00015   0.00000   0.00216   0.00215   0.96295
   D16        0.00000   0.00000   0.00000   0.00000   0.00000   0.00000
   D17        1.44325   0.00003   0.00000   0.00012   0.00012   1.44337
   D18        0.40258  -0.00002   0.00000  -0.00044  -0.00044   0.40214
   D19        0.40258  -0.00002   0.00000  -0.00044  -0.00044   0.40214
   D20       -0.63810  -0.00007   0.00000  -0.00100  -0.00099  -0.63909
   D21       -1.44325  -0.00003   0.00000  -0.00012  -0.00012  -1.44337
   D22       -0.40258   0.00002   0.00000   0.00044   0.00044  -0.40214
   D23       -0.40258   0.00002   0.00000   0.00044   0.00044  -0.40214
   D24        0.63810   0.00007   0.00000   0.00100   0.00099   0.63909
   D25        0.00000   0.00000   0.00000   0.00000   0.00000   0.00000
   D26        0.96079   0.00015   0.00000   0.00216   0.00215   0.96295
   D27       -0.96079  -0.00015   0.00000  -0.00216  -0.00215  -0.96295
   D28        0.00000   0.00000   0.00000   0.00000   0.00000   0.00000
   D29       -0.40258   0.00002   0.00000   0.00044   0.00044  -0.40214
   D30       -1.44325  -0.00003   0.00000  -0.00012  -0.00012  -1.44337
   D31        0.63810   0.00007   0.00000   0.00100   0.00099   0.63909
   D32       -0.40258   0.00002   0.00000   0.00044   0.00044  -0.40214
   D33        1.44325   0.00003   0.00000   0.00012   0.00012   1.44337
   D34        0.40258  -0.00002   0.00000  -0.00044  -0.00044   0.40214
   D35        0.40258  -0.00002   0.00000  -0.00044  -0.00044   0.40214
   D36       -0.63810  -0.00007   0.00000  -0.00100  -0.00099  -0.63909
   D37        0.00000   0.00000   0.00000   0.00000   0.00000   0.00000
   D38       -0.96079  -0.00015   0.00000  -0.00216  -0.00215  -0.96295
   D39        0.96079   0.00015   0.00000   0.00216   0.00215   0.96295
   D40        0.00000   0.00000   0.00000   0.00000   0.00000   0.00000
   D41        0.40258  -0.00002   0.00000  -0.00044  -0.00044   0.40214
   D42        1.44325   0.00003   0.00000   0.00012   0.00012   1.44337
   D43       -0.63810  -0.00007   0.00000  -0.00100  -0.00099  -0.63909
   D44        0.40258  -0.00002   0.00000  -0.00044  -0.00044   0.40214
   D45       -1.44325  -0.00003   0.00000  -0.00012  -0.00012  -1.44337
   D46       -0.40258   0.00002   0.00000   0.00044   0.00044  -0.40214
   D47       -0.40258   0.00002   0.00000   0.00044   0.00044  -0.40214
   D48        0.63810   0.00007   0.00000   0.00100   0.00099   0.63909
   D49       -0.40258   0.00002   0.00000   0.00044   0.00044  -0.40214
   D50       -1.44325  -0.00003   0.00000  -0.00012  -0.00012  -1.44337
   D51        0.63810   0.00007   0.00000   0.00100   0.00099   0.63909
   D52       -0.40258   0.00002   0.00000   0.00044   0.00044  -0.40214
   D53        0.40258  -0.00002   0.00000  -0.00044  -0.00044   0.40214
   D54        1.44325   0.00003   0.00000   0.00012   0.00012   1.44337
   D55       -0.63810  -0.00007   0.00000  -0.00100  -0.00099  -0.63909
   D56        0.40258  -0.00002   0.00000  -0.00044  -0.00044   0.40214
   D57        0.00000   0.00000   0.00000   0.00000   0.00000   0.00000
   D58       -0.96079  -0.00015   0.00000  -0.00216  -0.00215  -0.96295
   D59        0.96079   0.00015   0.00000   0.00216   0.00215   0.96295
   D60        0.00000   0.00000   0.00000   0.00000   0.00000   0.00000
   D61       -0.63354   0.00010   0.00000   0.00154   0.00154  -0.63200
   D62        0.63354  -0.00010   0.00000  -0.00154  -0.00154   0.63200
   D63        0.00000   0.00000   0.00000   0.00000   0.00000   0.00000
   D64        0.96079   0.00015   0.00000   0.00216   0.00215   0.96295
   D65       -0.96079  -0.00015   0.00000  -0.00216  -0.00215  -0.96295
   D66        0.00000   0.00000   0.00000   0.00000   0.00000   0.00000
   D67        0.63354  -0.00010   0.00000  -0.00154  -0.00154   0.63200
   D68       -0.63354   0.00010   0.00000   0.00154   0.00154  -0.63200
   D69        0.00000   0.00000   0.00000   0.00000   0.00000   0.00000
   D70       -0.96079  -0.00015   0.00000  -0.00216  -0.00215  -0.96295
   D71        0.96079   0.00015   0.00000   0.00216   0.00215   0.96295
   D72        0.00000   0.00000   0.00000   0.00000   0.00000   0.00000
   D73       -0.63354   0.00010   0.00000   0.00154   0.00154  -0.63200
   D74        0.63354  -0.00010   0.00000  -0.00154  -0.00154   0.63200
   D75        0.63354  -0.00010   0.00000  -0.00154  -0.00154   0.63200
   D76       -0.63354   0.00010   0.00000   0.00154   0.00154  -0.63200
   D77        0.00000   0.00000   0.00000   0.00000   0.00000   0.00000
   D78        0.96079   0.00015   0.00000   0.00216   0.00215   0.96295
   D79       -0.96079  -0.00015   0.00000  -0.00216  -0.00215  -0.96295
   D80        0.00000   0.00000   0.00000   0.00000   0.00000   0.00000
         Item               Value     Threshold  Converged?
 Maximum Force            0.001366     0.000450     NO 
 RMS     Force            0.000398     0.000300     NO 
 Maximum Displacement     0.012925     0.001800     NO 
 RMS     Displacement     0.003051     0.001200     NO 
 Predicted change in Energy=-1.586818D-04
 GradGradGradGradGradGradGradGradGradGradGradGradGradGradGradGradGradGrad

                          Input orientation:                          
 ---------------------------------------------------------------------
 Center     Atomic      Atomic             Coordinates (Angstroms)
 Number     Number       Type             X           Y           Z
 ---------------------------------------------------------------------
      1         14           0        0.000000    0.000000    2.585079
      2         14           0        0.000000    1.912605    0.971949
      3         14           0        1.912605    0.000000    0.971949
      4         14           0       -1.912605    0.000000    0.971949
      5         14           0        0.000000   -1.912605    0.971949
      6         14           0        1.352416    1.352416   -0.971949
      7         14           0       -1.352416    1.352416   -0.971949
      8         14           0        0.000000    0.000000   -2.585079
      9         14           0        1.352416   -1.352416   -0.971949
     10         14           0       -1.352416   -1.352416   -0.971949
 ---------------------------------------------------------------------
                    Distance matrix (angstroms):
                    1          2          3          4          5
     1  Si   0.000000
     2  Si   2.502048   0.000000
     3  Si   2.502048   2.704831   0.000000
     4  Si   2.502048   2.704831   3.825209   0.000000
     5  Si   2.502048   3.825209   2.704831   2.704831   0.000000
     6  Si   4.038627   2.433429   2.433429   4.033376   4.033376
     7  Si   4.038627   2.433429   4.033376   2.433429   4.033376
     8  Si   5.170159   4.038627   4.038627   4.038627   4.038627
     9  Si   4.038627   4.033376   2.433429   4.033376   2.433429
    10  Si   4.038627   4.033376   4.033376   2.433429   2.433429
                    6          7          8          9         10
     6  Si   0.000000
     7  Si   2.704831   0.000000
     8  Si   2.502048   2.502048   0.000000
     9  Si   2.704831   3.825209   2.502048   0.000000
    10  Si   3.825209   2.704831   2.502048   2.704831   0.000000
 Stoichiometry    Si10(2-)
 Framework group  D4D[C4(Si.Si),4SGD(Si2)]
 Deg. of freedom     3
 Full point group                 D4D     NOp  16
 Largest Abelian subgroup         C2V     NOp   4
 Largest concise Abelian subgroup C2V     NOp   4
                         Standard orientation:                         
 ---------------------------------------------------------------------
 Center     Atomic      Atomic             Coordinates (Angstroms)
 Number     Number       Type             X           Y           Z
 ---------------------------------------------------------------------
      1         14           0        0.000000    0.000000    2.585079
      2         14           0        0.000000    1.912605    0.971949
      3         14           0        1.912605    0.000000    0.971949
      4         14           0       -1.912605    0.000000    0.971949
      5         14           0        0.000000   -1.912605    0.971949
      6         14           0        1.352416    1.352416   -0.971949
      7         14           0       -1.352416    1.352416   -0.971949
      8         14           0        0.000000    0.000000   -2.585079
      9         14           0        1.352416   -1.352416   -0.971949
     10         14           0       -1.352416   -1.352416   -0.971949
 ---------------------------------------------------------------------
 Rotational constants (GHZ):      0.6172723      0.5080621      0.5080621
 Standard basis: GTBas3 (6D, 7F)
 There are   106 symmetry adapted basis functions of A1  symmetry.
 There are    58 symmetry adapted basis functions of A2  symmetry.
 There are    78 symmetry adapted basis functions of B1  symmetry.
 There are    78 symmetry adapted basis functions of B2  symmetry.
 Integral buffers will be    131072 words long.
 Raffenetti 2 integral format.
 Two-electron integral symmetry is turned on.
   320 basis functions,   680 primitive gaussians,   350 cartesian basis functions
    71 alpha electrons       71 beta electrons
       nuclear repulsion energy      1519.0671844331 Hartrees.
 NAtoms=   10 NActive=   10 NUniq=    2 SFac= 3.00D+00 NAtFMM=   80 NAOKFM=F Big=F
 One-electron integrals computed using PRISM.
 NBasis=   320 RedAO= T  NBF=   106    58    78    78
 NBsUse=   320 1.00D-06 NBFU=   106    58    78    78
 Initial guess read from the read-write file.
 B after Tr=     0.000000    0.000000    0.000000
         Rot=    1.000000    0.000000    0.000000    0.000000 Ang=   0.00 deg.
 Initial guess orbital symmetries:
       Occupied  (A1) (B2) (E2) (E2) (E1) (E1) (E3) (E3) (B2) (A1)
                 (A1) (B2) (A1) (E1) (E1) (E2) (E2) (B2) (E3) (E3)
                 (E1) (E1) (E3) (E3) (B2) (A1) (B1) (E3) (E3) (E2)
                 (E2) (E1) (E1) (A2) (A1) (E1) (E1) (E2) (E2) (B2)
                 (E3) (E3) (A1) (E1) (E1) (E2) (E2) (E3) (E3) (B2)
                 (A1) (B2) (E1) (E1) (A1) (E2) (E2) (E3) (E3) (B2)
                 (A1) (E1) (E1) (E3) (E3) (E2) (E2) (B2) (E1) (E1)
                 (A1)
       Virtual   (E3) (E3) (B1) (E2) (E2) (E3) (E3) (E2) (E2) (E1)
                 (E1) (A1) (B2) (B2) (E1) (E1) (A1) (A2) (E3) (E3)
                 (E1) (E1) (B2) (E1) (E1) (E2) (E2) (A1) (E3) (E3)
                 (B2) (E2) (E2) (E3) (E3) (A1) (E3) (E3) (A1) (B1)
                 (E2) (E2) (E2) (E2) (B2) (E1) (E1) (E3) (E3) (B2)
                 (E1) (E1) (A2) (E3) (E3) (E3) (E3) (B2) (E1) (E1)
                 (E2) (E2) (A1) (B1) (E1) (E1) (E2) (E2) (E1) (E1)
                 (A1) (E3) (E3) (B2) (E2) (E2) (E2) (E2) (E3) (E3)
                 (A1) (E1) (E1) (A1) (E2) (E2) (E3) (E3) (B1) (A2)
                 (B2) (E1) (E1) (B2) (E1) (E1) (E2) (E2) (A1) (E3)
                 (E3) (B2) (E1) (E1) (E2) (E2) (A2) (E3) (E3) (E3)
                 (E3) (E2) (E2) (A1) (B2) (A1) (E2) (E2) (E1) (E1)
                 (E3) (E3) (E1) (E1) (E3) (E3) (B2) (E2) (E2) (E3)
                 (E3) (B2) (E1) (E1) (A1) (B1) (E2) (E2) (E1) (E1)
                 (E1) (E1) (B1) (E1) (E1) (E3) (E3) (E2) (E2) (A2)
                 (B2) (A1) (E3) (E3) (B2) (A1) (E2) (E2) (E2) (E2)
                 (E3) (E3) (B2) (E1) (E1) (E3) (E3) (B1) (A1) (E2)
                 (E2) (A1) (E2) (E2) (E1) (E1) (A2) (E3) (E3) (A2)
                 (E1) (E1) (E3) (E3) (B2) (E1) (E1) (E2) (E2) (A1)
                 (E2) (E2) (B2) (B2) (E3) (E3) (E1) (E1) (E3) (E3)
                 (E2) (E2) (A2) (E1) (E1) (E1) (E1) (A1) (E2) (E2)
                 (B2) (B1) (E3) (E3) (A1) (E3) (E3) (E2) (E2) (E1)
                 (E1) (E3) (E3) (E1) (E1) (B2) (E1) (E1) (E2) (E2)
                 (B1) (E2) (E2) (A1) (E3) (E3) (A1) (E2) (E2) (A2)
                 (B2) (E2) (E2) (E3) (E3) (E1) (E1) (A1) (B2)
 Requested convergence on RMS density matrix=1.00D-08 within 128 cycles.
 Requested convergence on MAX density matrix=1.00D-06.
 Requested convergence on             energy=1.00D-06.
 No special actions if energy rises.
 Keep R1 ints in memory in canonical form, NReq=1908641289.
 SCF Done:  E(RB3LYP) =  -2894.98927859     A.U. after    8 cycles
             Convg  =    0.7310D-08             -V/T =  2.0036
 QCSCF skips out because SCF is already converged.
 Calling FoFJK, ICntrl=      2127 FMM=F ISym2X=1 I1Cent= 0 IOpClX= 0 NMat=1 NMatS=1 NMatT=0.
 ***** Axes restored to original set *****
 -------------------------------------------------------------------
 Center     Atomic                   Forces (Hartrees/Bohr)
 Number     Number              X              Y              Z
 -------------------------------------------------------------------
      1       14           0.000000000    0.000000000   -0.001035291
      2       14           0.000000000   -0.001666776    0.000043206
      3       14          -0.001666776    0.000000000    0.000043206
      4       14           0.001666776    0.000000000    0.000043206
      5       14           0.000000000    0.001666776    0.000043206
      6       14          -0.001178588   -0.001178588   -0.000043206
      7       14           0.001178588   -0.001178588   -0.000043206
      8       14           0.000000000    0.000000000    0.001035291
      9       14          -0.001178588    0.001178588   -0.000043206
     10       14           0.001178588    0.001178588   -0.000043206
 -------------------------------------------------------------------
 Cartesian Forces:  Max     0.001666776 RMS     0.000901549

 GradGradGradGradGradGradGradGradGradGradGradGradGradGradGradGradGradGrad
 Berny optimization.
 Using GEDIIS/GDIIS optimizer.
 Internal  Forces:  Max     0.000786763 RMS     0.000225588
 Search for a local minimum.
 Step number   2 out of a maximum of  100
 All quantities printed in internal units (Hartrees-Bohrs-Radians)
 Mixed Optimization -- En-DIIS/RFO-DIIS
 Swaping is turned off.
 Update second derivatives using D2CorX and points    1    2
 DE= -2.48D-04 DEPred=-1.59D-04 R= 1.56D+00
 SS=  1.41D+00  RLast= 6.54D-02 DXNew= 5.0454D-01 1.9619D-01
 Trust test= 1.56D+00 RLast= 6.54D-02 DXMaxT set to 3.00D-01
     Eigenvalues ---    0.03081   0.03081   0.03219   0.04052   0.04052
     Eigenvalues ---    0.05369   0.05862   0.05862   0.07903   0.07903
     Eigenvalues ---    0.08034   0.08034   0.08450   0.08450   0.08871
     Eigenvalues ---    0.09404   0.09882   0.09882   0.12080   0.12692
     Eigenvalues ---    0.13690   0.13690   0.15213   0.152131000.00000
     Eigenvalues --- 1000.000001000.000001000.000001000.000001000.00000
     Eigenvalues --- 1000.000001000.000001000.000001000.000001000.00000
     Eigenvalues --- 1000.000001000.000001000.000001000.000001000.00000
     Eigenvalues --- 1000.000001000.000001000.000001000.000001000.00000
     Eigenvalues --- 1000.000001000.000001000.000001000.000001000.00000
     Eigenvalues --- 1000.000001000.000001000.000001000.000001000.00000
     Eigenvalues --- 1000.000001000.000001000.000001000.000001000.00000
     Eigenvalues --- 1000.000001000.000001000.000001000.000001000.00000
     Eigenvalues --- 1000.000001000.000001000.000001000.000001000.00000
     Eigenvalues --- 1000.000001000.000001000.000001000.000001000.00000
     Eigenvalues --- 1000.000001000.000001000.000001000.000001000.00000
     Eigenvalues --- 1000.000001000.000001000.000001000.000001000.00000
     Eigenvalues --- 1000.000001000.000001000.000001000.000001000.00000
     Eigenvalues --- 1000.000001000.000001000.000001000.000001000.00000
     Eigenvalues --- 1000.000001000.000001000.000001000.000001000.00000
     Eigenvalues --- 1000.000001000.000001000.000001000.000001000.00000
     Eigenvalues --- 1000.000001000.000001000.000001000.000001000.00000
     Eigenvalues --- 1000.000001000.000001000.000001000.000001000.00000
     Eigenvalues --- 1000.000001000.000001000.000001000.000001000.00000
     Eigenvalues --- 1000.000001000.000001000.000001000.000001000.00000
     Eigenvalues --- 1000.000001000.000001000.000001000.000001000.00000
     Eigenvalues --- 1000.000001000.000001000.000001000.000001000.00000
     Eigenvalues --- 1000.000001000.000001000.000001000.000001000.00000
     Eigenvalues --- 1000.000001000.000001000.000001000.000001000.00000
     Eigenvalues --- 1000.000001000.000001000.00000
 En-DIIS/RFO-DIIS IScMMF=        0 using points:     2    1
 RFO step:  Lambda=-4.17995891D-05.
 DIIS coeffs:      2.29494     -1.29494
 Iteration  1 RMS(Cart)=  0.00398779 RMS(Int)=  0.00000619
 Iteration  2 RMS(Cart)=  0.00000398 RMS(Int)=  0.00000363
 Iteration  3 RMS(Cart)=  0.00000000 RMS(Int)=  0.00000363
 ClnCor:  largest displacement from symmetrization is 2.47D-09 for atom     9.
 Variable       Old X    -DE/DX   Delta X   Delta X   Delta X     New X
                                  (DIIS)     (GDIIS)  (Total)
    R1        4.72819  -0.00048  -0.01651   0.00069  -0.01582   4.71236
    R2        4.72819  -0.00048  -0.01651   0.00069  -0.01582   4.71236
    R3        4.72819  -0.00048  -0.01651   0.00069  -0.01582   4.71236
    R4        4.72819  -0.00048  -0.01651   0.00069  -0.01582   4.71236
    R5        5.11139  -0.00079  -0.02367  -0.00037  -0.02404   5.08735
    R6        5.11139  -0.00079  -0.02367  -0.00037  -0.02404   5.08735
    R7        4.59852  -0.00020  -0.00384  -0.00089  -0.00473   4.59378
    R8        4.59852  -0.00020  -0.00384  -0.00089  -0.00473   4.59378
    R9        5.11139  -0.00079  -0.02367  -0.00037  -0.02404   5.08735
   R10        4.59852  -0.00020  -0.00384  -0.00089  -0.00473   4.59378
   R11        4.59852  -0.00020  -0.00384  -0.00089  -0.00473   4.59378
   R12        5.11139  -0.00079  -0.02367  -0.00037  -0.02404   5.08735
   R13        4.59852  -0.00020  -0.00384  -0.00089  -0.00473   4.59378
   R14        4.59852  -0.00020  -0.00384  -0.00089  -0.00473   4.59378
   R15        4.59852  -0.00020  -0.00384  -0.00089  -0.00473   4.59378
   R16        4.59852  -0.00020  -0.00384  -0.00089  -0.00473   4.59378
   R17        5.11139  -0.00079  -0.02367  -0.00037  -0.02404   5.08735
   R18        4.72819  -0.00048  -0.01651   0.00069  -0.01582   4.71236
   R19        5.11139  -0.00079  -0.02367  -0.00037  -0.02404   5.08735
   R20        4.72819  -0.00048  -0.01651   0.00069  -0.01582   4.71236
   R21        5.11139  -0.00079  -0.02367  -0.00037  -0.02404   5.08735
   R22        4.72819  -0.00048  -0.01651   0.00069  -0.01582   4.71236
   R23        4.72819  -0.00048  -0.01651   0.00069  -0.01582   4.71236
   R24        5.11139  -0.00079  -0.02367  -0.00037  -0.02404   5.08735
    A1        1.74027  -0.00012  -0.00269  -0.00052  -0.00322   1.73704
    A2        1.74027  -0.00012  -0.00269  -0.00052  -0.00322   1.73704
    A3        1.91671   0.00011   0.00297   0.00015   0.00313   1.91984
    A4        1.91671   0.00011   0.00297   0.00015   0.00313   1.91984
    A5        1.57080   0.00000   0.00000   0.00000   0.00000   1.57080
    A6        1.80309  -0.00003  -0.00090   0.00003  -0.00087   1.80222
    A7        1.80309  -0.00003  -0.00090   0.00003  -0.00087   1.80222
    A8        1.91671   0.00011   0.00297   0.00015   0.00313   1.91984
    A9        1.91671   0.00011   0.00297   0.00015   0.00313   1.91984
   A10        1.57080   0.00000   0.00000   0.00000   0.00000   1.57080
   A11        1.80309  -0.00003  -0.00090   0.00003  -0.00087   1.80222
   A12        1.80309  -0.00003  -0.00090   0.00003  -0.00087   1.80222
   A13        1.91671   0.00011   0.00297   0.00015   0.00313   1.91984
   A14        1.91671   0.00011   0.00297   0.00015   0.00313   1.91984
   A15        1.57080   0.00000   0.00000   0.00000   0.00000   1.57080
   A16        1.80309  -0.00003  -0.00090   0.00003  -0.00087   1.80222
   A17        1.80309  -0.00003  -0.00090   0.00003  -0.00087   1.80222
   A18        1.91671   0.00011   0.00297   0.00015   0.00313   1.91984
   A19        1.91671   0.00011   0.00297   0.00015   0.00313   1.91984
   A20        1.57080   0.00000   0.00000   0.00000   0.00000   1.57080
   A21        1.80309  -0.00003  -0.00090   0.00003  -0.00087   1.80222
   A22        1.80309  -0.00003  -0.00090   0.00003  -0.00087   1.80222
   A23        1.91671   0.00011   0.00297   0.00015   0.00313   1.91984
   A24        1.80309  -0.00003  -0.00090   0.00003  -0.00087   1.80222
   A25        1.80309  -0.00003  -0.00090   0.00003  -0.00087   1.80222
   A26        1.91671   0.00011   0.00297   0.00015   0.00313   1.91984
   A27        1.57080   0.00000   0.00000   0.00000   0.00000   1.57080
   A28        1.91671   0.00011   0.00297   0.00015   0.00313   1.91984
   A29        1.80309  -0.00003  -0.00090   0.00003  -0.00087   1.80222
   A30        1.80309  -0.00003  -0.00090   0.00003  -0.00087   1.80222
   A31        1.91671   0.00011   0.00297   0.00015   0.00313   1.91984
   A32        1.57080   0.00000   0.00000   0.00000   0.00000   1.57080
   A33        1.74027  -0.00012  -0.00269  -0.00052  -0.00322   1.73704
   A34        1.74027  -0.00012  -0.00269  -0.00052  -0.00322   1.73704
   A35        1.91671   0.00011   0.00297   0.00015   0.00313   1.91984
   A36        1.80309  -0.00003  -0.00090   0.00003  -0.00087   1.80222
   A37        1.80309  -0.00003  -0.00090   0.00003  -0.00087   1.80222
   A38        1.91671   0.00011   0.00297   0.00015   0.00313   1.91984
   A39        1.57080   0.00000   0.00000   0.00000   0.00000   1.57080
   A40        1.91671   0.00011   0.00297   0.00015   0.00313   1.91984
   A41        1.80309  -0.00003  -0.00090   0.00003  -0.00087   1.80222
   A42        1.80309  -0.00003  -0.00090   0.00003  -0.00087   1.80222
   A43        1.91671   0.00011   0.00297   0.00015   0.00313   1.91984
   A44        1.57080   0.00000   0.00000   0.00000   0.00000   1.57080
    D1       -0.63200   0.00005   0.00199  -0.00013   0.00186  -0.63013
    D2        0.63200  -0.00005  -0.00199   0.00013  -0.00186   0.63013
    D3        0.63200  -0.00005  -0.00199   0.00013  -0.00186   0.63013
    D4       -0.63200   0.00005   0.00199  -0.00013   0.00186  -0.63013
    D5       -0.63200   0.00005   0.00199  -0.00013   0.00186  -0.63013
    D6        0.63200  -0.00005  -0.00199   0.00013  -0.00186   0.63013
    D7        0.63200  -0.00005  -0.00199   0.00013  -0.00186   0.63013
    D8       -0.63200   0.00005   0.00199  -0.00013   0.00186  -0.63013
    D9        0.00000   0.00000   0.00000   0.00000   0.00000   0.00000
   D10        0.96295   0.00008   0.00279  -0.00009   0.00270   0.96564
   D11       -0.96295  -0.00008  -0.00279   0.00009  -0.00270  -0.96564
   D12        0.00000   0.00000   0.00000   0.00000   0.00000   0.00000
   D13        0.00000   0.00000   0.00000   0.00000   0.00000   0.00000
   D14       -0.96295  -0.00008  -0.00279   0.00009  -0.00270  -0.96564
   D15        0.96295   0.00008   0.00279  -0.00009   0.00270   0.96564
   D16        0.00000   0.00000   0.00000   0.00000   0.00000   0.00000
   D17        1.44337   0.00003   0.00015   0.00038   0.00052   1.44389
   D18        0.40214   0.00000  -0.00057   0.00021  -0.00036   0.40178
   D19        0.40214   0.00000  -0.00057   0.00021  -0.00036   0.40178
   D20       -0.63909  -0.00004  -0.00129   0.00004  -0.00124  -0.64033
   D21       -1.44337  -0.00003  -0.00015  -0.00038  -0.00052  -1.44389
   D22       -0.40214   0.00000   0.00057  -0.00021   0.00036  -0.40178
   D23       -0.40214   0.00000   0.00057  -0.00021   0.00036  -0.40178
   D24        0.63909   0.00004   0.00129  -0.00004   0.00124   0.64033
   D25        0.00000   0.00000   0.00000   0.00000   0.00000   0.00000
   D26        0.96295   0.00008   0.00279  -0.00009   0.00270   0.96564
   D27       -0.96295  -0.00008  -0.00279   0.00009  -0.00270  -0.96564
   D28        0.00000   0.00000   0.00000   0.00000   0.00000   0.00000
   D29       -0.40214   0.00000   0.00057  -0.00021   0.00036  -0.40178
   D30       -1.44337  -0.00003  -0.00015  -0.00038  -0.00052  -1.44389
   D31        0.63909   0.00004   0.00129  -0.00004   0.00124   0.64033
   D32       -0.40214   0.00000   0.00057  -0.00021   0.00036  -0.40178
   D33        1.44337   0.00003   0.00015   0.00038   0.00052   1.44389
   D34        0.40214   0.00000  -0.00057   0.00021  -0.00036   0.40178
   D35        0.40214   0.00000  -0.00057   0.00021  -0.00036   0.40178
   D36       -0.63909  -0.00004  -0.00129   0.00004  -0.00124  -0.64033
   D37        0.00000   0.00000   0.00000   0.00000   0.00000   0.00000
   D38       -0.96295  -0.00008  -0.00279   0.00009  -0.00270  -0.96564
   D39        0.96295   0.00008   0.00279  -0.00009   0.00270   0.96564
   D40        0.00000   0.00000   0.00000   0.00000   0.00000   0.00000
   D41        0.40214   0.00000  -0.00057   0.00021  -0.00036   0.40178
   D42        1.44337   0.00003   0.00015   0.00038   0.00052   1.44389
   D43       -0.63909  -0.00004  -0.00129   0.00004  -0.00124  -0.64033
   D44        0.40214   0.00000  -0.00057   0.00021  -0.00036   0.40178
   D45       -1.44337  -0.00003  -0.00015  -0.00038  -0.00052  -1.44389
   D46       -0.40214   0.00000   0.00057  -0.00021   0.00036  -0.40178
   D47       -0.40214   0.00000   0.00057  -0.00021   0.00036  -0.40178
   D48        0.63909   0.00004   0.00129  -0.00004   0.00124   0.64033
   D49       -0.40214   0.00000   0.00057  -0.00021   0.00036  -0.40178
   D50       -1.44337  -0.00003  -0.00015  -0.00038  -0.00052  -1.44389
   D51        0.63909   0.00004   0.00129  -0.00004   0.00124   0.64033
   D52       -0.40214   0.00000   0.00057  -0.00021   0.00036  -0.40178
   D53        0.40214   0.00000  -0.00057   0.00021  -0.00036   0.40178
   D54        1.44337   0.00003   0.00015   0.00038   0.00052   1.44389
   D55       -0.63909  -0.00004  -0.00129   0.00004  -0.00124  -0.64033
   D56        0.40214   0.00000  -0.00057   0.00021  -0.00036   0.40178
   D57        0.00000   0.00000   0.00000   0.00000   0.00000   0.00000
   D58       -0.96295  -0.00008  -0.00279   0.00009  -0.00270  -0.96564
   D59        0.96295   0.00008   0.00279  -0.00009   0.00270   0.96564
   D60        0.00000   0.00000   0.00000   0.00000   0.00000   0.00000
   D61       -0.63200   0.00005   0.00199  -0.00013   0.00186  -0.63013
   D62        0.63200  -0.00005  -0.00199   0.00013  -0.00186   0.63013
   D63        0.00000   0.00000   0.00000   0.00000   0.00000   0.00000
   D64        0.96295   0.00008   0.00279  -0.00009   0.00270   0.96564
   D65       -0.96295  -0.00008  -0.00279   0.00009  -0.00270  -0.96564
   D66        0.00000   0.00000   0.00000   0.00000   0.00000   0.00000
   D67        0.63200  -0.00005  -0.00199   0.00013  -0.00186   0.63013
   D68       -0.63200   0.00005   0.00199  -0.00013   0.00186  -0.63013
   D69        0.00000   0.00000   0.00000   0.00000   0.00000   0.00000
   D70       -0.96295  -0.00008  -0.00279   0.00009  -0.00270  -0.96564
   D71        0.96295   0.00008   0.00279  -0.00009   0.00270   0.96564
   D72        0.00000   0.00000   0.00000   0.00000   0.00000   0.00000
   D73       -0.63200   0.00005   0.00199  -0.00013   0.00186  -0.63013
   D74        0.63200  -0.00005  -0.00199   0.00013  -0.00186   0.63013
   D75        0.63200  -0.00005  -0.00199   0.00013  -0.00186   0.63013
   D76       -0.63200   0.00005   0.00199  -0.00013   0.00186  -0.63013
   D77        0.00000   0.00000   0.00000   0.00000   0.00000   0.00000
   D78        0.96295   0.00008   0.00279  -0.00009   0.00270   0.96564
   D79       -0.96295  -0.00008  -0.00279   0.00009  -0.00270  -0.96564
   D80        0.00000   0.00000   0.00000   0.00000   0.00000   0.00000
         Item               Value     Threshold  Converged?
 Maximum Force            0.000787     0.000450     NO 
 RMS     Force            0.000226     0.000300     YES
 Maximum Displacement     0.016997     0.001800     NO 
 RMS     Displacement     0.003987     0.001200     NO 
 Predicted change in Energy=-1.161945D-04
 GradGradGradGradGradGradGradGradGradGradGradGradGradGradGradGradGradGrad

                          Input orientation:                          
 ---------------------------------------------------------------------
 Center     Atomic      Atomic             Coordinates (Angstroms)
 Number     Number       Type             X           Y           Z
 ---------------------------------------------------------------------
      1         14           0        0.000000    0.000000    2.583770
      2         14           0        0.000000    1.903610    0.972968
      3         14           0        1.903610    0.000000    0.972968
      4         14           0       -1.903610    0.000000    0.972968
      5         14           0        0.000000   -1.903610    0.972968
      6         14           0        1.346056    1.346056   -0.972968
      7         14           0       -1.346056    1.346056   -0.972968
      8         14           0        0.000000    0.000000   -2.583770
      9         14           0        1.346056   -1.346056   -0.972968
     10         14           0       -1.346056   -1.346056   -0.972968
 ---------------------------------------------------------------------
                    Distance matrix (angstroms):
                    1          2          3          4          5
     1  Si   0.000000
     2  Si   2.493675   0.000000
     3  Si   2.493675   2.692111   0.000000
     4  Si   2.493675   2.692111   3.807220   0.000000
     5  Si   2.493675   3.807220   2.692111   2.692111   0.000000
     6  Si   4.034119   2.430925   2.430925   4.019808   4.019808
     7  Si   4.034119   2.430925   4.019808   2.430925   4.019808
     8  Si   5.167541   4.034119   4.034119   4.034119   4.034119
     9  Si   4.034119   4.019808   2.430925   4.019808   2.430925
    10  Si   4.034119   4.019808   4.019808   2.430925   2.430925
                    6          7          8          9         10
     6  Si   0.000000
     7  Si   2.692111   0.000000
     8  Si   2.493675   2.493675   0.000000
     9  Si   2.692111   3.807220   2.493675   0.000000
    10  Si   3.807220   2.692111   2.493675   2.692111   0.000000
 Stoichiometry    Si10(2-)
 Framework group  D4D[C4(Si.Si),4SGD(Si2)]
 Deg. of freedom     3
 Full point group                 D4D     NOp  16
 Largest Abelian subgroup         C2V     NOp   4
 Largest concise Abelian subgroup C2V     NOp   4
                         Standard orientation:                         
 ---------------------------------------------------------------------
 Center     Atomic      Atomic             Coordinates (Angstroms)
 Number     Number       Type             X           Y           Z
 ---------------------------------------------------------------------
      1         14           0        0.000000    0.000000    2.583770
      2         14           0        0.000000    1.903610    0.972968
      3         14           0        1.903610    0.000000    0.972968
      4         14           0       -1.903610    0.000000    0.972968
      5         14           0        0.000000   -1.903610    0.972968
      6         14           0        1.346056    1.346056   -0.972968
      7         14           0       -1.346056    1.346056   -0.972968
      8         14           0        0.000000    0.000000   -2.583770
      9         14           0        1.346056   -1.346056   -0.972968
     10         14           0       -1.346056   -1.346056   -0.972968
 ---------------------------------------------------------------------
 Rotational constants (GHZ):      0.6231192      0.5099983      0.5099983
 Standard basis: GTBas3 (6D, 7F)
 There are   106 symmetry adapted basis functions of A1  symmetry.
 There are    58 symmetry adapted basis functions of A2  symmetry.
 There are    78 symmetry adapted basis functions of B1  symmetry.
 There are    78 symmetry adapted basis functions of B2  symmetry.
 Integral buffers will be    131072 words long.
 Raffenetti 2 integral format.
 Two-electron integral symmetry is turned on.
   320 basis functions,   680 primitive gaussians,   350 cartesian basis functions
    71 alpha electrons       71 beta electrons
       nuclear repulsion energy      1523.4280550903 Hartrees.
 NAtoms=   10 NActive=   10 NUniq=    2 SFac= 3.00D+00 NAtFMM=   80 NAOKFM=F Big=F
 One-electron integrals computed using PRISM.
 NBasis=   320 RedAO= T  NBF=   106    58    78    78
 NBsUse=   320 1.00D-06 NBFU=   106    58    78    78
 Initial guess read from the read-write file.
 B after Tr=     0.000000    0.000000    0.000000
         Rot=    1.000000    0.000000    0.000000    0.000000 Ang=   0.00 deg.
 Initial guess orbital symmetries:
       Occupied  (A1) (B2) (E2) (E2) (E1) (E1) (E3) (E3) (B2) (A1)
                 (A1) (B2) (A1) (E1) (E1) (E2) (E2) (B2) (E3) (E3)
                 (E1) (E1) (E3) (E3) (B2) (A1) (B1) (E3) (E3) (E2)
[...]
 Alpha virt. eigenvalues --    2.50347   2.50347   2.50655   2.51382   2.51811
 Alpha virt. eigenvalues --    2.51811   2.52273   2.55110   2.56204   2.56204
 Alpha virt. eigenvalues --    2.56544   2.56544   2.58012   2.58012   2.59545
 Alpha virt. eigenvalues --    2.60406   2.61762   2.61762   2.61912   2.61912
 Alpha virt. eigenvalues --    2.63411   2.63411   2.66019   2.66021   2.66021
 Alpha virt. eigenvalues --    2.67075   2.67075   2.69164   2.69164   2.70387
 Alpha virt. eigenvalues --    2.70387   2.70437   2.71267   2.71267   2.71724
 Alpha virt. eigenvalues --    2.74945   2.74945   2.75211   2.75533   2.75533
 Alpha virt. eigenvalues --    2.76832   2.79254   2.79254   2.80337   2.80337
 Alpha virt. eigenvalues --    2.82035   2.82111   2.83371   2.83371   2.86380
 Alpha virt. eigenvalues --    2.89248   2.89248   2.92807   2.92807   2.95974
 Alpha virt. eigenvalues --    2.95974   2.97495   2.97495   2.98287   2.98287
 Alpha virt. eigenvalues --    2.99082   3.02207   3.02207   3.02371   3.02371
 Alpha virt. eigenvalues --    3.02934   3.04878   3.11238   3.11238   3.11948
 Alpha virt. eigenvalues --    3.11948   3.12091   3.15170   3.15170   3.17078
 Alpha virt. eigenvalues --    3.17078   3.21177   3.23267   3.24420   3.24420
 Alpha virt. eigenvalues --    3.25661   3.25661   3.31153   3.31153   3.31481
 Alpha virt. eigenvalues --    3.32414   3.34321   3.34321   3.39184   3.39184
 Alpha virt. eigenvalues --    3.43048   3.45327   3.45339   3.45339   3.46021
 Alpha virt. eigenvalues --    3.48220   3.49718   3.49718   3.51526   3.51526
 Alpha virt. eigenvalues --    3.52160   3.52160   3.54874   3.54874   3.55624
 Alpha virt. eigenvalues --    3.55706   3.57220   3.57220   3.59640   3.59640
 Alpha virt. eigenvalues --    3.60410   3.60410   3.60457   3.60457   3.61912
 Alpha virt. eigenvalues --    3.61912   3.62040   3.62040   3.62807   3.64632
 Alpha virt. eigenvalues --    3.68507   3.68507   3.68694   3.68798   3.68798
 Alpha virt. eigenvalues --    3.69123   3.69395   3.69395   3.70917   3.71897
 Alpha virt. eigenvalues --    3.71897   3.72226   3.72226   3.74876   3.77030
 Alpha virt. eigenvalues --    3.77030   3.77686   3.78188   3.78821   3.78821
 Alpha virt. eigenvalues --    3.79482   3.79644   3.79644   3.79865   3.79865
 Alpha virt. eigenvalues --    3.82066   3.82066   3.83465   3.83471   3.83471
 Alpha virt. eigenvalues --    3.84606   3.85524   3.85524   3.88919   3.88919
 Alpha virt. eigenvalues --    3.88934   3.89124   3.89124   3.89823   3.89823
 Alpha virt. eigenvalues --    3.91760   3.91760   3.92565   3.92565   3.92708
 Alpha virt. eigenvalues --    3.93776   3.93776   3.96037   3.96231   3.96231
 Alpha virt. eigenvalues --    3.96811   3.96811   3.96995   3.99084   3.99130
 Alpha virt. eigenvalues --    3.99130   3.99510   3.99510   3.99649   4.00032
 Alpha virt. eigenvalues --    4.00326   4.00366   4.00366   4.01036   4.01036
 Alpha virt. eigenvalues --    4.01165   4.03280   4.03280   4.04223   4.04223
 Alpha virt. eigenvalues --    4.06578   4.06578   4.07759   4.09606   4.09726
 Alpha virt. eigenvalues --    4.09726   4.10367   4.10367   4.10746   4.10746
 Alpha virt. eigenvalues --    4.12896   4.13446   4.13446   4.18241   4.18870
 Alpha virt. eigenvalues --    4.18870   4.19629   4.22081   4.22081   4.22102
 Alpha virt. eigenvalues --    4.22102   4.25944   4.25944   4.27297   4.27821
 Alpha virt. eigenvalues --    4.28177   4.28177   4.28376   4.28376   4.29327
 Alpha virt. eigenvalues --    4.29327   4.30122   4.30188   4.30188   4.33602
 Alpha virt. eigenvalues --    4.33602   4.35600   4.35600   4.36063   4.36580
 Alpha virt. eigenvalues --    4.39280   4.39280   4.39725   4.39725   4.40753
 Alpha virt. eigenvalues --    4.41301   4.41301   4.41402   4.41402   4.43655
 Alpha virt. eigenvalues --    4.43655   4.44588   4.46828   4.47503   4.47503
 Alpha virt. eigenvalues --    4.47601   4.49184   4.50621   4.51652   4.51652
 Alpha virt. eigenvalues --    4.52789   4.52789   4.52933   4.53487   4.53487
 Alpha virt. eigenvalues --    4.54358   4.55175   4.55175   4.56108   4.56108
 Alpha virt. eigenvalues --    4.57340   4.58999   4.58999   4.59485   4.61346
 Alpha virt. eigenvalues --    4.61346   4.61512   4.62241   4.62241   4.62517
 Alpha virt. eigenvalues --    4.62517   4.63126   4.65040   4.66843   4.67275
 Alpha virt. eigenvalues --    4.67275   4.67767   4.70673   4.70816   4.71857
 Alpha virt. eigenvalues --    4.71857   4.72791   4.72791   4.73379   4.73379
 Alpha virt. eigenvalues --    4.74467   4.74467   4.75691   4.75691   4.76077
 Alpha virt. eigenvalues --    4.77110   4.77110   4.77775   4.77817   4.77897
 Alpha virt. eigenvalues --    4.77897   4.81286   4.83722   4.83722   4.83901
 Alpha virt. eigenvalues --    4.83901   4.83947   4.83947   4.85850   4.86024
 Alpha virt. eigenvalues --    4.86024   4.87312   4.87312   4.88789   4.89138
 Alpha virt. eigenvalues --    4.89138   4.89591   4.89591   4.89851   4.89851
 Alpha virt. eigenvalues --    4.91975   4.94647   4.94647   4.95188   4.95188
 Alpha virt. eigenvalues --    4.95912   4.95912   4.98749   4.99097   4.99097
 Alpha virt. eigenvalues --    4.99263   4.99263   4.99371   4.99929   4.99929
 Alpha virt. eigenvalues --    5.05001   5.06606   5.06614   5.06614   5.07372
 Alpha virt. eigenvalues --    5.07372   5.08418   5.08418   5.10046   5.11667
 Alpha virt. eigenvalues --    5.11667   5.12061   5.12061   5.12702   5.12702
 Alpha virt. eigenvalues --    5.13021   5.14551   5.14551   5.17313   5.17313
 Alpha virt. eigenvalues --    5.17367   5.17822   5.17822   5.20701   5.20701
 Alpha virt. eigenvalues --    5.20826   5.22122   5.22746   5.22746   5.24273
 Alpha virt. eigenvalues --    5.24273   5.24417   5.24417   5.27907   5.28030
 Alpha virt. eigenvalues --    5.28030   5.29082   5.31443   5.31443   5.35332
 Alpha virt. eigenvalues --    5.37434   5.37434   5.37687   5.39538   5.39538
 Alpha virt. eigenvalues --    5.41498   5.41661   5.41661   5.43557   5.44099
 Alpha virt. eigenvalues --    5.44099   5.47624   5.47624   5.48487   5.48487
 Alpha virt. eigenvalues --    5.49191   5.49392   5.49392   5.52051   5.58568
 Alpha virt. eigenvalues --    5.58568   5.58877   5.58877   5.62374   5.63701
 Alpha virt. eigenvalues --    5.63701   5.64943   5.64943   5.71065   5.71065
 Alpha virt. eigenvalues --    5.72035   5.72102   5.74862   5.74862   5.77703
 Alpha virt. eigenvalues --    5.97663   5.98104   5.99154   5.99154   6.15128
 Alpha virt. eigenvalues --    6.18741   6.18741   6.26393   6.26393   6.72047
 Alpha virt. eigenvalues --    6.76772   6.76772   7.02326   7.02326   7.04036
 Alpha virt. eigenvalues --    7.04726   7.04726   7.08782   7.08782   7.11333
 Alpha virt. eigenvalues --    7.13197   7.13197   7.15139   7.15139   7.15968
 Alpha virt. eigenvalues --    7.15968   7.18317   7.20944   7.20944   7.21638
 Alpha virt. eigenvalues --    7.21638   7.23197   7.25646   7.33546   7.33546
 Alpha virt. eigenvalues --    7.39267   7.39267   7.40754   7.43089   7.43089
 Alpha virt. eigenvalues --    7.43571   7.43571   7.44942   7.50772   7.58245
 Alpha virt. eigenvalues --    7.58245   7.62772   7.62772   7.64075   7.65369
 Alpha virt. eigenvalues --    7.66594   7.66594   7.70170   7.70170   7.83303
 Alpha virt. eigenvalues --    7.83303   7.95621   7.95621   7.96170  13.99740
 Alpha virt. eigenvalues --   14.22769  14.23958  14.23958  14.36251  14.36251
 Alpha virt. eigenvalues --   14.39619  14.39619  14.40290  14.41487  14.57320
 Alpha virt. eigenvalues --   14.57320  14.58568  14.58568  14.71768  14.71971
 Alpha virt. eigenvalues --   14.72629  14.72629  14.73358  14.73358  14.76293
 Alpha virt. eigenvalues --   14.76293  14.87394  15.03949  15.03949  15.12362
 Alpha virt. eigenvalues --   15.12362  15.12841  15.12841  15.13885  42.40960
 Alpha virt. eigenvalues --   42.42533  43.25437  43.59465  43.83690  43.83690
 Alpha virt. eigenvalues --   44.08979  44.08979  45.90014  45.90014
          Condensed to atoms (all electrons):
              1          2          3          4          5          6
     1  Si  13.273337   0.249293   0.249293   0.249293   0.249293  -0.015347
     2  Si   0.249293  13.355831   0.051076   0.051076  -0.018094   0.269323
     3  Si   0.249293   0.051076  13.355831  -0.018094   0.051076   0.269323
     4  Si   0.249293   0.051076  -0.018094  13.355831   0.051076  -0.007404
     5  Si   0.249293  -0.018094   0.051076   0.051076  13.355831  -0.007404
     6  Si  -0.015347   0.269323   0.269323  -0.007404  -0.007404  13.355831
     7  Si  -0.015347   0.269323  -0.007404   0.269323  -0.007404   0.051076
     8  Si   0.000184  -0.015347  -0.015347  -0.015347  -0.015347   0.249293
     9  Si  -0.015347  -0.007404   0.269323  -0.007404   0.269323   0.051076
    10  Si  -0.015347  -0.007404  -0.007404   0.269323   0.269323  -0.018094
              7          8          9         10
     1  Si  -0.015347   0.000184  -0.015347  -0.015347
     2  Si   0.269323  -0.015347  -0.007404  -0.007404
     3  Si  -0.007404  -0.015347   0.269323  -0.007404
     4  Si   0.269323  -0.015347  -0.007404   0.269323
     5  Si  -0.007404  -0.015347   0.269323   0.269323
     6  Si   0.051076   0.249293   0.051076  -0.018094
     7  Si  13.355831   0.249293  -0.018094   0.051076
     8  Si   0.249293  13.273337   0.249293   0.249293
     9  Si  -0.018094   0.249293  13.355831   0.051076
    10  Si   0.051076   0.249293   0.051076  13.355831
 Mulliken atomic charges:
              1
     1  Si  -0.209306
     2  Si  -0.197674
     3  Si  -0.197674
     4  Si  -0.197674
     5  Si  -0.197674
     6  Si  -0.197674
     7  Si  -0.197674
     8  Si  -0.209306
     9  Si  -0.197674
    10  Si  -0.197674
 Sum of Mulliken atomic charges =  -2.00000
 Mulliken charges with hydrogens summed into heavy atoms:
              1
     1  Si  -0.209306
     2  Si  -0.197674
     3  Si  -0.197674
     4  Si  -0.197674
     5  Si  -0.197674
     6  Si  -0.197674
     7  Si  -0.197674
     8  Si  -0.209306
     9  Si  -0.197674
    10  Si  -0.197674
 Sum of Mulliken charges with hydrogens summed into heavy atoms =  -2.00000
 Electronic spatial extent (au):  <R**2>=           2918.6008
 Charge=             -2.0000 electrons
 Dipole moment (field-independent basis, Debye):
    X=              0.0000    Y=              0.0000    Z=              0.0000  Tot=              0.0000
 Quadrupole moment (field-independent basis, Debye-Ang):
   XX=           -186.0459   YY=           -186.0459   ZZ=           -197.0044
   XY=              0.0000   XZ=              0.0000   YZ=              0.0000
 Traceless Quadrupole moment (field-independent basis, Debye-Ang):
   XX=              3.6528   YY=              3.6528   ZZ=             -7.3057
   XY=              0.0000   XZ=              0.0000   YZ=              0.0000
 Octapole moment (field-independent basis, Debye-Ang**2):
  XXX=              0.0000  YYY=              0.0000  ZZZ=              0.0000  XYY=              0.0000
  XXY=              0.0000  XXZ=              0.0000  XZZ=              0.0000  YZZ=              0.0000
  YYZ=              0.0000  XYZ=              0.0000
 Hexadecapole moment (field-independent basis, Debye-Ang**3):
 XXXX=          -2050.0146 YYYY=          -2050.0146 ZZZZ=          -2914.8912 XXXY=              0.0000
 XXXZ=              0.0000 YYYX=              0.0000 YYYZ=              0.0000 ZZZX=              0.0000
 ZZZY=              0.0000 XXYY=           -683.3382 XXZZ=           -758.2443 YYZZ=           -758.2443
 XXYZ=              0.0000 YYXZ=              0.0000 ZZXY=              0.0000
 N-N= 1.523428055090D+03 E-N=-9.979403147241D+03  KE= 2.889372446572D+03
 Symmetry A1   KE= 1.295110187627D+03
 Symmetry A2   KE= 3.378237366259D+02
 Symmetry B1   KE= 6.282192611599D+02
 Symmetry B2   KE= 6.282192611599D+02
 1\1\GINC-NODE77\SP\RHF\GFHFB2\Si10(2-)\TAM\20-Dec-2011\0\\#N Geom=AllC
 heck Guess=TCheck SCRF=Check HF/GFHFB2 SCF=Tight\\si10-dian-s\\-2,1\Si
 ,0,0.,0.,2.5837702817\Si,0,0.,1.9036101325,0.9729675055\Si,0,1.9036101
 325,0.,0.9729675055\Si,0,-1.9036101325,0.,0.9729675055\Si,0,0.,-1.9036
 101325,0.9729675055\Si,0,1.3460556334,1.3460556334,-0.9729675055\Si,0,
 -1.3460556334,1.3460556334,-0.9729675055\Si,0,0.,0.,-2.5837702817\Si,0
 ,1.3460556334,-1.3460556334,-0.9729675055\Si,0,-1.3460556334,-1.346055
 6334,-0.9729675055\\Version=AM64L-G09RevA.02\State=1-A1\HF=-2889.33304
 17\RMSD=4.949e-09\Dipole=0.,0.,0.\Quadrupole=2.7158,2.7158,-5.4316001,
 0.,0.,0.\PG=D04D [C4(Si1.Si1),4SGD(Si2)]\\@


 EXPERIENCE IS THE FRUIT OF THE TREE OF ERRORS.
 Diagonal vibrational polarizability:
        0.0000000       0.0000000       0.0000000

 Temperature=              298.150000 Pressure=                      1.000000
 E(ZPE)=                     0.014860 E(Thermal)=                    0.028889
 E(CCSD(T))=             -2890.092842 E(Empiric)=                   -0.145887
 DE(Plus)=                  -0.034972 DE(2DF)=                      -0.370650
 E(Delta-G3XP)=             -3.142083 DE(HF)=                       -0.067096
 G4(0 K)=                -2893.838670 G4 Energy=                 -2893.824640
 G4 Enthalpy=            -2893.823696 G4 Free Energy=            -2893.876719
 1\1\GINC-NODE77\Mixed\G4\G4\Si10(2-)\TAM\20-Dec-2011\0\\# G4 scfcyc=50
 0 scf=xqc\\si10-dian-s\\-2,1\Si,0,0.,0.,2.5837702817\Si,0,0.,1.9036101
 325,0.9729675055\Si,0,1.9036101325,0.,0.9729675055\Si,0,-1.9036101325,
 0.,0.9729675055\Si,0,0.,-1.9036101325,0.9729675055\Si,0,1.3460556334,1
 .3460556334,-0.9729675055\Si,0,-1.3460556334,1.3460556334,-0.972967505
 5\Si,0,0.,0.,-2.5837702817\Si,0,1.3460556334,-1.3460556334,-0.97296750
 55\Si,0,-1.3460556334,-1.3460556334,-0.9729675055\\Version=AM64L-G09Re
 vA.02\State=1-A1\MP2/GTBas1=-2890.0358073\MP4/GTBas1=-2890.1695465\CCS
 D(T)/G3Bas1=-2890.0928417\MP2/GTBas2=-2890.0666826\MP4/GTBas2=-2890.20
 45181\MP2/GTBas3=-2890.3679696\MP4/GTBas3=-2890.5401967\HF/GTLargeXP=-
 2889.2682685\MP2/GTLargeXP=-2893.5409281\HF/GFHFB1=-2889.3235084\HF/GF
 HFB2=-2889.3330417\G4=-2893.83867\FreqCoord=0.,0.,4.8826182228,0.,3.59
 73018142,1.8386421216,3.5973018142,0.,1.8386421216,-3.5973018142,0.,1.
 8386421216,0.,-3.5973018142,1.8386421216,2.5436765068,2.5436765068,-1.
 8386421216,-2.5436765068,2.5436765068,-1.8386421216,0.,0.,-4.882618222
 8,2.5436765068,-2.5436765068,-1.8386421216,-2.5436765068,-2.5436765068
 ,-1.8386421216\PG=D04D [C4(Si1.Si1),4SGD(Si2)]\NImag=0\\0.03935609,0.,
 0.03935609,0.,0.,0.11179138,0.00069562,0.,0.,0.04938493,0.,-0.01520260
 ,0.01576343,0.,0.06952941,0.,0.02155405,-0.02160768,0.,0.01253360,0.09
 595595,-0.01520260,0.,0.01576343,-0.00826078,0.00375096,-0.00533191,0.
 06952941,0.,0.00069562,0.,0.00769180,-0.00826078,-0.00256208,0.,0.0493
 8493,0.02155405,0.,-0.02160768,-0.00256208,-0.00533191,-0.00199553,0.0
 1253360,0.,0.09595595,-0.01520260,0.,-0.01576343,-0.00826078,-0.003750
 96,0.00533191,-0.01110350,0.,0.00646627,0.06952941,0.,0.00069562,0.,-0
 .00769180,-0.00826078,-0.00256208,0.,-0.00365267,0.,0.,0.04938493,-0.0
 2155405,0.,-0.02160768,0.00256208,-0.00533191,-0.00199553,-0.00646627,
 0.,-0.00008216,-0.01253360,0.,0.09595595,0.00069562,0.,0.,-0.00365267,
 0.,0.,-0.00826078,-0.00769180,-0.00256208,-0.00826078,0.00769180,0.002
 56208,0.04938493,0.,-0.01520260,-0.01576343,0.,-0.01110350,0.00646627,
 -0.00375096,-0.00826078,0.00533191,0.00375096,-0.00826078,0.00533191,0
 .,0.06952941,0.,-0.02155405,-0.02160768,0.,-0.00646627,-0.00008216,-0.
 00533191,0.00256208,-0.00199553,0.00533191,0.00256208,-0.00199553,0.,-
 0.01253360,0.09595595,0.00060095,-0.00305556,-0.00258080,-0.01389693,0
 .00567421,0.01700655,-0.00282133,0.00540139,-0.01036292,-0.00930231,-0
 .00965957,0.00444796,-0.00288446,0.00324172,-0.00061575,0.05945717,-0.
 00305556,0.00060095,-0.00258080,0.00540139,-0.00282133,-0.01036292,0.0
 0567421,-0.01389693,0.01700655,0.00324172,-0.00288446,-0.00061575,-0.0
 0965957,-0.00930231,0.00444796,0.01007224,0.05945717,0.00410745,0.0041
 0745,-0.00342669,0.01935313,-0.00469776,-0.02960250,-0.00469776,0.0193
 5313,-0.02960250,0.00270978,0.00358059,-0.00382187,0.00358059,0.002709
 78,-0.00382187,-0.00886259,-0.00886259,0.09595595,0.00060095,0.0030555
 6,0.00258080,-0.01389693,-0.00567421,-0.01700655,-0.00930231,0.0096595
 7,-0.00444796,-0.00282133,-0.00540139,0.01036292,-0.00288446,-0.003241
 72,0.00061575,-0.01398216,0.00197042,-0.00195857,0.05945717,0.00305556
 ,0.00060095,-0.00258080,-0.00540139,-0.00282133,-0.01036292,-0.0032417
 2,-0.00288446,-0.00061575,-0.00567421,-0.01389693,0.01700655,0.0096595
 7,-0.00930231,0.00444796,-0.00197042,-0.00253939,0.00558189,-0.0100722
 4,0.05945717,-0.00410745,0.00410745,-0.00342669,-0.01935313,-0.0046977
 6,-0.02960250,-0.00270978,0.00358059,-0.00382187,0.00469776,0.01935313
 ,-0.02960250,-0.00358059,0.00270978,-0.00382187,0.00195857,0.00558189,
 -0.00199553,0.00886259,-0.00886259,0.09595595,-0.01274587,0.,0.,0.0036
 5651,0.,0.,-0.00245461,0.,-0.00580881,-0.00245461,0.,0.00580881,0.0036
 5651,0.,0.,-0.00725349,-0.00794911,-0.01524101,-0.00725349,0.00794911,
 0.01524101,0.03935609,0.,-0.01274587,0.,0.,-0.00245461,-0.00580881,0.,
 0.00365651,0.,0.,0.00365651,0.,0.,-0.00245461,0.00580881,-0.00794911,-
 0.00725349,-0.01524101,0.00794911,-0.00725349,-0.01524101,0.,0.0393560
 9,0.,0.,-0.01165237,0.,0.00364980,-0.00342669,0.00364980,0.,-0.0034266
 9,-0.00364980,0.,-0.00342669,0.,-0.00364980,-0.00342669,-0.01114643,-0
 .01114643,-0.02160768,0.01114643,-0.01114643,-0.02160768,0.,0.,0.11179
 138,0.00060095,0.00305556,-0.00258080,-0.00288446,-0.00324172,-0.00061
 575,-0.00282133,-0.00540139,-0.01036292,-0.00930231,0.00965957,0.00444
 796,-0.01389693,-0.00567421,0.01700655,-0.00253939,-0.00197042,0.00558
 189,-0.00737808,0.00372541,0.00457234,-0.00725349,0.00794911,-0.011146
 43,0.05945717,0.00305556,0.00060095,0.00258080,0.00965957,-0.00930231,
 -0.00444796,-0.00567421,-0.01389693,-0.01700655,-0.00324172,-0.0028844
 6,0.00061575,-0.00540139,-0.00282133,0.01036292,0.00197042,-0.01398216
 ,-0.00195857,0.00372541,-0.00737808,-0.00457234,0.00794911,-0.00725349
 ,0.01114643,-0.01007224,0.05945717,0.00410745,-0.00410745,-0.00342669,
 0.00358059,-0.00270978,-0.00382187,-0.00469776,-0.01935313,-0.02960250
 ,0.00270978,-0.00358059,-0.00382187,0.01935313,0.00469776,-0.02960250,
 0.00558189,0.00195857,-0.00199553,-0.00457234,0.00457234,-0.00008216,-
 0.01524101,0.01524101,-0.02160768,-0.00886259,0.00886259,0.09595595,0.
 00060095,-0.00305556,0.00258080,-0.00288446,0.00324172,0.00061575,-0.0
 0930231,-0.00965957,-0.00444796,-0.00282133,0.00540139,0.01036292,-0.0
 1389693,0.00567421,-0.01700655,-0.00737808,-0.00372541,-0.00457234,-0.
 00253939,0.00197042,-0.00558189,-0.00725349,-0.00794911,0.01114643,-0.
 01398216,-0.00197042,-0.00195857,0.05945717,-0.00305556,0.00060095,0.0
 0258080,-0.00965957,-0.00930231,-0.00444796,0.00324172,-0.00288446,0.0
 0061575,0.00567421,-0.01389693,-0.01700655,0.00540139,-0.00282133,0.01
 036292,-0.00372541,-0.00737808,-0.00457234,-0.00197042,-0.01398216,-0.
 00195857,-0.00794911,-0.00725349,0.01114643,0.00197042,-0.00253939,-0.
 00558189,0.01007224,0.05945717,-0.00410745,-0.00410745,-0.00342669,-0.
 00358059,-0.00270978,-0.00382187,-0.00270978,-0.00358059,-0.00382187,0
 .00469776,-0.01935313,-0.02960250,-0.01935313,0.00469776,-0.02960250,0
 .00457234,0.00457234,-0.00008216,-0.00558189,0.00195857,-0.00199553,0.
 01524101,0.01524101,-0.02160768,0.00195857,-0.00558189,-0.00199553,0.0
 0886259,0.00886259,0.09595595\\0.,0.,-0.00020961,0.,-0.00002669,0.0001
 2779,-0.00002669,0.,0.00012779,0.00002669,0.,0.00012779,0.,0.00002669,
 0.00012779,-0.00001887,-0.00001887,-0.00012779,0.00001887,-0.00001887,
 -0.00012779,0.,0.,0.00020961,-0.00001887,0.00001887,-0.00012779,0.0000
 1887,0.00001887,-0.00012779\\\@
 Job cpu time:  0 days  3 hours 33 minutes 32.4 seconds.
 File lengths (MBytes):  RWF=   4831 Int=      0 D2E=      0 Chk=     96 Scr=      1
 Normal termination of Gaussian 09 at Tue Dec 20 07:28:14 2011.
