 Entering Gaussian System, Link 0=g09
 Initial command:
 /usr/local/chem/g09A2/l1.exe /temp0/tam/Gau-10850.inp -scrdir=/temp0/tam/
 Entering Link 1 = /usr/local/chem/g09A2/l1.exe PID=     10851.
  
 Copyright (c) 1988,1990,1992,1993,1995,1998,2003,2009, Gaussian, Inc.
                  All Rights Reserved.
  
 This is part of the Gaussian(R) 09 program.  It is based on
 the Gaussian(R) 03 system (copyright 2003, Gaussian, Inc.),
 the Gaussian(R) 98 system (copyright 1998, Gaussian, Inc.),
 the Gaussian(R) 94 system (copyright 1995, Gaussian, Inc.),
 the Gaussian 92(TM) system (copyright 1992, Gaussian, Inc.),
 the Gaussian 90(TM) system (copyright 1990, Gaussian, Inc.),
 the Gaussian 88(TM) system (copyright 1988, Gaussian, Inc.),
 the Gaussian 86(TM) system (copyright 1986, Carnegie Mellon
 University), and the Gaussian 82(TM) system (copyright 1983,
 Carnegie Mellon University). Gaussian is a federally registered
 trademark of Gaussian, Inc.
  
 This software contains proprietary and confidential information,
 including trade secrets, belonging to Gaussian, Inc.
  
 This software is provided under written license and may be
 used, copied, transmitted, or stored only in accord with that
 written license.
  
 The following legend is applicable only to US Government
 contracts under FAR:
  
                    RESTRICTED RIGHTS LEGEND
  
 Use, reproduction and disclosure by the US Government is
 subject to restrictions as set forth in subparagraphs (a)
 and (c) of the Commercial Computer Software - Restricted
 Rights clause in FAR 52.227-19.
  
 Gaussian, Inc.
 340 Quinnipiac St., Bldg. 40, Wallingford CT 06492
  
  
 ---------------------------------------------------------------
 Warning -- This program may not be used in any manner that
 competes with the business of Gaussian, Inc. or will provide
 assistance to any competitor of Gaussian, Inc.  The licensee
 of this program is prohibited from giving any competitor of
 Gaussian, Inc. access to this program.  By using this program,
 the user acknowledges that Gaussian, Inc. is engaged in the
 business of creating and licensing software in the field of
 computational chemistry and represents and warrants to the
 licensee that it is not a competitor of Gaussian, Inc. and that
 it will not use this program in any manner prohibited above.
 ---------------------------------------------------------------
  

 Cite this work as:
 Gaussian 09, Revision A.02,
 M. J. Frisch, G. W. Trucks, H. B. Schlegel, G. E. Scuseria, 
 M. A. Robb, J. R. Cheeseman, G. Scalmani, V. Barone, B. Mennucci, 
 G. A. Petersson, H. Nakatsuji, M. Caricato, X. Li, H. P. Hratchian, 
 A. F. Izmaylov, J. Bloino, G. Zheng, J. L. Sonnenberg, M. Hada, 
 M. Ehara, K. Toyota, R. Fukuda, J. Hasegawa, M. Ishida, T. Nakajima, 
 Y. Honda, O. Kitao, H. Nakai, T. Vreven, J. A. Montgomery, Jr., 
 J. E. Peralta, F. Ogliaro, M. Bearpark, J. J. Heyd, E. Brothers, 
 K. N. Kudin, V. N. Staroverov, R. Kobayashi, J. Normand, 
 K. Raghavachari, A. Rendell, J. C. Burant, S. S. Iyengar, J. Tomasi, 
 M. Cossi, N. Rega, J. M. Millam, M. Klene, J. E. Knox, J. B. Cross, 
 V. Bakken, C. Adamo, J. Jaramillo, R. Gomperts, R. E. Stratmann, 
 O. Yazyev, A. J. Austin, R. Cammi, C. Pomelli, J. W. Ochterski, 
 R. L. Martin, K. Morokuma, V. G. Zakrzewski, G. A. Voth, 
 P. Salvador, J. J. Dannenberg, S. Dapprich, A. D. Daniels, 
 O. Farkas, J. B. Foresman, J. V. Ortiz, J. Cioslowski, 
 and D. J. Fox, Gaussian, Inc., Wallingford CT, 2009.
 
 ******************************************
 Gaussian 09:  AM64L-G09RevA.02 11-Jun-2009
                 6-Mar-2012 
 ******************************************
 %NprocShared=8
 Will use up to    8 processors via shared memory.
 %mem=40150MB
 %chk=S9L-ne-d-01
 -----------------------
 # G4 scfcyc=500 scf=xqc
 -----------------------
 1/14=-1,18=20,19=15,26=3,38=1/1,3;
 2/9=110,12=2,17=6,18=5,40=1/2;
 3/5=35,7=104,11=2,16=1,25=1,30=1,71=1,74=-5/1,2,3;
 4//1;
 5/5=2,7=500,8=3,13=1,38=5/2,8;
 6/7=2,8=2,9=2,10=2,28=1/1;
 7//1,2,3,16;
 1/14=-1,18=20,19=15/3(2);
 2/9=110/2;
 99//99;
 2/9=110/2;
 3/5=35,7=104,11=2,16=1,25=1,30=1,71=1,74=-5/1,2,3;
 4/5=5,16=3/1;
 5/5=2,7=500,8=3,13=1,38=5/2,8;
 7//1,2,3,16;
 1/14=-1,18=20,19=15/3(-5);
 2/9=110/2;
 6/7=2,8=2,9=2,10=2,19=2,28=1/1;
 99/9=1/99;
 ------------
 si13-an-d-01
 ------------
 Symbolic Z-matrix:
 Charge = -1 Multiplicity = 2
 Si                    0.08792   2.65401  -1.98685 
 Si                   -0.07963   0.2924    1.51796 
 Si                   -1.24428   2.42088   0. 
 Si                    1.35752   2.14516   0. 
 Si                   -0.07963   0.2924   -1.51796 
 Si                   -2.02332  -0.00273   0. 
 Si                    0.08792   2.65401   1.98685 
 Si                    1.20358  -1.65663  -1.93284 
 Si                   -1.36319  -1.90852  -1.42558 
 Si                    0.33314  -3.04576   0. 
 Si                    1.87957  -0.28006   0. 
 Si                    1.20358  -1.65663   1.93284 
 Si                   -1.36319  -1.90852   1.42558 
 

 GradGradGradGradGradGradGradGradGradGradGradGradGradGradGradGradGradGrad
 Berny optimization.
 Initialization pass.
                           ----------------------------
                           !    Initial Parameters    !
                           ! (Angstroms and Degrees)  !
 --------------------------                            --------------------------
 ! Name  Definition              Value          Derivative Info.                !
 --------------------------------------------------------------------------------
 ! R1    R(1,3)                  2.4035         estimate D2E/DX2                !
 ! R2    R(1,4)                  2.4121         estimate D2E/DX2                !
 ! R3    R(1,5)                  2.4135         estimate D2E/DX2                !
 ! R4    R(2,3)                  2.862          estimate D2E/DX2                !
 ! R5    R(2,4)                  2.7933         estimate D2E/DX2                !
 ! R6    R(2,6)                  2.4838         estimate D2E/DX2                !
 ! R7    R(2,7)                  2.4135         estimate D2E/DX2                !
 ! R8    R(2,11)                 2.5437         estimate D2E/DX2                !
 ! R9    R(2,12)                 2.3701         estimate D2E/DX2                !
 ! R10   R(2,13)                 2.5495         estimate D2E/DX2                !
 ! R11   R(3,4)                  2.6164         estimate D2E/DX2                !
 ! R12   R(3,5)                  2.862          estimate D2E/DX2                !
 ! R13   R(3,6)                  2.5457         estimate D2E/DX2                !
 ! R14   R(3,7)                  2.4035         estimate D2E/DX2                !
 ! R15   R(4,5)                  2.7933         estimate D2E/DX2                !
 ! R16   R(4,7)                  2.4121         estimate D2E/DX2                !
 ! R17   R(4,11)                 2.4808         estimate D2E/DX2                !
 ! R18   R(5,6)                  2.4838         estimate D2E/DX2                !
 ! R19   R(5,8)                  2.3701         estimate D2E/DX2                !
 ! R20   R(5,9)                  2.5495         estimate D2E/DX2                !
 ! R21   R(5,11)                 2.5437         estimate D2E/DX2                !
 ! R22   R(6,9)                  2.4698         estimate D2E/DX2                !
 ! R23   R(6,13)                 2.4698         estimate D2E/DX2                !
 ! R24   R(8,9)                  2.6285         estimate D2E/DX2                !
 ! R25   R(8,10)                 2.5344         estimate D2E/DX2                !
 ! R26   R(8,11)                 2.4673         estimate D2E/DX2                !
 ! R27   R(9,10)                 2.4906         estimate D2E/DX2                !
 ! R28   R(9,13)                 2.8512         estimate D2E/DX2                !
 ! R29   R(10,12)                2.5344         estimate D2E/DX2                !
 ! R30   R(10,13)                2.4906         estimate D2E/DX2                !
 ! R31   R(11,12)                2.4673         estimate D2E/DX2                !
 ! R32   R(12,13)                2.6285         estimate D2E/DX2                !
 ! A1    A(3,2,11)              99.4562         estimate D2E/DX2                !
 ! A2    A(3,2,12)             157.6285         estimate D2E/DX2                !
 ! A3    A(3,2,13)             114.7038         estimate D2E/DX2                !
 ! A4    A(4,2,6)               98.5878         estimate D2E/DX2                !
 ! A5    A(4,2,12)             111.2241         estimate D2E/DX2                !
 ! A6    A(4,2,13)             144.2857         estimate D2E/DX2                !
 ! A7    A(6,2,7)              106.8176         estimate D2E/DX2                !
 ! A8    A(6,2,11)             102.1981         estimate D2E/DX2                !
 ! A9    A(6,2,12)             115.6549         estimate D2E/DX2                !
 ! A10   A(7,2,11)             106.4197         estimate D2E/DX2                !
 ! A11   A(7,2,12)             137.1424         estimate D2E/DX2                !
 ! A12   A(7,2,13)             152.4596         estimate D2E/DX2                !
 ! A13   A(11,2,13)             99.8963         estimate D2E/DX2                !
 ! A14   A(1,3,2)              106.5602         estimate D2E/DX2                !
 ! A15   A(1,3,6)              105.1865         estimate D2E/DX2                !
 ! A16   A(1,3,7)              111.5137         estimate D2E/DX2                !
 ! A17   A(2,3,5)               64.0627         estimate D2E/DX2                !
 ! A18   A(4,3,6)              101.77           estimate D2E/DX2                !
 ! A19   A(5,3,7)              106.5602         estimate D2E/DX2                !
 ! A20   A(6,3,7)              105.1865         estimate D2E/DX2                !
 ! A21   A(1,4,2)              108.466          estimate D2E/DX2                !
 ! A22   A(1,4,7)              110.9119         estimate D2E/DX2                !
 ! A23   A(1,4,11)             108.4812         estimate D2E/DX2                !
 ! A24   A(2,4,5)               65.8355         estimate D2E/DX2                !
 ! A25   A(3,4,11)             108.1974         estimate D2E/DX2                !
 ! A26   A(5,4,7)              108.466          estimate D2E/DX2                !
 ! A27   A(7,4,11)             108.4812         estimate D2E/DX2                !
 ! A28   A(1,5,6)              106.8176         estimate D2E/DX2                !
 ! A29   A(1,5,8)              137.1424         estimate D2E/DX2                !
 ! A30   A(1,5,9)              152.4596         estimate D2E/DX2                !
 ! A31   A(1,5,11)             106.4197         estimate D2E/DX2                !
 ! A32   A(3,5,8)              157.6285         estimate D2E/DX2                !
 ! A33   A(3,5,9)              114.7038         estimate D2E/DX2                !
 ! A34   A(3,5,11)              99.4562         estimate D2E/DX2                !
 ! A35   A(4,5,6)               98.5878         estimate D2E/DX2                !
 ! A36   A(4,5,8)              111.2241         estimate D2E/DX2                !
 ! A37   A(4,5,9)              144.2857         estimate D2E/DX2                !
 ! A38   A(6,5,8)              115.6549         estimate D2E/DX2                !
 ! A39   A(6,5,11)             102.1981         estimate D2E/DX2                !
 ! A40   A(9,5,11)              99.8963         estimate D2E/DX2                !
 ! A41   A(2,6,5)               75.3447         estimate D2E/DX2                !
 ! A42   A(2,6,9)              103.6081         estimate D2E/DX2                !
 ! A43   A(3,6,9)              130.7544         estimate D2E/DX2                !
 ! A44   A(3,6,13)             130.7544         estimate D2E/DX2                !
 ! A45   A(5,6,13)             103.6081         estimate D2E/DX2                !
 ! A46   A(5,8,10)              97.5436         estimate D2E/DX2                !
 ! A47   A(9,8,11)              99.7777         estimate D2E/DX2                !
 ! A48   A(10,8,11)             78.6073         estimate D2E/DX2                !
 ! A49   A(5,9,10)              94.1302         estimate D2E/DX2                !
 ! A50   A(5,9,13)              92.0764         estimate D2E/DX2                !
 ! A51   A(6,9,8)              107.3642         estimate D2E/DX2                !
 ! A52   A(6,9,10)             101.7708         estimate D2E/DX2                !
 ! A53   A(8,9,13)             101.127          estimate D2E/DX2                !
 ! A54   A(8,10,12)             99.395          estimate D2E/DX2                !
 ! A55   A(8,10,13)            114.8453         estimate D2E/DX2                !
 ! A56   A(9,10,12)            114.8453         estimate D2E/DX2                !
 ! A57   A(2,11,5)              73.2753         estimate D2E/DX2                !
 ! A58   A(2,11,8)             112.4586         estimate D2E/DX2                !
 ! A59   A(4,11,8)             119.194          estimate D2E/DX2                !
 ! A60   A(4,11,12)            119.194          estimate D2E/DX2                !
 ! A61   A(5,11,12)            112.4586         estimate D2E/DX2                !
 ! A62   A(8,11,12)            103.1401         estimate D2E/DX2                !
 ! A63   A(2,12,10)             97.5436         estimate D2E/DX2                !
 ! A64   A(10,12,11)            78.6073         estimate D2E/DX2                !
 ! A65   A(11,12,13)            99.7777         estimate D2E/DX2                !
 ! A66   A(2,13,9)              92.0764         estimate D2E/DX2                !
 ! A67   A(2,13,10)             94.1302         estimate D2E/DX2                !
 ! A68   A(6,13,10)            101.7708         estimate D2E/DX2                !
 ! A69   A(6,13,12)            107.3642         estimate D2E/DX2                !
 ! A70   A(9,13,12)            101.127          estimate D2E/DX2                !
 ! D1    D(11,2,3,1)             1.3626         estimate D2E/DX2                !
 ! D2    D(11,2,3,5)            35.1331         estimate D2E/DX2                !
 ! D3    D(12,2,3,1)           -21.6019         estimate D2E/DX2                !
 ! D4    D(12,2,3,5)            12.1686         estimate D2E/DX2                !
 ! D5    D(13,2,3,1)          -104.2069         estimate D2E/DX2                !
 ! D6    D(13,2,3,5)           -70.4364         estimate D2E/DX2                !
 ! D7    D(6,2,4,1)              1.601          estimate D2E/DX2                !
 ! D8    D(6,2,4,5)            -33.4831         estimate D2E/DX2                !
 ! D9    D(12,2,4,1)           123.4962         estimate D2E/DX2                !
 ! D10   D(12,2,4,5)            88.4121         estimate D2E/DX2                !
 ! D11   D(13,2,4,1)            48.0831         estimate D2E/DX2                !
 ! D12   D(13,2,4,5)            12.999          estimate D2E/DX2                !
 ! D13   D(4,2,6,5)             35.8101         estimate D2E/DX2                !
 ! D14   D(4,2,6,9)             91.5204         estimate D2E/DX2                !
 ! D15   D(7,2,6,5)             91.3203         estimate D2E/DX2                !
 ! D16   D(7,2,6,9)            147.0305         estimate D2E/DX2                !
 ! D17   D(11,2,6,5)           -20.2389         estimate D2E/DX2                !
 ! D18   D(11,2,6,9)            35.4714         estimate D2E/DX2                !
 ! D19   D(12,2,6,5)           -82.7901         estimate D2E/DX2                !
 ! D20   D(12,2,6,9)           -27.0798         estimate D2E/DX2                !
 ! D21   D(3,2,11,5)           -37.4442         estimate D2E/DX2                !
 ! D22   D(3,2,11,8)           -78.9442         estimate D2E/DX2                !
 ! D23   D(6,2,11,5)            19.952          estimate D2E/DX2                !
 ! D24   D(6,2,11,8)           -21.548          estimate D2E/DX2                !
 ! D25   D(7,2,11,5)           -91.9054         estimate D2E/DX2                !
 ! D26   D(7,2,11,8)          -133.4055         estimate D2E/DX2                !
 ! D27   D(13,2,11,5)           79.8876         estimate D2E/DX2                !
 ! D28   D(13,2,11,8)           38.3875         estimate D2E/DX2                !
 ! D29   D(3,2,12,10)          -46.8559         estimate D2E/DX2                !
 ! D30   D(4,2,12,10)          -94.8602         estimate D2E/DX2                !
 ! D31   D(6,2,12,10)           16.5004         estimate D2E/DX2                !
 ! D32   D(7,2,12,10)         -155.1965         estimate D2E/DX2                !
 ! D33   D(3,2,13,9)            53.0673         estimate D2E/DX2                !
 ! D34   D(3,2,13,10)          108.2033         estimate D2E/DX2                !
 ! D35   D(4,2,13,9)           -10.8912         estimate D2E/DX2                !
 ! D36   D(4,2,13,10)           44.2447         estimate D2E/DX2                !
 ! D37   D(7,2,13,9)           110.5437         estimate D2E/DX2                !
 ! D38   D(7,2,13,10)          165.6796         estimate D2E/DX2                !
 ! D39   D(11,2,13,9)          -52.2303         estimate D2E/DX2                !
 ! D40   D(11,2,13,10)           2.9056         estimate D2E/DX2                !
 ! D41   D(6,3,4,11)             0.0            estimate D2E/DX2                !
 ! D42   D(2,3,5,8)            -12.1686         estimate D2E/DX2                !
 ! D43   D(2,3,5,9)             70.4364         estimate D2E/DX2                !
 ! D44   D(2,3,5,11)           -35.1331         estimate D2E/DX2                !
 ! D45   D(7,3,5,8)             21.6019         estimate D2E/DX2                !
 ! D46   D(7,3,5,9)            104.2069         estimate D2E/DX2                !
 ! D47   D(7,3,5,11)            -1.3626         estimate D2E/DX2                !
 ! D48   D(1,3,6,9)              9.2963         estimate D2E/DX2                !
 ! D49   D(1,3,6,13)           108.5708         estimate D2E/DX2                !
 ! D50   D(4,3,6,9)            -49.6372         estimate D2E/DX2                !
 ! D51   D(4,3,6,13)            49.6372         estimate D2E/DX2                !
 ! D52   D(7,3,6,9)           -108.5708         estimate D2E/DX2                !
 ! D53   D(7,3,6,13)            -9.2963         estimate D2E/DX2                !
 ! D54   D(2,4,5,6)             33.4831         estimate D2E/DX2                !
 ! D55   D(2,4,5,8)            -88.4121         estimate D2E/DX2                !
 ! D56   D(2,4,5,9)            -12.999          estimate D2E/DX2                !
 ! D57   D(7,4,5,6)             -1.601          estimate D2E/DX2                !
 ! D58   D(7,4,5,8)           -123.4962         estimate D2E/DX2                !
 ! D59   D(7,4,5,9)            -48.0831         estimate D2E/DX2                !
 ! D60   D(1,4,11,8)             3.5304         estimate D2E/DX2                !
 ! D61   D(1,4,11,12)         -124.0953         estimate D2E/DX2                !
 ! D62   D(3,4,11,8)            63.8128         estimate D2E/DX2                !
 ! D63   D(3,4,11,12)          -63.8128         estimate D2E/DX2                !
 ! D64   D(7,4,11,8)           124.0953         estimate D2E/DX2                !
 ! D65   D(7,4,11,12)           -3.5304         estimate D2E/DX2                !
 ! D66   D(1,5,6,2)            -91.3203         estimate D2E/DX2                !
 ! D67   D(1,5,6,13)          -147.0305         estimate D2E/DX2                !
 ! D68   D(4,5,6,2)            -35.8101         estimate D2E/DX2                !
 ! D69   D(4,5,6,13)           -91.5204         estimate D2E/DX2                !
 ! D70   D(8,5,6,2)             82.7901         estimate D2E/DX2                !
 ! D71   D(8,5,6,13)            27.0798         estimate D2E/DX2                !
 ! D72   D(11,5,6,2)            20.2389         estimate D2E/DX2                !
 ! D73   D(11,5,6,13)          -35.4714         estimate D2E/DX2                !
 ! D74   D(1,5,8,10)           155.1965         estimate D2E/DX2                !
 ! D75   D(3,5,8,10)            46.8559         estimate D2E/DX2                !
 ! D76   D(4,5,8,10)            94.8602         estimate D2E/DX2                !
 ! D77   D(6,5,8,10)           -16.5004         estimate D2E/DX2                !
 ! D78   D(1,5,9,10)          -165.6796         estimate D2E/DX2                !
 ! D79   D(1,5,9,13)          -110.5437         estimate D2E/DX2                !
 ! D80   D(3,5,9,10)          -108.2033         estimate D2E/DX2                !
 ! D81   D(3,5,9,13)           -53.0673         estimate D2E/DX2                !
 ! D82   D(4,5,9,10)           -44.2447         estimate D2E/DX2                !
 ! D83   D(4,5,9,13)            10.8912         estimate D2E/DX2                !
 ! D84   D(11,5,9,10)           -2.9056         estimate D2E/DX2                !
 ! D85   D(11,5,9,13)           52.2303         estimate D2E/DX2                !
 ! D86   D(1,5,11,2)            91.9054         estimate D2E/DX2                !
 ! D87   D(1,5,11,12)          133.4055         estimate D2E/DX2                !
 ! D88   D(3,5,11,2)            37.4442         estimate D2E/DX2                !
 ! D89   D(3,5,11,12)           78.9442         estimate D2E/DX2                !
 ! D90   D(6,5,11,2)           -19.952          estimate D2E/DX2                !
 ! D91   D(6,5,11,12)           21.548          estimate D2E/DX2                !
 ! D92   D(9,5,11,2)           -79.8876         estimate D2E/DX2                !
 ! D93   D(9,5,11,12)          -38.3875         estimate D2E/DX2                !
 ! D94   D(2,6,9,8)            -38.3154         estimate D2E/DX2                !
 ! D95   D(2,6,9,10)            22.8942         estimate D2E/DX2                !
 ! D96   D(3,6,9,8)             36.0031         estimate D2E/DX2                !
 ! D97   D(3,6,9,10)            97.2128         estimate D2E/DX2                !
 ! D98   D(3,6,13,10)          -97.2128         estimate D2E/DX2                !
 ! D99   D(3,6,13,12)          -36.0031         estimate D2E/DX2                !
 ! D100  D(5,6,13,10)          -22.8942         estimate D2E/DX2                !
 ! D101  D(5,6,13,12)           38.3154         estimate D2E/DX2                !
 ! D102  D(11,8,9,6)            23.8694         estimate D2E/DX2                !
 ! D103  D(11,8,9,13)          -32.4309         estimate D2E/DX2                !
 ! D104  D(5,8,10,12)          -64.5877         estimate D2E/DX2                !
 ! D105  D(5,8,10,13)           -0.007          estimate D2E/DX2                !
 ! D106  D(11,8,10,12)          -3.748          estimate D2E/DX2                !
 ! D107  D(11,8,10,13)          60.8327         estimate D2E/DX2                !
 ! D108  D(9,8,11,2)            -0.966          estimate D2E/DX2                !
 ! D109  D(9,8,11,4)           -76.9232         estimate D2E/DX2                !
 ! D110  D(9,8,11,12)           57.8421         estimate D2E/DX2                !
 ! D111  D(10,8,11,2)          -54.9075         estimate D2E/DX2                !
 ! D112  D(10,8,11,4)         -130.8646         estimate D2E/DX2                !
 ! D113  D(10,8,11,12)           3.9006         estimate D2E/DX2                !
 ! D114  D(5,9,10,12)           44.2151         estimate D2E/DX2                !
 ! D115  D(6,9,10,12)          -15.2592         estimate D2E/DX2                !
 ! D116  D(5,9,13,2)             0.0            estimate D2E/DX2                !
 ! D117  D(5,9,13,12)          -54.1449         estimate D2E/DX2                !
 ! D118  D(8,9,13,2)            54.1449         estimate D2E/DX2                !
 ! D119  D(8,9,13,12)            0.0            estimate D2E/DX2                !
 ! D120  D(8,10,12,2)           64.5877         estimate D2E/DX2                !
 ! D121  D(8,10,12,11)           3.748          estimate D2E/DX2                !
 ! D122  D(9,10,12,2)            0.007          estimate D2E/DX2                !
 ! D123  D(9,10,12,11)         -60.8327         estimate D2E/DX2                !
 ! D124  D(8,10,13,2)          -44.2151         estimate D2E/DX2                !
 ! D125  D(8,10,13,6)           15.2592         estimate D2E/DX2                !
 ! D126  D(4,11,12,10)         130.8646         estimate D2E/DX2                !
 ! D127  D(4,11,12,13)          76.9232         estimate D2E/DX2                !
 ! D128  D(5,11,12,10)          54.9075         estimate D2E/DX2                !
 ! D129  D(5,11,12,13)           0.966          estimate D2E/DX2                !
 ! D130  D(8,11,12,10)          -3.9006         estimate D2E/DX2                !
 ! D131  D(8,11,12,13)         -57.8421         estimate D2E/DX2                !
 ! D132  D(11,12,13,6)         -23.8694         estimate D2E/DX2                !
 ! D133  D(11,12,13,9)          32.4309         estimate D2E/DX2                !
 --------------------------------------------------------------------------------
 Trust Radius=3.00D-01 FncErr=1.00D-07 GrdErr=1.00D-06
 Number of steps in this run= 100 maximum allowed number of steps= 100.
 GradGradGradGradGradGradGradGradGradGradGradGradGradGradGradGradGradGrad

                          Input orientation:                          
 ---------------------------------------------------------------------
 Center     Atomic      Atomic             Coordinates (Angstroms)
 Number     Number       Type             X           Y           Z
 ---------------------------------------------------------------------
      1         14           0        0.087924    2.654010   -1.986851
      2         14           0       -0.079634    0.292400    1.517956
      3         14           0       -1.244284    2.420884    0.000000
      4         14           0        1.357522    2.145159    0.000000
      5         14           0       -0.079634    0.292400   -1.517956
      6         14           0       -2.023321   -0.002731    0.000000
      7         14           0        0.087924    2.654010    1.986851
      8         14           0        1.203583   -1.656633   -1.932843
      9         14           0       -1.363188   -1.908524   -1.425580
     10         14           0        0.333140   -3.045765    0.000000
     11         14           0        1.879573   -0.280057    0.000000
     12         14           0        1.203583   -1.656633    1.932843
     13         14           0       -1.363188   -1.908524    1.425580
 ---------------------------------------------------------------------
                    Distance matrix (angstroms):
                    1          2          3          4          5
     1  Si   0.000000
     2  Si   4.229532   0.000000
     3  Si   2.403477   2.862000   0.000000
     4  Si   2.412133   2.793264   2.616375   0.000000
     5  Si   2.413532   3.035912   2.862000   2.793264   0.000000
     6  Si   3.932328   2.483790   2.545743   4.005438   2.483790
     7  Si   3.973701   2.413532   2.403477   2.412133   4.229532
     8  Si   4.453005   4.165740   5.133623   4.267693   2.370128
     9  Si   4.820526   3.893068   4.559626   5.085950   2.549532
    10  Si   6.041121   3.690247   5.689685   5.291035   3.690247
    11  Si   3.970684   2.543696   4.129596   2.480768   2.543696
    12  Si   5.932144   2.370128   5.133623   4.267693   4.165740
    13  Si   5.879381   2.549532   4.559626   5.085950   3.893068
                    6          7          8          9         10
     6  Si   0.000000
     7  Si   3.932328   0.000000
     8  Si   4.109037   5.932144   0.000000
     9  Si   2.469838   5.879381   2.628513   0.000000
    10  Si   3.848761   6.041121   2.534411   2.490607   0.000000
    11  Si   3.912735   3.970684   2.467348   3.898677   3.168690
    12  Si   4.109037   4.453005   3.865686   4.234473   2.534411
    13  Si   2.469838   4.820526   4.234473   2.851159   2.490607
                   11         12         13
    11  Si   0.000000
    12  Si   2.467348   0.000000
    13  Si   3.898677   2.628513   0.000000
 Stoichiometry    Si13(1-,2)
 Framework group  CS[SG(Si5),X(Si8)]
 Deg. of freedom    19
 Full point group                 CS      NOp   2
 Largest Abelian subgroup         CS      NOp   2
 Largest concise Abelian subgroup CS      NOp   2
                         Standard orientation:                         
 ---------------------------------------------------------------------
 Center     Atomic      Atomic             Coordinates (Angstroms)
 Number     Number       Type             X           Y           Z
 ---------------------------------------------------------------------
      1         14           0       -0.087924   -2.654010   -1.986851
      2         14           0        0.079634   -0.292401    1.517956
      3         14           0        1.244284   -2.420884    0.000000
      4         14           0       -1.357522   -2.145159    0.000000
      5         14           0        0.079634   -0.292401   -1.517956
      6         14           0        2.023321    0.002731    0.000000
      7         14           0       -0.087924   -2.654010    1.986851
      8         14           0       -1.203583    1.656633   -1.932843
      9         14           0        1.363188    1.908524   -1.425580
     10         14           0       -0.333140    3.045765    0.000000
     11         14           0       -1.879573    0.280057    0.000000
     12         14           0       -1.203583    1.656633    1.932843
     13         14           0        1.363188    1.908524    1.425580
 ---------------------------------------------------------------------
 Rotational constants (GHZ):      0.4320479      0.2795419      0.2548203
 Standard basis: GTBas3 (6D, 7F)
 There are   238 symmetry adapted basis functions of A'  symmetry.
 There are   178 symmetry adapted basis functions of A"  symmetry.
 Integral buffers will be    131072 words long.
 Raffenetti 2 integral format.
 Two-electron integral symmetry is turned on.
   416 basis functions,   884 primitive gaussians,   455 cartesian basis functions
    92 alpha electrons       91 beta electrons
       nuclear repulsion energy      2407.2689890708 Hartrees.
 NAtoms=   13 NActive=   13 NUniq=    9 SFac= 1.56D+00 NAtFMM=   80 NAOKFM=F Big=F
 One-electron integrals computed using PRISM.
 NBasis=   416 RedAO= T  NBF=   238   178
 NBsUse=   416 1.00D-06 NBFU=   238   178
 Harris functional with IExCor=  402 diagonalized for initial guess.
 ExpMin= 7.78D-02 ExpMax= 1.61D+04 ExpMxC= 2.43D+03 IAcc=2 IRadAn=         0 AccDes= 0.00D+00
 HarFok:  IExCor=  402 AccDes= 0.00D+00 IRadAn=         0 IDoV= 1
 ScaDFX=  1.000000  1.000000  1.000000  1.000000
 FoFCou: FMM=F IPFlag=           0 FMFlag=      100000 FMFlg1=           0
         NFxFlg=           0 DoJE=T BraDBF=F KetDBF=T FulRan=T
         Omega=  0.000000  0.000000  1.000000  0.000000  0.000000 ICntrl=     500 IOpCl=  0
         NMat0=    1 NMatS0=    1 NMatT0=    0 NMatD0=    1 NMtDS0=    0 NMtDT0=    0
         I1Cent=           4 NGrid=           0.
 Petite list used in FoFCou.
 Initial guess orbital symmetries:
 Alpha Orbitals:
       Occupied  (A") (A') (A') (A') (A') (A') (A') (A") (A") (A')
                 (A') (A") (A') (A") (A') (A') (A') (A') (A') (A')
                 (A") (A") (A') (A') (A") (A') (A') (A") (A') (A")
                 (A') (A") (A') (A") (A') (A") (A') (A') (A") (A')
                 (A') (A") (A') (A') (A') (A") (A") (A") (A') (A")
                 (A') (A') (A") (A') (A') (A") (A") (A') (A') (A')
                 (A") (A') (A") (A') (A") (A') (A') (A") (A') (A')
                 (A") (A') (A") (A') (A') (A") (A') (A') (A') (A")
                 (A') (A") (A") (A') (A') (A") (A') (A") (A') (A')
                 (A") (A')
       Virtual   (A') (A') (A") (A') (A') (A") (A") (A") (A") (A")
                 (A') (A') (A') (A') (A') (A') (A') (A") (A') (A")
                 (A") (A') (A") (A") (A') (A') (A') (A") (A") (A')
                 (A') (A") (A") (A') (A') (A') (A") (A") (A') (A')
                 (A') (A') (A") (A") (A') (A') (A') (A") (A") (A')
                 (A") (A') (A') (A') (A") (A') (A") (A") (A') (A")
                 (A') (A') (A") (A') (A') (A") (A") (A') (A') (A')
                 (A") (A") (A") (A') (A') (A') (A") (A") (A") (A')
                 (A') (A") (A') (A') (A") (A') (A') (A") (A") (A')
                 (A') (A") (A") (A') (A") (A') (A") (A") (A') (A')
                 (A') (A") (A') (A') (A") (A') (A') (A') (A") (A')
                 (A') (A") (A") (A') (A') (A") (A') (A') (A") (A")
                 (A') (A") (A') (A") (A') (A') (A") (A') (A") (A")
                 (A') (A") (A') (A") (A") (A') (A') (A") (A') (A')
                 (A") (A') (A") (A') (A') (A") (A') (A") (A') (A")
                 (A') (A") (A') (A") (A') (A") (A') (A') (A") (A')
                 (A') (A') (A") (A') (A") (A') (A") (A") (A') (A')
                 (A") (A') (A") (A") (A") (A') (A") (A') (A") (A')
                 (A') (A') (A') (A") (A") (A') (A') (A') (A") (A')
                 (A") (A") (A') (A") (A') (A") (A') (A') (A') (A")
                 (A") (A') (A') (A") (A") (A') (A') (A") (A") (A')
                 (A') (A') (A") (A") (A') (A") (A') (A') (A") (A')
                 (A") (A') (A') (A") (A') (A") (A') (A') (A") (A")
                 (A") (A") (A') (A') (A") (A") (A') (A') (A") (A')
                 (A") (A') (A') (A') (A") (A') (A') (A") (A') (A")
                 (A') (A') (A") (A') (A") (A') (A") (A') (A") (A')
                 (A") (A") (A') (A') (A") (A') (A') (A') (A") (A")
                 (A") (A') (A") (A') (A") (A') (A') (A') (A') (A")
                 (A') (A") (A') (A") (A') (A") (A') (A') (A") (A')
                 (A") (A') (A") (A') (A") (A") (A') (A") (A') (A")
                 (A') (A') (A") (A') (A") (A') (A') (A") (A") (A')
                 (A") (A') (A') (A") (A") (A') (A') (A") (A') (A')
                 (A') (A") (A') (A')
 Beta  Orbitals:
       Occupied  (A") (A') (A') (A') (A') (A') (A') (A") (A") (A')
                 (A') (A") (A') (A") (A') (A') (A') (A') (A') (A')
                 (A") (A") (A') (A') (A") (A') (A') (A") (A') (A")
                 (A') (A") (A') (A") (A') (A") (A') (A') (A") (A')
                 (A') (A") (A') (A') (A') (A") (A") (A") (A') (A")
                 (A') (A') (A") (A') (A') (A") (A") (A') (A') (A')
                 (A") (A') (A") (A') (A") (A') (A') (A") (A') (A')
                 (A") (A') (A") (A') (A') (A") (A') (A') (A') (A")
                 (A') (A") (A") (A') (A') (A") (A') (A") (A') (A')
                 (A")
       Virtual   (A') (A') (A') (A") (A') (A') (A") (A") (A") (A")
                 (A") (A') (A') (A') (A') (A') (A') (A') (A") (A')
                 (A") (A") (A') (A") (A") (A') (A') (A') (A") (A")
                 (A') (A') (A") (A") (A') (A') (A') (A") (A") (A')
                 (A') (A') (A') (A") (A") (A') (A') (A') (A") (A")
                 (A') (A") (A') (A') (A') (A") (A') (A") (A") (A')
                 (A") (A') (A') (A") (A') (A') (A") (A") (A') (A')
                 (A') (A") (A") (A") (A') (A') (A') (A") (A") (A")
                 (A') (A') (A") (A') (A') (A") (A') (A') (A") (A")
                 (A') (A') (A") (A") (A') (A") (A') (A") (A") (A')
                 (A') (A') (A") (A') (A') (A") (A') (A') (A') (A")
                 (A') (A') (A") (A") (A') (A') (A") (A') (A') (A")
                 (A") (A') (A") (A') (A") (A') (A') (A") (A') (A")
                 (A") (A') (A") (A') (A") (A") (A') (A') (A") (A')
                 (A') (A") (A') (A") (A') (A') (A") (A') (A") (A')
                 (A") (A') (A") (A') (A") (A') (A") (A') (A') (A")
                 (A') (A') (A') (A") (A') (A") (A') (A") (A") (A')
                 (A') (A") (A') (A") (A") (A") (A') (A") (A') (A")
                 (A') (A') (A') (A') (A") (A") (A') (A') (A') (A")
                 (A') (A") (A") (A') (A") (A') (A") (A') (A') (A')
                 (A") (A") (A') (A') (A") (A") (A') (A') (A") (A")
                 (A') (A') (A') (A") (A") (A') (A") (A') (A') (A")
                 (A') (A") (A') (A') (A") (A') (A") (A') (A') (A")
                 (A") (A") (A") (A') (A') (A") (A") (A') (A') (A")
                 (A') (A") (A') (A') (A') (A") (A') (A') (A") (A')
                 (A") (A') (A') (A") (A') (A") (A') (A") (A') (A")
                 (A') (A") (A") (A') (A') (A") (A') (A') (A') (A")
                 (A") (A") (A') (A") (A') (A") (A') (A') (A') (A')
                 (A") (A') (A") (A') (A") (A') (A") (A') (A') (A")
                 (A') (A") (A') (A") (A') (A") (A") (A') (A") (A')
                 (A") (A') (A') (A") (A') (A") (A') (A') (A") (A")
                 (A') (A") (A') (A') (A") (A") (A') (A') (A") (A')
                 (A') (A') (A") (A') (A')
 The electronic state of the initial guess is 2-A'.
 Initial guess <Sx>= 0.0000 <Sy>= 0.0000 <Sz>= 0.5000 <S**2>= 0.7500 S= 0.5000
 Requested convergence on RMS density matrix=1.00D-08 within 128 cycles.
 Requested convergence on MAX density matrix=1.00D-06.
 Requested convergence on             energy=1.00D-06.
 No special actions if energy rises.
 Integral accuracy reduced to 1.0D-05 until final iterations.
 Initial convergence to 1.0D-05 achieved.  Increase integral accuracy.
 SCF Done:  E(UB3LYP) =  -3763.50593061     A.U. after   22 cycles
             Convg  =    0.8161D-08             -V/T =  2.0036
 <Sx>= 0.0000 <Sy>= 0.0000 <Sz>= 0.5000 <S**2>= 0.7639 S= 0.5069
 <L.S>= 0.000000000000E+00
 Annihilation of the first spin contaminant:
 S**2 before annihilation     0.7639,   after     0.7502
 QCSCF skips out because SCF is already converged.

 **********************************************************************

            Population analysis using the SCF density.

 **********************************************************************

 Orbital symmetries:
 Alpha Orbitals:
       Occupied  (A') (A") (A') (A') (A") (A') (A') (A') (A") (A')
                 (A') (A") (A') (A') (A') (A") (A') (A') (A") (A')
                 (A') (A") (A') (A') (A") (A') (A') (A') (A') (A")
                 (A') (A") (A") (A') (A") (A') (A') (A") (A') (A")
                 (A") (A') (A') (A") (A') (A") (A') (A") (A') (A')
                 (A') (A") (A') (A") (A') (A") (A') (A") (A') (A")
                 (A') (A") (A') (A") (A') (A') (A') (A") (A') (A')
                 (A") (A') (A') (A") (A') (A") (A') (A') (A') (A")
                 (A') (A") (A") (A') (A') (A") (A') (A') (A") (A')
                 (A") (A')
       Virtual   (A') (A') (A") (A') (A') (A") (A") (A") (A") (A')
                 (A") (A') (A') (A') (A') (A') (A') (A") (A') (A")
                 (A") (A') (A") (A") (A') (A') (A') (A") (A') (A')
                 (A") (A") (A") (A') (A") (A') (A') (A') (A") (A')
                 (A') (A") (A') (A') (A') (A") (A') (A') (A") (A")
                 (A') (A") (A') (A") (A") (A') (A') (A") (A') (A")
                 (A') (A') (A") (A') (A") (A') (A') (A") (A') (A')
                 (A") (A") (A') (A") (A") (A") (A') (A') (A') (A")
                 (A") (A') (A') (A') (A") (A') (A') (A") (A") (A')
                 (A') (A") (A") (A') (A') (A") (A") (A") (A') (A')
                 (A') (A") (A') (A') (A') (A") (A') (A') (A") (A')
                 (A") (A') (A") (A') (A') (A") (A') (A') (A") (A")
                 (A') (A") (A') (A') (A') (A") (A') (A") (A") (A")
                 (A') (A") (A') (A') (A") (A") (A') (A") (A') (A')
                 (A') (A") (A") (A') (A') (A") (A') (A") (A') (A')
                 (A") (A") (A') (A") (A') (A") (A') (A') (A") (A')
                 (A') (A") (A') (A') (A") (A') (A") (A') (A") (A')
                 (A") (A') (A") (A") (A") (A') (A') (A") (A") (A')
                 (A') (A') (A') (A") (A") (A') (A') (A") (A') (A')
                 (A") (A") (A') (A") (A') (A") (A') (A') (A") (A')
                 (A") (A') (A") (A') (A") (A') (A') (A") (A') (A")
                 (A') (A') (A") (A") (A') (A') (A") (A') (A') (A")
                 (A') (A") (A') (A") (A') (A") (A') (A") (A') (A")
                 (A') (A") (A') (A") (A") (A") (A') (A') (A") (A')
                 (A") (A') (A') (A') (A") (A') (A') (A") (A") (A')
                 (A') (A') (A') (A") (A") (A') (A") (A') (A") (A')
                 (A") (A") (A') (A') (A") (A') (A') (A') (A") (A")
                 (A") (A') (A") (A') (A") (A') (A') (A') (A') (A')
                 (A") (A') (A") (A') (A") (A") (A') (A') (A") (A')
                 (A") (A') (A") (A') (A") (A") (A') (A") (A') (A")
                 (A') (A') (A") (A') (A") (A') (A') (A") (A") (A')
                 (A") (A') (A') (A") (A") (A') (A') (A") (A') (A')
                 (A') (A") (A') (A')
 Beta  Orbitals:
       Occupied  (A') (A") (A') (A') (A") (A') (A') (A') (A") (A')
                 (A') (A") (A') (A') (A') (A") (A') (A') (A") (A')
                 (A') (A") (A') (A') (A") (A') (A') (A') (A") (A')
                 (A') (A") (A") (A') (A") (A') (A') (A") (A") (A')
                 (A') (A") (A') (A") (A') (A") (A') (A") (A') (A')
                 (A') (A") (A') (A") (A') (A") (A') (A") (A") (A')
                 (A') (A") (A") (A') (A') (A') (A') (A") (A') (A')
                 (A") (A') (A") (A') (A') (A") (A') (A') (A') (A")
                 (A') (A") (A") (A') (A') (A") (A') (A") (A') (A')
                 (A")
       Virtual   (A') (A') (A') (A") (A') (A") (A') (A") (A") (A")
                 (A') (A") (A') (A') (A') (A') (A') (A') (A") (A")
                 (A') (A") (A') (A") (A") (A') (A') (A') (A") (A')
                 (A') (A") (A") (A") (A') (A") (A') (A') (A') (A")
                 (A') (A') (A") (A') (A') (A') (A") (A') (A") (A')
                 (A") (A') (A") (A') (A") (A") (A') (A') (A") (A')
                 (A") (A') (A') (A") (A') (A") (A') (A") (A') (A')
                 (A') (A") (A") (A') (A") (A") (A") (A') (A') (A')
                 (A") (A") (A') (A') (A') (A") (A') (A') (A") (A")
                 (A') (A") (A') (A") (A') (A') (A") (A") (A") (A')
                 (A') (A') (A") (A') (A') (A") (A') (A') (A') (A")
                 (A') (A") (A") (A') (A') (A') (A") (A') (A') (A")
                 (A") (A') (A") (A') (A') (A") (A') (A") (A') (A")
                 (A") (A') (A") (A') (A') (A") (A") (A') (A") (A')
                 (A') (A') (A") (A") (A') (A') (A") (A') (A") (A')
                 (A') (A") (A") (A') (A") (A') (A") (A') (A') (A")
                 (A') (A') (A") (A') (A') (A") (A') (A") (A') (A")
                 (A') (A") (A') (A") (A") (A") (A') (A') (A") (A")
                 (A') (A') (A') (A') (A") (A") (A') (A') (A") (A')
                 (A') (A") (A") (A') (A") (A') (A") (A') (A') (A")
                 (A') (A") (A') (A") (A') (A") (A') (A') (A") (A')
                 (A") (A') (A') (A") (A") (A') (A') (A") (A') (A')
                 (A") (A') (A") (A') (A") (A') (A") (A') (A") (A')
                 (A") (A') (A") (A") (A') (A") (A") (A') (A') (A")
                 (A') (A") (A') (A') (A') (A") (A') (A') (A") (A")
                 (A') (A') (A') (A') (A") (A") (A') (A") (A') (A")
                 (A') (A") (A") (A') (A') (A") (A') (A') (A') (A")
                 (A") (A") (A') (A") (A") (A') (A') (A') (A') (A')
                 (A') (A") (A') (A") (A') (A") (A") (A') (A') (A")
                 (A') (A") (A') (A") (A') (A") (A") (A') (A") (A')
                 (A") (A') (A') (A") (A') (A") (A') (A') (A") (A")
                 (A') (A") (A') (A') (A") (A") (A') (A') (A") (A')
                 (A') (A') (A") (A') (A')
 The electronic state is 2-A'.
 Alpha  occ. eigenvalues --  -66.03898 -66.03688 -66.03687 -66.03146 -66.02739
 Alpha  occ. eigenvalues --  -66.02737 -66.02229 -66.01951 -66.01422 -66.01421
 Alpha  occ. eigenvalues --  -66.01260 -66.01259 -66.01049  -5.18220  -5.18009
 Alpha  occ. eigenvalues --   -5.18009  -5.17534  -5.17015  -5.17014  -5.16632
 Alpha  occ. eigenvalues --   -5.16502  -5.15951  -5.15950  -5.15706  -5.15705
 Alpha  occ. eigenvalues --   -5.15521  -3.54274  -3.54091  -3.53985  -3.53984
 Alpha  occ. eigenvalues --   -3.53850  -3.53850  -3.53817  -3.53735  -3.53735
 Alpha  occ. eigenvalues --   -3.53620  -3.53298  -3.53209  -3.52922  -3.52922
 Alpha  occ. eigenvalues --   -3.52830  -3.52829  -3.52738  -3.52737  -3.52559
 Alpha  occ. eigenvalues --   -3.52431  -3.52412  -3.52384  -3.52342  -3.52247
 Alpha  occ. eigenvalues --   -3.51836  -3.51831  -3.51775  -3.51774  -3.51637
 Alpha  occ. eigenvalues --   -3.51635  -3.51598  -3.51597  -3.51514  -3.51514
 Alpha  occ. eigenvalues --   -3.51428  -3.51427  -3.51376  -3.51337  -3.51274
 Alpha  occ. eigenvalues --   -0.55104  -0.48696  -0.45054  -0.43607  -0.38766
 Alpha  occ. eigenvalues --   -0.38536  -0.33935  -0.30075  -0.29966  -0.26544
 Alpha  occ. eigenvalues --   -0.26197  -0.23611  -0.22911  -0.20037  -0.16904
 Alpha  occ. eigenvalues --   -0.16347  -0.14212  -0.13393  -0.12885  -0.11468
 Alpha  occ. eigenvalues --   -0.11410  -0.10613  -0.10352  -0.10306  -0.09070
 Alpha  occ. eigenvalues --   -0.08801  -0.06884
 Alpha virt. eigenvalues --    0.01755   0.03491   0.04834   0.06144   0.06370
 Alpha virt. eigenvalues --    0.06509   0.07219   0.07313   0.07918   0.09165
 Alpha virt. eigenvalues --    0.09878   0.10146   0.11108   0.11163   0.12518
 Alpha virt. eigenvalues --    0.12923   0.13554   0.14552   0.16038   0.16132
 Alpha virt. eigenvalues --    0.17507   0.19814   0.20123   0.20413   0.21104
 Alpha virt. eigenvalues --    0.22238   0.24500   0.24845   0.25253   0.25605
 Alpha virt. eigenvalues --    0.25754   0.26301   0.26819   0.27097   0.27430
 Alpha virt. eigenvalues --    0.27685   0.28016   0.28785   0.29066   0.29437
 Alpha virt. eigenvalues --    0.30699   0.30826   0.30932   0.31875   0.32665
 Alpha virt. eigenvalues --    0.32967   0.33353   0.34632   0.34652   0.35196
 Alpha virt. eigenvalues --    0.36209   0.36669   0.37258   0.38305   0.38527
 Alpha virt. eigenvalues --    0.38567   0.38788   0.39397   0.39860   0.40332
 Alpha virt. eigenvalues --    0.40928   0.40979   0.41579   0.41822   0.42892
 Alpha virt. eigenvalues --    0.43473   0.44573   0.44741   0.45728   0.46229
 Alpha virt. eigenvalues --    0.46314   0.46897   0.47012   0.48098   0.48626
 Alpha virt. eigenvalues --    0.49422   0.50040   0.50184   0.51416   0.51742
 Alpha virt. eigenvalues --    0.52378   0.52482   0.53209   0.53988   0.54543
 Alpha virt. eigenvalues --    0.55778   0.56602   0.56942   0.58136   0.58712
 Alpha virt. eigenvalues --    0.60147   0.60157   0.61141   0.61466   0.61535
 Alpha virt. eigenvalues --    0.61864   0.62690   0.63483   0.64959   0.65155
 Alpha virt. eigenvalues --    0.65887   0.66500   0.68419   0.68620   0.69507
 Alpha virt. eigenvalues --    0.69520   0.70405   0.71333   0.72041   0.72417
 Alpha virt. eigenvalues --    0.73544   0.73846   0.73875   0.75538   0.76147
 Alpha virt. eigenvalues --    0.76226   0.76388   0.77264   0.77833   0.78661
 Alpha virt. eigenvalues --    0.79078   0.79687   0.80612   0.81143   0.81971
 Alpha virt. eigenvalues --    0.81997   0.82707   0.82710   0.83020   0.84130
 Alpha virt. eigenvalues --    0.84517   0.85548   0.85895   0.86182   0.86958
 Alpha virt. eigenvalues --    0.87412   0.88793   0.88930   0.89260   0.91428
 Alpha virt. eigenvalues --    0.91811   0.92435   0.97205   0.98417   0.99573
 Alpha virt. eigenvalues --    1.00817   1.01313   1.03416   1.03662   1.04477
 Alpha virt. eigenvalues --    1.05681   1.06091   1.06774   1.07621   1.07793
 Alpha virt. eigenvalues --    1.08517   1.09273   1.10717   1.11840   1.11966
 Alpha virt. eigenvalues --    1.13086   1.13722   1.14152   1.15381   1.15412
 Alpha virt. eigenvalues --    1.16650   1.18211   1.18478   1.18660   1.18859
 Alpha virt. eigenvalues --    1.19850   1.20356   1.21522   1.22363   1.23132
 Alpha virt. eigenvalues --    1.23279   1.25621   1.25715   1.27350   1.27419
 Alpha virt. eigenvalues --    1.28437   1.30896   1.31416   1.31862   1.33510
 Alpha virt. eigenvalues --    1.33613   1.35107   1.35506   1.35629   1.36209
 Alpha virt. eigenvalues --    1.36612   1.38060   1.39127   1.40534   1.40883
 Alpha virt. eigenvalues --    1.41040   1.41239   1.42127   1.43853   1.43898
 Alpha virt. eigenvalues --    1.44533   1.45682   1.46314   1.46372   1.47691
 Alpha virt. eigenvalues --    1.47842   1.49035   1.50124   1.51463   1.51924
 Alpha virt. eigenvalues --    1.52161   1.52299   1.53564   1.54530   1.54957
 Alpha virt. eigenvalues --    1.56802   1.57096   1.57830   1.58167   1.58606
 Alpha virt. eigenvalues --    1.58940   1.59130   1.60423   1.60789   1.62041
 Alpha virt. eigenvalues --    1.62594   1.63053   1.63698   1.64106   1.65883
 Alpha virt. eigenvalues --    1.67158   1.67529   1.68752   1.68763   1.70211
 Alpha virt. eigenvalues --    1.71545   1.72030   1.73256   1.73440   1.75619
 Alpha virt. eigenvalues --    1.76001   1.77635   1.82097   1.85948   1.87061
 Alpha virt. eigenvalues --    1.88658   1.89993   1.90716   1.91268   1.91810
 Alpha virt. eigenvalues --    1.92580   1.93155   1.95117   1.95430   1.96127
 Alpha virt. eigenvalues --    1.96449   1.97508   1.99316   1.99904   2.00681
 Alpha virt. eigenvalues --    2.01009   2.01816   2.01860   2.02276   2.03202
 Alpha virt. eigenvalues --    2.03756   2.04193   2.05131   2.05864   2.06527
 Alpha virt. eigenvalues --    2.07453   2.08275   2.08701   2.10704   2.10742
 Alpha virt. eigenvalues --    2.11496   2.12378   2.12744   2.13902   2.14511
 Alpha virt. eigenvalues --    2.14729   2.17255   2.17443   2.17589   2.18031
 Alpha virt. eigenvalues --    2.21053   2.21141   2.22126   2.22332   2.22648
 Alpha virt. eigenvalues --    2.23579   2.24394   2.26026   2.27322   2.27759
 Alpha virt. eigenvalues --    2.31141   2.31695   2.31864   2.32631   2.36003
 Alpha virt. eigenvalues --    2.38420   2.39232   2.40954   2.43027   2.44980
 Alpha virt. eigenvalues --    2.46063   2.48963   2.49775   2.54745   2.58005
 Alpha virt. eigenvalues --    2.69014   2.69556   2.83057   3.03704   3.11782
 Alpha virt. eigenvalues --    3.14072   3.16548   3.20021   3.21967   3.27821
 Alpha virt. eigenvalues --    3.38557   3.51089   3.60918   3.99463
  Beta  occ. eigenvalues --  -66.03809 -66.03688 -66.03687 -66.03079 -66.02699
  Beta  occ. eigenvalues --  -66.02698 -66.02151 -66.01860 -66.01421 -66.01420
  Beta  occ. eigenvalues --  -66.01245 -66.01244 -66.01034  -5.18111  -5.18006
  Beta  occ. eigenvalues --   -5.18006  -5.17451  -5.16969  -5.16969  -5.16528
  Beta  occ. eigenvalues --   -5.16376  -5.15947  -5.15946  -5.15689  -5.15689
  Beta  occ. eigenvalues --   -5.15503  -3.54102  -3.53984  -3.53983  -3.53937
  Beta  occ. eigenvalues --   -3.53855  -3.53854  -3.53752  -3.53737  -3.53736
  Beta  occ. eigenvalues --   -3.53418  -3.53268  -3.53152  -3.52847  -3.52847
  Beta  occ. eigenvalues --   -3.52794  -3.52794  -3.52667  -3.52667  -3.52384
  Beta  occ. eigenvalues --   -3.52370  -3.52331  -3.52296  -3.52186  -3.52144
  Beta  occ. eigenvalues --   -3.51848  -3.51844  -3.51774  -3.51774  -3.51625
  Beta  occ. eigenvalues --   -3.51624  -3.51553  -3.51552  -3.51495  -3.51495
  Beta  occ. eigenvalues --   -3.51422  -3.51421  -3.51328  -3.51317  -3.51271
  Beta  occ. eigenvalues --   -0.54910  -0.48370  -0.44965  -0.43310  -0.38432
  Beta  occ. eigenvalues --   -0.38425  -0.33421  -0.29803  -0.29713  -0.26243
  Beta  occ. eigenvalues --   -0.26062  -0.22726  -0.22567  -0.19616  -0.16779
  Beta  occ. eigenvalues --   -0.15384  -0.14171  -0.13134  -0.12231  -0.11270
  Beta  occ. eigenvalues --   -0.11145  -0.10397  -0.10090  -0.09807  -0.08923
  Beta  occ. eigenvalues --   -0.08669
  Beta virt. eigenvalues --   -0.02282   0.02489   0.03959   0.04931   0.06457
  Beta virt. eigenvalues --    0.06584   0.06660   0.07339   0.07704   0.08101
  Beta virt. eigenvalues --    0.09497   0.10010   0.10397   0.11346   0.11533
  Beta virt. eigenvalues --    0.12663   0.13326   0.14112   0.15109   0.16304
  Beta virt. eigenvalues --    0.16334   0.17567   0.20052   0.20266   0.20755
  Beta virt. eigenvalues --    0.21318   0.22429   0.24714   0.24910   0.25456
  Beta virt. eigenvalues --    0.25822   0.25850   0.26391   0.26979   0.27277
  Beta virt. eigenvalues --    0.27662   0.27959   0.28248   0.29072   0.29247
  Beta virt. eigenvalues --    0.29624   0.30824   0.31072   0.31333   0.32347
  Beta virt. eigenvalues --    0.32909   0.33087   0.33666   0.34730   0.35021
  Beta virt. eigenvalues --    0.35342   0.36392   0.36713   0.37442   0.38401
  Beta virt. eigenvalues --    0.38773   0.38852   0.39022   0.39475   0.40056
  Beta virt. eigenvalues --    0.40527   0.41116   0.41227   0.41776   0.42044
  Beta virt. eigenvalues --    0.42951   0.43700   0.44810   0.44908   0.46076
  Beta virt. eigenvalues --    0.46367   0.46440   0.47021   0.47208   0.48263
  Beta virt. eigenvalues --    0.48847   0.49569   0.50230   0.50428   0.51540
  Beta virt. eigenvalues --    0.51958   0.52580   0.52817   0.53542   0.54286
  Beta virt. eigenvalues --    0.54728   0.56034   0.56825   0.57286   0.58328
  Beta virt. eigenvalues --    0.58925   0.60300   0.60329   0.61300   0.61663
  Beta virt. eigenvalues --    0.61917   0.62043   0.63031   0.63815   0.65274
  Beta virt. eigenvalues --    0.65384   0.66378   0.66768   0.68730   0.68938
  Beta virt. eigenvalues --    0.69716   0.69797   0.70636   0.71516   0.72258
  Beta virt. eigenvalues --    0.72512   0.73686   0.74076   0.74152   0.75845
  Beta virt. eigenvalues --    0.76333   0.76415   0.76622   0.77505   0.78047
  Beta virt. eigenvalues --    0.78795   0.79309   0.79822   0.80903   0.81335
  Beta virt. eigenvalues --    0.82148   0.82177   0.82850   0.82878   0.83145
  Beta virt. eigenvalues --    0.84263   0.84739   0.85717   0.86109   0.86402
  Beta virt. eigenvalues --    0.87087   0.87658   0.88942   0.89068   0.89473
  Beta virt. eigenvalues --    0.91701   0.92072   0.92633   0.97349   0.98750
  Beta virt. eigenvalues --    0.99815   1.01015   1.01609   1.03614   1.03830
  Beta virt. eigenvalues --    1.04894   1.05897   1.06330   1.07033   1.07782
  Beta virt. eigenvalues --    1.08030   1.08591   1.09595   1.10912   1.12128
  Beta virt. eigenvalues --    1.12248   1.13355   1.13851   1.14481   1.15555
  Beta virt. eigenvalues --    1.15562   1.16932   1.18380   1.18621   1.18808
  Beta virt. eigenvalues --    1.19093   1.19968   1.20555   1.21725   1.22603
  Beta virt. eigenvalues --    1.23236   1.23489   1.25838   1.25892   1.27570
  Beta virt. eigenvalues --    1.27660   1.28656   1.31113   1.31654   1.32170
  Beta virt. eigenvalues --    1.33695   1.33768   1.35297   1.35634   1.35822
  Beta virt. eigenvalues --    1.36434   1.36890   1.38283   1.39525   1.40765
  Beta virt. eigenvalues --    1.41101   1.41237   1.41446   1.42407   1.43922
  Beta virt. eigenvalues --    1.44176   1.44704   1.45918   1.46479   1.46572
  Beta virt. eigenvalues --    1.47830   1.48023   1.49254   1.50401   1.51719
  Beta virt. eigenvalues --    1.52108   1.52450   1.52544   1.53663   1.54752
  Beta virt. eigenvalues --    1.55188   1.57118   1.57217   1.58198   1.58433
  Beta virt. eigenvalues --    1.58750   1.59215   1.59339   1.60660   1.60955
  Beta virt. eigenvalues --    1.62218   1.62804   1.63273   1.63839   1.64232
  Beta virt. eigenvalues --    1.66066   1.67406   1.67743   1.68929   1.69012
  Beta virt. eigenvalues --    1.70346   1.71721   1.72188   1.73422   1.73604
  Beta virt. eigenvalues --    1.75768   1.76102   1.77769   1.82367   1.86202
  Beta virt. eigenvalues --    1.87225   1.88750   1.90138   1.90813   1.91404
  Beta virt. eigenvalues --    1.91926   1.92756   1.93247   1.95210   1.95571
  Beta virt. eigenvalues --    1.96255   1.96711   1.97593   1.99416   2.00043
  Beta virt. eigenvalues --    2.00938   2.01107   2.01940   2.01978   2.02409
  Beta virt. eigenvalues --    2.03325   2.03869   2.04317   2.05262   2.05989
  Beta virt. eigenvalues --    2.06629   2.07632   2.08450   2.08801   2.10857
  Beta virt. eigenvalues --    2.10874   2.11662   2.12579   2.12956   2.14112
  Beta virt. eigenvalues --    2.14600   2.14876   2.17417   2.17633   2.17684
  Beta virt. eigenvalues --    2.18146   2.21133   2.21290   2.22251   2.22401
  Beta virt. eigenvalues --    2.22770   2.23677   2.24561   2.26144   2.27449
  Beta virt. eigenvalues --    2.27877   2.31284   2.31897   2.31961   2.32770
  Beta virt. eigenvalues --    2.36094   2.38551   2.39351   2.41050   2.43149
  Beta virt. eigenvalues --    2.45083   2.46211   2.49078   2.49920   2.54863
  Beta virt. eigenvalues --    2.58138   2.69174   2.69705   2.83171   3.03737
  Beta virt. eigenvalues --    3.11852   3.14272   3.16794   3.20175   3.22223
  Beta virt. eigenvalues --    3.28013   3.38737   3.51138   3.61123   3.99621
          Condensed to atoms (all electrons):
              1          2          3          4          5          6
     1  Si  13.719667  -0.000774   0.222615   0.236305   0.201477  -0.027548
     2  Si  -0.000774  13.184293  -0.015980  -0.020647   0.011377   0.094674
     3  Si   0.222615  -0.015980  13.510738  -0.017917  -0.015980   0.120298
     4  Si   0.236305  -0.020647  -0.017917  13.492162  -0.020647  -0.003444
     5  Si   0.201477   0.011377  -0.015980  -0.020647  13.184293   0.094674
     6  Si  -0.027548   0.094674   0.120298  -0.003444   0.094674  13.667462
     7  Si  -0.044528   0.201477   0.222615   0.236305  -0.000774  -0.027548
     8  Si  -0.017673  -0.003640   0.001020  -0.015039   0.203597  -0.020657
     9  Si  -0.010406  -0.006336  -0.002803   0.004868   0.058618   0.124275
    10  Si   0.002390  -0.017963   0.000424   0.007367  -0.017963  -0.011795
    11  Si  -0.026366   0.036915   0.007930   0.151572   0.036915  -0.001940
    12  Si   0.002960   0.203597   0.001020  -0.015039  -0.003640  -0.020657
    13  Si   0.003677   0.058618  -0.002803   0.004868  -0.006336   0.124275
              7          8          9         10         11         12
     1  Si  -0.044528  -0.017673  -0.010406   0.002390  -0.026366   0.002960
     2  Si   0.201477  -0.003640  -0.006336  -0.017963   0.036915   0.203597
     3  Si   0.222615   0.001020  -0.002803   0.000424   0.007930   0.001020
     4  Si   0.236305  -0.015039   0.004868   0.007367   0.151572  -0.015039
     5  Si  -0.000774   0.203597   0.058618  -0.017963   0.036915  -0.003640
     6  Si  -0.027548  -0.020657   0.124275  -0.011795  -0.001940  -0.020657
     7  Si  13.719667   0.002960   0.003677   0.002390  -0.026366  -0.017673
     8  Si   0.002960  13.742116   0.086312   0.124347   0.133371  -0.016059
     9  Si   0.003677   0.086312  13.774744   0.112401  -0.011427  -0.008417
    10  Si   0.002390   0.124347   0.112401  13.694590  -0.016196   0.124347
    11  Si  -0.026366   0.133371  -0.011427  -0.016196  13.625358   0.133371
    12  Si  -0.017673  -0.016059  -0.008417   0.124347   0.133371  13.742116
    13  Si  -0.010406  -0.008417   0.008649   0.112401  -0.011427   0.086312
             13
     1  Si   0.003677
     2  Si   0.058618
     3  Si  -0.002803
     4  Si   0.004868
     5  Si  -0.006336
     6  Si   0.124275
     7  Si  -0.010406
     8  Si  -0.008417
     9  Si   0.008649
    10  Si   0.112401
    11  Si  -0.011427
    12  Si   0.086312
    13  Si  13.774744
 Mulliken atomic charges:
              1
     1  Si  -0.261796
     2  Si   0.274391
     3  Si  -0.031176
     4  Si  -0.040712
     5  Si   0.274391
     6  Si  -0.112066
     7  Si  -0.261796
     8  Si  -0.212237
     9  Si  -0.134155
    10  Si  -0.116739
    11  Si  -0.031711
    12  Si  -0.212237
    13  Si  -0.134155
 Sum of Mulliken atomic charges =  -1.00000
 Mulliken charges with hydrogens summed into heavy atoms:
              1
     1  Si  -0.261796
     2  Si   0.274391
     3  Si  -0.031176
     4  Si  -0.040712
     5  Si   0.274391
     6  Si  -0.112066
     7  Si  -0.261796
     8  Si  -0.212237
     9  Si  -0.134155
    10  Si  -0.116739
    11  Si  -0.031711
    12  Si  -0.212237
    13  Si  -0.134155
 Sum of Mulliken charges with hydrogens summed into heavy atoms =  -1.00000
          Atomic-Atomic Spin Densities.
              1          2          3          4          5          6
     1  Si   0.009076  -0.005319  -0.010763  -0.005437  -0.013570   0.007713
     2  Si  -0.005319   0.032440   0.006750   0.003288   0.025775  -0.022946
     3  Si  -0.010763   0.006750   0.296640   0.002060   0.006750  -0.084932
     4  Si  -0.005437   0.003288   0.002060   0.240725   0.003288   0.002836
     5  Si  -0.013570   0.025775   0.006750   0.003288   0.032440  -0.022946
     6  Si   0.007713  -0.022946  -0.084932   0.002836  -0.022946   0.329700
     7  Si   0.005823  -0.013570  -0.010763  -0.005437  -0.005319   0.007713
     8  Si   0.000131   0.001467  -0.000125   0.000976  -0.003683   0.002276
     9  Si   0.000027  -0.000541   0.001755   0.000306   0.000641  -0.044041
    10  Si   0.000064  -0.004462  -0.000218   0.000272  -0.004462   0.008077
    11  Si   0.003980  -0.019970   0.005561  -0.067167  -0.019970  -0.000035
    12  Si  -0.000038  -0.003683  -0.000125   0.000976   0.001467   0.002276
    13  Si   0.000002   0.000641   0.001755   0.000306  -0.000541  -0.044041
              7          8          9         10         11         12
     1  Si   0.005823   0.000131   0.000027   0.000064   0.003980  -0.000038
     2  Si  -0.013570   0.001467  -0.000541  -0.004462  -0.019970  -0.003683
     3  Si  -0.010763  -0.000125   0.001755  -0.000218   0.005561  -0.000125
     4  Si  -0.005437   0.000976   0.000306   0.000272  -0.067167   0.000976
     5  Si  -0.005319  -0.003683   0.000641  -0.004462  -0.019970   0.001467
     6  Si   0.007713   0.002276  -0.044041   0.008077  -0.000035   0.002276
     7  Si   0.009076  -0.000038   0.000002   0.000064   0.003980   0.000131
     8  Si  -0.000038   0.036325   0.012635   0.005342  -0.017146   0.003280
     9  Si   0.000002   0.012635   0.121812  -0.009309  -0.000153  -0.000638
    10  Si   0.000064   0.005342  -0.009309   0.047877   0.002788   0.005342
    11  Si   0.003980  -0.017146  -0.000153   0.002788   0.267440  -0.017146
    12  Si   0.000131   0.003280  -0.000638   0.005342  -0.017146   0.036325
    13  Si   0.000027  -0.000638   0.026615  -0.009309  -0.000153   0.012635
             13
     1  Si   0.000002
     2  Si   0.000641
     3  Si   0.001755
     4  Si   0.000306
     5  Si  -0.000541
     6  Si  -0.044041
     7  Si   0.000027
     8  Si  -0.000638
     9  Si   0.026615
    10  Si  -0.009309
    11  Si  -0.000153
    12  Si   0.012635
    13  Si   0.121812
 Mulliken atomic spin densities:
              1
     1  Si  -0.008312
     2  Si  -0.000130
     3  Si   0.214347
     4  Si   0.176991
     5  Si  -0.000130
     6  Si   0.141650
     7  Si  -0.008312
     8  Si   0.040802
     9  Si   0.109111
    10  Si   0.042065
    11  Si   0.142007
    12  Si   0.040802
    13  Si   0.109111
 Sum of Mulliken atomic spin densities =   1.00000
 Electronic spatial extent (au):  <R**2>=           4875.9331
 Charge=             -1.0000 electrons
 Dipole moment (field-independent basis, Debye):
    X=              0.2870    Y=             -1.4657    Z=              0.0000  Tot=              1.4936
 Quadrupole moment (field-independent basis, Debye-Ang):
   XX=           -186.8145   YY=           -210.2428   ZZ=           -199.2878
   XY=             -0.6059   XZ=              0.0000   YZ=              0.0000
 Traceless Quadrupole moment (field-independent basis, Debye-Ang):
   XX=             11.9672   YY=            -11.4611   ZZ=             -0.5061
   XY=             -0.6059   XZ=              0.0000   YZ=              0.0000
 Octapole moment (field-independent basis, Debye-Ang**2):
  XXX=             -6.6157  YYY=            -13.4728  ZZZ=              0.0000  XYY=              1.6303
  XXY=            -15.8434  XXZ=              0.0000  XZZ=              8.3196  YZZ=              5.6054
  YYZ=              0.0000  XYZ=              0.0000
 Hexadecapole moment (field-independent basis, Debye-Ang**3):
 XXXX=          -1861.1489 YYYY=          -4565.7229 ZZZZ=          -2529.0087 XXXY=             -7.4101
 XXXZ=              0.0000 YYYX=            -11.8779 YYYZ=              0.0000 ZZZX=              0.0000
 ZZZY=              0.0000 XXYY=          -1039.7958 XXZZ=           -726.8790 YYZZ=          -1259.4807
 XXYZ=              0.0000 YYXZ=              0.0000 ZZXY=              0.7300
 N-N= 2.407268989071D+03 E-N=-2.067952726706D+04  KE= 5.624321544584D+03
 Symmetry A'   KE= 3.704572846917D+03
 Symmetry A"   KE= 1.919748697667D+03
                          Isotropic Fermi Contact Couplings
        Atom                 a.u.       MegaHertz       Gauss      10(-4) cm-1
     1  Si(29)             0.02984     -26.52348      -9.46424      -8.84728
     2  Si(29)             0.03076     -27.34073      -9.75585      -9.11989
     3  Si(29)             0.15495    -137.70672     -49.13718     -45.93402
     4  Si(29)             0.13023    -115.73524     -41.29721     -38.60512
     5  Si(29)             0.03076     -27.34073      -9.75585      -9.11989
     6  Si(29)             0.36012    -320.04868    -114.20133    -106.75675
     7  Si(29)             0.02984     -26.52348      -9.46424      -8.84728
     8  Si(29)             0.00693      -6.16227      -2.19885      -2.05551
     9  Si(29)             0.03646     -32.40676     -11.56354     -10.80973
    10  Si(29)             0.01330     -11.81906      -4.21733      -3.94241
    11  Si(29)             0.24190    -214.98301     -76.71128     -71.71061
    12  Si(29)             0.00693      -6.16227      -2.19885      -2.05551
    13  Si(29)             0.03646     -32.40676     -11.56354     -10.80973
 --------------------------------------------------------
       Center         ----  Spin Dipole Couplings  ----
                      3XX-RR        3YY-RR        3ZZ-RR
 --------------------------------------------------------
     1   Atom       -0.043373      0.007453      0.035920
     2   Atom       -0.012115     -0.003910      0.016025
     3   Atom        0.344494     -0.158727     -0.185767
     4   Atom        0.140801     -0.025438     -0.115363
     5   Atom       -0.012115     -0.003910      0.016025
     6   Atom        0.198148     -0.112253     -0.085895
     7   Atom       -0.043373      0.007453      0.035920
     8   Atom        0.073714     -0.044351     -0.029364
     9   Atom        0.189905     -0.083336     -0.106569
    10   Atom        0.101850     -0.060221     -0.041629
    11   Atom        0.157073     -0.028106     -0.128967
    12   Atom        0.073714     -0.044351     -0.029364
    13   Atom        0.189905     -0.083336     -0.106569
 --------------------------------------------------------
                        XY            XZ            YZ
 --------------------------------------------------------
     1   Atom       -0.011429      0.030032     -0.007646
     2   Atom        0.000896      0.002911     -0.004717
     3   Atom       -0.132155      0.000000      0.000000
     4   Atom        0.232222      0.000000      0.000000
     5   Atom        0.000896     -0.002911      0.004717
     6   Atom       -0.064166      0.000000      0.000000
     7   Atom       -0.011429     -0.030032      0.007646
     8   Atom       -0.027069     -0.056258      0.007778
     9   Atom        0.069388      0.019557      0.002002
    10   Atom       -0.038741      0.000000      0.000000
    11   Atom        0.175278      0.000000      0.000000
    12   Atom       -0.027069      0.056258     -0.007778
    13   Atom        0.069388     -0.019557     -0.002002
 --------------------------------------------------------


 ---------------------------------------------------------------------------------
              Anisotropic Spin Dipole Couplings in Principal Axis System
 ---------------------------------------------------------------------------------

       Atom             a.u.   MegaHertz   Gauss  10(-4) cm-1        Axes

              Baa    -0.0546     5.795     2.068     1.933  0.9436  0.1366 -0.3015
     1 Si(29) Bbb     0.0057    -0.605    -0.216    -0.202 -0.0464  0.9565  0.2882
              Bcc     0.0489    -5.189    -1.852    -1.731  0.3277 -0.2579  0.9089
 
              Baa    -0.0126     1.342     0.479     0.448  0.9774 -0.1688 -0.1270
     2 Si(29) Bbb    -0.0047     0.496     0.177     0.165  0.1913  0.9625  0.1924
              Bcc     0.0173    -1.838    -0.656    -0.613  0.0898 -0.2124  0.9731
 
              Baa    -0.1913    20.296     7.242     6.770  0.2395  0.9709  0.0000
     3 Si(29) Bbb    -0.1858    19.707     7.032     6.574  0.0000  0.0000  1.0000
              Bcc     0.3771   -40.003   -14.274   -13.344  0.9709 -0.2395  0.0000
 
              Baa    -0.1890    20.047     7.153     6.687 -0.5758  0.8176  0.0000
     4 Si(29) Bbb    -0.1154    12.238     4.367     4.082  0.0000  0.0000  1.0000
              Bcc     0.3043   -32.285   -11.520   -10.769  0.8176  0.5758  0.0000
 
              Baa    -0.0126     1.342     0.479     0.448  0.9774 -0.1688  0.1270
     5 Si(29) Bbb    -0.0047     0.496     0.177     0.165  0.1913  0.9625 -0.1924
              Bcc     0.0173    -1.838    -0.656    -0.613 -0.0898  0.2124  0.9731
 
              Baa    -0.1250    13.260     4.731     4.423  0.1948  0.9808  0.0000
     6 Si(29) Bbb    -0.0859     9.112     3.251     3.039  0.0000  0.0000  1.0000
              Bcc     0.2109   -22.372    -7.983    -7.462  0.9808 -0.1948  0.0000
 
              Baa    -0.0546     5.795     2.068     1.933  0.9436  0.1366  0.3015
     7 Si(29) Bbb     0.0057    -0.605    -0.216    -0.202 -0.0464  0.9565 -0.2882
              Bcc     0.0489    -5.189    -1.852    -1.731 -0.3277  0.2579  0.9089
 
              Baa    -0.0562     5.964     2.128     1.989  0.4307  0.4827  0.7625
     8 Si(29) Bbb    -0.0475     5.041     1.799     1.681 -0.0478  0.8560 -0.5148
              Bcc     0.1037   -11.005    -3.927    -3.671  0.9012 -0.1853 -0.3918
 
              Baa    -0.1086    11.517     4.109     3.842 -0.1248  0.2673  0.9555
     9 Si(29) Bbb    -0.0992    10.519     3.754     3.509 -0.2050  0.9353 -0.2884
              Bcc     0.2077   -22.036    -7.863    -7.350  0.9708  0.2319  0.0619
 
              Baa    -0.0690     7.320     2.612     2.442  0.2211  0.9752  0.0000
    10 Si(29) Bbb    -0.0416     4.416     1.576     1.473  0.0000  0.0000  1.0000
              Bcc     0.1106   -11.737    -4.188    -3.915  0.9752 -0.2211  0.0000
 
              Baa    -0.1337    14.188     5.063     4.733 -0.5162  0.8565  0.0000
    11 Si(29) Bbb    -0.1290    13.681     4.882     4.564  0.0000  0.0000  1.0000
              Bcc     0.2627   -27.870    -9.945    -9.296  0.8565  0.5162  0.0000
 
              Baa    -0.0562     5.964     2.128     1.989 -0.4307 -0.4827  0.7625
    12 Si(29) Bbb    -0.0475     5.041     1.799     1.681 -0.0478  0.8560  0.5148
              Bcc     0.1037   -11.005    -3.927    -3.671  0.9012 -0.1853  0.3918
 
              Baa    -0.1086    11.517     4.109     3.842  0.1248 -0.2673  0.9555
    13 Si(29) Bbb    -0.0992    10.519     3.754     3.509 -0.2050  0.9353  0.2884
              Bcc     0.2077   -22.036    -7.863    -7.350  0.9708  0.2319 -0.0619
 

 ---------------------------------------------------------------------------------

 Calling FoFJK, ICntrl=      2127 FMM=F ISym2X=1 I1Cent= 0 IOpClX= 1 NMat=1 NMatS=1 NMatT=0.
 ***** Axes restored to original set *****
 -------------------------------------------------------------------
 Center     Atomic                   Forces (Hartrees/Bohr)
 Number     Number              X              Y              Z
 -------------------------------------------------------------------
      1       14           0.000116535   -0.000528655    0.000893721
      2       14          -0.000101256    0.000284220   -0.000489127
      3       14           0.002307941   -0.002095795    0.000000000
      4       14          -0.002633315   -0.000564469    0.000000000
      5       14          -0.000101256    0.000284220    0.000489127
      6       14           0.000994942   -0.000372554    0.000000000
      7       14           0.000116535   -0.000528655   -0.000893721
      8       14          -0.001398671   -0.000654522    0.001158189
      9       14           0.002204385    0.001120336    0.001687906
     10       14          -0.000301290    0.003317151    0.000000000
     11       14          -0.002010264   -0.000727089    0.000000000
     12       14          -0.001398671   -0.000654522   -0.001158189
     13       14           0.002204385    0.001120336   -0.001687906
 -------------------------------------------------------------------
 Cartesian Forces:  Max     0.003317151 RMS     0.001260728

 GradGradGradGradGradGradGradGradGradGradGradGradGradGradGradGradGradGrad
 Berny optimization.
 Internal  Forces:  Max     0.001240866 RMS     0.000298372
 Search for a local minimum.
 Step number   1 out of a maximum of  100
 All quantities printed in internal units (Hartrees-Bohrs-Radians)
 Mixed Optimization -- En-DIIS/RFO-DIIS
 Second derivative matrix not updated -- first step.
     Eigenvalues ---    0.02654   0.02922   0.02962   0.03225   0.03603
     Eigenvalues ---    0.04206   0.04905   0.05121   0.05200   0.06312
     Eigenvalues ---    0.06655   0.07338   0.07522   0.07741   0.07815
     Eigenvalues ---    0.07973   0.08136   0.08634   0.08826   0.08990
     Eigenvalues ---    0.09092   0.09669   0.09802   0.10118   0.10732
     Eigenvalues ---    0.10936   0.11393   0.11792   0.11920   0.12101
     Eigenvalues ---    0.12682   0.13740   0.137591000.000001000.00000
     Eigenvalues --- 1000.000001000.000001000.000001000.000001000.00000
     Eigenvalues --- 1000.000001000.000001000.000001000.000001000.00000
     Eigenvalues --- 1000.000001000.000001000.000001000.000001000.00000
     Eigenvalues --- 1000.000001000.000001000.000001000.000001000.00000
     Eigenvalues --- 1000.000001000.000001000.000001000.000001000.00000
     Eigenvalues --- 1000.000001000.000001000.000001000.000001000.00000
     Eigenvalues --- 1000.000001000.000001000.000001000.000001000.00000
     Eigenvalues --- 1000.000001000.000001000.000001000.000001000.00000
     Eigenvalues --- 1000.000001000.000001000.000001000.000001000.00000
     Eigenvalues --- 1000.000001000.000001000.000001000.000001000.00000
     Eigenvalues --- 1000.000001000.000001000.000001000.000001000.00000
     Eigenvalues --- 1000.000001000.000001000.000001000.000001000.00000
     Eigenvalues --- 1000.000001000.000001000.000001000.000001000.00000
     Eigenvalues --- 1000.000001000.000001000.000001000.000001000.00000
     Eigenvalues --- 1000.000001000.000001000.000001000.000001000.00000
     Eigenvalues --- 1000.000001000.000001000.000001000.000001000.00000
     Eigenvalues --- 1000.000001000.000001000.000001000.000001000.00000
     Eigenvalues --- 1000.000001000.000001000.000001000.000001000.00000
     Eigenvalues --- 1000.000001000.000001000.000001000.000001000.00000
     Eigenvalues --- 1000.000001000.000001000.000001000.000001000.00000
     Eigenvalues --- 1000.000001000.000001000.000001000.000001000.00000
     Eigenvalues --- 1000.000001000.000001000.000001000.000001000.00000
     Eigenvalues --- 1000.000001000.000001000.000001000.000001000.00000
     Eigenvalues --- 1000.000001000.000001000.000001000.000001000.00000
     Eigenvalues --- 1000.000001000.000001000.000001000.000001000.00000
     Eigenvalues --- 1000.000001000.000001000.000001000.000001000.00000
     Eigenvalues --- 1000.000001000.000001000.000001000.000001000.00000
     Eigenvalues --- 1000.000001000.000001000.000001000.000001000.00000
     Eigenvalues --- 1000.000001000.000001000.000001000.000001000.00000
     Eigenvalues --- 1000.000001000.000001000.000001000.000001000.00000
     Eigenvalues --- 1000.000001000.000001000.000001000.000001000.00000
     Eigenvalues --- 1000.000001000.000001000.000001000.000001000.00000
     Eigenvalues --- 1000.000001000.000001000.000001000.000001000.00000
     Eigenvalues --- 1000.000001000.000001000.000001000.000001000.00000
     Eigenvalues --- 1000.000001000.000001000.000001000.000001000.00000
     Eigenvalues --- 1000.000001000.000001000.000001000.000001000.00000
     Eigenvalues --- 1000.000001000.000001000.000001000.000001000.00000
     Eigenvalues --- 1000.000001000.000001000.000001000.000001000.00000
     Eigenvalues --- 1000.000001000.000001000.000001000.000001000.00000
     Eigenvalues --- 1000.000001000.000001000.000001000.000001000.00000
 RFO step:  Lambda=-2.44392686D-04 EMin= 2.65370849D-02
 Linear search not attempted -- first point.
 Iteration  1 RMS(Cart)=  0.00217436 RMS(Int)=  0.00000352
 Iteration  2 RMS(Cart)=  0.00000178 RMS(Int)=  0.00000244
 Iteration  3 RMS(Cart)=  0.00000000 RMS(Int)=  0.00000244
 ClnCor:  largest displacement from symmetrization is 8.98D-10 for atom    13.
 Variable       Old X    -DE/DX   Delta X   Delta X   Delta X     New X
                                 (Linear)    (Quad)   (Total)
    R1        4.54191  -0.00040   0.00000  -0.00434  -0.00434   4.53757
    R2        4.55827  -0.00053   0.00000  -0.00577  -0.00577   4.55250
    R3        4.56091  -0.00043   0.00000  -0.00469  -0.00469   4.55623
    R4        5.40840  -0.00072   0.00000  -0.01122  -0.01122   5.39717
    R5        5.27850  -0.00061   0.00000  -0.00910  -0.00910   5.26941
    R6        4.69368  -0.00053   0.00000  -0.00618  -0.00619   4.68750
    R7        4.56091  -0.00043   0.00000  -0.00469  -0.00469   4.55623
    R8        4.80689  -0.00057   0.00000  -0.00698  -0.00698   4.79990
    R9        4.47889  -0.00031   0.00000  -0.00312  -0.00313   4.47576
   R10        4.81792  -0.00113   0.00000  -0.01098  -0.01098   4.80694
   R11        4.94423  -0.00112   0.00000  -0.01341  -0.01340   4.93083
   R12        5.40840  -0.00072   0.00000  -0.01122  -0.01122   5.39717
   R13        4.81076  -0.00068   0.00000  -0.00969  -0.00969   4.80107
   R14        4.54191  -0.00040   0.00000  -0.00434  -0.00434   4.53757
   R15        5.27850  -0.00061   0.00000  -0.00910  -0.00910   5.26941
   R16        4.55827  -0.00053   0.00000  -0.00577  -0.00577   4.55250
   R17        4.68797  -0.00016   0.00000  -0.00287  -0.00287   4.68510
   R18        4.69368  -0.00053   0.00000  -0.00618  -0.00619   4.68750
   R19        4.47889  -0.00031   0.00000  -0.00312  -0.00313   4.47576
   R20        4.81792  -0.00113   0.00000  -0.01098  -0.01098   4.80694
   R21        4.80689  -0.00057   0.00000  -0.00698  -0.00698   4.79990
   R22        4.66732  -0.00072   0.00000  -0.00798  -0.00797   4.65934
   R23        4.66732  -0.00072   0.00000  -0.00798  -0.00797   4.65934
   R24        4.96717  -0.00103   0.00000  -0.01326  -0.01326   4.95391
   R25        4.78934  -0.00124   0.00000  -0.01562  -0.01561   4.77373
   R26        4.66261  -0.00053   0.00000  -0.00618  -0.00619   4.65642
   R27        4.70657  -0.00106   0.00000  -0.01064  -0.01064   4.69593
   R28        5.38791  -0.00066   0.00000  -0.01192  -0.01192   5.37599
   R29        4.78934  -0.00124   0.00000  -0.01562  -0.01561   4.77373
   R30        4.70657  -0.00106   0.00000  -0.01064  -0.01064   4.69593
   R31        4.66261  -0.00053   0.00000  -0.00618  -0.00619   4.65642
   R32        4.96717  -0.00103   0.00000  -0.01326  -0.01326   4.95391
    A1        1.73584  -0.00006   0.00000  -0.00019  -0.00019   1.73565
    A2        2.75114  -0.00006   0.00000  -0.00067  -0.00067   2.75046
    A3        2.00196   0.00002   0.00000   0.00009   0.00009   2.00204
    A4        1.72068  -0.00011   0.00000  -0.00071  -0.00071   1.71997
    A5        1.94123   0.00006   0.00000   0.00096   0.00096   1.94218
    A6        2.51826  -0.00010   0.00000  -0.00112  -0.00112   2.51714
    A7        1.86432   0.00002   0.00000   0.00043   0.00043   1.86475
    A8        1.78369  -0.00013   0.00000  -0.00077  -0.00077   1.78292
    A9        2.01856  -0.00002   0.00000  -0.00076  -0.00076   2.01780
   A10        1.85737   0.00007   0.00000   0.00106   0.00106   1.85843
   A11        2.39359   0.00000   0.00000   0.00038   0.00038   2.39397
[...]
 ZZZY=              0.0000 XXYY=          -1086.7843 XXZZ=           -775.3980 YYZZ=          -1341.9359
 XXYZ=              0.0000 YYXZ=              0.0000 ZZXY=            -43.3737
 N-N= 2.416500630930D+03 E-N=-2.071280171282D+04  KE= 5.633516611216D+03
 Symmetry A'   KE= 3.710126295732D+03
 Symmetry A"   KE= 1.923390315483D+03
                          Isotropic Fermi Contact Couplings
        Atom                 a.u.       MegaHertz       Gauss      10(-4) cm-1
     1  Si(29)             0.05033     -44.73218     -15.96155     -14.92105
     2  Si(29)            -0.02498      22.20000       7.92151       7.40512
     3  Si(29)             0.36232    -322.00733    -114.90022    -107.41008
     4  Si(29)             0.25034    -222.48578     -79.38845     -74.21327
     5  Si(29)            -0.02498      22.20000       7.92151       7.40512
     6  Si(29)             0.44951    -399.49364    -142.54926    -133.25674
     7  Si(29)             0.05033     -44.73218     -15.96155     -14.92105
     8  Si(29)             0.01922     -17.08215      -6.09533      -5.69799
     9  Si(29)             0.01136     -10.09732      -3.60298      -3.36810
    10  Si(29)             0.00459      -4.08136      -1.45633      -1.36139
    11  Si(29)             0.35451    -315.06056    -112.42144    -105.09289
    12  Si(29)             0.01922     -17.08215      -6.09533      -5.69799
    13  Si(29)             0.01136     -10.09732      -3.60298      -3.36810
 --------------------------------------------------------
       Center         ----  Spin Dipole Couplings  ----
                      3XX-RR        3YY-RR        3ZZ-RR
 --------------------------------------------------------
     1   Atom       -0.197102      0.131718      0.065384
     2   Atom       -0.013095      0.009126      0.003969
     3   Atom        0.577492     -0.287062     -0.290430
     4   Atom       -0.039812      0.100342     -0.060531
     5   Atom       -0.013095      0.009126      0.003969
     6   Atom        0.356490     -0.245467     -0.111023
     7   Atom       -0.197102      0.131718      0.065384
     8   Atom        0.027269     -0.023494     -0.003775
     9   Atom        0.229103     -0.046834     -0.182269
    10   Atom        0.106404     -0.082116     -0.024287
    11   Atom        0.296315     -0.066430     -0.229885
    12   Atom        0.027269     -0.023494     -0.003775
    13   Atom        0.229103     -0.046834     -0.182269
 --------------------------------------------------------
                        XY            XZ            YZ
 --------------------------------------------------------
     1   Atom        0.058835      0.034356     -0.014832
     2   Atom       -0.000988      0.017218      0.075889
     3   Atom        0.367697      0.000000      0.000000
     4   Atom       -0.509073      0.000000      0.000000
     5   Atom       -0.000988     -0.017218     -0.075889
     6   Atom        0.118105      0.000000      0.000000
     7   Atom        0.058835     -0.034356      0.014832
     8   Atom        0.020217     -0.080963     -0.005881
     9   Atom       -0.129110      0.056386     -0.013898
    10   Atom        0.024050      0.000000      0.000000
    11   Atom       -0.302786      0.000000      0.000000
    12   Atom        0.020217      0.080963      0.005881
    13   Atom       -0.129110     -0.056386      0.013898
 --------------------------------------------------------


 ---------------------------------------------------------------------------------
              Anisotropic Spin Dipole Couplings in Principal Axis System
 ---------------------------------------------------------------------------------

       Atom             a.u.   MegaHertz   Gauss  10(-4) cm-1        Axes

              Baa    -0.2121    22.499     8.028     7.505  0.9763 -0.1727 -0.1301
     1 Si(29) Bbb     0.0691    -7.333    -2.617    -2.446  0.1479  0.0943  0.9845
              Bcc     0.1430   -15.166    -5.412    -5.059  0.1577  0.9805 -0.1176
 
              Baa    -0.0723     7.671     2.737     2.559 -0.2183 -0.6667  0.7126
     2 Si(29) Bbb    -0.0115     1.219     0.435     0.407  0.9689 -0.2354  0.0766
              Bcc     0.0838    -8.890    -3.172    -2.965  0.1167  0.7071  0.6974
 
              Baa    -0.4223    44.798    15.985    14.943 -0.3452  0.9385  0.0000
     3 Si(29) Bbb    -0.2904    30.810    10.994    10.277  0.0000  0.0000  1.0000
              Bcc     0.7127   -75.608   -26.979   -25.220  0.9385  0.3452  0.0000
 
              Baa    -0.4836    51.303    18.306    17.113  0.7538  0.6571  0.0000
     4 Si(29) Bbb    -0.0605     6.421     2.291     2.142  0.0000  0.0000  1.0000
              Bcc     0.5441   -57.724   -20.598   -19.255 -0.6571  0.7538  0.0000
 
              Baa    -0.0723     7.671     2.737     2.559  0.2183  0.6667  0.7126
     5 Si(29) Bbb    -0.0115     1.219     0.435     0.407  0.9689 -0.2354 -0.0766
              Bcc     0.0838    -8.890    -3.172    -2.965  0.1167  0.7071 -0.6974
 
              Baa    -0.2678    28.410    10.138     9.477 -0.1859  0.9826  0.0000
     6 Si(29) Bbb    -0.1110    11.778     4.203     3.929  0.0000  0.0000  1.0000
              Bcc     0.3788   -40.188   -14.340   -13.405  0.9826  0.1859  0.0000
 
              Baa    -0.2121    22.499     8.028     7.505  0.9763 -0.1727  0.1301
     7 Si(29) Bbb     0.0691    -7.333    -2.617    -2.446 -0.1479 -0.0943  0.9845
              Bcc     0.1430   -15.166    -5.412    -5.059  0.1577  0.9805  0.1176
 
              Baa    -0.0722     7.658     2.733     2.554  0.6427 -0.1768  0.7454
     8 Si(29) Bbb    -0.0251     2.663     0.950     0.888 -0.0080  0.9714  0.2374
              Bcc     0.0973   -10.321    -3.683    -3.443  0.7661  0.1586 -0.6229
 
              Baa    -0.1900    20.153     7.191     6.722 -0.1433 -0.0332  0.9891
     9 Si(29) Bbb    -0.0972    10.309     3.678     3.439  0.3543  0.9315  0.0826
              Bcc     0.2871   -30.462   -10.870   -10.161  0.9241 -0.3623  0.1217
 
              Baa    -0.0851     9.032     3.223     3.013 -0.1246  0.9922  0.0000
    10 Si(29) Bbb    -0.0243     2.577     0.919     0.859  0.0000  0.0000  1.0000
              Bcc     0.1094   -11.608    -4.142    -3.872  0.9922  0.1246  0.0000
 
              Baa    -0.2380    25.249     9.009     8.422  0.4930  0.8700  0.0000
    11 Si(29) Bbb    -0.2299    24.387     8.702     8.135  0.0000  0.0000  1.0000
              Bcc     0.4679   -49.636   -17.711   -16.557  0.8700 -0.4930  0.0000
 
              Baa    -0.0722     7.658     2.733     2.554 -0.6427  0.1768  0.7454
    12 Si(29) Bbb    -0.0251     2.663     0.950     0.888 -0.0080  0.9714 -0.2374
              Bcc     0.0973   -10.321    -3.683    -3.443  0.7661  0.1586  0.6229
 
              Baa    -0.1900    20.153     7.191     6.722  0.1433  0.0332  0.9891
    13 Si(29) Bbb    -0.0972    10.309     3.678     3.439  0.3543  0.9315 -0.0826
              Bcc     0.2871   -30.462   -10.870   -10.161  0.9241 -0.3623 -0.1217
 

 ---------------------------------------------------------------------------------

 1\1\GINC-NODE68\SP\UHF\GFHFB2\Si13(1-,2)\TAM\08-Mar-2012\0\\#N Geom=Al
 lCheck Guess=TCheck SCRF=Check HF/GFHFB2 SCF=Tight\\si13-an-d-01\\-1,2
 \Si,0,0.0943425705,2.6557357655,-1.9813866068\Si,0,-0.087982808,0.3001
 685873,1.5189873462\Si,0,-1.2262907914,2.3975478123,-0.0000000309\Si,0
 ,1.3544843693,2.12949577,-0.0000000275\Si,0,-0.087982808,0.3001685481,
 -1.5189873539\Si,0,-2.0328429273,-0.005033097,0.0000000001\Si,0,0.0943
 425705,2.6557358166,1.9813865383\Si,0,1.1874172011,-1.6524156714,-1.94
 00601934\Si,0,-1.3511142485,-1.907077637,-1.4050131721\Si,0,0.36014454
 1,-3.0194576787,0.0000000389\Si,0,1.8591779117,-0.2953781736,0.0000000
 038\Si,0,1.1874172011,-1.6524156214,1.9400602361\Si,0,-1.3511142485,-1
 .9070776007,1.4050132213\\Version=AM64L-G09RevA.02\State=2-A'\HF=-3756
 .1716472\S2=0.947085\S2-1=0.\S2A=0.785239\RMSD=1.625e-09\Dipole=-0.139
 9064,1.0755604,0.\Quadrupole=9.968345,-9.5440075,-0.4243374,-0.6709184
 ,0.,0.0000001\PG=CS [SG(Si5),X(Si8)]\\@


 ALMOST ANYTHING IS EASIER TO GET INTO THAN OUT OF.

                         -- AGNES ALLEN'S LAW FROM
                PAUL DICKSON'S "THE OFFICIAL RULES"
 Diagonal vibrational polarizability:
        0.0000000       0.0000000       0.0000000

 Temperature=              298.150000 Pressure=                      1.000000
 E(ZPE)=                     0.019757 E(Thermal)=                    0.038588
 E(CCSD(T))=             -3757.144635 E(Empiric)=                   -0.187769
 DE(Plus)=                  -0.035688 DE(2DF)=                      -0.471447
 E(Delta-G3XP)=             -4.081881 DE(HF)=                       -0.086143
 G4(0 K)=                -3761.987806 G4 Energy=                 -3761.968975
 G4 Enthalpy=            -3761.968031 G4 Free Energy=            -3762.034181
 1\1\GINC-NODE68\Mixed\G4\G4\Si13(1-,2)\TAM\08-Mar-2012\0\\# G4 scfcyc=
 500 scf=xqc\\si13-an-d-01\\-1,2\Si,0,0.0943425705,2.6557357655,-1.9813
 866068\Si,0,-0.087982808,0.3001685873,1.5189873462\Si,0,-1.2262907914,
 2.3975478123,-0.0000000309\Si,0,1.3544843693,2.12949577,-0.0000000275\
 Si,0,-0.087982808,0.3001685481,-1.5189873539\Si,0,-2.0328429273,-0.005
 033097,0.0000000001\Si,0,0.0943425705,2.6557358166,1.9813865383\Si,0,1
 .1874172011,-1.6524156714,-1.9400601934\Si,0,-1.3511142485,-1.90707763
 7,-1.4050131721\Si,0,0.360144541,-3.0194576787,0.0000000389\Si,0,1.859
 1779117,-0.2953781736,0.0000000038\Si,0,1.1874172011,-1.6524156214,1.9
 400602361\Si,0,-1.3511142485,-1.9070776007,1.4050132213\\Version=AM64L
 -G09RevA.02\State=2-A'\MP2/GTBas1=-3757.0566002\MP4/GTBas1=-3757.23636
 65\CCSD(T)/G3Bas1=-3757.1446354\MP2/GTBas2=-3757.0879891\MP4/GTBas2=-3
 757.2720545\MP2/GTBas3=-3757.4808897\MP4/GTBas3=-3757.7078131\HF/GTLar
 geXP=-3756.0887558\MP2/GTLargeXP=-3761.5941592\HF/GFHFB1=-3756.1583014
 \HF/GFHFB2=-3756.1716472\G4=-3761.9878062\FreqCoord=0.178281621,5.0186
 132781,-3.7442780502,-0.1662634116,0.5672364237,2.8704700836,-2.317353
 755,4.5307087557,-0.0000000584,2.5596045093,4.0241638064,-0.0000000519
 ,-0.1662634116,0.5672363496,-2.8704700982,-3.8415164037,-0.009511175,0
 .0000000001,0.178281621,5.0186133747,3.7442779207,2.2438933156,-3.1226
 130767,-3.6661824469,-2.5532359039,-3.603854448,-2.6550901083,0.680574
 5508,-5.7059480825,0.0000000736,3.5133370855,-0.5581838538,0.000000007
 2,2.2438933156,-3.1226129821,3.6661825274,-2.5532359039,-3.6038543795,
 2.6550902013\PG=CS [SG(Si5),X(Si8)]\NImag=0\\0.04160116,0.00100865,0.0
 7713144,-0.00491604,-0.03351854,0.10551763,-0.00221204,0.00071329,0.00
 045712,0.08402971,0.00031705,0.00098564,0.00043793,-0.01031552,0.14333
 801,-0.00026388,-0.00178833,0.00087279,0.01026803,0.01285415,0.0471695
 3,-0.01640342,-0.00618477,0.01732554,0.00214900,0.00890739,0.00374402,
 0.07190447,-0.00975213,-0.00578805,0.00894617,0.00787015,-0.00140065,0
 .01103905,0.00834212,0.04695425,0.02821741,0.00233940,-0.04706602,-0.0
 0173574,0.00327499,-0.00160231,0.,0.,0.09786283,-0.01347996,0.00716030
 ,-0.01404327,-0.00253356,-0.01022277,-0.00044790,-0.03908286,0.0071973
 8,0.,0.07676722,0.01100687,-0.01014319,0.01045041,-0.00708048,-0.00009
 462,0.01210949,-0.00070725,-0.00101777,0.,-0.01386579,0.06312415,-0.02
 411745,0.00739443,-0.04400435,0.00035748,0.00306663,-0.00266990,0.,0.,
 0.00758656,0.,0.,0.09672514,-0.00691354,-0.00333870,0.00000577,0.00414
 097,0.00196482,-0.00024080,0.00214900,0.00787015,0.00173574,-0.0025335
 6,-0.00708048,-0.00035747,0.08402971,-0.00455177,-0.05893003,0.0111205
 7,0.00196482,-0.00284705,-0.00859618,0.00890739,-0.00140065,-0.0032749
 9,-0.01022277,-0.00009462,-0.00306663,-0.01031552,0.14333801,0.0010460
 8,0.01610663,-0.00415877,0.00024080,0.00859618,-0.00384939,-0.00374402
 ,-0.01103905,-0.00160231,0.00044791,-0.01210949,-0.00266990,-0.0102680
 3,-0.01285415,0.04716953,0.00012330,0.00136712,-0.00187196,-0.02885264
 ,0.00078585,-0.01620113,0.00298186,-0.00891170,0.,-0.00339053,-0.00261
 534,0.,-0.02885264,0.00078585,0.01620113,0.07208449,-0.00310538,-0.001
 99230,0.00127999,-0.00044056,-0.00445561,-0.00332573,-0.01147048,-0.02
 478475,0.,-0.00375113,-0.00017678,0.,-0.00044056,-0.00445561,0.0033257
 3,-0.00755081,0.09496228,0.00356176,0.00267711,-0.00080154,-0.02021563
 ,-0.00615036,-0.01208778,0.,0.,-0.00308435,0.,0.,-0.00256910,0.0202156
 3,0.00615036,-0.01208778,0.,0.,0.06696848,-0.00263139,0.00085911,0.000
 15992,-0.00691354,-0.00455177,-0.00104608,-0.01640342,-0.00975213,-0.0
 2821741,-0.01347996,0.01100687,0.02411745,-0.00221204,0.00031705,0.000
 26388,0.00012330,-0.00310538,-0.00356176,0.04160116,0.00085911,0.00198
 431,-0.00004318,-0.00333870,-0.05893003,-0.01610662,-0.00618478,-0.005
 78805,-0.00233940,0.00716030,-0.01014319,-0.00739443,0.00071329,0.0009
 8564,0.00178833,0.00136712,-0.00199230,-0.00267711,0.00100865,0.077131
 44,-0.00015992,0.00004318,-0.00688044,-0.00000577,-0.01112057,-0.00415
 877,-0.01732553,-0.00894617,-0.04706602,0.01404327,-0.01045041,-0.0440
 0435,-0.00045712,-0.00043793,0.00087279,0.00187196,-0.00127999,-0.0008
 0154,0.00491604,0.03351854,0.10551763,0.00060585,-0.00156489,-0.000468
 17,-0.00070654,0.00010491,-0.00286295,-0.00304338,-0.00398337,0.001895
 74,0.00057336,-0.00069522,0.00096278,-0.01841276,0.02861701,0.01198760
 ,-0.00224854,0.00119599,0.00259944,0.00086013,0.00133306,-0.00078027,0
 .05777901,0.00095911,0.00144457,-0.00162272,0.00267216,-0.00371410,-0.
 00013662,-0.00080508,-0.00011947,-0.00286754,0.00144820,0.00007461,-0.
 00097437,0.02764496,-0.04106340,-0.00702029,-0.00195233,-0.00276417,0.
 00031942,0.00046457,-0.00214717,-0.00246954,-0.01766935,0.07319600,-0.
 00136165,0.00042172,0.00221855,0.00270521,0.00263301,-0.00620527,-0.00
 149660,0.00309352,0.00210430,0.00073435,0.00022970,0.00001748,0.010557
 99,-0.00728343,-0.00305233,-0.00091334,0.00113916,-0.00367543,-0.00121
 699,-0.00134205,-0.00281422,-0.02452814,0.01856759,0.07403862,-0.00101
 640,0.00091211,0.00049649,0.00198682,-0.00054454,0.00195972,0.00135510
 ,0.00017579,-0.00283557,-0.00340069,0.00140774,-0.00021475,-0.00814469
 ,-0.01529153,-0.00405126,-0.00006319,0.01084222,0.00696300,-0.00100883
 ,-0.00065126,0.00116773,-0.02044237,-0.00110068,0.00335758,0.06195728,
 0.00131047,0.00194372,0.00026396,-0.00490845,-0.00508582,-0.00465239,0
 .00086094,-0.00130105,0.00188385,0.00009286,-0.00037607,-0.00227963,-0
 .01887447,-0.01998201,0.00165397,0.01063046,-0.02201492,-0.02430589,-0
 .00046964,-0.00056309,-0.00170787,-0.00283695,0.00145094,-0.00296198,0
 .00216259,0.05535066,0.00003499,-0.00050453,0.00013472,-0.00183829,-0.
 00113053,-0.00650382,-0.00295449,-0.00348941,-0.00053336,0.00199640,-0
 .00006007,0.00211248,-0.00201289,0.00210635,0.00047413,0.00539607,-0.0
 1627616,-0.01432453,0.00076066,-0.00001525,-0.00243093,0.00748616,-0.0
 0308484,-0.00317778,0.01589084,0.01798145,0.04937142,-0.00084913,0.000
 72708,0.00074827,-0.00170781,-0.00145017,0.00065794,0.00047613,0.00231
 178,0.,0.00030929,-0.00045301,0.,-0.00170781,-0.00145017,-0.00065794,0
 .00128112,0.00676871,0.,-0.00084913,0.00072708,-0.00074827,-0.00764037
 ,-0.00543415,0.00984945,-0.01634293,0.01127466,-0.01841548,0.05059461,
 0.00114117,-0.00194117,-0.00333042,0.00018617,-0.00746970,-0.00218960,
 -0.00407760,-0.00490750,0.,0.00375312,-0.00522502,0.,0.00018617,-0.007
 46970,0.00218960,-0.00322944,-0.00397706,0.,0.00114117,-0.00194117,0.0
 0333042,-0.00204283,-0.01147086,0.00956704,0.01118688,-0.00600495,0.00
 680749,-0.01732676,0.06837944,0.00064606,0.00060638,-0.00009617,0.0022
 4392,-0.00827121,0.00065610,0.,0.,-0.00325344,0.,0.,-0.00202324,-0.002
 24392,0.00827121,0.00065610,0.,0.,0.00152661,-0.00064606,-0.00060638,-
 0.00009617,0.01060028,0.01566609,-0.01993441,-0.01633732,0.00633671,-0
 .01299748,0.,0.,0.06952510,0.00132426,-0.00234109,0.00249379,-0.022822
 93,0.00167926,0.01236937,-0.00439420,0.00243955,0.,0.00307859,0.008363
 57,0.,-0.02282293,0.00167926,-0.01236937,-0.01087480,-0.00098083,0.,0.
 00132425,-0.00234109,-0.00249379,-0.00348559,-0.00409989,-0.00324454,-
 0.00382246,0.00085196,-0.00240069,0.00041931,-0.00006209,0.,0.06938454
 ,0.00081194,-0.00198468,0.00183841,0.00390664,0.00071935,-0.00457354,0
 .00235626,0.00097424,0.,0.00970923,-0.03562603,0.,0.00390664,0.0007193
 5,0.00457354,0.00064508,-0.00356969,0.,0.00081194,-0.00198468,-0.00183
 841,-0.00399788,-0.01359305,-0.01878734,-0.00533786,-0.00295438,0.0032
 1393,-0.00153556,-0.00049650,0.,-0.00194067,0.07434348,-0.00314368,0.0
 0486526,-0.00049125,0.01606798,-0.00936731,-0.00904298,0.,0.,-0.004916
 81,0.,0.,-0.01063077,-0.01606798,0.00936731,-0.00904298,0.,0.,-0.00106
 309,0.00314368,-0.00486526,-0.00049125,-0.00649925,-0.02127198,-0.0299
 9417,-0.00517630,0.00185723,0.00050709,0.,0.,-0.00103110,0.,0.,0.09568
 439,0.00086013,0.00133306,0.00078027,-0.01841276,0.02861701,-0.0119876
 0,-0.00304338,-0.00398337,-0.00189574,0.00057336,-0.00069522,-0.000962
 78,-0.00070654,0.00010491,0.00286295,-0.00224854,0.00119600,-0.0025994
 4,0.00060585,-0.00156489,0.00046817,0.00057788,-0.00171112,0.00264362,
 -0.00441667,0.00325061,-0.00225039,-0.00764037,-0.00204283,-0.01060028
 ,-0.00348559,-0.00399788,0.00649925,0.05777901,0.00046457,-0.00214717,
 0.00246954,0.02764496,-0.04106340,0.00702030,-0.00080508,-0.00011947,0
 .00286754,0.00144820,0.00007461,0.00097437,0.00267216,-0.00371410,0.00
 013662,-0.00195233,-0.00276417,-0.00031942,0.00095911,0.00144457,0.001
 62272,-0.00171112,-0.00014765,-0.00222361,-0.00041640,-0.00114625,-0.0
 0267119,-0.00543415,-0.01147086,-0.01566609,-0.00409989,-0.01359304,0.
 02127198,-0.01766935,0.07319600,0.00121699,0.00134205,-0.00281422,-0.0
 1055799,0.00728343,-0.00305233,0.00149660,-0.00309352,0.00210430,-0.00
 073435,-0.00022970,0.00001748,-0.00270521,-0.00263301,-0.00620527,0.00
 091334,-0.00113916,-0.00367543,0.00136165,-0.00042172,0.00221855,-0.00
 264362,0.00222361,-0.00294167,-0.00291306,0.00305335,-0.00658367,-0.00
 984945,-0.00956704,-0.01993441,0.00324454,0.01878733,-0.02999417,0.024
 52814,-0.01856759,0.07403862,-0.00100883,-0.00065126,-0.00116773,-0.00
 814469,-0.01529153,0.00405126,0.00135510,0.00017579,0.00283557,-0.0034
 0069,0.00140775,0.00021475,0.00198682,-0.00054454,-0.00195972,-0.00006
 319,0.01084222,-0.00696300,-0.00101640,0.00091211,-0.00049649,-0.00441
 667,-0.00041640,0.00291306,-0.00664096,-0.00334505,-0.00169290,-0.0163
 4293,0.01118688,0.01633732,-0.00382246,-0.00533786,0.00517630,-0.02044
 237,-0.00110068,-0.00335758,0.06195728,-0.00046964,-0.00056309,0.00170
 787,-0.01887447,-0.01998201,-0.00165397,0.00086094,-0.00130105,-0.0018
 8385,0.00009286,-0.00037607,0.00227963,-0.00490845,-0.00508582,0.00465
 239,0.01063046,-0.02201492,0.02430589,0.00131047,0.00194372,-0.0002639
 6,0.00325061,-0.00114625,-0.00305335,-0.00334505,0.00068322,-0.0028772
 5,0.01127466,-0.00600495,-0.00633671,0.00085195,-0.00295438,-0.0018572
 3,-0.00283695,0.00145094,0.00296198,0.00216259,0.05535066,-0.00076066,
 0.00001525,-0.00243093,0.00201289,-0.00210635,0.00047413,0.00295449,0.
 00348941,-0.00053336,-0.00199640,0.00006007,0.00211248,0.00183829,0.00
 113053,-0.00650382,-0.00539607,0.01627616,-0.01432454,-0.00003499,0.00
 050453,0.00013472,0.00225039,0.00267119,-0.00658367,0.00169290,0.00287
 725,-0.00604826,0.01841548,-0.00680749,-0.01299748,0.00240069,-0.00321
 393,0.00050708,-0.00748616,0.00308484,-0.00317778,-0.01589084,-0.01798
 145,0.04937142\\-0.00004817,-0.00000833,0.00000300,-0.00001982,0.00004
 989,0.00002620,0.00004647,-0.00006839,0.,0.00003096,0.00004466,0.,-0.0
 0001982,0.00004989,-0.00002620,0.00006869,0.00000531,0.,-0.00004817,-0
 .00000833,-0.00000300,0.00001530,0.00001660,0.00000079,0.00000186,0.00
 000518,0.00000846,-0.00002076,-0.00008474,0.,-0.00002370,-0.00002353,0
 .,0.00001530,0.00001660,-0.00000079,0.00000186,0.00000518,-0.00000846\
 \\@
 Job cpu time:  4 days 18 hours 15 minutes 12.3 seconds.
 File lengths (MBytes):  RWF= 525156 Int=      0 D2E=      0 Chk=    111 Scr=      1
 Normal termination of Gaussian 09 at Thu Mar  8 22:30:12 2012.
