 Entering Gaussian System, Link 0=g09
 Initial command:
 /usr/local/chem/g09A2/l1.exe /temp0/tam/Gau-12618.inp -scrdir=/temp0/tam/
 Entering Link 1 = /usr/local/chem/g09A2/l1.exe PID=     12619.
  
 Copyright (c) 1988,1990,1992,1993,1995,1998,2003,2009, Gaussian, Inc.
                  All Rights Reserved.
  
 This is part of the Gaussian(R) 09 program.  It is based on
 the Gaussian(R) 03 system (copyright 2003, Gaussian, Inc.),
 the Gaussian(R) 98 system (copyright 1998, Gaussian, Inc.),
 the Gaussian(R) 94 system (copyright 1995, Gaussian, Inc.),
 the Gaussian 92(TM) system (copyright 1992, Gaussian, Inc.),
 the Gaussian 90(TM) system (copyright 1990, Gaussian, Inc.),
 the Gaussian 88(TM) system (copyright 1988, Gaussian, Inc.),
 the Gaussian 86(TM) system (copyright 1986, Carnegie Mellon
 University), and the Gaussian 82(TM) system (copyright 1983,
 Carnegie Mellon University). Gaussian is a federally registered
 trademark of Gaussian, Inc.
  
 This software contains proprietary and confidential information,
 including trade secrets, belonging to Gaussian, Inc.
  
 This software is provided under written license and may be
 used, copied, transmitted, or stored only in accord with that
 written license.
  
 The following legend is applicable only to US Government
 contracts under FAR:
  
                    RESTRICTED RIGHTS LEGEND
  
 Use, reproduction and disclosure by the US Government is
 subject to restrictions as set forth in subparagraphs (a)
 and (c) of the Commercial Computer Software - Restricted
 Rights clause in FAR 52.227-19.
  
 Gaussian, Inc.
 340 Quinnipiac St., Bldg. 40, Wallingford CT 06492
  
  
 ---------------------------------------------------------------
 Warning -- This program may not be used in any manner that
 competes with the business of Gaussian, Inc. or will provide
 assistance to any competitor of Gaussian, Inc.  The licensee
 of this program is prohibited from giving any competitor of
 Gaussian, Inc. access to this program.  By using this program,
 the user acknowledges that Gaussian, Inc. is engaged in the
 business of creating and licensing software in the field of
 computational chemistry and represents and warrants to the
 licensee that it is not a competitor of Gaussian, Inc. and that
 it will not use this program in any manner prohibited above.
 ---------------------------------------------------------------
  

 Cite this work as:
 Gaussian 09, Revision A.02,
 M. J. Frisch, G. W. Trucks, H. B. Schlegel, G. E. Scuseria, 
 M. A. Robb, J. R. Cheeseman, G. Scalmani, V. Barone, B. Mennucci, 
 G. A. Petersson, H. Nakatsuji, M. Caricato, X. Li, H. P. Hratchian, 
 A. F. Izmaylov, J. Bloino, G. Zheng, J. L. Sonnenberg, M. Hada, 
 M. Ehara, K. Toyota, R. Fukuda, J. Hasegawa, M. Ishida, T. Nakajima, 
 Y. Honda, O. Kitao, H. Nakai, T. Vreven, J. A. Montgomery, Jr., 
 J. E. Peralta, F. Ogliaro, M. Bearpark, J. J. Heyd, E. Brothers, 
 K. N. Kudin, V. N. Staroverov, R. Kobayashi, J. Normand, 
 K. Raghavachari, A. Rendell, J. C. Burant, S. S. Iyengar, J. Tomasi, 
 M. Cossi, N. Rega, J. M. Millam, M. Klene, J. E. Knox, J. B. Cross, 
 V. Bakken, C. Adamo, J. Jaramillo, R. Gomperts, R. E. Stratmann, 
 O. Yazyev, A. J. Austin, R. Cammi, C. Pomelli, J. W. Ochterski, 
 R. L. Martin, K. Morokuma, V. G. Zakrzewski, G. A. Voth, 
 P. Salvador, J. J. Dannenberg, S. Dapprich, A. D. Daniels, 
 O. Farkas, J. B. Foresman, J. V. Ortiz, J. Cioslowski, 
 and D. J. Fox, Gaussian, Inc., Wallingford CT, 2009.
 
 ******************************************
 Gaussian 09:  AM64L-G09RevA.02 11-Jun-2009
                 4-Jan-2012 
 ******************************************
 %NprocShared=6
 Will use up to    6 processors via shared memory.
 %mem=18050MB
 %chk=S9L-ne-d-01
 ---------------------------------------
 # G4 opt=(Cartesian) scfcyc=500 scf=xqc
 ---------------------------------------
 1/10=7,14=-1,18=10,26=3,38=1/1,3;
 2/12=2,17=6,18=5,29=2,40=1/2;
 3/5=35,7=104,11=2,16=1,25=1,30=1,71=1,74=-5/1,2,3;
 4//1;
 5/5=2,7=500,8=3,13=1,38=5/2,8;
 6/7=2,8=2,9=2,10=2,28=1/1;
 7/7=1,29=1/1,2,3,16;
 1/10=7,14=-1,18=10/3(2);
 2/29=1/2;
 99/12=1/99;
 2/29=1/2;
 3/5=35,7=104,11=2,16=1,25=1,30=1,71=1,74=-5/1,2,3;
 4/5=5,16=3/1;
 5/5=2,7=500,8=3,13=1,38=5/2,8;
 7/7=1/1,2,3,16;
 1/14=-1,18=10/3(-5);
 2/29=1/2;
 6/7=2,8=2,9=2,10=2,19=2,28=1/1;
 99/9=1,12=1/99;
 ----
 s4-c
 ----
 Symbolic Z-matrix:
 Charge =  1 Multiplicity = 2
 Si                    0.        0.        1.34145 
 Si                    0.        1.87589  -0.00001 
 Si                    0.        0.       -1.34145 
 Si                    0.       -1.87589  -0.00001 
 

 GradGradGradGradGradGradGradGradGradGradGradGradGradGradGradGradGradGrad
 Berny optimization.
 Initialization pass.
 No Z-matrix variables, so optimization will use Cartesian coordinates.
 Trust Radius=3.00D-01 FncErr=1.00D-07 GrdErr=1.00D-06
 Number of steps in this run=  22 maximum allowed number of steps= 100.
 GradGradGradGradGradGradGradGradGradGradGradGradGradGradGradGradGradGrad

 ---------------------------------------------------------------------------------------------------
                            Z-MATRIX (ANGSTROMS AND DEGREES)
   CD    Cent   Atom    N1       Length/X        N2       Alpha/Y        N3        Beta/Z          J
 ---------------------------------------------------------------------------------------------------
      1      1  Si       0   0.000000          0.000000          1.341454
      2      2  Si       0   0.000000          1.875890         -0.000013
      3      3  Si       0   0.000000          0.000000         -1.341454
      4      4  Si       0   0.000000         -1.875890         -0.000013
 ---------------------------------------------------------------------------------------------------
                         Z-Matrix orientation:                         
 ---------------------------------------------------------------------
 Center     Atomic      Atomic             Coordinates (Angstroms)
 Number     Number       Type             X           Y           Z
 ---------------------------------------------------------------------
      1         14           0        0.000000    0.000000    1.341454
      2         14           0        0.000000    1.875890   -0.000013
      3         14           0        0.000000    0.000000   -1.341454
      4         14           0        0.000000   -1.875890   -0.000013
 ---------------------------------------------------------------------
                    Distance matrix (angstroms):
                    1          2          3          4
     1  Si   0.000000
     2  Si   2.306187   0.000000
     3  Si   2.682908   2.306172   0.000000
     4  Si   2.306187   3.751780   2.306172   0.000000
 Stoichiometry    Si4(1+,2)
 Framework group  C2V[C2(SiSi),SGV(Si2)]
 Deg. of freedom     3
 Full point group                 C2V     NOp   4
 Largest Abelian subgroup         C2V     NOp   4
 Largest concise Abelian subgroup C2      NOp   2
                         Standard orientation:                         
 ---------------------------------------------------------------------
 Center     Atomic      Atomic             Coordinates (Angstroms)
 Number     Number       Type             X           Y           Z
 ---------------------------------------------------------------------
      1         14           0        0.000000    0.000000    1.341461
      2         14           0        0.000000    1.875890   -0.000006
      3         14           0        0.000000    0.000000   -1.341448
      4         14           0        0.000000   -1.875890   -0.000006
 ---------------------------------------------------------------------
 Rotational constants (GHZ):      5.0192127      2.5666842      1.6982479
 Standard basis: GTBas3 (6D, 7F)
 There are    52 symmetry adapted basis functions of A1  symmetry.
 There are    16 symmetry adapted basis functions of A2  symmetry.
 There are    24 symmetry adapted basis functions of B1  symmetry.
 There are    36 symmetry adapted basis functions of B2  symmetry.
 Integral buffers will be    131072 words long.
 Raffenetti 2 integral format.
 Two-electron integral symmetry is turned on.
   128 basis functions,   272 primitive gaussians,   140 cartesian basis functions
    28 alpha electrons       27 beta electrons
       nuclear repulsion energy       246.2013765535 Hartrees.
 NAtoms=    4 NActive=    4 NUniq=    3 SFac= 1.33D+00 NAtFMM=   80 NAOKFM=F Big=F
 One-electron integrals computed using PRISM.
 NBasis=   128 RedAO= T  NBF=    52    16    24    36
 NBsUse=   128 1.00D-06 NBFU=    52    16    24    36
 Harris functional with IExCor=  402 diagonalized for initial guess.
 ExpMin= 7.78D-02 ExpMax= 1.61D+04 ExpMxC= 2.43D+03 IAcc=2 IRadAn=         0 AccDes= 0.00D+00
 HarFok:  IExCor=  402 AccDes= 0.00D+00 IRadAn=         0 IDoV= 1
 ScaDFX=  1.000000  1.000000  1.000000  1.000000
 FoFCou: FMM=F IPFlag=           0 FMFlag=      100000 FMFlg1=           0
         NFxFlg=           0 DoJE=T BraDBF=F KetDBF=T FulRan=T
         Omega=  0.000000  0.000000  1.000000  0.000000  0.000000 ICntrl=     500 IOpCl=  0
         NMat0=    1 NMatS0=    1 NMatT0=    0 NMatD0=    1 NMtDS0=    0 NMtDT0=    0
         I1Cent=           4 NGrid=           0.
 Petite list used in FoFCou.
 Initial guess orbital symmetries:
 Alpha Orbitals:
       Occupied  (A1) (A1) (A1) (B2) (A1) (A1) (A1) (B2) (B2) (B2)
                 (A1) (A1) (B1) (B1) (A1) (B2) (A1) (B2) (A2) (B1)
                 (A1) (B2) (A1) (A1) (B2) (B1) (A1) (B2)
       Virtual   (A2) (B1) (A1) (B1) (A1) (B2) (A1) (B2) (A1) (B1)
                 (B2) (A2) (A1) (B2) (A2) (B2) (A1) (A1) (A1) (B1)
                 (B1) (A1) (A2) (A1) (B1) (B1) (B2) (B2) (A1) (B2)
                 (A1) (B2) (B1) (A1) (A2) (A2) (B1) (B2) (A1) (A1)
                 (A1) (A1) (B2) (B2) (A1) (B1) (B2) (B2) (A2) (A1)
                 (B2) (B1) (A1) (A2) (B1) (A1) (B2) (A1) (B2) (A2)
                 (A1) (A1) (A1) (B1) (B1) (A1) (B2) (B2) (B1) (B1)
                 (A2) (A2) (A1) (A1) (B2) (B2) (B1) (A2) (A2) (B2)
                 (A1) (B2) (A1) (B1) (A1) (B1) (B1) (A1) (A2) (A2)
                 (B2) (A1) (B2) (A1) (B2) (A1) (A1) (B2) (A1) (A1)
 Beta  Orbitals:
       Occupied  (A1) (A1) (A1) (B2) (A1) (A1) (A1) (B2) (B2) (B2)
                 (A1) (A1) (B1) (B1) (A1) (B2) (A1) (B2) (A2) (B1)
                 (A1) (B2) (A1) (A1) (B2) (B1) (A1)
       Virtual   (B2) (A2) (B1) (A1) (B1) (A1) (B2) (A1) (B2) (A1)
                 (B1) (B2) (A2) (A1) (B2) (A2) (B2) (A1) (A1) (A1)
                 (B1) (B1) (A1) (A2) (A1) (B1) (B1) (B2) (B2) (A1)
                 (B2) (A1) (B2) (B1) (A1) (A2) (A2) (B1) (B2) (A1)
                 (A1) (A1) (A1) (B2) (B2) (A1) (B1) (B2) (B2) (A2)
                 (A1) (B2) (B1) (A1) (A2) (B1) (A1) (B2) (A1) (B2)
                 (A2) (A1) (A1) (A1) (B1) (B1) (A1) (B2) (B2) (B1)
                 (B1) (A2) (A2) (A1) (A1) (B2) (B2) (B1) (A2) (A2)
                 (B2) (A1) (B2) (A1) (B1) (A1) (B1) (B1) (A1) (A2)
                 (A2) (B2) (A1) (B2) (A1) (B2) (A1) (A1) (B2) (A1)
                 (A1)
 The electronic state of the initial guess is 2-B2.
 Initial guess <Sx>= 0.0000 <Sy>= 0.0000 <Sz>= 0.5000 <S**2>= 0.7500 S= 0.5000
 Requested convergence on RMS density matrix=1.00D-08 within 128 cycles.
 Requested convergence on MAX density matrix=1.00D-06.
 Requested convergence on             energy=1.00D-06.
 No special actions if energy rises.
 Keep R1 and R2 ints in memory in canonical form, NReq=99477209.
 Integral accuracy reduced to 1.0D-05 until final iterations.
 Initial convergence to 1.0D-05 achieved.  Increase integral accuracy.
 SCF Done:  E(UB3LYP) =  -1157.61833753     A.U. after   14 cycles
             Convg  =    0.2330D-08             -V/T =  2.0034
 <Sx>= 0.0000 <Sy>= 0.0000 <Sz>= 0.5000 <S**2>= 0.7603 S= 0.5051
 <L.S>= 0.000000000000E+00
 Annihilation of the first spin contaminant:
 S**2 before annihilation     0.7603,   after     0.7500
 QCSCF skips out because SCF is already converged.

 **********************************************************************

            Population analysis using the SCF density.

 **********************************************************************

 Orbital symmetries:
 Alpha Orbitals:
       Occupied  (A1) (B2) (A1) (A1) (B2) (A1) (A1) (A1) (A2) (B1)
                 (A1) (B2) (A1) (B2) (B1) (B1) (A1) (A1) (B2) (B2)
                 (A1) (B2) (A1) (A1) (B2) (B1) (A1) (B2)
       Virtual   (A2) (B1) (A1) (B1) (A1) (B2) (A1) (B2) (A1) (B1)
                 (A2) (B2) (B2) (A1) (A2) (B2) (A1) (A1) (A1) (B1)
                 (B1) (A2) (A1) (B1) (A1) (B2) (B1) (B2) (A1) (B2)
                 (A1) (B2) (B1) (A2) (A1) (B1) (A2) (B2) (A1) (A1)
                 (A1) (A1) (B2) (B2) (A1) (B1) (B2) (B2) (A2) (B2)
                 (B1) (A1) (A1) (B1) (A2) (A1) (B2) (A1) (A2) (B2)
                 (A1) (A1) (A1) (B1) (B1) (A1) (B2) (B2) (B1) (B1)
                 (A2) (A2) (A1) (A1) (B2) (B2) (A2) (B1) (A2) (B2)
                 (A1) (B2) (A1) (B1) (A1) (B1) (B1) (A1) (A2) (A2)
                 (B2) (A1) (B2) (A1) (B2) (A1) (A1) (B2) (A1) (A1)
 Beta  Orbitals:
       Occupied  (A1) (B2) (A1) (A1) (A1) (B2) (A1) (A1) (A2) (B1)
                 (A1) (B2) (A1) (B2) (B1) (B1) (A1) (A1) (B2) (B2)
                 (A1) (B2) (A1) (A1) (B2) (B1) (A1)
       Virtual   (B2) (A2) (B1) (A1) (B1) (A1) (B2) (A1) (B2) (A1)
                 (B1) (A2) (B2) (A1) (B2) (B2) (A2) (A1) (A1) (A1)
                 (B1) (B1) (A1) (A2) (B1) (A1) (B1) (B2) (B2) (A1)
                 (B2) (A1) (B2) (B1) (A2) (A1) (A2) (B1) (B2) (A1)
                 (A1) (A1) (A1) (B2) (B2) (A1) (B1) (B2) (B2) (A2)
                 (B1) (B2) (A1) (A1) (B1) (A2) (A1) (A1) (A2) (B2)
                 (B2) (A1) (A1) (A1) (B1) (B1) (A1) (B2) (B2) (B1)
                 (B1) (A2) (A2) (A1) (A1) (B2) (B2) (A2) (B1) (A2)
                 (B2) (A1) (B2) (A1) (B1) (A1) (B1) (B1) (A1) (A2)
                 (A2) (B2) (A1) (B2) (A1) (B2) (A1) (A1) (B2) (A1)
                 (A1)
 The electronic state is 2-B2.
 Alpha  occ. eigenvalues --  -66.37208 -66.37208 -66.34467 -66.34466  -5.51637
 Alpha  occ. eigenvalues --   -5.51637  -5.49192  -5.49189  -3.87642  -3.87641
 Alpha  occ. eigenvalues --   -3.87440  -3.87438  -3.87303  -3.87298  -3.85191
 Alpha  occ. eigenvalues --   -3.85190  -3.84903  -3.84900  -3.84868  -3.84867
 Alpha  occ. eigenvalues --   -0.80065  -0.68462  -0.62213  -0.53142  -0.46312
 Alpha  occ. eigenvalues --   -0.44567  -0.43072  -0.42125
 Alpha virt. eigenvalues --   -0.32311  -0.28244  -0.28146  -0.21680  -0.18628
 Alpha virt. eigenvalues --   -0.16150  -0.14760  -0.12108  -0.08558  -0.02559
 Alpha virt. eigenvalues --   -0.00762  -0.00634  -0.00481   0.00014   0.01445
 Alpha virt. eigenvalues --    0.01508   0.01907   0.03521   0.06222   0.08010
 Alpha virt. eigenvalues --    0.08922   0.09760   0.09832   0.11800   0.12577
 Alpha virt. eigenvalues --    0.13659   0.13681   0.17447   0.18995   0.19461
 Alpha virt. eigenvalues --    0.20965   0.26848   0.28737   0.30207   0.30588
 Alpha virt. eigenvalues --    0.30686   0.30828   0.32567   0.37852   0.43682
 Alpha virt. eigenvalues --    0.49068   0.51541   0.53493   0.56705   0.58321
 Alpha virt. eigenvalues --    0.62767   0.68464   0.69183   0.69838   0.72646
 Alpha virt. eigenvalues --    0.72961   0.73875   0.74489   0.76857   0.77148
 Alpha virt. eigenvalues --    0.83365   0.83478   0.84126   0.84470   0.86830
 Alpha virt. eigenvalues --    0.89391   0.92657   0.99454   1.00714   1.00836
 Alpha virt. eigenvalues --    1.03235   1.04434   1.04932   1.10193   1.12965
 Alpha virt. eigenvalues --    1.14755   1.16329   1.17460   1.25096   1.29960
 Alpha virt. eigenvalues --    1.31728   1.43885   1.44933   1.48420   1.49819
 Alpha virt. eigenvalues --    1.52135   1.53785   1.54498   1.54663   1.57483
 Alpha virt. eigenvalues --    1.65586   1.68006   1.69678   1.70649   1.73198
 Alpha virt. eigenvalues --    1.73218   1.75653   1.88137   1.89444   1.96046
 Alpha virt. eigenvalues --    2.01063   2.23366   2.42784   2.49621   2.61053
  Beta  occ. eigenvalues --  -66.37027 -66.37027 -66.34426 -66.34426  -5.51430
  Beta  occ. eigenvalues --   -5.51429  -5.49150  -5.49148  -3.87522  -3.87521
  Beta  occ. eigenvalues --   -3.87197  -3.87192  -3.86838  -3.86837  -3.85177
  Beta  occ. eigenvalues --   -3.85177  -3.84898  -3.84895  -3.84686  -3.84685
  Beta  occ. eigenvalues --   -0.79066  -0.66788  -0.61727  -0.49960  -0.45571
  Beta  occ. eigenvalues --   -0.44346  -0.42618
  Beta virt. eigenvalues --   -0.34466  -0.31688  -0.28196  -0.27803  -0.20890
  Beta virt. eigenvalues --   -0.18108  -0.15741  -0.13035  -0.10605  -0.08224
  Beta virt. eigenvalues --   -0.02221  -0.00474  -0.00220   0.00167   0.00623
  Beta virt. eigenvalues --    0.02347   0.02887   0.03094   0.03530   0.06591
  Beta virt. eigenvalues --    0.08279   0.08957   0.10348   0.10377   0.12007
  Beta virt. eigenvalues --    0.12664   0.13792   0.14332   0.17847   0.19265
  Beta virt. eigenvalues --    0.20542   0.22071   0.27627   0.28793   0.30802
  Beta virt. eigenvalues --    0.30827   0.31606   0.32134   0.33274   0.39159
  Beta virt. eigenvalues --    0.43882   0.49715   0.52065   0.54804   0.57514
  Beta virt. eigenvalues --    0.58990   0.62924   0.69558   0.69574   0.71323
  Beta virt. eigenvalues --    0.73252   0.73882   0.74169   0.74543   0.77819
  Beta virt. eigenvalues --    0.77927   0.83561   0.84629   0.84650   0.84722
  Beta virt. eigenvalues --    0.87501   0.90425   0.93384   0.99681   1.00629
  Beta virt. eigenvalues --    1.01966   1.04401   1.05210   1.05346   1.10532
  Beta virt. eigenvalues --    1.13439   1.15479   1.17028   1.18693   1.25533
  Beta virt. eigenvalues --    1.30525   1.32780   1.43970   1.45013   1.49016
  Beta virt. eigenvalues --    1.50162   1.52682   1.54347   1.54632   1.54795
  Beta virt. eigenvalues --    1.57902   1.66313   1.67975   1.69683   1.71248
  Beta virt. eigenvalues --    1.73454   1.74096   1.75953   1.88602   1.89923
  Beta virt. eigenvalues --    1.96692   2.01766   2.23725   2.43641   2.49731
  Beta virt. eigenvalues --    2.61633
          Condensed to atoms (all electrons):
              1          2          3          4
     1  Si  13.258449   0.233266   0.102866   0.233266
     2  Si   0.233266  13.198295   0.233272   0.007318
     3  Si   0.102866   0.233272  13.258442   0.233272
     4  Si   0.233266   0.007318   0.233272  13.198295
 Mulliken atomic charges:
              1
     1  Si   0.172153
     2  Si   0.327849
     3  Si   0.172148
     4  Si   0.327849
 Sum of Mulliken atomic charges =   1.00000
 Mulliken charges with hydrogens summed into heavy atoms:
              1
     1  Si   0.172153
     2  Si   0.327849
     3  Si   0.172148
     4  Si   0.327849
 Sum of Mulliken charges with hydrogens summed into heavy atoms =   1.00000
          Atomic-Atomic Spin Densities.
              1          2          3          4
     1  Si   0.049170   0.020664  -0.016125   0.020664
     2  Si   0.020664   0.397790   0.020665  -0.013490
     3  Si  -0.016125   0.020665   0.049165   0.020665
     4  Si   0.020664  -0.013490   0.020665   0.397790
 Mulliken atomic spin densities:
              1
     1  Si   0.074373
     2  Si   0.425629
     3  Si   0.074369
     4  Si   0.425629
 Sum of Mulliken atomic spin densities =   1.00000
 Electronic spatial extent (au):  <R**2>=            620.3481
 Charge=              1.0000 electrons
 Dipole moment (field-independent basis, Debye):
    X=              0.0000    Y=              0.0000    Z=              0.0000  Tot=              0.0000
 Quadrupole moment (field-independent basis, Debye-Ang):
   XX=            -44.7612   YY=            -31.9565   ZZ=            -42.3932
   XY=              0.0000   XZ=              0.0000   YZ=              0.0000
 Traceless Quadrupole moment (field-independent basis, Debye-Ang):
   XX=             -5.0576   YY=              7.7471   ZZ=             -2.6896
   XY=              0.0000   XZ=              0.0000   YZ=              0.0000
 Octapole moment (field-independent basis, Debye-Ang**2):
  XXX=              0.0000  YYY=              0.0000  ZZZ=              0.0000  XYY=              0.0000
  XXY=              0.0000  XXZ=              0.0000  XZZ=              0.0000  YZZ=              0.0000
  YYZ=             -0.0002  XYZ=              0.0000
 Hexadecapole moment (field-independent basis, Debye-Ang**3):
 XXXX=            -74.3937 YYYY=           -497.1281 ZZZZ=           -326.6021 XXXY=              0.0000
 XXXZ=              0.0000 YYYX=              0.0000 YYYZ=              0.0000 ZZZX=              0.0000
 ZZZY=              0.0000 XXYY=            -97.9679 XXZZ=            -65.8031 YYZZ=           -151.1464
 XXYZ=              0.0000 YYXZ=              0.0000 ZZXY=              0.0000
 N-N= 2.462013765535D+02 E-N=-4.848615962816D+03  KE= 1.729861921937D+03
 Symmetry A1   KE= 1.110427223174D+03
 Symmetry A2   KE= 3.644364616660D+01
 Symmetry B1   KE= 1.119811577873D+02
 Symmetry B2   KE= 4.710098948089D+02
                          Isotropic Fermi Contact Couplings
        Atom                 a.u.       MegaHertz       Gauss      10(-4) cm-1
     1  Si(29)            -0.02905      25.81750       9.21233       8.61179
     2  Si(29)             0.16182    -143.81629     -51.31723     -47.97195
     3  Si(29)            -0.02905      25.81850       9.21268       8.61213
     4  Si(29)             0.16182    -143.81629     -51.31723     -47.97195
 --------------------------------------------------------
       Center         ----  Spin Dipole Couplings  ----
                      3XX-RR        3YY-RR        3ZZ-RR
 --------------------------------------------------------
     1   Atom       -0.157627      0.330412     -0.172785
     2   Atom       -0.454341      0.936597     -0.482256
     3   Atom       -0.157626      0.330408     -0.172783
     4   Atom       -0.454341      0.936597     -0.482256
 --------------------------------------------------------
                        XY            XZ            YZ
 --------------------------------------------------------
     1   Atom        0.000000      0.000000      0.000000
     2   Atom        0.000000      0.000000     -0.000009
     3   Atom        0.000000      0.000000      0.000000
     4   Atom        0.000000      0.000000      0.000009
 --------------------------------------------------------


 ---------------------------------------------------------------------------------
              Anisotropic Spin Dipole Couplings in Principal Axis System
 ---------------------------------------------------------------------------------

       Atom             a.u.   MegaHertz   Gauss  10(-4) cm-1        Axes

              Baa    -0.1728    18.330     6.541     6.114  0.0000  0.0000  1.0000
     1 Si(29) Bbb    -0.1576    16.722     5.967     5.578  1.0000  0.0000  0.0000
              Bcc     0.3304   -35.051   -12.507   -11.692  0.0000  1.0000  0.0000
 
              Baa    -0.4823    51.160    18.255    17.065  0.0000  0.0000  1.0000
     2 Si(29) Bbb    -0.4543    48.198    17.198    16.077  1.0000  0.0000  0.0000
              Bcc     0.9366   -99.358   -35.453   -33.142  0.0000  1.0000  0.0000
 
              Baa    -0.1728    18.329     6.540     6.114  0.0000  0.0000  1.0000
     3 Si(29) Bbb    -0.1576    16.722     5.967     5.578  1.0000  0.0000  0.0000
              Bcc     0.3304   -35.051   -12.507   -11.692  0.0000  1.0000  0.0000
 
              Baa    -0.4823    51.160    18.255    17.065  0.0000  0.0000  1.0000
     4 Si(29) Bbb    -0.4543    48.198    17.198    16.077  1.0000  0.0000  0.0000
              Bcc     0.9366   -99.358   -35.453   -33.142  0.0000  1.0000  0.0000
 

 ---------------------------------------------------------------------------------

 Calling FoFJK, ICntrl=      2127 FMM=F ISym2X=1 I1Cent= 0 IOpClX= 1 NMat=1 NMatS=1 NMatT=0.
 ***** Axes restored to original set *****
 -------------------------------------------------------------------
 Center     Atomic                   Forces (Hartrees/Bohr)
 Number     Number              X              Y              Z
 -------------------------------------------------------------------
      1       14           0.000000000    0.000000000   -0.000448227
      2       14           0.000000000   -0.001442656    0.000001026
      3       14           0.000000000    0.000000000    0.000446175
      4       14           0.000000000    0.001442656    0.000001026
 -------------------------------------------------------------------
 Cartesian Forces:  Max     0.001442656 RMS     0.000616610

 GradGradGradGradGradGradGradGradGradGradGradGradGradGradGradGradGradGrad
 Berny optimization.
 Search for a local minimum.
 Step number   1 out of a maximum of   22
 All quantities printed in internal units (Hartrees-Bohrs-Radians)
 Second derivative matrix not updated -- first step.
 The second derivative matrix:
                          X1        Y1        Z1        X2        Y2
           X1           0.02311
           Y1           0.00000   0.22145
           Z1           0.00000   0.00000   0.23147
           X2          -0.00672   0.00000   0.00000   0.00672
           Y2           0.00000  -0.10889   0.03717   0.00000   0.22669
           Z2           0.00000   0.08049  -0.07498   0.00000   0.00000
           X3          -0.00966   0.00000   0.00000  -0.00672   0.00000
           Y3           0.00000  -0.00367   0.00000   0.00000  -0.10889
           Z3           0.00000   0.00000  -0.08152   0.00000  -0.03718
           X4          -0.00672   0.00000   0.00000   0.00672   0.00000
           Y4           0.00000  -0.10889  -0.03717   0.00000  -0.00891
           Z4           0.00000  -0.08049  -0.07498   0.00000   0.00000
                          Z2        X3        Y3        Z3        X4
           Z2           0.13254
           X3           0.00000   0.02311
           Y3          -0.08049   0.00000   0.22146
           Z3          -0.07498   0.00000   0.00000   0.23148
           X4           0.00000  -0.00672   0.00000   0.00000   0.00672
           Y4           0.00000   0.00000  -0.10889   0.03718   0.00000
           Z4           0.01742   0.00000   0.08049  -0.07498   0.00000
                          Y4        Z4
           Y4           0.22669
           Z4           0.00000   0.13254
     Eigenvalues ---    0.02689   0.19048   0.29992   0.34025   0.35811
     Eigenvalues ---    0.43557
 RFO step:  Lambda=-1.76682443D-05 EMin= 2.68891612D-02
 ClnCor:  largest displacement from symmetrization is 4.57D-14 for atom     4.
 Linear search not attempted -- first point.
 ClnCor:  largest displacement from symmetrization is 3.39D-21 for atom     4.
 TrRot=  0.000000  0.000000  0.000000  0.000000  0.000000  0.000000
 Variable       Old X    -DE/DX   Delta X   Delta X   Delta X     New X
                                 (Linear)    (Quad)   (Total)
    X1        0.00000   0.00000   0.00000   0.00000   0.00000   0.00000
    Y1        0.00000   0.00000   0.00000   0.00000   0.00000   0.00000
    Z1        2.53498  -0.00045   0.00000   0.00002   0.00002   2.53500
    X2        0.00000   0.00000   0.00000   0.00000   0.00000   0.00000
    Y2        3.54492  -0.00144   0.00000  -0.00613  -0.00613   3.53879
    Z2       -0.00002   0.00000   0.00000   0.00000   0.00000  -0.00002
    X3        0.00000   0.00000   0.00000   0.00000   0.00000   0.00000
    Y3        0.00000   0.00000   0.00000   0.00000   0.00000   0.00000
    Z3       -2.53498   0.00045   0.00000  -0.00003  -0.00003  -2.53501
    X4        0.00000   0.00000   0.00000   0.00000   0.00000   0.00000
    Y4       -3.54492   0.00144   0.00000   0.00613   0.00613  -3.53879
    Z4       -0.00002   0.00000   0.00000   0.00000   0.00000  -0.00002
         Item               Value     Threshold  Converged?
 Maximum Force            0.001443     0.000450     NO 
 RMS     Force            0.000617     0.000300     NO 
 Maximum Displacement     0.006132     0.001800     NO 
 RMS     Displacement     0.002503     0.001200     NO 
 Predicted change in Energy=-8.834122D-06
 GradGradGradGradGradGradGradGradGradGradGradGradGradGradGradGradGradGrad

                          Input orientation:                          
 ---------------------------------------------------------------------
 Center     Atomic      Atomic             Coordinates (Angstroms)
 Number     Number       Type             X           Y           Z
 ---------------------------------------------------------------------
      1         14           0        0.000000    0.000000    1.341467
      2         14           0        0.000000    1.872645   -0.000011
      3         14           0        0.000000    0.000000   -1.341470
      4         14           0        0.000000   -1.872645   -0.000011
 ---------------------------------------------------------------------
                    Distance matrix (angstroms):
                    1          2          3          4
     1  Si   0.000000
     2  Si   2.303555   0.000000
     3  Si   2.682937   2.303544   0.000000
     4  Si   2.303555   3.745291   2.303544   0.000000
 Stoichiometry    Si4(1+,2)
 Framework group  C2V[C2(SiSi),SGV(Si2)]
 Deg. of freedom     3
 Full point group                 C2V     NOp   4
 Largest Abelian subgroup         C2V     NOp   4
 Largest concise Abelian subgroup C2      NOp   2
                         Standard orientation:                         
 ---------------------------------------------------------------------
 Center     Atomic      Atomic             Coordinates (Angstroms)
 Number     Number       Type             X           Y           Z
 ---------------------------------------------------------------------
      1         14           0        0.000000    0.000000    1.341473
      2         14           0        0.000000    1.872645   -0.000005
      3         14           0        0.000000    0.000000   -1.341464
      4         14           0        0.000000   -1.872645   -0.000005
 ---------------------------------------------------------------------
 Rotational constants (GHZ):      5.0191029      2.5755864      1.7021280
 Standard basis: GTBas3 (6D, 7F)
 There are    52 symmetry adapted basis functions of A1  symmetry.
 There are    16 symmetry adapted basis functions of A2  symmetry.
 There are    24 symmetry adapted basis functions of B1  symmetry.
 There are    36 symmetry adapted basis functions of B2  symmetry.
 Integral buffers will be    131072 words long.
 Raffenetti 2 integral format.
 Two-electron integral symmetry is turned on.
   128 basis functions,   272 primitive gaussians,   140 cartesian basis functions
    28 alpha electrons       27 beta electrons
       nuclear repulsion energy       246.4542463294 Hartrees.
 NAtoms=    4 NActive=    4 NUniq=    3 SFac= 1.33D+00 NAtFMM=   80 NAOKFM=F Big=F
 One-electron integrals computed using PRISM.
 NBasis=   128 RedAO= T  NBF=    52    16    24    36
 NBsUse=   128 1.00D-06 NBFU=    52    16    24    36
 Initial guess read from the read-write file.
 B after Tr=     0.000000    0.000000    0.000000
         Rot=    1.000000    0.000000    0.000000    0.000000 Ang=   0.00 deg.
 Initial guess orbital symmetries:
 Alpha Orbitals:
       Occupied  (A1) (B2) (A1) (A1) (B2) (A1) (A1) (A1) (A2) (B1)
                 (A1) (B2) (A1) (B2) (B1) (B1) (A1) (A1) (B2) (B2)
                 (A1) (B2) (A1) (A1) (B2) (B1) (A1) (B2)
       Virtual   (A2) (B1) (A1) (B1) (A1) (B2) (A1) (B2) (A1) (B1)
                 (A2) (B2) (B2) (A1) (A2) (B2) (A1) (A1) (A1) (B1)
                 (B1) (A2) (A1) (B1) (A1) (B2) (B1) (B2) (A1) (B2)
                 (A1) (B2) (B1) (A2) (A1) (B1) (A2) (B2) (A1) (A1)
                 (A1) (A1) (B2) (B2) (A1) (B1) (B2) (B2) (A2) (B2)
                 (B1) (A1) (A1) (B1) (A2) (A1) (B2) (A1) (A2) (B2)
                 (A1) (A1) (A1) (B1) (B1) (A1) (B2) (B2) (B1) (B1)
                 (A2) (A2) (A1) (A1) (B2) (B2) (A2) (B1) (A2) (B2)
                 (A1) (B2) (A1) (B1) (A1) (B1) (B1) (A1) (A2) (A2)
                 (B2) (A1) (B2) (A1) (B2) (A1) (A1) (B2) (A1) (A1)
 Beta  Orbitals:
       Occupied  (A1) (B2) (A1) (A1) (A1) (B2) (A1) (A1) (A2) (B1)
                 (A1) (B2) (A1) (B2) (B1) (B1) (A1) (A1) (B2) (B2)
                 (A1) (B2) (A1) (A1) (B2) (B1) (A1)
       Virtual   (B2) (A2) (B1) (A1) (B1) (A1) (B2) (A1) (B2) (A1)
                 (B1) (A2) (B2) (A1) (B2) (B2) (A2) (A1) (A1) (A1)
                 (B1) (B1) (A1) (A2) (B1) (A1) (B1) (B2) (B2) (A1)
                 (B2) (A1) (B2) (B1) (A2) (A1) (A2) (B1) (B2) (A1)
                 (A1) (A1) (A1) (B2) (B2) (A1) (B1) (B2) (B2) (A2)
                 (B1) (B2) (A1) (A1) (B1) (A2) (A1) (A1) (A2) (B2)
                 (B2) (A1) (A1) (A1) (B1) (B1) (A1) (B2) (B2) (B1)
                 (B1) (A2) (A2) (A1) (A1) (B2) (B2) (A2) (B1) (A2)
                 (B2) (A1) (B2) (A1) (B1) (A1) (B1) (B1) (A1) (A2)
                 (A2) (B2) (A1) (B2) (A1) (B2) (A1) (A1) (B2) (A1)
                 (A1)
 Initial guess <Sx>= 0.0000 <Sy>= 0.0000 <Sz>= 0.5000 <S**2>= 0.7603 S= 0.5051
 Requested convergence on RMS density matrix=1.00D-08 within 128 cycles.
 Requested convergence on MAX density matrix=1.00D-06.
 Requested convergence on             energy=1.00D-06.
 No special actions if energy rises.
 Keep R1 and R2 ints in memory in canonical form, NReq=99477209.
 SCF Done:  E(UB3LYP) =  -1157.61834949     A.U. after    8 cycles
             Convg  =    0.3918D-08             -V/T =  2.0034
 <Sx>= 0.0000 <Sy>= 0.0000 <Sz>= 0.5000 <S**2>= 0.7603 S= 0.5051
 <L.S>= 0.000000000000E+00
 Annihilation of the first spin contaminant:
 S**2 before annihilation     0.7603,   after     0.7500
 QCSCF skips out because SCF is already converged.
 Calling FoFJK, ICntrl=      2127 FMM=F ISym2X=1 I1Cent= 0 IOpClX= 1 NMat=1 NMatS=1 NMatT=0.
 ***** Axes restored to original set *****
 -------------------------------------------------------------------
 Center     Atomic                   Forces (Hartrees/Bohr)
 Number     Number              X              Y              Z
 -------------------------------------------------------------------
      1       14           0.000000000    0.000000000   -0.000062933
      2       14           0.000000000   -0.000509144    0.000000748
      3       14           0.000000000    0.000000000    0.000061437
      4       14           0.000000000    0.000509144    0.000000748
 -------------------------------------------------------------------
 Cartesian Forces:  Max     0.000509144 RMS     0.000209402

 GradGradGradGradGradGradGradGradGradGradGradGradGradGradGradGradGradGrad
 Berny optimization.
 Search for a local minimum.
 Step number   2 out of a maximum of   22
 All quantities printed in internal units (Hartrees-Bohrs-Radians)
 Update second derivatives using D2CorN and points    1    2
 DE= -1.20D-05 DEPred=-8.83D-06 R= 1.35D+00
 SS=  1.41D+00  RLast= 8.67D-03 DXNew= 5.0454D-01 2.6015D-02
 Trust test= 1.35D+00 RLast= 8.67D-03 DXMaxT set to 3.00D-01
 The second derivative matrix:
                          X1        Y1        Z1        X2        Y2
           X1           0.02311
           Y1           0.00000   0.22145
           Z1           0.00000   0.00000   0.23149
           X2          -0.00672   0.00000   0.00000   0.00672
           Y2           0.00000  -0.10889   0.03469   0.00000   0.18518
           Z2           0.00000   0.08049  -0.07498   0.00000   0.00004
           X3          -0.00966   0.00000   0.00000  -0.00672   0.00000
           Y3           0.00000  -0.00367   0.00000   0.00000  -0.10889
           Z3           0.00000   0.00000  -0.08154   0.00000  -0.03478
           X4          -0.00672   0.00000   0.00000   0.00672   0.00000
           Y4           0.00000  -0.10889  -0.03469   0.00000   0.03260
           Z4           0.00000  -0.08049  -0.07498   0.00000   0.00004
                          Z2        X3        Y3        Z3        X4
           Z2           0.13254
           X3           0.00000   0.02311
           Y3          -0.08049   0.00000   0.22146
           Z3          -0.07498   0.00000   0.00000   0.23150
           X4           0.00000  -0.00672   0.00000   0.00000   0.00672
           Y4          -0.00004   0.00000  -0.10889   0.03478   0.00000
           Z4           0.01742   0.00000   0.08049  -0.07498   0.00000
                          Y4        Z4
           Y4           0.18518
           Z4          -0.00004   0.13254
     Eigenvalues ---    0.02689   0.12669   0.29992   0.33893   0.34025
     Eigenvalues ---    0.43557
 RFO step:  Lambda=-1.51994299D-07 EMin= 2.68891612D-02
 ClnCor:  largest displacement from symmetrization is 1.47D-13 for atom     4.
 Quartic linear search produced a step of  0.54216.
 ClnCor:  largest displacement from symmetrization is 1.94D-15 for atom     4.
 TrRot=  0.000000  0.000000  0.000000  0.000000  0.000000  0.000000
 Variable       Old X    -DE/DX   Delta X   Delta X   Delta X     New X
                                 (Linear)    (Quad)   (Total)
    X1        0.00000   0.00000   0.00000   0.00000   0.00000   0.00000
    Y1        0.00000   0.00000   0.00000   0.00000   0.00000   0.00000
    Z1        2.53500  -0.00006   0.00001   0.00052   0.00053   2.53554
    X2        0.00000   0.00000   0.00000   0.00000   0.00000   0.00000
    Y2        3.53879  -0.00051  -0.00332  -0.00023  -0.00356   3.53523
    Z2       -0.00002   0.00000   0.00000   0.00000   0.00000  -0.00002
    X3        0.00000   0.00000   0.00000   0.00000   0.00000   0.00000
    Y3        0.00000   0.00000   0.00000   0.00000   0.00000   0.00000
    Z3       -2.53501   0.00006  -0.00002  -0.00052  -0.00054  -2.53555
    X4        0.00000   0.00000   0.00000   0.00000   0.00000   0.00000
    Y4       -3.53879   0.00051   0.00332   0.00023   0.00356  -3.53523
    Z4       -0.00002   0.00000   0.00000   0.00000   0.00000  -0.00002
         Item               Value     Threshold  Converged?
 Maximum Force            0.000509     0.000450     NO 
 RMS     Force            0.000209     0.000300     YES
 Maximum Displacement     0.003557     0.001800     NO 
 RMS     Displacement     0.001468     0.001200     NO 
 Predicted change in Energy=-1.799770D-06
 GradGradGradGradGradGradGradGradGradGradGradGradGradGradGradGradGradGrad

                          Input orientation:                          
 ---------------------------------------------------------------------
 Center     Atomic      Atomic             Coordinates (Angstroms)
 Number     Number       Type             X           Y           Z
 ---------------------------------------------------------------------
      1         14           0        0.000000    0.000000    1.341748
      2         14           0        0.000000    1.870763   -0.000009
      3         14           0        0.000000    0.000000   -1.341756
      4         14           0        0.000000   -1.870763   -0.000009
 ---------------------------------------------------------------------
                    Distance matrix (angstroms):
                    1          2          3          4
     1  Si   0.000000
     2  Si   2.302187   0.000000
     3  Si   2.683503   2.302181   0.000000
     4  Si   2.302187   3.741526   2.302181   0.000000
 Stoichiometry    Si4(1+,2)
 Framework group  C2V[C2(SiSi),SGV(Si2)]
 Deg. of freedom     3
 Full point group                 C2V     NOp   4
 Largest Abelian subgroup         C2V     NOp   4
 Largest concise Abelian subgroup C2      NOp   2
                         Standard orientation:                         
 ---------------------------------------------------------------------
 Center     Atomic      Atomic             Coordinates (Angstroms)
 Number     Number       Type             X           Y           Z
 ---------------------------------------------------------------------
      1         14           0        0.000000    0.000000    1.341754
      2         14           0        0.000000    1.870763   -0.000003
      3         14           0        0.000000    0.000000   -1.341749
      4         14           0        0.000000   -1.870763   -0.000003
 ---------------------------------------------------------------------
 Rotational constants (GHZ):      5.0169863      2.5807713      1.7041468
 Standard basis: GTBas3 (6D, 7F)
 There are    52 symmetry adapted basis functions of A1  symmetry.
 There are    16 symmetry adapted basis functions of A2  symmetry.
 There are    24 symmetry adapted basis functions of B1  symmetry.
 There are    36 symmetry adapted basis functions of B2  symmetry.
 Integral buffers will be    131072 words long.
 Raffenetti 2 integral format.
 Two-electron integral symmetry is turned on.
   128 basis functions,   272 primitive gaussians,   140 cartesian basis functions
    28 alpha electrons       27 beta electrons
       nuclear repulsion energy       246.5807269193 Hartrees.
 NAtoms=    4 NActive=    4 NUniq=    3 SFac= 1.33D+00 NAtFMM=   80 NAOKFM=F Big=F
 One-electron integrals computed using PRISM.
 NBasis=   128 RedAO= T  NBF=    52    16    24    36
 NBsUse=   128 1.00D-06 NBFU=    52    16    24    36
 Initial guess read from the read-write file.
 B after Tr=     0.000000    0.000000    0.000000
         Rot=    1.000000    0.000000    0.000000    0.000000 Ang=   0.00 deg.
 Initial guess orbital symmetries:
 Alpha Orbitals:
       Occupied  (A1) (B2) (A1) (A1) (B2) (A1) (A1) (A1) (A2) (B1)
                 (A1) (B2) (A1) (B2) (B1) (B1) (A1) (A1) (B2) (B2)
                 (A1) (B2) (A1) (A1) (B2) (B1) (A1) (B2)
       Virtual   (A2) (B1) (A1) (B1) (A1) (B2) (A1) (B2) (A1) (B1)
                 (A2) (B2) (B2) (A1) (A2) (B2) (A1) (A1) (A1) (B1)
                 (B1) (A2) (A1) (B1) (A1) (B1) (B2) (B2) (A1) (B2)
                 (A1) (B2) (B1) (A2) (A1) (B1) (A2) (B2) (A1) (A1)
                 (A1) (A1) (B2) (B2) (A1) (B1) (B2) (B2) (A2) (B2)
                 (B1) (A1) (A1) (B1) (A2) (A1) (B2) (A1) (A2) (B2)
                 (A1) (A1) (A1) (B1) (B1) (A1) (B2) (B2) (B1) (B1)
                 (A2) (A2) (A1) (A1) (B2) (B2) (A2) (B1) (A2) (B2)
                 (A1) (B2) (A1) (B1) (A1) (B1) (B1) (A1) (A2) (B2)
                 (A2) (A1) (B2) (A1) (B2) (A1) (A1) (B2) (A1) (A1)
 Beta  Orbitals:
       Occupied  (A1) (B2) (A1) (A1) (A1) (B2) (A1) (A1) (A2) (B1)
                 (A1) (B2) (A1) (B2) (B1) (B1) (A1) (A1) (B2) (B2)
                 (A1) (B2) (A1) (A1) (B2) (B1) (A1)
       Virtual   (B2) (A2) (B1) (A1) (B1) (A1) (B2) (A1) (B2) (A1)
                 (B1) (A2) (B2) (A1) (B2) (B2) (A2) (A1) (A1) (A1)
                 (B1) (B1) (A1) (A2) (B1) (A1) (B1) (B2) (B2) (A1)
                 (B2) (A1) (B2) (B1) (A1) (A2) (A2) (B1) (B2) (A1)
                 (A1) (A1) (A1) (B2) (B2) (A1) (B1) (B2) (B2) (A2)
                 (B1) (B2) (A1) (A1) (B1) (A2) (A1) (A1) (A2) (B2)
                 (B2) (A1) (A1) (A1) (B1) (B1) (A1) (B2) (B2) (B1)
                 (B1) (A2) (A2) (A1) (A1) (B2) (B2) (A2) (B1) (A2)
                 (B2) (A1) (B2) (A1) (B1) (A1) (B1) (B1) (A1) (A2)
                 (A2) (B2) (A1) (B2) (A1) (B2) (A1) (A1) (B2) (A1)
                 (A1)
 Initial guess <Sx>= 0.0000 <Sy>= 0.0000 <Sz>= 0.5000 <S**2>= 0.7603 S= 0.5051
 Requested convergence on RMS density matrix=1.00D-08 within 128 cycles.
 Requested convergence on MAX density matrix=1.00D-06.
 Requested convergence on             energy=1.00D-06.
 No special actions if energy rises.
 Keep R1 and R2 ints in memory in canonical form, NReq=99477209.
 SCF Done:  E(UB3LYP) =  -1157.61835131     A.U. after    8 cycles
             Convg  =    0.1983D-08             -V/T =  2.0034
 <Sx>= 0.0000 <Sy>= 0.0000 <Sz>= 0.5000 <S**2>= 0.7602 S= 0.5051
 <L.S>= 0.000000000000E+00
 Annihilation of the first spin contaminant:
 S**2 before annihilation     0.7602,   after     0.7500
 QCSCF skips out because SCF is already converged.
 Calling FoFJK, ICntrl=      2127 FMM=F ISym2X=1 I1Cent= 0 IOpClX= 1 NMat=1 NMatS=1 NMatT=0.
 ***** Axes restored to original set *****
 -------------------------------------------------------------------
 Center     Atomic                   Forces (Hartrees/Bohr)
 Number     Number              X              Y              Z
 -------------------------------------------------------------------
      1       14           0.000000000    0.000000000    0.000095460
      2       14           0.000000000    0.000002949    0.000000419
      3       14           0.000000000    0.000000000   -0.000096298
      4       14           0.000000000   -0.000002949    0.000000419
 -------------------------------------------------------------------
 Cartesian Forces:  Max     0.000096298 RMS     0.000039162

 GradGradGradGradGradGradGradGradGradGradGradGradGradGradGradGradGradGrad
 Berny optimization.
 Search for a local minimum.
 Step number   3 out of a maximum of   22
 All quantities printed in internal units (Hartrees-Bohrs-Radians)
 Update second derivatives using D2CorN and points    1    2    3
 DE= -1.82D-06 DEPred=-1.80D-06 R= 1.01D+00
 SS=  1.41D+00  RLast= 5.09D-03 DXNew= 5.0454D-01 1.5259D-02
 Trust test= 1.01D+00 RLast= 5.09D-03 DXMaxT set to 3.00D-01
 The second derivative matrix:
                          X1        Y1        Z1        X2        Y2
           X1           0.02311
           Y1           0.00000   0.22145
           Z1           0.00000   0.00000   0.22993
           X2          -0.00672   0.00000   0.00000   0.00672
           Y2           0.00000  -0.10889   0.04057   0.00000   0.18627
           Z2           0.00000   0.08049  -0.07499   0.00000   0.00009
           X3          -0.00966   0.00000   0.00000  -0.00672   0.00000
           Y3           0.00000  -0.00367   0.00000   0.00000  -0.10889
           Z3           0.00000   0.00000  -0.07996   0.00000  -0.04075
           X4          -0.00672   0.00000   0.00000   0.00672   0.00000
           Y4           0.00000  -0.10889  -0.04057   0.00000   0.03152
           Z4           0.00000  -0.08049  -0.07499   0.00000   0.00009
                          Z2        X3        Y3        Z3        X4
           Z2           0.13254
           X3           0.00000   0.02311
           Y3          -0.08049   0.00000   0.22146
           Z3          -0.07497   0.00000   0.00000   0.22990
           X4           0.00000  -0.00672   0.00000   0.00000   0.00672
           Y4          -0.00009   0.00000  -0.10889   0.04075   0.00000
           Z4           0.01742   0.00000   0.08049  -0.07497   0.00000
                          Y4        Z4
           Y4           0.18627
           Z4          -0.00009   0.13254
     Eigenvalues ---    0.02689   0.11994   0.29992   0.34025   0.34468
     Eigenvalues ---    0.43557
 RFO step:  Lambda=-6.58695305D-08 EMin= 2.68891612D-02
 ClnCor:  largest displacement from symmetrization is 2.49D-14 for atom     4.
 Quartic linear search produced a step of  0.02343.
 ClnCor:  largest displacement from symmetrization is 5.26D-17 for atom     4.
 TrRot=  0.000000  0.000000  0.000000  0.000000  0.000000  0.000000
 Variable       Old X    -DE/DX   Delta X   Delta X   Delta X     New X
                                 (Linear)    (Quad)   (Total)
    X1        0.00000   0.00000   0.00000   0.00000   0.00000   0.00000
    Y1        0.00000   0.00000   0.00000   0.00000   0.00000   0.00000
    Z1        2.53554   0.00010   0.00001   0.00034   0.00035   2.53589
    X2        0.00000   0.00000   0.00000   0.00000   0.00000   0.00000
    Y2        3.53523   0.00000  -0.00008  -0.00008  -0.00017   3.53506
    Z2       -0.00002   0.00000   0.00000   0.00000   0.00000  -0.00002
    X3        0.00000   0.00000   0.00000   0.00000   0.00000   0.00000
    Y3        0.00000   0.00000   0.00000   0.00000   0.00000   0.00000
    Z3       -2.53555  -0.00010  -0.00001  -0.00034  -0.00036  -2.53591
    X4        0.00000   0.00000   0.00000   0.00000   0.00000   0.00000
    Y4       -3.53523   0.00000   0.00008   0.00008   0.00017  -3.53506
    Z4       -0.00002   0.00000   0.00000   0.00000   0.00000  -0.00002
         Item               Value     Threshold  Converged?
 Maximum Force            0.000096     0.000450     YES
 RMS     Force            0.000039     0.000300     YES
 Maximum Displacement     0.000357     0.001800     YES
 RMS     Displacement     0.000160     0.001200     YES
 Predicted change in Energy=-3.336282D-08
 Optimization completed.
    -- Stationary point found.
 GradGradGradGradGradGradGradGradGradGradGradGradGradGradGradGradGradGrad

                          Input orientation:                          
 ---------------------------------------------------------------------
 Center     Atomic      Atomic             Coordinates (Angstroms)
 Number     Number       Type             X           Y           Z
 ---------------------------------------------------------------------
      1         14           0        0.000000    0.000000    1.341748
      2         14           0        0.000000    1.870763   -0.000009
      3         14           0        0.000000    0.000000   -1.341756
      4         14           0        0.000000   -1.870763   -0.000009
 ---------------------------------------------------------------------
                    Distance matrix (angstroms):
                    1          2          3          4
     1  Si   0.000000
     2  Si   2.302187   0.000000
     3  Si   2.683503   2.302181   0.000000
     4  Si   2.302187   3.741526   2.302181   0.000000
 Stoichiometry    Si4(1+,2)
 Framework group  C2V[C2(SiSi),SGV(Si2)]
 Deg. of freedom     3
 Full point group                 C2V     NOp   4
 Largest Abelian subgroup         C2V     NOp   4
 Largest concise Abelian subgroup C2      NOp   2
                         Standard orientation:                         
 ---------------------------------------------------------------------
 Center     Atomic      Atomic             Coordinates (Angstroms)
 Number     Number       Type             X           Y           Z
 ---------------------------------------------------------------------
      1         14           0        0.000000    0.000000    1.341754
      2         14           0        0.000000    1.870763   -0.000003
      3         14           0        0.000000    0.000000   -1.341749
      4         14           0        0.000000   -1.870763   -0.000003
 ---------------------------------------------------------------------
 Rotational constants (GHZ):      5.0169863      2.5807713      1.7041468

 **********************************************************************

            Population analysis using the SCF density.

 **********************************************************************

 Orbital symmetries:
 Alpha Orbitals:
       Occupied  (A1) (B2) (A1) (A1) (B2) (A1) (A1) (A1) (A2) (B1)
                 (A1) (B2) (A1) (B2) (B1) (B1) (A1) (A1) (B2) (B2)
                 (A1) (B2) (A1) (A1) (B2) (B1) (A1) (B2)
       Virtual   (A2) (B1) (A1) (B1) (A1) (B2) (A1) (B2) (A1) (B1)
                 (A2) (B2) (B2) (A1) (A2) (B2) (A1) (A1) (A1) (B1)
                 (B1) (A2) (A1) (B1) (A1) (B1) (B2) (B2) (A1) (B2)
                 (A1) (B2) (B1) (A2) (A1) (B1) (A2) (B2) (A1) (A1)
                 (A1) (A1) (B2) (B2) (A1) (B1) (B2) (B2) (A2) (B2)
                 (B1) (A1) (A1) (B1) (A2) (A1) (B2) (A1) (A2) (B2)
                 (A1) (A1) (A1) (B1) (B1) (A1) (B2) (B2) (B1) (B1)
                 (A2) (A2) (A1) (A1) (B2) (B2) (A2) (B1) (A2) (B2)
                 (A1) (B2) (A1) (B1) (A1) (B1) (B1) (A1) (A2) (B2)
                 (A2) (A1) (B2) (A1) (B2) (A1) (A1) (B2) (A1) (A1)
 Beta  Orbitals:
       Occupied  (A1) (B2) (A1) (A1) (A1) (B2) (A1) (A1) (A2) (B1)
                 (A1) (B2) (A1) (B2) (B1) (B1) (A1) (A1) (B2) (B2)
                 (A1) (B2) (A1) (A1) (B2) (B1) (A1)
       Virtual   (B2) (A2) (B1) (A1) (B1) (A1) (B2) (A1) (B2) (A1)
                 (B1) (A2) (B2) (A1) (B2) (B2) (A2) (A1) (A1) (A1)
                 (B1) (B1) (A1) (A2) (B1) (A1) (B1) (B2) (B2) (A1)
                 (B2) (A1) (B2) (B1) (A1) (A2) (A2) (B1) (B2) (A1)
                 (A1) (A1) (A1) (B2) (B2) (A1) (B1) (B2) (B2) (A2)
                 (B1) (B2) (A1) (A1) (A2) (B1) (A1) (A2) (A1) (B2)
                 (B2) (A1) (A1) (A1) (B1) (B1) (A1) (B2) (B2) (B1)
                 (B1) (A2) (A2) (A1) (A1) (B2) (B2) (A2) (B1) (A2)
                 (B2) (A1) (B2) (A1) (B1) (A1) (B1) (B1) (A1) (A2)
                 (A2) (B2) (A1) (B2) (A1) (B2) (A1) (A1) (B2) (A1)
                 (A1)
 The electronic state is 2-B2.
 Alpha  occ. eigenvalues --  -66.37164 -66.37164 -66.34472 -66.34472  -5.51604
 Alpha  occ. eigenvalues --   -5.51604  -5.49205  -5.49203  -3.87609  -3.87608
 Alpha  occ. eigenvalues --   -3.87406  -3.87405  -3.87270  -3.87265  -3.85204
 Alpha  occ. eigenvalues --   -3.85204  -3.84917  -3.84915  -3.84880  -3.84880
 Alpha  occ. eigenvalues --   -0.80150  -0.68484  -0.62276  -0.53089  -0.46371
 Alpha  occ. eigenvalues --   -0.44624  -0.43123  -0.42086
 Alpha virt. eigenvalues --   -0.32311  -0.28283  -0.28150  -0.21633  -0.18628
 Alpha virt. eigenvalues --   -0.16169  -0.14643  -0.12036  -0.08596  -0.02612
 Alpha virt. eigenvalues --   -0.00801  -0.00605  -0.00532  -0.00034   0.01465
 Alpha virt. eigenvalues --    0.01516   0.01916   0.03501   0.06198   0.08002
 Alpha virt. eigenvalues --    0.08883   0.09789   0.09868   0.11822   0.12594
 Alpha virt. eigenvalues --    0.13702   0.13724   0.17482   0.19110   0.19475
 Alpha virt. eigenvalues --    0.21041   0.26852   0.28736   0.30303   0.30600
 Alpha virt. eigenvalues --    0.30826   0.30832   0.32661   0.38000   0.43644
 Alpha virt. eigenvalues --    0.49178   0.51615   0.53711   0.56793   0.58306
 Alpha virt. eigenvalues --    0.62697   0.68468   0.69146   0.69982   0.72772
 Alpha virt. eigenvalues --    0.72975   0.73804   0.74473   0.76999   0.77126
 Alpha virt. eigenvalues --    0.83366   0.83705   0.84228   0.84545   0.86773
 Alpha virt. eigenvalues --    0.89601   0.92672   0.99500   1.00666   1.01065
 Alpha virt. eigenvalues --    1.03420   1.04498   1.05020   1.10322   1.12989
 Alpha virt. eigenvalues --    1.14840   1.16570   1.17809   1.25001   1.30084
 Alpha virt. eigenvalues --    1.32088   1.43982   1.44986   1.48536   1.49804
 Alpha virt. eigenvalues --    1.52103   1.53670   1.54569   1.54734   1.57610
 Alpha virt. eigenvalues --    1.65635   1.67954   1.69677   1.70463   1.73170
 Alpha virt. eigenvalues --    1.73274   1.75562   1.88542   1.89819   1.96238
 Alpha virt. eigenvalues --    2.01432   2.23323   2.42848   2.49592   2.61156
  Beta  occ. eigenvalues --  -66.36983 -66.36983 -66.34432 -66.34431  -5.51397
  Beta  occ. eigenvalues --   -5.51396  -5.49164  -5.49162  -3.87490  -3.87489
  Beta  occ. eigenvalues --   -3.87164  -3.87159  -3.86804  -3.86802  -3.85191
  Beta  occ. eigenvalues --   -3.85190  -3.84912  -3.84910  -3.84698  -3.84698
  Beta  occ. eigenvalues --   -0.79153  -0.66812  -0.61791  -0.49898  -0.45631
  Beta  occ. eigenvalues --   -0.44403  -0.42669
  Beta virt. eigenvalues --   -0.34421  -0.31688  -0.28235  -0.27809  -0.20841
  Beta virt. eigenvalues --   -0.18105  -0.15762  -0.12927  -0.10532  -0.08260
  Beta virt. eigenvalues --   -0.02272  -0.00514  -0.00271   0.00119   0.00646
  Beta virt. eigenvalues --    0.02357   0.02901   0.03106   0.03510   0.06563
  Beta virt. eigenvalues --    0.08273   0.08920   0.10389   0.10414   0.12028
  Beta virt. eigenvalues --    0.12681   0.13813   0.14386   0.17883   0.19377
  Beta virt. eigenvalues --    0.20571   0.22150   0.27628   0.28793   0.30839
  Beta virt. eigenvalues --    0.30899   0.31608   0.32277   0.33368   0.39307
  Beta virt. eigenvalues --    0.43842   0.49821   0.52141   0.55024   0.57596
  Beta virt. eigenvalues --    0.58982   0.62854   0.69524   0.69578   0.71471
  Beta virt. eigenvalues --    0.73265   0.74004   0.74099   0.74527   0.77904
  Beta virt. eigenvalues --    0.77959   0.83564   0.84724   0.84734   0.84958
  Beta virt. eigenvalues --    0.87440   0.90627   0.93395   0.99734   1.00583
  Beta virt. eigenvalues --    1.02194   1.04587   1.05272   1.05432   1.10661
  Beta virt. eigenvalues --    1.13463   1.15561   1.17270   1.19044   1.25438
  Beta virt. eigenvalues --    1.30644   1.33142   1.44067   1.45065   1.49134
  Beta virt. eigenvalues --    1.50150   1.52654   1.54232   1.54707   1.54865
  Beta virt. eigenvalues --    1.58022   1.66365   1.67923   1.69682   1.71061
  Beta virt. eigenvalues --    1.73532   1.74048   1.75855   1.89008   1.90300
  Beta virt. eigenvalues --    1.96884   2.02132   2.23687   2.43705   2.49701
  Beta virt. eigenvalues --    2.61735
          Condensed to atoms (all electrons):
              1          2          3          4
     1  Si  13.256872   0.233134   0.103136   0.233134
     2  Si   0.233134  13.199674   0.233137   0.007777
     3  Si   0.103136   0.233137  13.256869   0.233137
     4  Si   0.233134   0.007777   0.233137  13.199674
 Mulliken atomic charges:
              1
     1  Si   0.173724
     2  Si   0.326277
     3  Si   0.173722
     4  Si   0.326277
 Sum of Mulliken atomic charges =   1.00000
 Mulliken charges with hydrogens summed into heavy atoms:
              1
     1  Si   0.173724
     2  Si   0.326277
     3  Si   0.173722
     4  Si   0.326277
 Sum of Mulliken charges with hydrogens summed into heavy atoms =   1.00000
          Atomic-Atomic Spin Densities.
              1          2          3          4
     1  Si   0.048846   0.020667  -0.016177   0.020667
     2  Si   0.020667   0.398331   0.020668  -0.013669
     3  Si  -0.016177   0.020668   0.048844   0.020668
     4  Si   0.020667  -0.013669   0.020668   0.398331
 Mulliken atomic spin densities:
              1
     1  Si   0.074004
     2  Si   0.425997
     3  Si   0.074002
     4  Si   0.425997
 Sum of Mulliken atomic spin densities =   1.00000
 Electronic spatial extent (au):  <R**2>=            618.5455
 Charge=              1.0000 electrons
 Dipole moment (field-independent basis, Debye):
    X=              0.0000    Y=              0.0000    Z=              0.0000  Tot=              0.0000
 Quadrupole moment (field-independent basis, Debye-Ang):
   XX=            -44.7320   YY=            -32.1169   ZZ=            -42.3134
   XY=              0.0000   XZ=              0.0000   YZ=              0.0000
 Traceless Quadrupole moment (field-independent basis, Debye-Ang):
   XX=             -5.0112   YY=              7.6038   ZZ=             -2.5926
   XY=              0.0000   XZ=              0.0000   YZ=              0.0000
 Octapole moment (field-independent basis, Debye-Ang**2):
  XXX=              0.0000  YYY=              0.0000  ZZZ=              0.0000  XYY=              0.0000
  XXY=              0.0000  XXZ=              0.0000  XZZ=              0.0000  YZZ=              0.0000
  YYZ=             -0.0001  XYZ=              0.0000
 Hexadecapole moment (field-independent basis, Debye-Ang**3):
 XXXX=            -74.2783 YYYY=           -496.0596 ZZZZ=           -326.1233 XXXY=              0.0000
 XXXZ=              0.0000 YYYX=              0.0000 YYYZ=              0.0000 ZZZX=              0.0000
 ZZZY=              0.0000 XXYY=            -97.5680 XXZZ=            -65.7299 YYZZ=           -150.6754
 XXYZ=              0.0000 YYXZ=              0.0000 ZZXY=              0.0000
 N-N= 2.465807269193D+02 E-N=-4.849764682469D+03  KE= 1.729880429394D+03
 Symmetry A1   KE= 1.110432501731D+03
 Symmetry A2   KE= 3.644313432197D+01
 Symmetry B1   KE= 1.119824086017D+02
 Symmetry B2   KE= 4.710223847395D+02
                          Isotropic Fermi Contact Couplings
        Atom                 a.u.       MegaHertz       Gauss      10(-4) cm-1
     1  Si(29)            -0.02908      25.84234       9.22119       8.62008
     2  Si(29)             0.16135    -143.39987     -51.16864     -47.83305
     3  Si(29)            -0.02908      25.84273       9.22133       8.62021
     4  Si(29)             0.16135    -143.39987     -51.16864     -47.83305
 --------------------------------------------------------
       Center         ----  Spin Dipole Couplings  ----
                      3XX-RR        3YY-RR        3ZZ-RR
 --------------------------------------------------------
     1   Atom       -0.157635      0.329898     -0.172263
     2   Atom       -0.455405      0.938374     -0.482969
     3   Atom       -0.157634      0.329896     -0.172262
     4   Atom       -0.455405      0.938374     -0.482969
 --------------------------------------------------------
                        XY            XZ            YZ
 --------------------------------------------------------
     1   Atom        0.000000      0.000000      0.000000
     2   Atom        0.000000      0.000000     -0.000004
     3   Atom        0.000000      0.000000      0.000000
     4   Atom        0.000000      0.000000      0.000004
 --------------------------------------------------------


 ---------------------------------------------------------------------------------
              Anisotropic Spin Dipole Couplings in Principal Axis System
 ---------------------------------------------------------------------------------

       Atom             a.u.   MegaHertz   Gauss  10(-4) cm-1        Axes

              Baa    -0.1723    18.274     6.521     6.096  0.0000  0.0000  1.0000
     1 Si(29) Bbb    -0.1576    16.723     5.967     5.578  1.0000  0.0000  0.0000
              Bcc     0.3299   -34.997   -12.488   -11.674  0.0000  1.0000  0.0000
 
              Baa    -0.4830    51.235    18.282    17.090  0.0000  0.0000  1.0000
     2 Si(29) Bbb    -0.4554    48.311    17.239    16.115  1.0000  0.0000  0.0000
              Bcc     0.9384   -99.547   -35.521   -33.205  0.0000  1.0000  0.0000
 
              Baa    -0.1723    18.274     6.521     6.096  0.0000  0.0000  1.0000
     3 Si(29) Bbb    -0.1576    16.722     5.967     5.578  1.0000  0.0000  0.0000
              Bcc     0.3299   -34.997   -12.488   -11.674  0.0000  1.0000  0.0000
 
              Baa    -0.4830    51.235    18.282    17.090  0.0000  0.0000  1.0000
     4 Si(29) Bbb    -0.4554    48.311    17.239    16.115  1.0000  0.0000  0.0000
              Bcc     0.9384   -99.547   -35.521   -33.205  0.0000  1.0000  0.0000
 

 ---------------------------------------------------------------------------------

 1\1\GINC-NODE41\FOpt\UB3LYP\GTBas3\Si4(1+,2)\TAM\04-Jan-2012\0\\# G4 o
 pt=(Cartesian) scfcyc=500 scf=xqc\\s4-c\\1,2\Si,0.,0.,1.3417477062\Si,
 0.,1.8707632326,-0.0000090962\Si,0.,0.,-1.3417555137\Si,0.,-1.87076323
 26,-0.0000090962\\Version=AM64L-G09RevA.02\State=2-B2\HF=-1157.6183513
 \S2=0.760237\S2-1=0.\S2A=0.750035\RMSD=1.983e-09\RMSF=3.916e-05\Dipole
 =0.,0.,-0.0000012\Quadrupole=-3.7257192,5.6532719,-1.9275528,0.,0.,0.\
 PG=C02V [C2(Si1Si1),SGV(Si2)]\\@


 A successful marriage requires falling in love
 many times, always with the same person.
                           -- Mignon McLaughlin
 Job cpu time:  0 days  0 hours  2 minutes 40.1 seconds.
 File lengths (MBytes):  RWF=     18 Int=      0 D2E=      0 Chk=     13 Scr=      1
 Normal termination of Gaussian 09 at Wed Jan  4 12:00:05 2012.
 Link1:  Proceeding to internal job step number  2.
 ----------------------------------------------------------
 #N Geom=AllCheck Guess=TCheck SCRF=Check B3LYP/GTBas3 Freq
 ----------------------------------------------------------
 1/10=4,29=7,30=1,38=1,40=1/1,3;
 2/12=2,40=1/2;
 3/5=35,11=2,14=-4,16=1,25=1,30=1,70=2,71=2,74=-5,116=-2/1,2,3;
 4/5=101/1;
 5/5=2,7=500,8=3,13=1,98=1/2,8;
 8/6=4,10=90,11=11/1;
 11/6=1,8=1,9=11,15=111,16=1/1,2,10;
 10/6=1/2;
 6/7=2,8=2,9=2,10=2,18=1,28=1/1;
 7/8=1,10=1,25=1/1,2,3,16;
 1/10=4,30=1/3;
 99//99;
 ----
 s4-c
 ----
 No Z-matrix found on checkpoint file.
 Cartesian coordinates read from the checkpoint file:
 S9L-ne-d-01.chk
 Charge =  1 Multiplicity = 2
  Si                                                0.000000000000      0.000000000000      1.341747706151
  Si                                                0.000000000000      1.870763232617     -0.000009096229
  Si                                                0.000000000000      0.000000000000     -1.341755513693
  Si                                                0.000000000000     -1.870763232617     -0.000009096229
 Recover connectivity data from disk.

 GradGradGradGradGradGradGradGradGradGradGradGradGradGradGradGradGradGrad
 Berny optimization.
 Initialization pass.
 Trust Radius=3.00D-01 FncErr=1.00D-07 GrdErr=1.00D-07
 Number of steps in this run=   2 maximum allowed number of steps=   2.
 GradGradGradGradGradGradGradGradGradGradGradGradGradGradGradGradGradGrad

                          Input orientation:                          
 ---------------------------------------------------------------------
 Center     Atomic      Atomic             Coordinates (Angstroms)
 Number     Number       Type             X           Y           Z
 ---------------------------------------------------------------------
      1         14           0        0.000000    0.000000    1.341748
      2         14           0        0.000000    1.870763   -0.000009
      3         14           0        0.000000    0.000000   -1.341756
      4         14           0        0.000000   -1.870763   -0.000009
 ---------------------------------------------------------------------
                    Distance matrix (angstroms):
                    1          2          3          4
     1  Si   0.000000
     2  Si   2.302187   0.000000
     3  Si   2.683503   2.302181   0.000000
     4  Si   2.302187   3.741526   2.302181   0.000000
 Stoichiometry    Si4(1+,2)
 Framework group  C2V[C2(SiSi),SGV(Si2)]
 Deg. of freedom     3
 Full point group                 C2V     NOp   4
 Largest Abelian subgroup         C2V     NOp   4
 Largest concise Abelian subgroup C2      NOp   2
                         Standard orientation:                         
 ---------------------------------------------------------------------
 Center     Atomic      Atomic             Coordinates (Angstroms)
 Number     Number       Type             X           Y           Z
 ---------------------------------------------------------------------
      1         14           0        0.000000    0.000000    1.341754
      2         14           0        0.000000    1.870763   -0.000003
      3         14           0        0.000000    0.000000   -1.341749
      4         14           0        0.000000   -1.870763   -0.000003
 ---------------------------------------------------------------------
 Rotational constants (GHZ):      5.0169863      2.5807713      1.7041468
 Standard basis: GTBas3 (6D, 7F)
 There are    52 symmetry adapted basis functions of A1  symmetry.
 There are    16 symmetry adapted basis functions of A2  symmetry.
 There are    24 symmetry adapted basis functions of B1  symmetry.
 There are    36 symmetry adapted basis functions of B2  symmetry.
 Integral buffers will be    131072 words long.
 Raffenetti 2 integral format.
 Two-electron integral symmetry is turned on.
   128 basis functions,   272 primitive gaussians,   140 cartesian basis functions
    28 alpha electrons       27 beta electrons
       nuclear repulsion energy       246.5807269193 Hartrees.
 NAtoms=    4 NActive=    4 NUniq=    3 SFac= 1.33D+00 NAtFMM=   80 NAOKFM=F Big=F
 One-electron integrals computed using PRISM.
 NBasis=   128 RedAO= T  NBF=    52    16    24    36
 NBsUse=   128 1.00D-06 NBFU=    52    16    24    36
 Initial guess read from the checkpoint file:  S9L-ne-d-01.chk
 B after Tr=     0.000000    0.000000    0.000000
         Rot=    1.000000    0.000000    0.000000    0.000000 Ang=   0.00 deg.
 Initial guess orbital symmetries:
 Alpha Orbitals:
       Occupied  (A1) (B2) (A1) (A1) (B2) (A1) (A1) (A1) (A2) (B1)
                 (A1) (B2) (A1) (B2) (B1) (B1) (A1) (A1) (B2) (B2)
                 (A1) (B2) (A1) (A1) (B2) (B1) (A1) (B2)
       Virtual   (A2) (B1) (A1) (B1) (A1) (B2) (A1) (B2) (A1) (B1)
                 (A2) (B2) (B2) (A1) (A2) (B2) (A1) (A1) (A1) (B1)
                 (B1) (A2) (A1) (B1) (A1) (B1) (B2) (B2) (A1) (B2)
                 (A1) (B2) (B1) (A2) (A1) (B1) (A2) (B2) (A1) (A1)
                 (A1) (A1) (B2) (B2) (A1) (B1) (B2) (B2) (A2) (B2)
                 (B1) (A1) (A1) (B1) (A2) (A1) (B2) (A1) (A2) (B2)
                 (A1) (A1) (A1) (B1) (B1) (A1) (B2) (B2) (B1) (B1)
                 (A2) (A2) (A1) (A1) (B2) (B2) (A2) (B1) (A2) (B2)
                 (A1) (B2) (A1) (B1) (A1) (B1) (B1) (A1) (A2) (B2)
                 (A2) (A1) (B2) (A1) (B2) (A1) (A1) (B2) (A1) (A1)
 Beta  Orbitals:
       Occupied  (A1) (B2) (A1) (A1) (A1) (B2) (A1) (A1) (A2) (B1)
                 (A1) (B2) (A1) (B2) (B1) (B1) (A1) (A1) (B2) (B2)
                 (A1) (B2) (A1) (A1) (B2) (B1) (A1)
       Virtual   (B2) (A2) (B1) (A1) (B1) (A1) (B2) (A1) (B2) (A1)
                 (B1) (A2) (B2) (A1) (B2) (B2) (A2) (A1) (A1) (A1)
                 (B1) (B1) (A1) (A2) (B1) (A1) (B1) (B2) (B2) (A1)
                 (B2) (A1) (B2) (B1) (A1) (A2) (A2) (B1) (B2) (A1)
                 (A1) (A1) (A1) (B2) (B2) (A1) (B1) (B2) (B2) (A2)
                 (B1) (B2) (A1) (A1) (A2) (B1) (A1) (A2) (A1) (B2)
                 (B2) (A1) (A1) (A1) (B1) (B1) (A1) (B2) (B2) (B1)
                 (B1) (A2) (A2) (A1) (A1) (B2) (B2) (A2) (B1) (A2)
                 (B2) (A1) (B2) (A1) (B1) (A1) (B1) (B1) (A1) (A2)
                 (A2) (B2) (A1) (B2) (A1) (B2) (A1) (A1) (B2) (A1)
                 (A1)
 Initial guess <Sx>= 0.0000 <Sy>= 0.0000 <Sz>= 0.5000 <S**2>= 0.7602 S= 0.5051
 Requested convergence on RMS density matrix=1.00D-08 within 128 cycles.
 Requested convergence on MAX density matrix=1.00D-06.
 Requested convergence on             energy=1.00D-06.
 No special actions if energy rises.
 Keep R1 and R2 ints in memory in canonical form, NReq=99477209.
 SCF Done:  E(UB3LYP) =  -1157.61835131     A.U. after    1 cycles
             Convg  =    0.3517D-09             -V/T =  2.0034
 <Sx>= 0.0000 <Sy>= 0.0000 <Sz>= 0.5000 <S**2>= 0.7602 S= 0.5051
 <L.S>= 0.000000000000E+00
 Annihilation of the first spin contaminant:
 S**2 before annihilation     0.7602,   after     0.7500
 QCSCF skips out because SCF is already converged.
 Range of M.O.s used for correlation:     1   128
 NBasis=   128 NAE=    28 NBE=    27 NFC=     0 NFV=     0
 NROrb=    128 NOA=    28 NOB=    27 NVA=   100 NVB=   101

 **** Warning!!: The smallest alpha delta epsilon is  0.97749519D-01


 **** Warning!!: The smallest beta delta epsilon is  0.82478164D-01

 Symmetrizing basis deriv contribution to polar:
 IMax=3 JMax=2 DiffMx= 0.00D+00
 G2DrvN: will do     5 centers at a time, making    1 passes doing MaxLOS=3.
 Calling FoFCou, ICntrl=  3107 FMM=F I1Cent=   0 AccDes= 0.00D+00.
 FoFDir/FoFCou used for L=0 through L=3.
 End of G2Drv Frequency-dependent properties file   721 does not exist.
 End of G2Drv Frequency-dependent properties file   722 does not exist.
          IDoAtm=1111
          Differentiating once with respect to electric field.
                with respect to dipole field.
          Differentiating once with respect to nuclear coordinates.
          Keep R1 and R2 ints in memory in canonical form, NReq=99369105.
          There are    12 degrees of freedom in the 1st order CPHF.  IDoFFX=4.
     12 vectors produced by pass  0 Test12= 4.61D-14 8.33D-09 XBig12= 1.60D+03 2.04D+01.
 AX will form    12 AO Fock derivatives at one time.
     12 vectors produced by pass  1 Test12= 4.61D-14 8.33D-09 XBig12= 6.49D+02 9.56D+00.
     12 vectors produced by pass  2 Test12= 4.61D-14 8.33D-09 XBig12= 3.80D+01 5.00D+00.
     12 vectors produced by pass  3 Test12= 4.61D-14 8.33D-09 XBig12= 2.25D+00 4.38D-01.
     12 vectors produced by pass  4 Test12= 4.61D-14 8.33D-09 XBig12= 9.33D-02 1.51D-01.
     12 vectors produced by pass  5 Test12= 4.61D-14 8.33D-09 XBig12= 5.07D-03 2.45D-02.
     12 vectors produced by pass  6 Test12= 4.61D-14 8.33D-09 XBig12= 1.90D-04 7.33D-03.
     11 vectors produced by pass  7 Test12= 4.61D-14 8.33D-09 XBig12= 2.17D-06 4.37D-04.
     10 vectors produced by pass  8 Test12= 4.61D-14 8.33D-09 XBig12= 1.80D-08 3.75D-05.
      6 vectors produced by pass  9 Test12= 4.61D-14 8.33D-09 XBig12= 1.81D-10 7.09D-06.
      2 vectors produced by pass 10 Test12= 4.61D-14 8.33D-09 XBig12= 2.39D-12 4.18D-07.
      2 vectors produced by pass 11 Test12= 4.61D-14 8.33D-09 XBig12= 8.64D-15 2.80D-08.
 Inverted reduced A of dimension   115 with in-core refinement.
 Isotropic polarizability for W=    0.000000      115.58 Bohr**3.
 End of Minotr Frequency-dependent properties file   721 does not exist.
 End of Minotr Frequency-dependent properties file   722 does not exist.

 **********************************************************************

            Population analysis using the SCF density.

 **********************************************************************

 Orbital symmetries:
 Alpha Orbitals:
       Occupied  (A1) (B2) (A1) (A1) (B2) (A1) (A1) (A1) (A2) (B1)
                 (A1) (B2) (A1) (B2) (B1) (B1) (A1) (A1) (B2) (B2)
                 (A1) (B2) (A1) (A1) (B2) (B1) (A1) (B2)
       Virtual   (A2) (B1) (A1) (B1) (A1) (B2) (A1) (B2) (A1) (B1)
                 (A2) (B2) (B2) (A1) (A2) (B2) (A1) (A1) (A1) (B1)
                 (B1) (A2) (A1) (B1) (A1) (B1) (B2) (B2) (A1) (B2)
                 (A1) (B2) (B1) (A2) (A1) (B1) (A2) (B2) (A1) (A1)
                 (A1) (A1) (B2) (B2) (A1) (B1) (B2) (B2) (A2) (B2)
                 (B1) (A1) (A1) (B1) (A2) (A1) (B2) (A1) (A2) (B2)
                 (A1) (A1) (A1) (B1) (B1) (A1) (B2) (B2) (B1) (B1)
                 (A2) (A2) (A1) (A1) (B2) (B2) (A2) (B1) (A2) (B2)
                 (A1) (B2) (A1) (B1) (A1) (B1) (B1) (A1) (A2) (B2)
                 (A2) (A1) (B2) (A1) (B2) (A1) (A1) (B2) (A1) (A1)
 Beta  Orbitals:
       Occupied  (A1) (B2) (A1) (A1) (A1) (B2) (A1) (A1) (A2) (B1)
                 (A1) (B2) (A1) (B2) (B1) (B1) (A1) (A1) (B2) (B2)
                 (A1) (B2) (A1) (A1) (B2) (B1) (A1)
       Virtual   (B2) (A2) (B1) (A1) (B1) (A1) (B2) (A1) (B2) (A1)
                 (B1) (A2) (B2) (A1) (B2) (B2) (A2) (A1) (A1) (A1)
                 (B1) (B1) (A1) (A2) (B1) (A1) (B1) (B2) (B2) (A1)
                 (B2) (A1) (B2) (B1) (A1) (A2) (A2) (B1) (B2) (A1)
                 (A1) (A1) (A1) (B2) (B2) (A1) (B1) (B2) (B2) (A2)
                 (B1) (B2) (A1) (A1) (A2) (B1) (A1) (A2) (A1) (B2)
                 (B2) (A1) (A1) (A1) (B1) (B1) (A1) (B2) (B2) (B1)
                 (B1) (A2) (A2) (A1) (A1) (B2) (B2) (A2) (B1) (A2)
                 (B2) (A1) (B2) (A1) (B1) (A1) (B1) (B1) (A1) (A2)
                 (A2) (B2) (A1) (B2) (A1) (B2) (A1) (A1) (B2) (A1)
                 (A1)
 The electronic state is 2-B2.
 Alpha  occ. eigenvalues --  -66.37164 -66.37164 -66.34472 -66.34472  -5.51604
 Alpha  occ. eigenvalues --   -5.51604  -5.49205  -5.49203  -3.87609  -3.87608
 Alpha  occ. eigenvalues --   -3.87406  -3.87405  -3.87270  -3.87265  -3.85204
 Alpha  occ. eigenvalues --   -3.85204  -3.84917  -3.84915  -3.84880  -3.84880
 Alpha  occ. eigenvalues --   -0.80150  -0.68484  -0.62276  -0.53089  -0.46371
 Alpha  occ. eigenvalues --   -0.44624  -0.43123  -0.42086
 Alpha virt. eigenvalues --   -0.32311  -0.28283  -0.28150  -0.21633  -0.18628
 Alpha virt. eigenvalues --   -0.16169  -0.14643  -0.12036  -0.08596  -0.02612
 Alpha virt. eigenvalues --   -0.00801  -0.00605  -0.00532  -0.00034   0.01465
 Alpha virt. eigenvalues --    0.01516   0.01916   0.03501   0.06198   0.08002
 Alpha virt. eigenvalues --    0.08883   0.09789   0.09868   0.11822   0.12594
 Alpha virt. eigenvalues --    0.13702   0.13724   0.17482   0.19110   0.19475
 Alpha virt. eigenvalues --    0.21041   0.26852   0.28736   0.30303   0.30600
 Alpha virt. eigenvalues --    0.30826   0.30832   0.32661   0.38000   0.43644
 Alpha virt. eigenvalues --    0.49178   0.51615   0.53711   0.56793   0.58306
 Alpha virt. eigenvalues --    0.62697   0.68468   0.69146   0.69982   0.72772
 Alpha virt. eigenvalues --    0.72975   0.73804   0.74473   0.76999   0.77126
 Alpha virt. eigenvalues --    0.83366   0.83705   0.84228   0.84545   0.86773
 Alpha virt. eigenvalues --    0.89601   0.92672   0.99500   1.00666   1.01065
 Alpha virt. eigenvalues --    1.03420   1.04498   1.05020   1.10322   1.12989
 Alpha virt. eigenvalues --    1.14840   1.16570   1.17809   1.25001   1.30084
 Alpha virt. eigenvalues --    1.32088   1.43982   1.44986   1.48536   1.49804
 Alpha virt. eigenvalues --    1.52103   1.53670   1.54569   1.54734   1.57610
 Alpha virt. eigenvalues --    1.65635   1.67954   1.69677   1.70463   1.73170
 Alpha virt. eigenvalues --    1.73274   1.75562   1.88542   1.89819   1.96238
 Alpha virt. eigenvalues --    2.01432   2.23323   2.42848   2.49592   2.61156
  Beta  occ. eigenvalues --  -66.36983 -66.36983 -66.34432 -66.34431  -5.51397
  Beta  occ. eigenvalues --   -5.51396  -5.49164  -5.49162  -3.87490  -3.87489
  Beta  occ. eigenvalues --   -3.87164  -3.87159  -3.86804  -3.86802  -3.85191
  Beta  occ. eigenvalues --   -3.85190  -3.84912  -3.84910  -3.84698  -3.84698
  Beta  occ. eigenvalues --   -0.79153  -0.66812  -0.61791  -0.49898  -0.45631
  Beta  occ. eigenvalues --   -0.44403  -0.42669
  Beta virt. eigenvalues --   -0.34421  -0.31688  -0.28235  -0.27809  -0.20841
  Beta virt. eigenvalues --   -0.18105  -0.15762  -0.12927  -0.10532  -0.08260
  Beta virt. eigenvalues --   -0.02272  -0.00514  -0.00271   0.00119   0.00646
  Beta virt. eigenvalues --    0.02357   0.02901   0.03106   0.03510   0.06563
  Beta virt. eigenvalues --    0.08273   0.08920   0.10389   0.10414   0.12028
  Beta virt. eigenvalues --    0.12681   0.13813   0.14386   0.17883   0.19377
  Beta virt. eigenvalues --    0.20571   0.22150   0.27628   0.28793   0.30839
  Beta virt. eigenvalues --    0.30899   0.31608   0.32277   0.33368   0.39307
  Beta virt. eigenvalues --    0.43842   0.49821   0.52141   0.55024   0.57596
  Beta virt. eigenvalues --    0.58982   0.62854   0.69524   0.69578   0.71471
  Beta virt. eigenvalues --    0.73265   0.74004   0.74099   0.74527   0.77904
  Beta virt. eigenvalues --    0.77959   0.83564   0.84724   0.84734   0.84958
  Beta virt. eigenvalues --    0.87440   0.90627   0.93395   0.99734   1.00583
  Beta virt. eigenvalues --    1.02194   1.04587   1.05272   1.05432   1.10661
  Beta virt. eigenvalues --    1.13463   1.15561   1.17270   1.19044   1.25438
  Beta virt. eigenvalues --    1.30644   1.33142   1.44067   1.45065   1.49134
  Beta virt. eigenvalues --    1.50150   1.52654   1.54232   1.54707   1.54865
  Beta virt. eigenvalues --    1.58022   1.66365   1.67923   1.69682   1.71061
  Beta virt. eigenvalues --    1.73532   1.74048   1.75855   1.89008   1.90300
  Beta virt. eigenvalues --    1.96884   2.02132   2.23687   2.43705   2.49701
  Beta virt. eigenvalues --    2.61735
          Condensed to atoms (all electrons):
              1          2          3          4
     1  Si  13.256872   0.233134   0.103136   0.233134
     2  Si   0.233134  13.199674   0.233137   0.007777
     3  Si   0.103136   0.233137  13.256869   0.233137
     4  Si   0.233134   0.007777   0.233137  13.199674
 Mulliken atomic charges:
              1
     1  Si   0.173724
     2  Si   0.326277
     3  Si   0.173722
     4  Si   0.326277
 Sum of Mulliken atomic charges =   1.00000
 Mulliken charges with hydrogens summed into heavy atoms:
              1
     1  Si   0.173724
     2  Si   0.326277
     3  Si   0.173722
     4  Si   0.326277
 Sum of Mulliken charges with hydrogens summed into heavy atoms =   1.00000
          Atomic-Atomic Spin Densities.
              1          2          3          4
     1  Si   0.048846   0.020667  -0.016177   0.020667
     2  Si   0.020667   0.398331   0.020668  -0.013669
     3  Si  -0.016177   0.020668   0.048844   0.020668
     4  Si   0.020667  -0.013669   0.020668   0.398331
 Mulliken atomic spin densities:
              1
     1  Si   0.074004
     2  Si   0.425997
     3  Si   0.074002
     4  Si   0.425997
 Sum of Mulliken atomic spin densities =   1.00000
 APT atomic charges:
[...]
 Alpha virt. eigenvalues --    0.30376   0.30558   0.34326   0.34473   0.38555
 Alpha virt. eigenvalues --    0.39963   0.41848   0.42277   0.42293   0.43291
 Alpha virt. eigenvalues --    0.44539   0.44550   0.46742   0.47479   0.48242
 Alpha virt. eigenvalues --    0.48694   0.49392   0.52220   0.56030   0.56690
 Alpha virt. eigenvalues --    0.57298   0.57671   0.58485   0.60264   0.60939
 Alpha virt. eigenvalues --    0.62397   0.63511   0.64763   0.67137   0.67188
 Alpha virt. eigenvalues --    0.67800   0.68647   0.70601   0.71363   0.72739
 Alpha virt. eigenvalues --    0.72767   0.73412   0.73505   0.73585   0.75027
 Alpha virt. eigenvalues --    0.75537   0.75770   0.75963   0.76501   0.77977
 Alpha virt. eigenvalues --    0.78484   0.78729   0.82296   0.83517   0.83601
 Alpha virt. eigenvalues --    0.85246   0.85698   0.86461   0.87355   0.87876
 Alpha virt. eigenvalues --    0.88863   0.90206   0.92318   0.94473   0.94595
 Alpha virt. eigenvalues --    1.01811   1.02459   1.02910   1.05773   1.07420
 Alpha virt. eigenvalues --    1.08593   1.14021   1.16551   1.18989   1.19961
 Alpha virt. eigenvalues --    1.22958   1.28080   1.28711   1.30231   1.30482
 Alpha virt. eigenvalues --    1.31615   1.32941   1.34535   1.36250   1.37507
 Alpha virt. eigenvalues --    1.38091   1.38190   1.38528   1.43432   1.44782
 Alpha virt. eigenvalues --    1.46216   1.46586   1.46731   1.50403   1.51206
 Alpha virt. eigenvalues --    1.53676   1.54019   1.54297   1.55716   1.57395
 Alpha virt. eigenvalues --    1.58436   1.59119   1.60177   1.60818   1.62122
 Alpha virt. eigenvalues --    1.66099   1.66760   1.67433   1.67474   1.69789
 Alpha virt. eigenvalues --    1.69834   1.69848   1.72323   1.72340   1.72582
 Alpha virt. eigenvalues --    1.72841   1.73625   1.73870   1.76201   1.78351
 Alpha virt. eigenvalues --    1.78566   1.79246   1.80760   1.83868   1.84080
 Alpha virt. eigenvalues --    1.84528   1.85631   1.86540   1.86565   1.87018
 Alpha virt. eigenvalues --    1.89979   1.95206   1.95347   1.95583   1.97152
 Alpha virt. eigenvalues --    1.97479   1.98495   2.00261   2.02467   2.07806
 Alpha virt. eigenvalues --    2.13455   2.17388   2.20494   2.25027   2.31221
 Alpha virt. eigenvalues --    2.36216   2.36538   2.39710   2.41042   2.41787
 Alpha virt. eigenvalues --    2.48443   2.55035   2.69514   2.74355   2.74791
 Alpha virt. eigenvalues --    2.75834   2.76258   2.77295   2.77517   2.84626
 Alpha virt. eigenvalues --    2.94434   2.94724   2.95141   2.95252   2.96356
 Alpha virt. eigenvalues --    2.97994   3.02687   3.03247   3.03332   3.03583
 Alpha virt. eigenvalues --    3.08741   3.09969   3.10074   3.10374   3.13522
 Alpha virt. eigenvalues --    3.13645   3.14381   3.14394   3.15067   3.15153
 Alpha virt. eigenvalues --    3.16372   3.17968   3.19140   3.20136   3.23841
 Alpha virt. eigenvalues --    3.28947   3.29505   3.30033   3.30278   3.33075
 Alpha virt. eigenvalues --    3.33363   3.33467   3.35269   3.35686   3.36177
 Alpha virt. eigenvalues --    3.36777   3.38089   3.39567   3.39622   3.42262
 Alpha virt. eigenvalues --    3.42496   3.43640   3.43784   3.44487   3.46431
 Alpha virt. eigenvalues --    3.46485   3.47911   3.52926   3.54345   3.54920
 Alpha virt. eigenvalues --    3.55306   3.56415   3.57070   3.57965   3.58967
 Alpha virt. eigenvalues --    3.62188   3.62470   3.63064   3.67978   3.69080
 Alpha virt. eigenvalues --    3.73500   3.74288   3.77929   3.81070   3.81995
 Alpha virt. eigenvalues --    3.84540   3.85057   3.87052   3.90515   3.90626
 Alpha virt. eigenvalues --    3.93405   3.93597   3.94123   3.95853   3.96762
 Alpha virt. eigenvalues --    3.97455   3.98395   3.99059   3.99249   3.99373
 Alpha virt. eigenvalues --    4.01534   4.01592   4.03396   4.04980   4.05952
 Alpha virt. eigenvalues --    4.08175   4.09211   4.10787   4.11739   4.14010
 Alpha virt. eigenvalues --    4.19163   4.20053   4.22020   4.23253   4.27955
 Alpha virt. eigenvalues --    4.28384   4.32119   4.32482   4.33820   4.34017
 Alpha virt. eigenvalues --    4.36607   4.40034   4.43250   4.45096   4.45614
 Alpha virt. eigenvalues --    4.50836   4.50857   4.50996   4.52656   4.53082
 Alpha virt. eigenvalues --    4.60698   4.61314   4.62872   4.66569   4.69218
 Alpha virt. eigenvalues --    4.69568   4.74842   4.79569   4.84613   4.86190
 Alpha virt. eigenvalues --    4.98860   5.02602   5.05789   5.19814   5.25835
 Alpha virt. eigenvalues --    5.35939   5.44548   6.02944   6.05074   6.13328
 Alpha virt. eigenvalues --    6.17637   6.23054   6.46090   6.63354   6.65680
 Alpha virt. eigenvalues --    6.66262   6.68876   6.73956   6.81331   6.81824
 Alpha virt. eigenvalues --    6.93484   6.94383   7.01260   7.01592   7.07784
 Alpha virt. eigenvalues --    7.12134   7.23597  12.83658  13.06476  13.16399
 Alpha virt. eigenvalues --   13.24595  13.51885  13.55478  13.55913  13.61816
 Alpha virt. eigenvalues --   14.42659  14.59243  14.95194  14.95646  39.36252
 Alpha virt. eigenvalues --   39.49726  40.15156  40.29478
  Beta  occ. eigenvalues --  -69.02328 -69.02328 -68.99131 -68.99131  -6.36622
  Beta  occ. eigenvalues --   -6.36621  -6.33700  -6.33694  -4.46805  -4.46805
  Beta  occ. eigenvalues --   -4.46788  -4.46787  -4.46003  -4.46002  -4.43924
  Beta  occ. eigenvalues --   -4.43905  -4.43890  -4.43888  -4.43573  -4.43573
  Beta  occ. eigenvalues --   -0.97376  -0.79693  -0.74197  -0.54758  -0.52669
  Beta  occ. eigenvalues --   -0.49621  -0.49053
  Beta virt. eigenvalues --   -0.22432  -0.20412  -0.17492  -0.16577  -0.08491
  Beta virt. eigenvalues --   -0.07722  -0.07696  -0.07184  -0.05886  -0.05473
  Beta virt. eigenvalues --   -0.04501  -0.04359  -0.03590  -0.03454  -0.03110
  Beta virt. eigenvalues --   -0.02675  -0.01094  -0.00642  -0.00619   0.00753
  Beta virt. eigenvalues --    0.01032   0.01052   0.01640   0.03781   0.04297
  Beta virt. eigenvalues --    0.05145   0.06189   0.06797   0.07917   0.08853
  Beta virt. eigenvalues --    0.10657   0.10840   0.11727   0.12612   0.12713
  Beta virt. eigenvalues --    0.13085   0.14066   0.15094   0.16035   0.16843
  Beta virt. eigenvalues --    0.17385   0.18468   0.19193   0.20564   0.20677
  Beta virt. eigenvalues --    0.24075   0.27330   0.28439   0.28560   0.29741
  Beta virt. eigenvalues --    0.30362   0.30518   0.31347   0.34861   0.35622
  Beta virt. eigenvalues --    0.38634   0.40484   0.41744   0.42649   0.43169
  Beta virt. eigenvalues --    0.44002   0.44768   0.45347   0.47532   0.48140
  Beta virt. eigenvalues --    0.48186   0.49597   0.49746   0.52259   0.56155
  Beta virt. eigenvalues --    0.56766   0.57455   0.58409   0.59026   0.60538
  Beta virt. eigenvalues --    0.60980   0.62530   0.63686   0.65725   0.67562
  Beta virt. eigenvalues --    0.67690   0.68014   0.69586   0.70745   0.71404
  Beta virt. eigenvalues --    0.72893   0.73147   0.73999   0.74493   0.74528
  Beta virt. eigenvalues --    0.75096   0.75793   0.75997   0.76306   0.76773
  Beta virt. eigenvalues --    0.78745   0.79858   0.79989   0.82926   0.83634
  Beta virt. eigenvalues --    0.84488   0.85587   0.86362   0.86784   0.88183
  Beta virt. eigenvalues --    0.88520   0.89503   0.91665   0.93250   0.94814
  Beta virt. eigenvalues --    0.94883   1.02327   1.03025   1.03260   1.05767
  Beta virt. eigenvalues --    1.07600   1.08862   1.14841   1.16913   1.19565
  Beta virt. eigenvalues --    1.20049   1.23858   1.28962   1.29421   1.30459
  Beta virt. eigenvalues --    1.30894   1.32378   1.33716   1.34835   1.36551
  Beta virt. eigenvalues --    1.37482   1.38196   1.38511   1.39242   1.43865
  Beta virt. eigenvalues --    1.44880   1.46556   1.47373   1.47388   1.51133
  Beta virt. eigenvalues --    1.51241   1.53919   1.54210   1.55197   1.55601
  Beta virt. eigenvalues --    1.58135   1.58447   1.59928   1.60982   1.61208
  Beta virt. eigenvalues --    1.62524   1.66670   1.67491   1.67571   1.67930
  Beta virt. eigenvalues --    1.70273   1.70349   1.70551   1.72666   1.72892
  Beta virt. eigenvalues --    1.73047   1.73283   1.73691   1.74217   1.76906
  Beta virt. eigenvalues --    1.78767   1.78895   1.79565   1.80961   1.84100
  Beta virt. eigenvalues --    1.84570   1.84840   1.86048   1.86680   1.86835
  Beta virt. eigenvalues --    1.87323   1.90224   1.95573   1.95740   1.95783
  Beta virt. eigenvalues --    1.97812   1.98185   1.98976   2.00349   2.02688
  Beta virt. eigenvalues --    2.08072   2.14100   2.17452   2.20751   2.25250
  Beta virt. eigenvalues --    2.31585   2.36544   2.36781   2.39932   2.41626
  Beta virt. eigenvalues --    2.42330   2.48972   2.55580   2.70270   2.74728
  Beta virt. eigenvalues --    2.75833   2.76084   2.76529   2.77478   2.77975
  Beta virt. eigenvalues --    2.85092   2.94832   2.95226   2.95338   2.95651
  Beta virt. eigenvalues --    2.96664   2.98418   3.02842   3.03508   3.03586
  Beta virt. eigenvalues --    3.04414   3.09249   3.10193   3.10473   3.10939
  Beta virt. eigenvalues --    3.13944   3.14229   3.14560   3.14651   3.15660
  Beta virt. eigenvalues --    3.15671   3.16628   3.18117   3.19527   3.20308
  Beta virt. eigenvalues --    3.24401   3.28880   3.29687   3.30099   3.30321
  Beta virt. eigenvalues --    3.33232   3.34019   3.34044   3.35551   3.35576
  Beta virt. eigenvalues --    3.36161   3.37082   3.38237   3.39663   3.39692
  Beta virt. eigenvalues --    3.42653   3.43452   3.43808   3.44366   3.44811
  Beta virt. eigenvalues --    3.46713   3.46824   3.48102   3.53429   3.54807
  Beta virt. eigenvalues --    3.55598   3.55901   3.56992   3.57627   3.58244
  Beta virt. eigenvalues --    3.59121   3.62446   3.63181   3.63520   3.68634
  Beta virt. eigenvalues --    3.69184   3.74007   3.74695   3.78230   3.81511
  Beta virt. eigenvalues --    3.82348   3.84543   3.85348   3.87108   3.90828
  Beta virt. eigenvalues --    3.90831   3.93707   3.94037   3.94319   3.96085
  Beta virt. eigenvalues --    3.96886   3.98346   3.98922   3.99456   3.99871
  Beta virt. eigenvalues --    3.99873   4.01543   4.02465   4.03696   4.05383
  Beta virt. eigenvalues --    4.06304   4.08146   4.09710   4.11219   4.11994
  Beta virt. eigenvalues --    4.14181   4.19178   4.20600   4.22393   4.23508
  Beta virt. eigenvalues --    4.28208   4.28758   4.32326   4.32828   4.34139
  Beta virt. eigenvalues --    4.34553   4.37182   4.40476   4.43760   4.45687
  Beta virt. eigenvalues --    4.45984   4.51085   4.51299   4.51333   4.53088
  Beta virt. eigenvalues --    4.53332   4.61070   4.61644   4.63401   4.66964
  Beta virt. eigenvalues --    4.69605   4.69964   4.75207   4.79827   4.85043
  Beta virt. eigenvalues --    4.86516   4.98954   5.02932   5.06054   5.20184
  Beta virt. eigenvalues --    5.26345   5.36443   5.44917   6.03010   6.05226
  Beta virt. eigenvalues --    6.13602   6.17680   6.23057   6.46218   6.63794
  Beta virt. eigenvalues --    6.65933   6.66246   6.68983   6.74041   6.81405
  Beta virt. eigenvalues --    6.82096   6.93716   6.94854   7.01599   7.01766
  Beta virt. eigenvalues --    7.07990   7.12425   7.23699  12.83732  13.06616
  Beta virt. eigenvalues --   13.16422  13.24680  13.52050  13.55896  13.56731
  Beta virt. eigenvalues --   13.61828  14.42690  14.59878  14.95421  14.96225
  Beta virt. eigenvalues --   39.36447  39.49918  40.15202  40.29527
          Condensed to atoms (all electrons):
              1          2          3          4
     1  Si  12.883676   0.399239   0.151315   0.399239
     2  Si   0.399239  12.863182   0.399242   0.004864
     3  Si   0.151315   0.399242  12.883676   0.399242
     4  Si   0.399239   0.004864   0.399242  12.863182
 Mulliken atomic charges:
              1
     1  Si   0.166530
     2  Si   0.333473
     3  Si   0.166525
     4  Si   0.333473
 Sum of Mulliken atomic charges =   1.00000
 Mulliken charges with hydrogens summed into heavy atoms:
              1
     1  Si   0.166530
     2  Si   0.333473
     3  Si   0.166525
     4  Si   0.333473
 Sum of Mulliken charges with hydrogens summed into heavy atoms =   1.00000
          Atomic-Atomic Spin Densities.
              1          2          3          4
     1  Si   0.046548   0.040276  -0.058302   0.040276
     2  Si   0.040276   0.368739   0.040277  -0.017968
     3  Si  -0.058302   0.040277   0.046303   0.040277
     4  Si   0.040276  -0.017968   0.040277   0.368739
 Mulliken atomic spin densities:
              1
     1  Si   0.068798
     2  Si   0.431323
     3  Si   0.068555
     4  Si   0.431323
 Sum of Mulliken atomic spin densities =   1.00000
 Electronic spatial extent (au):  <R**2>=            620.4130
 Charge=              1.0000 electrons
 Dipole moment (field-independent basis, Debye):
    X=              0.0000    Y=              0.0000    Z=              0.0000  Tot=              0.0000
 Quadrupole moment (field-independent basis, Debye-Ang):
   XX=            -45.9830   YY=            -32.3584   ZZ=            -43.3327
   XY=              0.0000   XZ=              0.0000   YZ=              0.0000
 Traceless Quadrupole moment (field-independent basis, Debye-Ang):
   XX=             -5.4249   YY=              8.1996   ZZ=             -2.7746
   XY=              0.0000   XZ=              0.0000   YZ=              0.0000
 Octapole moment (field-independent basis, Debye-Ang**2):
  XXX=              0.0000  YYY=              0.0000  ZZZ=             -0.0002  XYY=              0.0000
  XXY=              0.0000  XXZ=              0.0000  XZZ=              0.0000  YZZ=              0.0000
  YYZ=             -0.0002  XYZ=              0.0000
 Hexadecapole moment (field-independent basis, Debye-Ang**3):
 XXXX=            -79.9291 YYYY=           -507.8138 ZZZZ=           -334.3844 XXXY=              0.0000
 XXXZ=              0.0000 YYYX=              0.0000 YYYZ=              0.0000 ZZZX=              0.0000
 ZZZY=              0.0000 XXYY=            -97.5725 XXZZ=            -67.3063 YYZZ=           -154.7750
 XXYZ=              0.0000 YYXZ=              0.0000 ZZXY=              0.0000
 N-N= 2.465807269193D+02 E-N=-4.851601683859D+03  KE= 1.732271169952D+03
 Symmetry A1   KE= 1.111882907180D+03
 Symmetry A2   KE= 3.654387079427D+01
 Symmetry B1   KE= 1.119016894140D+02
 Symmetry B2   KE= 4.719427025637D+02
                          Isotropic Fermi Contact Couplings
        Atom                 a.u.       MegaHertz       Gauss      10(-4) cm-1
     1  Si(29)            -0.07375      65.54517      23.38815      21.86352
     2  Si(29)             0.03453     -30.69068     -10.95120     -10.23731
     3  Si(29)            -0.07383      65.61815      23.41419      21.88786
     4  Si(29)             0.03453     -30.69068     -10.95120     -10.23731
 --------------------------------------------------------
       Center         ----  Spin Dipole Couplings  ----
                      3XX-RR        3YY-RR        3ZZ-RR
 --------------------------------------------------------
     1   Atom       -0.180719      0.439082     -0.258363
     2   Atom       -0.562609      1.206010     -0.643402
     3   Atom       -0.180537      0.439355     -0.258818
     4   Atom       -0.562609      1.206010     -0.643402
 --------------------------------------------------------
                        XY            XZ            YZ
 --------------------------------------------------------
     1   Atom        0.000000      0.000000      0.000000
     2   Atom        0.000000      0.000000     -0.000072
     3   Atom        0.000000      0.000000      0.000000
     4   Atom        0.000000      0.000000      0.000072
 --------------------------------------------------------


 ---------------------------------------------------------------------------------
              Anisotropic Spin Dipole Couplings in Principal Axis System
 ---------------------------------------------------------------------------------

       Atom             a.u.   MegaHertz   Gauss  10(-4) cm-1        Axes

              Baa    -0.2584    27.408     9.780     9.142  0.0000  0.0000  1.0000
     1 Si(29) Bbb    -0.1807    19.171     6.841     6.395  1.0000  0.0000  0.0000
              Bcc     0.4391   -46.580   -16.621   -15.537  0.0000  1.0000  0.0000
 
              Baa    -0.6434    68.255    24.355    22.767  0.0000  0.0000  1.0000
     2 Si(29) Bbb    -0.5626    59.684    21.297    19.908  1.0000  0.0000  0.0000
              Bcc     1.2060  -127.938   -45.652   -42.676  0.0000  1.0000  0.0000
 
              Baa    -0.2588    27.457     9.797     9.159  0.0000  0.0000  1.0000
     3 Si(29) Bbb    -0.1805    19.152     6.834     6.388  1.0000  0.0000  0.0000
              Bcc     0.4394   -46.609   -16.631   -15.547  0.0000  1.0000  0.0000
 
              Baa    -0.6434    68.255    24.355    22.767  0.0000  0.0000  1.0000
     4 Si(29) Bbb    -0.5626    59.684    21.297    19.908  1.0000  0.0000  0.0000
              Bcc     1.2060  -127.938   -45.652   -42.676  0.0000  1.0000  0.0000
 

 ---------------------------------------------------------------------------------

 1\1\GINC-NODE41\SP\UHF\GFHFB2\Si4(1+,2)\TAM\04-Jan-2012\0\\#N Geom=All
 Check Guess=TCheck SCRF=Check HF/GFHFB2 SCF=Tight\\s4-c\\1,2\Si,0.,0.,
 1.3417477062\Si,0.,1.8707632326,-0.0000090962\Si,0.,0.,-1.3417555137\S
 i,0.,-1.8707632326,-0.0000090962\\Version=AM64L-G09RevA.02\State=2-B2\
 HF=-1155.4076901\S2=0.820978\S2-1=0.\S2A=0.751624\RMSD=1.047e-09\Dipol
 e=0.,0.,-0.0000103\Quadrupole=-4.0333148,6.0961945,-2.0628796,0.,0.,0.
 \PG=C02V [C2(Si1Si1),SGV(Si2)]\\@


 AS FAR AS THE LAWS OF MATHEMATICS REFER TO REALITY,
 THEY ARE NOT CERTAIN; AND AS FAR AS THEY ARE CERTAIN,
 THEY DO NOT REFER TO REALITY.

                                         -- ALBERT EINSTEIN
 Diagonal vibrational polarizability:
        0.0000000       0.0000000       0.0000000

 Temperature=              298.150000 Pressure=                      1.000000
 E(ZPE)=                     0.004443 E(Thermal)=                    0.009761
 E(CCSD(T))=             -1155.661316 E(Empiric)=                   -0.052337
 DE(Plus)=                  -0.005260 DE(2DF)=                      -0.103337
 E(Delta-G3XP)=             -1.252539 DE(HF)=                       -0.027522
 G4(0 K)=                -1157.097868 G4 Energy=                 -1157.092550
 G4 Enthalpy=            -1157.091606 G4 Free Energy=            -1157.127915
 1\1\GINC-NODE41\Mixed\G4\G4\Si4(1+,2)\TAM\04-Jan-2012\0\\# G4 opt=(Car
 tesian) scfcyc=500 scf=xqc\\s4-c\\1,2\Si,0.,0.,1.3417477062\Si,0.,1.87
 07632326,-0.0000090962\Si,0.,0.,-1.3417555137\Si,0.,-1.8707632326,-0.0
 000090962\\Version=AM64L-G09RevA.02\State=2-B2\MP2/GTBas1=-1155.616622
 9\MP4/GTBas1=-1155.6676223\CCSD(T)/G3Bas1=-1155.6613156\MP2/GTBas2=-11
 55.6214427\MP4/GTBas2=-1155.6728819\MP2/GTBas3=-1155.7115807\MP4/GTBas
 3=-1155.7709597\HF/GTLargeXP=-1155.3809795\MP2/GTLargeXP=-1156.9689397
 \HF/GFHFB1=-1155.4043602\HF/GFHFB2=-1155.4076901\G4=-1157.0978675\Freq
 Coord=0.,0.,2.5355357041,0.,3.5352301691,-0.0000171894,0.,0.,-2.535550
 4582,0.,-3.5352301691,-0.0000171894\PG=C02V [C2(Si1Si1),SGV(Si2)]\NIma
 g=0\\0.00219789,0.,0.12192106,0.,0.,0.08703520,-0.00228257,0.,0.,0.002
 20989,0.,-0.05023118,0.03222048,0.,0.12723780,0.,0.05150159,-0.0213950
 8,0.,0.00000107,0.05827113,0.00236726,0.,0.,-0.00228242,0.,0.,0.002197
 58,0.,-0.02145870,0.,0.,-0.05023290,-0.05150265,0.,0.12192450,0.,0.,-0
 .04424504,0.,-0.03222155,-0.02139534,0.,0.,0.08703572,-0.00228257,0.,0
 .,0.00235510,0.,0.,-0.00228242,0.,0.,0.00220989,0.,-0.05023118,-0.0322
 2048,0.,-0.02677372,0.,0.,-0.05023290,0.03222155,0.,0.12723780,0.,-0.0
 5150159,-0.02139508,0.,0.,-0.01548071,0.,0.05150265,-0.02139534,0.,-0.
 00000107,0.05827113\\0.,0.,-0.00009546,0.,-0.00000295,-0.00000042,0.,0
 .,0.00009630,0.,0.00000295,-0.00000042\\\@
 Job cpu time:  0 days  1 hours 18 minutes  2.6 seconds.
 File lengths (MBytes):  RWF=    197 Int=      0 D2E=      0 Chk=     13 Scr=      1
 Normal termination of Gaussian 09 at Wed Jan  4 12:20:41 2012.
