 Entering Gaussian System, Link 0=g09
 Initial command:
 /usr/local/chem/g09A2/l1.exe /temp0/tam/Gau-12890.inp -scrdir=/temp0/tam/
 Entering Link 1 = /usr/local/chem/g09A2/l1.exe PID=     12891.
  
 Copyright (c) 1988,1990,1992,1993,1995,1998,2003,2009, Gaussian, Inc.
                  All Rights Reserved.
  
 This is part of the Gaussian(R) 09 program.  It is based on
 the Gaussian(R) 03 system (copyright 2003, Gaussian, Inc.),
 the Gaussian(R) 98 system (copyright 1998, Gaussian, Inc.),
 the Gaussian(R) 94 system (copyright 1995, Gaussian, Inc.),
 the Gaussian 92(TM) system (copyright 1992, Gaussian, Inc.),
 the Gaussian 90(TM) system (copyright 1990, Gaussian, Inc.),
 the Gaussian 88(TM) system (copyright 1988, Gaussian, Inc.),
 the Gaussian 86(TM) system (copyright 1986, Carnegie Mellon
 University), and the Gaussian 82(TM) system (copyright 1983,
 Carnegie Mellon University). Gaussian is a federally registered
 trademark of Gaussian, Inc.
  
 This software contains proprietary and confidential information,
 including trade secrets, belonging to Gaussian, Inc.
  
 This software is provided under written license and may be
 used, copied, transmitted, or stored only in accord with that
 written license.
  
 The following legend is applicable only to US Government
 contracts under FAR:
  
                    RESTRICTED RIGHTS LEGEND
  
 Use, reproduction and disclosure by the US Government is
 subject to restrictions as set forth in subparagraphs (a)
 and (c) of the Commercial Computer Software - Restricted
 Rights clause in FAR 52.227-19.
  
 Gaussian, Inc.
 340 Quinnipiac St., Bldg. 40, Wallingford CT 06492
  
  
 ---------------------------------------------------------------
 Warning -- This program may not be used in any manner that
 competes with the business of Gaussian, Inc. or will provide
 assistance to any competitor of Gaussian, Inc.  The licensee
 of this program is prohibited from giving any competitor of
 Gaussian, Inc. access to this program.  By using this program,
 the user acknowledges that Gaussian, Inc. is engaged in the
 business of creating and licensing software in the field of
 computational chemistry and represents and warrants to the
 licensee that it is not a competitor of Gaussian, Inc. and that
 it will not use this program in any manner prohibited above.
 ---------------------------------------------------------------
  

 Cite this work as:
 Gaussian 09, Revision A.02,
 M. J. Frisch, G. W. Trucks, H. B. Schlegel, G. E. Scuseria, 
 M. A. Robb, J. R. Cheeseman, G. Scalmani, V. Barone, B. Mennucci, 
 G. A. Petersson, H. Nakatsuji, M. Caricato, X. Li, H. P. Hratchian, 
 A. F. Izmaylov, J. Bloino, G. Zheng, J. L. Sonnenberg, M. Hada, 
 M. Ehara, K. Toyota, R. Fukuda, J. Hasegawa, M. Ishida, T. Nakajima, 
 Y. Honda, O. Kitao, H. Nakai, T. Vreven, J. A. Montgomery, Jr., 
 J. E. Peralta, F. Ogliaro, M. Bearpark, J. J. Heyd, E. Brothers, 
 K. N. Kudin, V. N. Staroverov, R. Kobayashi, J. Normand, 
 K. Raghavachari, A. Rendell, J. C. Burant, S. S. Iyengar, J. Tomasi, 
 M. Cossi, N. Rega, J. M. Millam, M. Klene, J. E. Knox, J. B. Cross, 
 V. Bakken, C. Adamo, J. Jaramillo, R. Gomperts, R. E. Stratmann, 
 O. Yazyev, A. J. Austin, R. Cammi, C. Pomelli, J. W. Ochterski, 
 R. L. Martin, K. Morokuma, V. G. Zakrzewski, G. A. Voth, 
 P. Salvador, J. J. Dannenberg, S. Dapprich, A. D. Daniels, 
 O. Farkas, J. B. Foresman, J. V. Ortiz, J. Cioslowski, 
 and D. J. Fox, Gaussian, Inc., Wallingford CT, 2009.
 
 ******************************************
 Gaussian 09:  AM64L-G09RevA.02 11-Jun-2009
                18-Dec-2011 
 ******************************************
 %NprocShared=12
 Will use up to   12 processors via shared memory.
 %mem=70050MB
 %chk=S9L-ne-d-01
 -----------------------
 # G4 scfcyc=500 scf=xqc
 -----------------------
 1/14=-1,18=20,19=15,26=3,38=1/1,3;
 2/9=110,12=2,17=6,18=5,40=1/2;
 3/5=35,7=104,11=2,16=1,25=1,30=1,71=1,74=-5/1,2,3;
 4//1;
 5/5=2,7=500,8=3,13=1,38=5/2,8;
 6/7=2,8=2,9=2,10=2,28=1/1;
 7//1,2,3,16;
 1/14=-1,18=20,19=15/3(2);
 2/9=110/2;
 99//99;
 2/9=110/2;
 3/5=35,7=104,11=2,16=1,25=1,30=1,71=1,74=-5/1,2,3;
 4/5=5,16=3/1;
 5/5=2,7=500,8=3,13=1,38=5/2,8;
 7//1,2,3,16;
 1/14=-1,18=20,19=15/3(-5);
 2/9=110/2;
 6/7=2,8=2,9=2,10=2,19=2,28=1/1;
 99/9=1/99;
 ------
 si12-n
 ------
 Symbolic Z-matrix:
 Charge =  1 Multiplicity = 2
 Si                    0.01042  -0.07868   3.70166 
 Si                   -1.6362    0.33713   1.88019 
 Si                    0.95258   0.66749   1.70986 
 Si                    0.25101  -1.7945    1.86948 
 Si                    1.66318  -1.16601   0. 
 Si                   -0.98643   1.7007    0. 
 Si                   -1.1525   -1.11799   0. 
 Si                   -1.6362    0.33713  -1.88019 
 Si                    0.95258   0.66749  -1.70986 
 Si                    0.25101  -1.7945   -1.86948 
 Si                    0.01042  -0.07868  -3.70166 
 Si                    1.31996   2.32042   0. 
 

 GradGradGradGradGradGradGradGradGradGradGradGradGradGradGradGradGradGrad
 Berny optimization.
 Initialization pass.
                           ----------------------------
                           !    Initial Parameters    !
                           ! (Angstroms and Degrees)  !
 --------------------------                            --------------------------
 ! Name  Definition              Value          Derivative Info.                !
 --------------------------------------------------------------------------------
 ! R1    R(1,2)                  2.4904         estimate D2E/DX2                !
 ! R2    R(1,3)                  2.3263         estimate D2E/DX2                !
 ! R3    R(1,4)                  2.5217         estimate D2E/DX2                !
 ! R4    R(2,3)                  2.6153         estimate D2E/DX2                !
 ! R5    R(2,4)                  2.847          estimate D2E/DX2                !
 ! R6    R(2,6)                  2.4118         estimate D2E/DX2                !
 ! R7    R(2,7)                  2.4262         estimate D2E/DX2                !
 ! R8    R(3,4)                  2.565          estimate D2E/DX2                !
 ! R9    R(3,5)                  2.6058         estimate D2E/DX2                !
 ! R10   R(3,6)                  2.784          estimate D2E/DX2                !
 ! R11   R(3,12)                 2.4064         estimate D2E/DX2                !
 ! R12   R(4,5)                  2.4257         estimate D2E/DX2                !
 ! R13   R(4,7)                  2.4336         estimate D2E/DX2                !
 ! R14   R(5,7)                  2.8161         estimate D2E/DX2                !
 ! R15   R(5,9)                  2.6058         estimate D2E/DX2                !
 ! R16   R(5,10)                 2.4257         estimate D2E/DX2                !
 ! R17   R(6,7)                  2.8236         estimate D2E/DX2                !
 ! R18   R(6,8)                  2.4118         estimate D2E/DX2                !
 ! R19   R(6,9)                  2.784          estimate D2E/DX2                !
 ! R20   R(6,12)                 2.3882         estimate D2E/DX2                !
 ! R21   R(7,8)                  2.4262         estimate D2E/DX2                !
 ! R22   R(7,10)                 2.4336         estimate D2E/DX2                !
 ! R23   R(8,9)                  2.6153         estimate D2E/DX2                !
 ! R24   R(8,10)                 2.847          estimate D2E/DX2                !
 ! R25   R(8,11)                 2.4904         estimate D2E/DX2                !
 ! R26   R(9,10)                 2.565          estimate D2E/DX2                !
 ! R27   R(9,11)                 2.3263         estimate D2E/DX2                !
 ! R28   R(9,12)                 2.4064         estimate D2E/DX2                !
 ! R29   R(10,11)                2.5217         estimate D2E/DX2                !
 ! A1    A(1,2,6)              119.108          estimate D2E/DX2                !
 ! A2    A(1,2,7)              109.5634         estimate D2E/DX2                !
 ! A3    A(3,2,7)               80.093          estimate D2E/DX2                !
 ! A4    A(4,2,6)              103.9925         estimate D2E/DX2                !
 ! A5    A(1,3,5)              116.5244         estimate D2E/DX2                !
 ! A6    A(1,3,6)              111.2732         estimate D2E/DX2                !
 ! A7    A(1,3,12)             152.9394         estimate D2E/DX2                !
 ! A8    A(2,3,5)              102.9314         estimate D2E/DX2                !
 ! A9    A(2,3,12)             106.5086         estimate D2E/DX2                !
 ! A10   A(4,3,6)              101.7675         estimate D2E/DX2                !
 ! A11   A(4,3,12)             138.1837         estimate D2E/DX2                !
 ! A12   A(5,3,6)               92.7544         estimate D2E/DX2                !
 ! A13   A(5,3,12)              88.5923         estimate D2E/DX2                !
 ! A14   A(1,4,5)              116.0537         estimate D2E/DX2                !
 ! A15   A(1,4,7)              108.2989         estimate D2E/DX2                !
 ! A16   A(2,4,5)              101.2337         estimate D2E/DX2                !
 ! A17   A(3,4,7)               80.974          estimate D2E/DX2                !
 ! A18   A(3,5,7)               73.4617         estimate D2E/DX2                !
 ! A19   A(3,5,9)               82.017          estimate D2E/DX2                !
 ! A20   A(3,5,10)             121.9547         estimate D2E/DX2                !
 ! A21   A(4,5,9)              121.9547         estimate D2E/DX2                !
 ! A22   A(4,5,10)             100.8313         estimate D2E/DX2                !
 ! A23   A(7,5,9)               73.4617         estimate D2E/DX2                !
 ! A24   A(2,6,8)              102.4457         estimate D2E/DX2                !
 ! A25   A(2,6,9)              117.1687         estimate D2E/DX2                !
 ! A26   A(2,6,12)             114.0103         estimate D2E/DX2                !
 ! A27   A(3,6,7)               70.7608         estimate D2E/DX2                !
 ! A28   A(3,6,8)              117.1687         estimate D2E/DX2                !
 ! A29   A(3,6,9)               75.7826         estimate D2E/DX2                !
 ! A30   A(7,6,9)               70.7608         estimate D2E/DX2                !
 ! A31   A(7,6,12)             108.412          estimate D2E/DX2                !
 ! A32   A(8,6,12)             114.0103         estimate D2E/DX2                !
 ! A33   A(2,7,5)              102.0966         estimate D2E/DX2                !
 ! A34   A(2,7,8)              101.6013         estimate D2E/DX2                !
 ! A35   A(2,7,10)             151.2837         estimate D2E/DX2                !
 ! A36   A(4,7,6)              104.0979         estimate D2E/DX2                !
 ! A37   A(4,7,8)              151.2837         estimate D2E/DX2                !
 ! A38   A(4,7,10)             100.3835         estimate D2E/DX2                !
 ! A39   A(5,7,6)               87.6051         estimate D2E/DX2                !
 ! A40   A(5,7,8)              102.0966         estimate D2E/DX2                !
 ! A41   A(6,7,10)             104.0979         estimate D2E/DX2                !
 ! A42   A(6,8,10)             103.9925         estimate D2E/DX2                !
 ! A43   A(6,8,11)             119.108          estimate D2E/DX2                !
 ! A44   A(7,8,9)               80.093          estimate D2E/DX2                !
 ! A45   A(7,8,11)             109.5634         estimate D2E/DX2                !
 ! A46   A(5,9,6)               92.7544         estimate D2E/DX2                !
 ! A47   A(5,9,8)              102.9314         estimate D2E/DX2                !
 ! A48   A(5,9,11)             116.5244         estimate D2E/DX2                !
 ! A49   A(5,9,12)              88.5923         estimate D2E/DX2                !
 ! A50   A(6,9,10)             101.7675         estimate D2E/DX2                !
 ! A51   A(6,9,11)             111.2732         estimate D2E/DX2                !
 ! A52   A(8,9,12)             106.5086         estimate D2E/DX2                !
 ! A53   A(10,9,12)            138.1837         estimate D2E/DX2                !
 ! A54   A(11,9,12)            152.9394         estimate D2E/DX2                !
 ! A55   A(5,10,8)             101.2337         estimate D2E/DX2                !
 ! A56   A(5,10,11)            116.0537         estimate D2E/DX2                !
 ! A57   A(7,10,9)              80.974          estimate D2E/DX2                !
 ! A58   A(7,10,11)            108.2989         estimate D2E/DX2                !
 ! A59   A(3,12,9)              90.5587         estimate D2E/DX2                !
 ! D1    D(7,2,3,5)             -9.7064         estimate D2E/DX2                !
 ! D2    D(7,2,3,12)            82.687          estimate D2E/DX2                !
 ! D3    D(6,2,4,5)              1.8288         estimate D2E/DX2                !
 ! D4    D(1,2,6,8)            130.0599         estimate D2E/DX2                !
 ! D5    D(1,2,6,9)             67.6659         estimate D2E/DX2                !
 ! D6    D(1,2,6,12)             6.3855         estimate D2E/DX2                !
 ! D7    D(4,2,6,8)             71.5566         estimate D2E/DX2                !
 ! D8    D(4,2,6,9)              9.1625         estimate D2E/DX2                !
 ! D9    D(4,2,6,12)           -52.1179         estimate D2E/DX2                !
 ! D10   D(1,2,7,5)            -37.1764         estimate D2E/DX2                !
 ! D11   D(1,2,7,8)           -142.4119         estimate D2E/DX2                !
 ! D12   D(1,2,7,10)           -69.366          estimate D2E/DX2                !
 ! D13   D(3,2,7,5)              8.9462         estimate D2E/DX2                !
 ! D14   D(3,2,7,8)            -96.2894         estimate D2E/DX2                !
 ! D15   D(3,2,7,10)           -23.2435         estimate D2E/DX2                !
 ! D16   D(6,3,4,7)             12.3086         estimate D2E/DX2                !
 ! D17   D(12,3,4,7)           -36.1359         estimate D2E/DX2                !
 ! D18   D(1,3,5,7)             71.4864         estimate D2E/DX2                !
 ! D19   D(1,3,5,9)            146.5228         estimate D2E/DX2                !
 ! D20   D(1,3,5,10)            97.9224         estimate D2E/DX2                !
 ! D21   D(2,3,5,7)              8.5844         estimate D2E/DX2                !
 ! D22   D(2,3,5,9)             83.6208         estimate D2E/DX2                !
 ! D23   D(2,3,5,10)            35.0204         estimate D2E/DX2                !
 ! D24   D(6,3,5,7)            -43.9798         estimate D2E/DX2                !
 ! D25   D(6,3,5,9)             31.0567         estimate D2E/DX2                !
 ! D26   D(6,3,5,10)           -17.5438         estimate D2E/DX2                !
 ! D27   D(12,3,5,7)           -98.0342         estimate D2E/DX2                !
 ! D28   D(12,3,5,9)           -22.9977         estimate D2E/DX2                !
 ! D29   D(12,3,5,10)          -71.5982         estimate D2E/DX2                !
 ! D30   D(1,3,6,7)            -75.219          estimate D2E/DX2                !
 ! D31   D(1,3,6,8)           -104.7704         estimate D2E/DX2                !
 ! D32   D(1,3,6,9)           -149.4591         estimate D2E/DX2                !
 ! D33   D(4,3,6,7)            -11.0808         estimate D2E/DX2                !
 ! D34   D(4,3,6,8)            -40.6322         estimate D2E/DX2                !
 ! D35   D(4,3,6,9)            -85.3209         estimate D2E/DX2                !
 ! D36   D(5,3,6,7)             44.683          estimate D2E/DX2                !
 ! D37   D(5,3,6,8)             15.1316         estimate D2E/DX2                !
 ! D38   D(5,3,6,9)            -29.5571         estimate D2E/DX2                !
 ! D39   D(1,3,12,9)          -134.2689         estimate D2E/DX2                !
 ! D40   D(2,3,12,9)           -78.3022         estimate D2E/DX2                !
 ! D41   D(4,3,12,9)            -5.0549         estimate D2E/DX2                !
 ! D42   D(5,3,12,9)            24.7709         estimate D2E/DX2                !
 ! D43   D(1,4,5,9)            -70.0182         estimate D2E/DX2                !
 ! D44   D(1,4,5,10)          -132.6807         estimate D2E/DX2                !
 ! D45   D(2,4,5,9)            -13.7929         estimate D2E/DX2                !
 ! D46   D(2,4,5,10)           -76.4553         estimate D2E/DX2                !
 ! D47   D(1,4,7,6)             35.4515         estimate D2E/DX2                !
 ! D48   D(1,4,7,8)             72.2053         estimate D2E/DX2                !
 ! D49   D(1,4,7,10)           142.9899         estimate D2E/DX2                !
 ! D50   D(3,4,7,6)            -12.2493         estimate D2E/DX2                !
 ! D51   D(3,4,7,8)             24.5046         estimate D2E/DX2                !
 ! D52   D(3,4,7,10)            95.2891         estimate D2E/DX2                !
 ! D53   D(3,5,7,2)             -9.229          estimate D2E/DX2                !
 ! D54   D(3,5,7,6)             43.1954         estimate D2E/DX2                !
 ! D55   D(3,5,7,8)             95.6199         estimate D2E/DX2                !
 ! D56   D(9,5,7,2)            -95.6199         estimate D2E/DX2                !
 ! D57   D(9,5,7,6)            -43.1954         estimate D2E/DX2                !
 ! D58   D(9,5,7,8)              9.229          estimate D2E/DX2                !
 ! D59   D(3,5,9,6)            -31.0567         estimate D2E/DX2                !
 ! D60   D(3,5,9,8)            -83.6208         estimate D2E/DX2                !
 ! D61   D(3,5,9,11)          -146.5228         estimate D2E/DX2                !
 ! D62   D(3,5,9,12)            22.9977         estimate D2E/DX2                !
 ! D63   D(4,5,9,6)             17.5438         estimate D2E/DX2                !
 ! D64   D(4,5,9,8)            -35.0204         estimate D2E/DX2                !
 ! D65   D(4,5,9,11)           -97.9224         estimate D2E/DX2                !
 ! D66   D(4,5,9,12)            71.5982         estimate D2E/DX2                !
 ! D67   D(7,5,9,6)             43.9798         estimate D2E/DX2                !
 ! D68   D(7,5,9,8)             -8.5844         estimate D2E/DX2                !
 ! D69   D(7,5,9,11)           -71.4864         estimate D2E/DX2                !
 ! D70   D(7,5,9,12)            98.0342         estimate D2E/DX2                !
 ! D71   D(3,5,10,8)            13.7929         estimate D2E/DX2                !
 ! D72   D(3,5,10,11)           70.0182         estimate D2E/DX2                !
 ! D73   D(4,5,10,8)            76.4553         estimate D2E/DX2                !
 ! D74   D(4,5,10,11)          132.6807         estimate D2E/DX2                !
 ! D75   D(3,6,7,4)             11.7984         estimate D2E/DX2                !
 ! D76   D(3,6,7,5)            -40.5789         estimate D2E/DX2                !
 ! D77   D(3,6,7,10)           -92.9562         estimate D2E/DX2                !
 ! D78   D(9,6,7,4)             92.9562         estimate D2E/DX2                !
 ! D79   D(9,6,7,5)             40.5789         estimate D2E/DX2                !
 ! D80   D(9,6,7,10)           -11.7984         estimate D2E/DX2                !
 ! D81   D(12,6,7,4)            52.3773         estimate D2E/DX2                !
 ! D82   D(12,6,7,5)             0.0            estimate D2E/DX2                !
 ! D83   D(12,6,7,10)          -52.3773         estimate D2E/DX2                !
 ! D84   D(2,6,8,10)           -71.5566         estimate D2E/DX2                !
 ! D85   D(2,6,8,11)          -130.0599         estimate D2E/DX2                !
 ! D86   D(3,6,8,10)            -9.1625         estimate D2E/DX2                !
 ! D87   D(3,6,8,11)           -67.6659         estimate D2E/DX2                !
 ! D88   D(12,6,8,10)           52.1179         estimate D2E/DX2                !
 ! D89   D(12,6,8,11)           -6.3855         estimate D2E/DX2                !
 ! D90   D(2,6,9,5)            -15.1316         estimate D2E/DX2                !
 ! D91   D(2,6,9,10)            40.6322         estimate D2E/DX2                !
 ! D92   D(2,6,9,11)           104.7704         estimate D2E/DX2                !
 ! D93   D(3,6,9,5)             29.5571         estimate D2E/DX2                !
 ! D94   D(3,6,9,10)            85.3209         estimate D2E/DX2                !
 ! D95   D(3,6,9,11)           149.4591         estimate D2E/DX2                !
 ! D96   D(7,6,9,5)            -44.683          estimate D2E/DX2                !
 ! D97   D(7,6,9,10)            11.0808         estimate D2E/DX2                !
 ! D98   D(7,6,9,11)            75.219          estimate D2E/DX2                !
 ! D99   D(2,7,8,9)             96.2894         estimate D2E/DX2                !
 ! D100  D(2,7,8,11)           142.4119         estimate D2E/DX2                !
 ! D101  D(4,7,8,9)             23.2435         estimate D2E/DX2                !
 ! D102  D(4,7,8,11)            69.366          estimate D2E/DX2                !
 ! D103  D(5,7,8,9)             -8.9462         estimate D2E/DX2                !
 ! D104  D(5,7,8,11)            37.1764         estimate D2E/DX2                !
 ! D105  D(2,7,10,9)           -24.5046         estimate D2E/DX2                !
 ! D106  D(2,7,10,11)          -72.2053         estimate D2E/DX2                !
 ! D107  D(4,7,10,9)           -95.2891         estimate D2E/DX2                !
 ! D108  D(4,7,10,11)         -142.9899         estimate D2E/DX2                !
 ! D109  D(6,7,10,9)            12.2493         estimate D2E/DX2                !
 ! D110  D(6,7,10,11)          -35.4515         estimate D2E/DX2                !
 ! D111  D(7,8,9,5)              9.7064         estimate D2E/DX2                !
 ! D112  D(7,8,9,12)           -82.687          estimate D2E/DX2                !
 ! D113  D(6,8,10,5)            -1.8288         estimate D2E/DX2                !
 ! D114  D(6,9,10,7)           -12.3086         estimate D2E/DX2                !
 ! D115  D(12,9,10,7)           36.1359         estimate D2E/DX2                !
 ! D116  D(5,9,12,3)           -24.7709         estimate D2E/DX2                !
 ! D117  D(8,9,12,3)            78.3022         estimate D2E/DX2                !
 ! D118  D(10,9,12,3)            5.0549         estimate D2E/DX2                !
 ! D119  D(11,9,12,3)          134.2689         estimate D2E/DX2                !
 --------------------------------------------------------------------------------
 Trust Radius=3.00D-01 FncErr=1.00D-07 GrdErr=1.00D-06
 Number of steps in this run= 100 maximum allowed number of steps= 100.
 GradGradGradGradGradGradGradGradGradGradGradGradGradGradGradGradGradGrad

                          Input orientation:                          
 ---------------------------------------------------------------------
 Center     Atomic      Atomic             Coordinates (Angstroms)
 Number     Number       Type             X           Y           Z
 ---------------------------------------------------------------------
      1         14           0        0.010415   -0.078675    3.701660
      2         14           0       -1.636199    0.337125    1.880185
      3         14           0        0.952576    0.667485    1.709864
      4         14           0        0.251012   -1.794495    1.869481
      5         14           0        1.663180   -1.166010    0.000000
      6         14           0       -0.986431    1.700697    0.000000
      7         14           0       -1.152505   -1.117993    0.000000
      8         14           0       -1.636199    0.337125   -1.880185
      9         14           0        0.952576    0.667485   -1.709864
     10         14           0        0.251012   -1.794495   -1.869481
     11         14           0        0.010415   -0.078675   -3.701660
     12         14           0        1.319959    2.320422    0.000000
 ---------------------------------------------------------------------
                    Distance matrix (angstroms):
                    1          2          3          4          5
     1  Si   0.000000
     2  Si   2.490381   0.000000
     3  Si   2.326300   2.615321   0.000000
     4  Si   2.521667   2.847013   2.564959   0.000000
     5  Si   4.197168   4.084167   2.605820   2.425731   0.000000
     6  Si   4.226364   2.411767   2.784045   4.152419   3.903645
     7  Si   4.016821   2.426196   3.246988   2.433613   2.816094
     8  Si   5.834486   3.760370   4.438394   4.708010   4.084167
     9  Si   5.543376   4.438394   3.419728   4.400596   2.605820
    10  Si   5.834341   4.708010   4.400596   3.738961   2.425731
    11  Si   7.403320   5.834486   5.543376   5.834341   4.197168
    12  Si   4.601397   4.025845   2.406409   4.644367   3.503285
                    6          7          8          9         10
     6  Si   0.000000
     7  Si   2.823578   0.000000
     8  Si   2.411767   2.426196   0.000000
     9  Si   2.784045   3.246988   2.615321   0.000000
    10  Si   4.152419   2.433613   2.847013   2.564959   0.000000
    11  Si   4.226364   4.016821   2.490381   2.326300   2.521667
    12  Si   2.388199   4.235065   4.025845   2.406409   4.644367
                   11         12
    11  Si   0.000000
    12  Si   4.601397   0.000000
 Stoichiometry    Si12(1+,2)
 Framework group  CS[SG(Si4),X(Si8)]
 Deg. of freedom    17
 Full point group                 CS      NOp   2
 Largest Abelian subgroup         CS      NOp   2
 Largest concise Abelian subgroup CS      NOp   2
                         Standard orientation:                         
 ---------------------------------------------------------------------
 Center     Atomic      Atomic             Coordinates (Angstroms)
 Number     Number       Type             X           Y           Z
 ---------------------------------------------------------------------
      1         14           0       -0.078674   -0.010438    3.701660
      2         14           0        0.336981    1.636213    1.880185
      3         14           0        0.667570   -0.952533    1.709864
      4         14           0       -1.794472   -0.251186    1.869481
      5         14           0       -1.165863   -1.663299    0.000000
      6         14           0        1.700610    0.986565    0.000000
      7         14           0       -1.118095    1.152390    0.000000
      8         14           0        0.336981    1.636213   -1.880185
      9         14           0        0.667570   -0.952533   -1.709864
     10         14           0       -1.794472   -0.251186   -1.869481
     11         14           0       -0.078674   -0.010438   -3.701660
     12         14           0        2.320539   -1.319770    0.000000
 ---------------------------------------------------------------------
 Rotational constants (GHZ):      0.5547527      0.2941225      0.2746589
 Standard basis: GTBas3 (6D, 7F)
 There are   216 symmetry adapted basis functions of A'  symmetry.
 There are   168 symmetry adapted basis functions of A"  symmetry.
 Integral buffers will be    131072 words long.
 Raffenetti 2 integral format.
 Two-electron integral symmetry is turned on.
   384 basis functions,   816 primitive gaussians,   420 cartesian basis functions
    84 alpha electrons       83 beta electrons
       nuclear repulsion energy      2070.1979248541 Hartrees.
 NAtoms=   12 NActive=   12 NUniq=    8 SFac= 1.69D+00 NAtFMM=   80 NAOKFM=F Big=F
 One-electron integrals computed using PRISM.
 NBasis=   384 RedAO= T  NBF=   216   168
 NBsUse=   384 1.00D-06 NBFU=   216   168
 Harris functional with IExCor=  402 diagonalized for initial guess.
 ExpMin= 7.78D-02 ExpMax= 1.61D+04 ExpMxC= 2.43D+03 IAcc=2 IRadAn=         0 AccDes= 0.00D+00
 HarFok:  IExCor=  402 AccDes= 0.00D+00 IRadAn=         0 IDoV= 1
 ScaDFX=  1.000000  1.000000  1.000000  1.000000
 FoFCou: FMM=F IPFlag=           0 FMFlag=      100000 FMFlg1=           0
         NFxFlg=           0 DoJE=T BraDBF=F KetDBF=T FulRan=T
         Omega=  0.000000  0.000000  1.000000  0.000000  0.000000 ICntrl=     500 IOpCl=  0
         NMat0=    1 NMatS0=    1 NMatT0=    0 NMatD0=    1 NMtDS0=    0 NMtDT0=    0
         I1Cent=           4 NGrid=           0.
 Petite list used in FoFCou.
 Initial guess orbital symmetries:
 Alpha Orbitals:
       Occupied  (A') (A') (A") (A') (A") (A') (A") (A') (A') (A')
                 (A") (A') (A') (A') (A") (A') (A") (A') (A") (A')
                 (A') (A') (A") (A') (A") (A') (A") (A') (A') (A")
                 (A') (A') (A") (A') (A") (A') (A') (A") (A') (A")
                 (A') (A") (A") (A') (A') (A") (A") (A') (A") (A')
                 (A') (A') (A") (A') (A') (A") (A") (A') (A") (A')
                 (A') (A") (A') (A') (A') (A") (A") (A") (A') (A')
                 (A') (A') (A') (A") (A') (A") (A") (A') (A") (A')
                 (A') (A") (A") (A')
       Virtual   (A') (A') (A") (A') (A") (A') (A') (A') (A') (A")
                 (A') (A") (A') (A') (A") (A") (A") (A") (A') (A")
                 (A') (A") (A') (A") (A') (A') (A') (A") (A") (A')
                 (A') (A') (A') (A") (A") (A') (A") (A') (A') (A')
                 (A") (A') (A") (A') (A") (A') (A') (A') (A") (A")
                 (A') (A') (A") (A') (A") (A') (A') (A") (A") (A')
                 (A") (A') (A") (A') (A") (A') (A") (A') (A') (A")
                 (A") (A') (A') (A") (A') (A") (A") (A') (A") (A')
                 (A') (A") (A") (A') (A') (A") (A") (A') (A') (A')
                 (A") (A") (A') (A') (A") (A') (A") (A') (A') (A')
                 (A") (A") (A') (A") (A') (A') (A') (A") (A") (A')
                 (A") (A') (A') (A") (A') (A") (A') (A') (A") (A')
                 (A") (A') (A') (A") (A") (A") (A') (A") (A') (A')
                 (A") (A') (A") (A') (A') (A") (A") (A') (A') (A")
                 (A') (A") (A') (A") (A') (A') (A") (A") (A') (A")
                 (A') (A') (A") (A") (A') (A") (A') (A') (A") (A")
                 (A') (A') (A') (A") (A') (A') (A") (A') (A") (A')
                 (A") (A') (A") (A') (A") (A') (A') (A") (A") (A')
                 (A') (A") (A') (A") (A") (A') (A') (A") (A") (A')
                 (A") (A') (A") (A') (A") (A') (A') (A") (A') (A")
                 (A') (A") (A') (A') (A") (A') (A") (A') (A') (A")
                 (A') (A") (A') (A') (A") (A") (A') (A") (A') (A')
                 (A') (A") (A") (A") (A") (A') (A') (A') (A") (A')
                 (A") (A') (A") (A') (A') (A") (A") (A') (A") (A')
                 (A') (A") (A") (A') (A") (A') (A") (A") (A') (A")
                 (A') (A') (A") (A') (A") (A') (A') (A") (A') (A')
                 (A') (A") (A") (A') (A') (A") (A') (A") (A') (A')
                 (A") (A") (A") (A') (A") (A") (A') (A') (A') (A")
                 (A') (A') (A') (A") (A') (A') (A") (A") (A') (A")
                 (A') (A') (A') (A") (A") (A') (A") (A') (A') (A')
 Beta  Orbitals:
       Occupied  (A') (A') (A") (A') (A") (A') (A") (A') (A') (A')
                 (A") (A') (A') (A') (A") (A') (A") (A') (A") (A')
                 (A') (A') (A") (A') (A") (A') (A") (A') (A') (A")
                 (A') (A') (A") (A') (A") (A') (A') (A") (A') (A")
                 (A') (A") (A") (A') (A') (A") (A") (A') (A") (A')
                 (A') (A') (A") (A') (A') (A") (A") (A') (A") (A')
                 (A') (A") (A') (A') (A') (A") (A") (A") (A') (A')
                 (A') (A') (A') (A") (A') (A") (A") (A') (A") (A')
                 (A') (A") (A")
       Virtual   (A') (A') (A') (A") (A') (A") (A') (A') (A') (A')
                 (A") (A') (A") (A') (A') (A") (A") (A") (A") (A')
                 (A") (A') (A") (A') (A") (A') (A') (A') (A") (A")
                 (A') (A') (A') (A') (A") (A") (A') (A") (A') (A')
                 (A') (A") (A') (A") (A') (A") (A') (A') (A') (A")
                 (A") (A') (A') (A") (A') (A") (A') (A') (A") (A")
                 (A') (A") (A') (A") (A') (A") (A') (A") (A') (A')
                 (A") (A") (A') (A') (A") (A') (A") (A") (A') (A")
                 (A') (A') (A") (A") (A') (A') (A") (A") (A') (A')
                 (A') (A") (A") (A') (A') (A") (A') (A") (A') (A')
                 (A') (A") (A") (A') (A") (A') (A') (A') (A") (A")
                 (A') (A") (A') (A') (A") (A') (A") (A') (A') (A")
                 (A') (A") (A') (A') (A") (A") (A") (A') (A") (A')
                 (A') (A") (A') (A") (A') (A') (A") (A") (A') (A')
                 (A") (A') (A") (A') (A") (A') (A') (A") (A") (A')
                 (A") (A') (A') (A") (A") (A') (A") (A') (A') (A")
                 (A") (A') (A') (A') (A") (A') (A') (A") (A') (A")
                 (A') (A") (A') (A") (A') (A") (A') (A') (A") (A")
                 (A') (A') (A") (A') (A") (A") (A') (A') (A") (A")
                 (A') (A") (A') (A") (A') (A") (A') (A') (A") (A')
                 (A") (A') (A") (A') (A') (A") (A') (A") (A') (A')
                 (A") (A') (A") (A') (A') (A") (A") (A') (A") (A')
                 (A') (A') (A") (A") (A") (A") (A') (A') (A') (A")
                 (A') (A") (A') (A") (A') (A') (A") (A") (A') (A")
                 (A') (A') (A") (A") (A') (A") (A') (A") (A") (A')
                 (A") (A') (A') (A") (A') (A") (A') (A') (A") (A')
                 (A') (A') (A") (A") (A') (A') (A") (A') (A") (A')
                 (A') (A") (A") (A") (A') (A") (A") (A') (A') (A')
                 (A") (A') (A') (A') (A") (A') (A') (A") (A") (A')
                 (A") (A') (A') (A') (A") (A") (A') (A") (A') (A')
                 (A')
 The electronic state of the initial guess is 2-A'.
 Initial guess <Sx>= 0.0000 <Sy>= 0.0000 <Sz>= 0.5000 <S**2>= 0.7500 S= 0.5000
 Requested convergence on RMS density matrix=1.00D-08 within 128 cycles.
 Requested convergence on MAX density matrix=1.00D-06.
 Requested convergence on             energy=1.00D-06.
 No special actions if energy rises.
 Keep R1 and R2 ints in memory in canonical form, NReq=7854377772.
 Integral accuracy reduced to 1.0D-05 until final iterations.
 Initial convergence to 1.0D-05 achieved.  Increase integral accuracy.
 SCF Done:  E(UB3LYP) =  -3473.65998805     A.U. after   22 cycles
             Convg  =    0.3847D-08             -V/T =  2.0036
 <Sx>= 0.0000 <Sy>= 0.0000 <Sz>= 0.5000 <S**2>= 0.7672 S= 0.5086
 <L.S>= 0.000000000000E+00
 Annihilation of the first spin contaminant:
 S**2 before annihilation     0.7672,   after     0.7502
 QCSCF skips out because SCF is already converged.

 **********************************************************************

            Population analysis using the SCF density.

 **********************************************************************

 Orbital symmetries:
 Alpha Orbitals:
       Occupied  (A') (A') (A") (A') (A') (A") (A') (A") (A') (A')
                 (A") (A') (A') (A') (A") (A') (A') (A") (A') (A")
                 (A') (A') (A") (A') (A') (A') (A") (A') (A') (A")
                 (A') (A") (A') (A") (A') (A") (A') (A") (A') (A")
                 (A') (A") (A') (A") (A') (A") (A') (A") (A') (A')
                 (A") (A') (A') (A") (A") (A') (A') (A") (A') (A")
                 (A') (A") (A') (A') (A') (A") (A") (A') (A") (A')
                 (A') (A') (A') (A') (A") (A") (A") (A') (A') (A')
                 (A") (A") (A") (A')
       Virtual   (A') (A') (A') (A") (A") (A') (A') (A') (A") (A')
                 (A') (A") (A') (A') (A") (A") (A") (A') (A") (A")
                 (A') (A") (A') (A') (A") (A') (A') (A") (A") (A')
                 (A') (A') (A") (A') (A") (A') (A") (A') (A') (A')
                 (A") (A") (A') (A') (A') (A") (A') (A") (A') (A")
                 (A') (A') (A') (A") (A") (A') (A') (A") (A") (A')
                 (A') (A") (A") (A') (A') (A") (A") (A') (A') (A")
                 (A') (A") (A') (A") (A') (A") (A") (A') (A") (A')
                 (A") (A') (A") (A') (A") (A') (A") (A') (A") (A')
                 (A') (A") (A') (A') (A") (A") (A') (A') (A') (A')
                 (A") (A") (A') (A') (A") (A') (A') (A") (A') (A")
                 (A") (A') (A') (A") (A') (A") (A') (A') (A") (A')
                 (A') (A") (A") (A') (A") (A") (A') (A") (A') (A')
                 (A") (A') (A") (A') (A') (A") (A") (A') (A') (A")
                 (A') (A') (A") (A") (A') (A') (A") (A") (A') (A')
                 (A") (A') (A") (A") (A') (A") (A') (A') (A") (A')
                 (A") (A') (A') (A") (A') (A') (A") (A') (A") (A')
                 (A") (A') (A") (A') (A") (A') (A') (A") (A") (A')
                 (A') (A") (A') (A") (A") (A') (A') (A") (A") (A')
                 (A") (A') (A") (A') (A") (A') (A') (A') (A") (A")
                 (A') (A") (A') (A') (A") (A') (A") (A') (A') (A")
                 (A') (A") (A') (A') (A") (A") (A') (A") (A') (A')
                 (A') (A") (A") (A") (A") (A') (A') (A') (A') (A")
                 (A') (A") (A") (A') (A') (A") (A") (A') (A") (A')
                 (A") (A') (A") (A') (A") (A') (A") (A") (A') (A')
                 (A") (A') (A") (A') (A") (A') (A') (A') (A") (A')
                 (A') (A") (A') (A") (A') (A") (A') (A') (A") (A')
                 (A") (A") (A") (A') (A") (A') (A") (A') (A') (A')
                 (A") (A') (A') (A") (A') (A') (A") (A") (A') (A")
                 (A') (A') (A') (A") (A") (A') (A") (A') (A') (A')
 Beta  Orbitals:
       Occupied  (A') (A') (A") (A') (A') (A") (A') (A") (A') (A')
                 (A") (A') (A') (A') (A") (A') (A') (A") (A') (A")
                 (A') (A') (A") (A') (A') (A') (A") (A') (A') (A")
                 (A') (A") (A') (A") (A') (A") (A") (A') (A') (A")
                 (A') (A") (A') (A") (A') (A") (A') (A") (A') (A')
                 (A") (A') (A") (A') (A") (A') (A') (A") (A') (A")
                 (A') (A") (A') (A') (A') (A") (A") (A') (A") (A')
                 (A') (A') (A') (A') (A") (A") (A") (A') (A') (A")
                 (A') (A") (A")
       Virtual   (A') (A') (A') (A") (A') (A") (A') (A') (A') (A')
                 (A") (A') (A") (A') (A') (A") (A") (A") (A') (A")
                 (A") (A') (A") (A') (A') (A") (A') (A') (A") (A")
                 (A') (A') (A') (A") (A') (A") (A') (A") (A') (A')
                 (A') (A") (A") (A') (A') (A') (A") (A') (A") (A')
                 (A") (A') (A') (A') (A") (A") (A') (A') (A") (A")
                 (A') (A') (A") (A") (A') (A') (A") (A") (A') (A')
                 (A") (A') (A") (A") (A') (A') (A") (A") (A') (A")
                 (A') (A") (A') (A") (A") (A') (A') (A") (A') (A')
                 (A") (A') (A") (A') (A') (A") (A") (A') (A') (A')
                 (A') (A") (A") (A') (A') (A") (A') (A") (A') (A")
                 (A') (A") (A') (A") (A') (A') (A") (A') (A') (A")
                 (A') (A') (A") (A") (A') (A") (A") (A') (A") (A')
                 (A') (A") (A') (A") (A') (A') (A") (A") (A') (A')
                 (A") (A') (A') (A") (A") (A') (A') (A") (A") (A')
                 (A') (A") (A') (A") (A") (A') (A") (A') (A') (A")
                 (A') (A") (A') (A') (A") (A') (A') (A") (A') (A")
                 (A') (A") (A') (A") (A') (A") (A') (A') (A") (A")
                 (A') (A') (A") (A') (A") (A") (A') (A') (A") (A")
                 (A') (A") (A') (A") (A') (A") (A') (A') (A') (A")
                 (A") (A') (A") (A') (A') (A") (A') (A") (A') (A')
                 (A") (A') (A") (A') (A') (A") (A") (A') (A") (A')
                 (A') (A') (A") (A") (A") (A") (A') (A') (A') (A')
                 (A") (A') (A") (A") (A') (A') (A") (A") (A') (A")
                 (A') (A") (A') (A") (A') (A") (A') (A") (A") (A')
                 (A') (A") (A') (A") (A') (A") (A') (A') (A') (A")
                 (A') (A') (A") (A') (A") (A') (A") (A') (A') (A")
                 (A') (A") (A") (A") (A') (A") (A') (A") (A') (A')
                 (A') (A") (A') (A') (A") (A') (A') (A") (A") (A')
                 (A") (A') (A') (A') (A") (A") (A') (A") (A') (A')
                 (A')
 The electronic state is 2-A'.
 Alpha  occ. eigenvalues --  -66.30931 -66.30582 -66.30178 -66.30178 -66.29927
 Alpha  occ. eigenvalues --  -66.29926 -66.29859 -66.29754 -66.29754 -66.29417
 Alpha  occ. eigenvalues --  -66.28562 -66.28562  -5.45266  -5.44882  -5.44546
 Alpha  occ. eigenvalues --   -5.44546  -5.44461  -5.44460  -5.44179  -5.44166
 Alpha  occ. eigenvalues --   -5.44166  -5.43840  -5.42900  -5.42900  -3.81321
 Alpha  occ. eigenvalues --   -3.81097  -3.80899  -3.80887  -3.80727  -3.80554
 Alpha  occ. eigenvalues --   -3.80506  -3.80502  -3.80434  -3.80433  -3.80426
 Alpha  occ. eigenvalues --   -3.80425  -3.80365  -3.80364  -3.80155  -3.80155
 Alpha  occ. eigenvalues --   -3.80129  -3.80128  -3.80077  -3.80064  -3.80060
 Alpha  occ. eigenvalues --   -3.80057  -3.80049  -3.79968  -3.79954  -3.79798
 Alpha  occ. eigenvalues --   -3.79789  -3.79785  -3.79608  -3.79607  -3.78746
 Alpha  occ. eigenvalues --   -3.78746  -3.78711  -3.78711  -3.78608  -3.78607
 Alpha  occ. eigenvalues --   -0.81788  -0.75756  -0.71394  -0.69141  -0.66582
 Alpha  occ. eigenvalues --   -0.60477  -0.58736  -0.57250  -0.56504  -0.53967
 Alpha  occ. eigenvalues --   -0.49979  -0.45966  -0.45370  -0.42953  -0.42834
 Alpha  occ. eigenvalues --   -0.42280  -0.39966  -0.39532  -0.38717  -0.37637
 Alpha  occ. eigenvalues --   -0.37487  -0.37001  -0.35131  -0.34238
 Alpha virt. eigenvalues --   -0.24789  -0.23690  -0.22883  -0.22472  -0.21625
 Alpha virt. eigenvalues --   -0.19935  -0.19706  -0.18507  -0.18506  -0.18079
 Alpha virt. eigenvalues --   -0.16200  -0.14729  -0.14148  -0.14109  -0.13033
 Alpha virt. eigenvalues --   -0.12138  -0.10772  -0.09495  -0.08881  -0.08538
 Alpha virt. eigenvalues --   -0.08222  -0.06903  -0.05007  -0.02276  -0.01215
 Alpha virt. eigenvalues --   -0.00776  -0.00345   0.00340   0.00879   0.01434
 Alpha virt. eigenvalues --    0.02625   0.02910   0.03403   0.03553   0.04049
 Alpha virt. eigenvalues --    0.04558   0.04628   0.05620   0.05969   0.06271
 Alpha virt. eigenvalues --    0.07144   0.07759   0.07839   0.08320   0.08857
 Alpha virt. eigenvalues --    0.09443   0.09816   0.10186   0.10973   0.11309
 Alpha virt. eigenvalues --    0.11977   0.12931   0.13426   0.13608   0.14489
 Alpha virt. eigenvalues --    0.15185   0.16260   0.16426   0.17159   0.17386
 Alpha virt. eigenvalues --    0.17815   0.17829   0.18873   0.19066   0.19254
 Alpha virt. eigenvalues --    0.19294   0.20454   0.21223   0.22059   0.23319
 Alpha virt. eigenvalues --    0.23600   0.23787   0.25124   0.25220   0.25281
 Alpha virt. eigenvalues --    0.26957   0.27597   0.27749   0.28694   0.29485
 Alpha virt. eigenvalues --    0.30338   0.30339   0.32451   0.32837   0.32845
 Alpha virt. eigenvalues --    0.33683   0.34383   0.34918   0.36269   0.36290
 Alpha virt. eigenvalues --    0.36978   0.37158   0.37844   0.38021   0.38360
 Alpha virt. eigenvalues --    0.39792   0.40028   0.41042   0.41711   0.43246
 Alpha virt. eigenvalues --    0.43348   0.44210   0.45409   0.46766   0.47352
 Alpha virt. eigenvalues --    0.48190   0.49490   0.49536   0.51096   0.51111
 Alpha virt. eigenvalues --    0.51362   0.51865   0.53302   0.53375   0.53691
 Alpha virt. eigenvalues --    0.55174   0.55289   0.56200   0.56751   0.57281
 Alpha virt. eigenvalues --    0.57573   0.57867   0.59203   0.60078   0.60900
 Alpha virt. eigenvalues --    0.61951   0.61983   0.63260   0.63684   0.64146
 Alpha virt. eigenvalues --    0.67333   0.67693   0.69802   0.70340   0.73169
 Alpha virt. eigenvalues --    0.74085   0.75818   0.75855   0.77470   0.77656
 Alpha virt. eigenvalues --    0.78536   0.79573   0.80633   0.81544   0.82287
 Alpha virt. eigenvalues --    0.82958   0.83594   0.85233   0.85648   0.85951
 Alpha virt. eigenvalues --    0.86132   0.86515   0.86950   0.88322   0.89701
 Alpha virt. eigenvalues --    0.90067   0.91932   0.92599   0.93433   0.95087
 Alpha virt. eigenvalues --    0.95709   0.96425   0.97206   0.98750   0.99110
 Alpha virt. eigenvalues --    0.99825   1.00076   1.01172   1.01338   1.01626
 Alpha virt. eigenvalues --    1.04139   1.04490   1.06114   1.06883   1.07476
 Alpha virt. eigenvalues --    1.08485   1.08760   1.08949   1.09912   1.10853
 Alpha virt. eigenvalues --    1.12535   1.12645   1.13564   1.14498   1.15858
 Alpha virt. eigenvalues --    1.16771   1.17599   1.18377   1.18847   1.18872
 Alpha virt. eigenvalues --    1.19146   1.20573   1.20919   1.22177   1.22482
 Alpha virt. eigenvalues --    1.24564   1.25357   1.26447   1.26571   1.26998
 Alpha virt. eigenvalues --    1.27606   1.28356   1.29249   1.30170   1.30746
 Alpha virt. eigenvalues --    1.31964   1.32987   1.33094   1.34171   1.34803
 Alpha virt. eigenvalues --    1.36419   1.38029   1.38209   1.38454   1.39087
 Alpha virt. eigenvalues --    1.40973   1.41800   1.42213   1.42958   1.44341
 Alpha virt. eigenvalues --    1.46121   1.46326   1.49571   1.50155   1.52083
 Alpha virt. eigenvalues --    1.55790   1.59143   1.60208   1.62727   1.63426
 Alpha virt. eigenvalues --    1.63627   1.64288   1.65750   1.66128   1.66652
 Alpha virt. eigenvalues --    1.66831   1.68980   1.69425   1.71303   1.71641
 Alpha virt. eigenvalues --    1.73059   1.74069   1.74337   1.74753   1.75684
 Alpha virt. eigenvalues --    1.77230   1.77546   1.78214   1.78683   1.80153
 Alpha virt. eigenvalues --    1.80389   1.81173   1.82157   1.82416   1.83168
 Alpha virt. eigenvalues --    1.83264   1.84377   1.85178   1.85249   1.86278
 Alpha virt. eigenvalues --    1.87625   1.89046   1.89953   1.90145   1.91399
 Alpha virt. eigenvalues --    1.93058   1.93465   1.95040   1.95143   1.96872
 Alpha virt. eigenvalues --    1.97417   1.98814   1.99622   2.00978   2.02878
 Alpha virt. eigenvalues --    2.03149   2.03643   2.05791   2.07236   2.10459
 Alpha virt. eigenvalues --    2.10831   2.11998   2.14030   2.15721   2.18972
 Alpha virt. eigenvalues --    2.20599   2.24591   2.39570   2.43141   2.60311
 Alpha virt. eigenvalues --    2.71768   2.76355   2.83168   2.86555   2.96112
 Alpha virt. eigenvalues --    2.98893   3.00786   3.08410   3.26076   3.35620
  Beta  occ. eigenvalues --  -66.30945 -66.30459 -66.30151 -66.30150 -66.29937
  Beta  occ. eigenvalues --  -66.29936 -66.29807 -66.29678 -66.29678 -66.29378
  Beta  occ. eigenvalues --  -66.28557 -66.28557  -5.45281  -5.44734  -5.44516
  Beta  occ. eigenvalues --   -5.44516  -5.44470  -5.44470  -5.44123  -5.44075
  Beta  occ. eigenvalues --   -5.44075  -5.43790  -5.42895  -5.42895  -3.81366
  Beta  occ. eigenvalues --   -3.81105  -3.80910  -3.80640  -3.80503  -3.80475
  Beta  occ. eigenvalues --   -3.80467  -3.80466  -3.80428  -3.80426  -3.80395
  Beta  occ. eigenvalues --   -3.80392  -3.80371  -3.80371  -3.80134  -3.80134
  Beta  occ. eigenvalues --   -3.80076  -3.80071  -3.80050  -3.80048  -3.80029
  Beta  occ. eigenvalues --   -3.79939  -3.79850  -3.79849  -3.79768  -3.79758
  Beta  occ. eigenvalues --   -3.79741  -3.79739  -3.79569  -3.79519  -3.78743
  Beta  occ. eigenvalues --   -3.78743  -3.78692  -3.78692  -3.78606  -3.78606
  Beta  occ. eigenvalues --   -0.81553  -0.75541  -0.71009  -0.68678  -0.66400
  Beta  occ. eigenvalues --   -0.60032  -0.58518  -0.56644  -0.56449  -0.53703
  Beta  occ. eigenvalues --   -0.48885  -0.45711  -0.45169  -0.42770  -0.42525
  Beta  occ. eigenvalues --   -0.42068  -0.39286  -0.39238  -0.37932  -0.37262
  Beta  occ. eigenvalues --   -0.37162  -0.36788  -0.34908
  Beta virt. eigenvalues --   -0.29273  -0.24617  -0.23601  -0.22205  -0.22046
  Beta virt. eigenvalues --   -0.21445  -0.19760  -0.19477  -0.18363  -0.17899
  Beta virt. eigenvalues --   -0.17758  -0.15826  -0.14551  -0.13857  -0.13498
  Beta virt. eigenvalues --   -0.12929  -0.11911  -0.10650  -0.08711  -0.08608
  Beta virt. eigenvalues --   -0.08392  -0.07820  -0.06801  -0.04859  -0.01943
  Beta virt. eigenvalues --   -0.01033  -0.00581  -0.00076   0.00525   0.01190
  Beta virt. eigenvalues --    0.01624   0.02923   0.03087   0.03493   0.03822
  Beta virt. eigenvalues --    0.04244   0.04821   0.05007   0.05747   0.06153
  Beta virt. eigenvalues --    0.06713   0.07271   0.07857   0.08015   0.08437
  Beta virt. eigenvalues --    0.09269   0.09619   0.10122   0.10474   0.11105
  Beta virt. eigenvalues --    0.11515   0.12262   0.13197   0.13682   0.13741
  Beta virt. eigenvalues --    0.14669   0.15336   0.16433   0.16528   0.17286
  Beta virt. eigenvalues --    0.17637   0.17914   0.17943   0.18933   0.19328
  Beta virt. eigenvalues --    0.19450   0.19493   0.20529   0.21404   0.22166
  Beta virt. eigenvalues --    0.23525   0.23972   0.23975   0.25483   0.25484
  Beta virt. eigenvalues --    0.25626   0.27162   0.27716   0.28009   0.28788
  Beta virt. eigenvalues --    0.29608   0.30597   0.30666   0.32621   0.33066
  Beta virt. eigenvalues --    0.33112   0.33925   0.34509   0.35151   0.36602
  Beta virt. eigenvalues --    0.36619   0.37220   0.37412   0.38209   0.38272
  Beta virt. eigenvalues --    0.38664   0.40050   0.40358   0.41254   0.41983
  Beta virt. eigenvalues --    0.43409   0.43428   0.44530   0.45709   0.46994
  Beta virt. eigenvalues --    0.47435   0.48403   0.49697   0.49899   0.51241
  Beta virt. eigenvalues --    0.51271   0.51622   0.52052   0.53522   0.53541
  Beta virt. eigenvalues --    0.54013   0.55239   0.55517   0.56480   0.57009
  Beta virt. eigenvalues --    0.57465   0.57789   0.58054   0.59443   0.60268
  Beta virt. eigenvalues --    0.61086   0.62095   0.62164   0.63486   0.63931
  Beta virt. eigenvalues --    0.64428   0.67528   0.67857   0.70157   0.70586
  Beta virt. eigenvalues --    0.73459   0.74326   0.76030   0.76292   0.77688
  Beta virt. eigenvalues --    0.77847   0.78763   0.79843   0.80904   0.81901
  Beta virt. eigenvalues --    0.82539   0.83242   0.83845   0.85408   0.85813
  Beta virt. eigenvalues --    0.86179   0.86353   0.86795   0.87144   0.88475
  Beta virt. eigenvalues --    0.89942   0.90273   0.92248   0.92845   0.93596
  Beta virt. eigenvalues --    0.95321   0.95857   0.96687   0.97418   0.98991
  Beta virt. eigenvalues --    0.99356   1.00107   1.00293   1.01456   1.01523
  Beta virt. eigenvalues --    1.01909   1.04285   1.04889   1.06289   1.07065
  Beta virt. eigenvalues --    1.07777   1.08746   1.09021   1.09147   1.10137
  Beta virt. eigenvalues --    1.11044   1.12747   1.12874   1.13865   1.14800
  Beta virt. eigenvalues --    1.16046   1.16917   1.17835   1.18478   1.19005
  Beta virt. eigenvalues --    1.19233   1.19286   1.20780   1.21198   1.22317
  Beta virt. eigenvalues --    1.22643   1.24910   1.25578   1.26723   1.26741
  Beta virt. eigenvalues --    1.27182   1.27839   1.28500   1.29468   1.30411
  Beta virt. eigenvalues --    1.30982   1.32249   1.33160   1.33219   1.34441
  Beta virt. eigenvalues --    1.35013   1.36542   1.38203   1.38371   1.38782
  Beta virt. eigenvalues --    1.39332   1.41277   1.41949   1.42442   1.43153
  Beta virt. eigenvalues --    1.44477   1.46464   1.46521   1.49736   1.50318
  Beta virt. eigenvalues --    1.52169   1.55946   1.59241   1.60314   1.62883
  Beta virt. eigenvalues --    1.63510   1.63752   1.64424   1.65913   1.66284
  Beta virt. eigenvalues --    1.66772   1.66933   1.69059   1.69504   1.71473
  Beta virt. eigenvalues --    1.71865   1.73182   1.74351   1.74460   1.74873
  Beta virt. eigenvalues --    1.75752   1.77425   1.77683   1.78340   1.78781
  Beta virt. eigenvalues --    1.80343   1.80439   1.81276   1.82254   1.82486
  Beta virt. eigenvalues --    1.83288   1.83499   1.84487   1.85370   1.85401
  Beta virt. eigenvalues --    1.86447   1.87875   1.89174   1.90150   1.90246
  Beta virt. eigenvalues --    1.91459   1.93196   1.93598   1.95153   1.95326
  Beta virt. eigenvalues --    1.97042   1.97475   1.98984   1.99818   2.01138
  Beta virt. eigenvalues --    2.02971   2.03302   2.03704   2.05924   2.07358
  Beta virt. eigenvalues --    2.10661   2.10880   2.12072   2.14152   2.15794
  Beta virt. eigenvalues --    2.19098   2.20740   2.24717   2.39743   2.43295
  Beta virt. eigenvalues --    2.60389   2.71848   2.76506   2.83489   2.86664
  Beta virt. eigenvalues --    2.96198   2.99103   3.01016   3.08484   3.26254
  Beta virt. eigenvalues --    3.35750
          Condensed to atoms (all electrons):
              1          2          3          4          5          6
     1  Si  13.568037   0.100949   0.184914   0.116918  -0.013320  -0.001396
     2  Si   0.100949  13.557970   0.033654  -0.025350   0.015143   0.145364
     3  Si   0.184914   0.033654  13.389822   0.032263   0.050768   0.004497
     4  Si   0.116918  -0.025350   0.032263  13.592241   0.093914   0.014637
     5  Si  -0.013320   0.015143   0.050768   0.093914  13.640736   0.005563
     6  Si  -0.001396   0.145364   0.004497   0.014637   0.005563  13.515453
     7  Si  -0.003887   0.144228   0.006133   0.117086  -0.001112  -0.035393
     8  Si   0.000750  -0.029904   0.004950  -0.003291   0.015143   0.145364
     9  Si   0.001083   0.004950   0.005069   0.006144   0.050768   0.004497
    10  Si   0.000789  -0.003291   0.006144  -0.019640   0.093914   0.014637
    11  Si   0.000001   0.000750   0.001083   0.000789  -0.013320  -0.001396
    12  Si  -0.013591  -0.006847   0.124801  -0.003997  -0.006654   0.107580
              7          8          9         10         11         12
     1  Si  -0.003887   0.000750   0.001083   0.000789   0.000001  -0.013591
     2  Si   0.144228  -0.029904   0.004950  -0.003291   0.000750  -0.006847
     3  Si   0.006133   0.004950   0.005069   0.006144   0.001083   0.124801
     4  Si   0.117086  -0.003291   0.006144  -0.019640   0.000789  -0.003997
     5  Si  -0.001112   0.015143   0.050768   0.093914  -0.013320  -0.006654
     6  Si  -0.035393   0.145364   0.004497   0.014637  -0.001396   0.107580
     7  Si  13.371287   0.144228   0.006133   0.117086  -0.003887   0.015158
     8  Si   0.144228  13.557970   0.033654  -0.025350   0.100949  -0.006847
     9  Si   0.006133   0.033654  13.389822   0.032263   0.184914   0.124801
    10  Si   0.117086  -0.025350   0.032263  13.592241   0.116918  -0.003997
    11  Si  -0.003887   0.100949   0.184914   0.116918  13.568037  -0.013591
    12  Si   0.015158  -0.006847   0.124801  -0.003997  -0.013591  13.665828
 Mulliken atomic charges:
              1
     1  Si   0.058753
     2  Si   0.062385
     3  Si   0.155902
     4  Si   0.078287
     5  Si   0.068459
     6  Si   0.080591
     7  Si   0.122942
     8  Si   0.062385
     9  Si   0.155902
    10  Si   0.078287
    11  Si   0.058753
    12  Si   0.017355
 Sum of Mulliken atomic charges =   1.00000
 Mulliken charges with hydrogens summed into heavy atoms:
              1
     1  Si   0.058753
     2  Si   0.062385
     3  Si   0.155902
     4  Si   0.078287
     5  Si   0.068459
     6  Si   0.080591
     7  Si   0.122942
     8  Si   0.062385
     9  Si   0.155902
    10  Si   0.078287
    11  Si   0.058753
    12  Si   0.017355
 Sum of Mulliken charges with hydrogens summed into heavy atoms =   1.00000
          Atomic-Atomic Spin Densities.
              1          2          3          4          5          6
     1  Si   0.010424   0.000078  -0.002763   0.003652   0.000668   0.002289
     2  Si   0.000078   0.193271   0.004580  -0.004328  -0.000156  -0.013688
     3  Si  -0.002763   0.004580  -0.012520   0.011411  -0.014935  -0.009552
     4  Si   0.003652  -0.004328   0.011411   0.059558  -0.009934   0.000794
     5  Si   0.000668  -0.000156  -0.014935  -0.009934   0.347617  -0.001229
     6  Si   0.002289  -0.013688  -0.009552   0.000794  -0.001229   0.097870
     7  Si   0.000727   0.007479  -0.004028   0.000557   0.003586  -0.005533
     8  Si  -0.000004   0.007920  -0.001639  -0.000905  -0.000156  -0.013688
     9  Si  -0.000236  -0.001639   0.005838   0.002438  -0.014935  -0.009552
    10  Si  -0.000112  -0.000905   0.002438   0.002685  -0.009934   0.000794
    11  Si   0.000011  -0.000004  -0.000236  -0.000112   0.000668   0.002289
    12  Si  -0.000447  -0.003861   0.005401  -0.000142   0.009528   0.006125
              7          8          9         10         11         12
     1  Si   0.000727  -0.000004  -0.000236  -0.000112   0.000011  -0.000447
     2  Si   0.007479   0.007920  -0.001639  -0.000905  -0.000004  -0.003861
     3  Si  -0.004028  -0.001639   0.005838   0.002438  -0.000236   0.005401
     4  Si   0.000557  -0.000905   0.002438   0.002685  -0.000112  -0.000142
     5  Si   0.003586  -0.000156  -0.014935  -0.009934   0.000668   0.009528
     6  Si  -0.005533  -0.013688  -0.009552   0.000794   0.002289   0.006125
     7  Si  -0.025019   0.007479  -0.004028   0.000557   0.000727   0.001080
     8  Si   0.007479   0.193271   0.004580  -0.004328   0.000078  -0.003861
     9  Si  -0.004028   0.004580  -0.012520   0.011411  -0.002763   0.005401
    10  Si   0.000557  -0.004328   0.011411   0.059558   0.003652  -0.000142
    11  Si   0.000727   0.000078  -0.002763   0.003652   0.010424  -0.000447
    12  Si   0.001080  -0.003861   0.005401  -0.000142  -0.000447   0.124675
 Mulliken atomic spin densities:
              1
     1  Si   0.014287
     2  Si   0.188746
     3  Si  -0.016006
     4  Si   0.065674
     5  Si   0.310786
     6  Si   0.056917
     7  Si  -0.016415
     8  Si   0.188746
     9  Si  -0.016006
    10  Si   0.065674
    11  Si   0.014287
    12  Si   0.143309
 Sum of Mulliken atomic spin densities =   1.00000
 Electronic spatial extent (au):  <R**2>=           4287.6510
 Charge=              1.0000 electrons
 Dipole moment (field-independent basis, Debye):
    X=             -0.0315    Y=             -0.0806    Z=              0.0000  Tot=              0.0865
 Quadrupole moment (field-independent basis, Debye-Ang):
   XX=           -134.6335   YY=           -138.0757   ZZ=           -123.1818
   XY=             -0.3096   XZ=              0.0000   YZ=              0.0000
 Traceless Quadrupole moment (field-independent basis, Debye-Ang):
   XX=             -2.6699   YY=             -6.1121   ZZ=              8.7819
   XY=             -0.3096   XZ=              0.0000   YZ=              0.0000
 Octapole moment (field-independent basis, Debye-Ang**2):
  XXX=              2.7362  YYY=              1.8894  ZZZ=              0.0000  XYY=              1.5370
  XXY=             -2.3312  XXZ=              0.0000  XZZ=             -3.9464  YZZ=              0.9121
  YYZ=              0.0000  XYZ=              0.0000
 Hexadecapole moment (field-independent basis, Debye-Ang**3):
 XXXX=          -1549.8191 YYYY=          -1267.3430 ZZZZ=          -3529.7621 XXXY=            -12.0288
 XXXZ=              0.0000 YYYX=              2.9507 YYYZ=              0.0000 ZZZX=              0.0000
 ZZZY=              0.0000 XXYY=           -469.3676 XXZZ=           -851.8584 YYZZ=           -812.8100
 XXYZ=              0.0000 YYXZ=              0.0000 ZZXY=              9.9002
 N-N= 2.070197924854D+03 E-N=-1.856359818020D+04  KE= 5.191352288455D+03
 Symmetry A'   KE= 3.306778188528D+03
 Symmetry A"   KE= 1.884574099927D+03
                          Isotropic Fermi Contact Couplings
        Atom                 a.u.       MegaHertz       Gauss      10(-4) cm-1
     1  Si(29)            -0.00052       0.45772       0.16333       0.15268
     2  Si(29)             0.11489    -102.10924     -36.43512     -34.05998
     3  Si(29)             0.00819      -7.27470      -2.59579      -2.42658
     4  Si(29)            -0.00012       0.10938       0.03903       0.03649
     5  Si(29)             0.18258    -162.26490     -57.90015     -54.12574
     6  Si(29)             0.10241     -91.01550     -32.47659     -30.35950
     7  Si(29)             0.00010      -0.08704      -0.03106      -0.02903
     8  Si(29)             0.11489    -102.10924     -36.43512     -34.05998
     9  Si(29)             0.00819      -7.27470      -2.59579      -2.42658
    10  Si(29)            -0.00012       0.10938       0.03903       0.03649
    11  Si(29)            -0.00052       0.45772       0.16333       0.15268
    12  Si(29)            -0.00216       1.92368       0.68642       0.64167
 --------------------------------------------------------
       Center         ----  Spin Dipole Couplings  ----
                      3XX-RR        3YY-RR        3ZZ-RR
 --------------------------------------------------------
     1   Atom       -0.023528      0.015979      0.007549
     2   Atom       -0.171965      0.334679     -0.162713
     3   Atom        0.027997     -0.048776      0.020779
     4   Atom       -0.079269      0.144131     -0.064862
     5   Atom       -0.245027      0.537204     -0.292178
     6   Atom       -0.058933      0.107535     -0.048602
     7   Atom        0.070921     -0.101193      0.030271
     8   Atom       -0.171965      0.334679     -0.162713
     9   Atom        0.027997     -0.048776      0.020779
    10   Atom       -0.079269      0.144131     -0.064862
    11   Atom       -0.023528      0.015979      0.007549
    12   Atom       -0.141503      0.294629     -0.153127
 --------------------------------------------------------
                        XY            XZ            YZ
 --------------------------------------------------------
     1   Atom       -0.004735      0.001573     -0.033174
     2   Atom       -0.094770      0.002726      0.075644
     3   Atom        0.000873      0.000517      0.015765
     4   Atom       -0.053058     -0.008262      0.075793
     5   Atom       -0.117308      0.000000      0.000000
     6   Atom       -0.051864      0.000000      0.000000
     7   Atom        0.045547      0.000000      0.000000
     8   Atom       -0.094770     -0.002726     -0.075644
     9   Atom        0.000873     -0.000517     -0.015765
    10   Atom       -0.053058      0.008262     -0.075793
    11   Atom       -0.004735     -0.001573      0.033174
    12   Atom       -0.098288      0.000000      0.000000
 --------------------------------------------------------


 ---------------------------------------------------------------------------------
              Anisotropic Spin Dipole Couplings in Principal Axis System
 ---------------------------------------------------------------------------------

       Atom             a.u.   MegaHertz   Gauss  10(-4) cm-1        Axes

              Baa    -0.0250     2.650     0.946     0.884  0.8598  0.3777  0.3437
     1 Si(29) Bbb    -0.0205     2.178     0.777     0.727 -0.5063  0.5430  0.6699
              Bcc     0.0455    -4.828    -1.723    -1.610 -0.0664  0.7500 -0.6581
 
              Baa    -0.1990    21.111     7.533     7.042  0.8246  0.2203 -0.5211
     2 Si(29) Bbb    -0.1632    17.318     6.179     5.777  0.5389 -0.0254  0.8420
              Bcc     0.3623   -38.429   -13.712   -12.819 -0.1723  0.9751  0.1396
 
              Baa    -0.0522     5.536     1.976     1.847 -0.0093  0.9774 -0.2111
     3 Si(29) Bbb     0.0241    -2.553    -0.911    -0.852 -0.1726  0.2064  0.9631
              Bcc     0.0281    -2.984    -1.065    -0.995  0.9850  0.0454  0.1668
 
              Baa    -0.0981    10.412     3.715     3.473  0.7072  0.3475 -0.6157
     4 Si(29) Bbb    -0.0814     8.640     3.083     2.882  0.6779 -0.0859  0.7301
              Bcc     0.1796   -19.052    -6.798    -6.355 -0.2008  0.9337  0.2963
 
              Baa    -0.2922    30.995    11.060    10.339  0.0000  0.0000  1.0000
     5 Si(29) Bbb    -0.2622    27.819     9.927     9.280  0.9894  0.1452  0.0000
              Bcc     0.5544   -58.815   -20.987   -19.619 -0.1452  0.9894  0.0000
 
              Baa    -0.0738     7.826     2.792     2.610  0.9614  0.2750  0.0000
     6 Si(29) Bbb    -0.0486     5.156     1.840     1.720  0.0000  0.0000  1.0000
              Bcc     0.1224   -12.982    -4.632    -4.330 -0.2750  0.9614  0.0000
 
              Baa    -0.1125    11.935     4.259     3.981 -0.2410  0.9705  0.0000
     7 Si(29) Bbb     0.0303    -3.211    -1.146    -1.071  0.0000  0.0000  1.0000
              Bcc     0.0822    -8.723    -3.113    -2.910  0.9705  0.2410  0.0000
 
              Baa    -0.1990    21.111     7.533     7.042  0.8246  0.2203  0.5211
     8 Si(29) Bbb    -0.1632    17.318     6.179     5.777 -0.5389  0.0254  0.8420
              Bcc     0.3623   -38.429   -13.712   -12.819 -0.1723  0.9751 -0.1396
 
              Baa    -0.0522     5.536     1.976     1.847 -0.0093  0.9774  0.2111
     9 Si(29) Bbb     0.0241    -2.553    -0.911    -0.852  0.1726 -0.2064  0.9631
              Bcc     0.0281    -2.984    -1.065    -0.995  0.9850  0.0454 -0.1668
 
              Baa    -0.0981    10.412     3.715     3.473  0.7072  0.3475  0.6157
    10 Si(29) Bbb    -0.0814     8.640     3.083     2.882 -0.6779  0.0859  0.7301
              Bcc     0.1796   -19.052    -6.798    -6.355 -0.2008  0.9337 -0.2963
 
              Baa    -0.0250     2.650     0.946     0.884  0.8598  0.3777 -0.3437
    11 Si(29) Bbb    -0.0205     2.178     0.777     0.727  0.5063 -0.5430  0.6699
              Bcc     0.0455    -4.828    -1.723    -1.610 -0.0664  0.7500  0.6581
 
              Baa    -0.1626    17.252     6.156     5.755  0.9777  0.2101  0.0000
    12 Si(29) Bbb    -0.1531    16.244     5.796     5.419  0.0000  0.0000  1.0000
              Bcc     0.3158   -33.497   -11.952   -11.173 -0.2101  0.9777  0.0000
 

 ---------------------------------------------------------------------------------

 Calling FoFJK, ICntrl=      2127 FMM=F ISym2X=1 I1Cent= 0 IOpClX= 1 NMat=1 NMatS=1 NMatT=0.
 ***** Axes restored to original set *****
 -------------------------------------------------------------------
 Center     Atomic                   Forces (Hartrees/Bohr)
 Number     Number              X              Y              Z
 -------------------------------------------------------------------
      1       14          -0.000633856   -0.000429840   -0.001161209
      2       14           0.002408145   -0.000762528    0.001091606
      3       14          -0.001522387   -0.000497890   -0.000421878
      4       14          -0.000210421    0.002427546    0.000430396
      5       14          -0.002552489    0.001356602    0.000000000
      6       14           0.001333894   -0.001693084    0.000000000
      7       14           0.001716557    0.001164873    0.000000000
      8       14           0.002408145   -0.000762528   -0.001091606
      9       14          -0.001522387   -0.000497890    0.000421878
     10       14          -0.000210421    0.002427546   -0.000430396
     11       14          -0.000633856   -0.000429840    0.001161209
     12       14          -0.000580925   -0.002302965    0.000000000
 -------------------------------------------------------------------
 Cartesian Forces:  Max     0.002552489 RMS     0.001287681

 GradGradGradGradGradGradGradGradGradGradGradGradGradGradGradGradGradGrad
 Berny optimization.
 Internal  Forces:  Max     0.001380471 RMS     0.000311582
 Search for a local minimum.
 Step number   1 out of a maximum of  100
 All quantities printed in internal units (Hartrees-Bohrs-Radians)
 Mixed Optimization -- En-DIIS/RFO-DIIS
 Second derivative matrix not updated -- first step.
     Eigenvalues ---    0.02234   0.02278   0.02671   0.04481   0.04567
     Eigenvalues ---    0.04599   0.05413   0.06097   0.06766   0.07229
     Eigenvalues ---    0.07281   0.07860   0.08024   0.08167   0.08420
     Eigenvalues ---    0.08868   0.08887   0.09083   0.09235   0.09455
     Eigenvalues ---    0.09884   0.10570   0.10926   0.11132   0.11776
     Eigenvalues ---    0.11961   0.12402   0.12502   0.13126   0.15997
     Eigenvalues --- 1000.000001000.000001000.000001000.000001000.00000
     Eigenvalues --- 1000.000001000.000001000.000001000.000001000.00000
     Eigenvalues --- 1000.000001000.000001000.000001000.000001000.00000
     Eigenvalues --- 1000.000001000.000001000.000001000.000001000.00000
     Eigenvalues --- 1000.000001000.000001000.000001000.000001000.00000
     Eigenvalues --- 1000.000001000.000001000.000001000.000001000.00000
     Eigenvalues --- 1000.000001000.000001000.000001000.000001000.00000
     Eigenvalues --- 1000.000001000.000001000.000001000.000001000.00000
     Eigenvalues --- 1000.000001000.000001000.000001000.000001000.00000
     Eigenvalues --- 1000.000001000.000001000.000001000.000001000.00000
     Eigenvalues --- 1000.000001000.000001000.000001000.000001000.00000
     Eigenvalues --- 1000.000001000.000001000.000001000.000001000.00000
     Eigenvalues --- 1000.000001000.000001000.000001000.000001000.00000
     Eigenvalues --- 1000.000001000.000001000.000001000.000001000.00000
     Eigenvalues --- 1000.000001000.000001000.000001000.000001000.00000
     Eigenvalues --- 1000.000001000.000001000.000001000.000001000.00000
     Eigenvalues --- 1000.000001000.000001000.000001000.000001000.00000
     Eigenvalues --- 1000.000001000.000001000.000001000.000001000.00000
     Eigenvalues --- 1000.000001000.000001000.000001000.000001000.00000
     Eigenvalues --- 1000.000001000.000001000.000001000.000001000.00000
     Eigenvalues --- 1000.000001000.000001000.000001000.000001000.00000
     Eigenvalues --- 1000.000001000.000001000.000001000.000001000.00000
     Eigenvalues --- 1000.000001000.000001000.000001000.000001000.00000
     Eigenvalues --- 1000.000001000.000001000.000001000.000001000.00000
     Eigenvalues --- 1000.000001000.000001000.000001000.000001000.00000
     Eigenvalues --- 1000.000001000.000001000.000001000.000001000.00000
     Eigenvalues --- 1000.000001000.000001000.000001000.000001000.00000
     Eigenvalues --- 1000.000001000.000001000.000001000.000001000.00000
     Eigenvalues --- 1000.000001000.000001000.000001000.000001000.00000
     Eigenvalues --- 1000.000001000.000001000.000001000.000001000.00000
     Eigenvalues --- 1000.000001000.000001000.000001000.000001000.00000
     Eigenvalues --- 1000.000001000.000001000.000001000.000001000.00000
     Eigenvalues --- 1000.000001000.000001000.000001000.000001000.00000
     Eigenvalues --- 1000.000001000.000001000.000001000.000001000.00000
     Eigenvalues --- 1000.000001000.000001000.000001000.000001000.00000
     Eigenvalues --- 1000.000001000.00000
 RFO step:  Lambda=-2.34942273D-04 EMin= 2.23415231D-02
 Linear search not attempted -- first point.
 Iteration  1 RMS(Cart)=  0.00225212 RMS(Int)=  0.00000345
 Iteration  2 RMS(Cart)=  0.00000270 RMS(Int)=  0.00000166
 Iteration  3 RMS(Cart)=  0.00000000 RMS(Int)=  0.00000166
 ClnCor:  largest displacement from symmetrization is 1.34D-12 for atom    11.
 Variable       Old X    -DE/DX   Delta X   Delta X   Delta X     New X
                                 (Linear)    (Quad)   (Total)
    R1        4.70614  -0.00087   0.00000  -0.01135  -0.01135   4.69479
    R2        4.39607  -0.00011   0.00000  -0.00072  -0.00072   4.39535
    R3        4.76526  -0.00070   0.00000  -0.00879  -0.00879   4.75647
    R4        4.94224  -0.00094   0.00000  -0.01213  -0.01213   4.93011
    R5        5.38008  -0.00102   0.00000  -0.01504  -0.01504   5.36504
    R6        4.55758   0.00006   0.00000  -0.00032  -0.00032   4.55726
    R7        4.58485   0.00018   0.00000  -0.00133  -0.00133   4.58351
    R8        4.84707  -0.00106   0.00000  -0.01234  -0.01234   4.83473
    R9        4.92429  -0.00072   0.00000  -0.00889  -0.00889   4.91539
   R10        5.26108  -0.00058   0.00000  -0.00942  -0.00942   5.25166
   R11        4.54745  -0.00086   0.00000  -0.00805  -0.00805   4.53940
   R12        4.58397  -0.00018   0.00000  -0.00258  -0.00258   4.58139
   R13        4.59886  -0.00004   0.00000  -0.00272  -0.00272   4.59614
   R14        5.32165  -0.00138   0.00000  -0.01737  -0.01737   5.30428
   R15        4.92429  -0.00072   0.00000  -0.00889  -0.00889   4.91539
   R16        4.58397  -0.00018   0.00000  -0.00258  -0.00258   4.58139
   R17        5.33579  -0.00114   0.00000  -0.01508  -0.01508   5.32071
   R18        4.55758   0.00006   0.00000  -0.00032  -0.00032   4.55726
   R19        5.26108  -0.00058   0.00000  -0.00942  -0.00942   5.25166
   R20        4.51304  -0.00079   0.00000  -0.00665  -0.00666   4.50639
   R21        4.58485   0.00018   0.00000  -0.00133  -0.00133   4.58351
   R22        4.59886  -0.00004   0.00000  -0.00272  -0.00272   4.59614
   R23        4.94224  -0.00094   0.00000  -0.01213  -0.01213   4.93011
   R24        5.38008  -0.00102   0.00000  -0.01504  -0.01504   5.36504
   R25        4.70614  -0.00087   0.00000  -0.01135  -0.01135   4.69479
   R26        4.84707  -0.00106   0.00000  -0.01234  -0.01234   4.83473
   R27        4.39607  -0.00011   0.00000  -0.00072  -0.00072   4.39535
   R28        4.54745  -0.00086   0.00000  -0.00805  -0.00805   4.53940
   R29        4.76526  -0.00070   0.00000  -0.00879  -0.00879   4.75647
    A1        2.07883   0.00019   0.00000   0.00198   0.00199   2.08081
    A2        1.91224   0.00016   0.00000   0.00230   0.00230   1.91454
    A3        1.39789  -0.00007   0.00000  -0.00108  -0.00108   1.39680
    A4        1.81501  -0.00013   0.00000  -0.00092  -0.00092   1.81409
    A5        2.03373   0.00018   0.00000   0.00168   0.00168   2.03542
    A6        1.94208   0.00012   0.00000   0.00118   0.00118   1.94327
    A7        2.66930   0.00025   0.00000   0.00176   0.00176   2.67105
    A8        1.79649   0.00002   0.00000   0.00022   0.00022   1.79672
    A9        1.85893   0.00013   0.00000   0.00234   0.00234   1.86126
   A10        1.77618   0.00002   0.00000   0.00043   0.00043   1.77661
   A11        2.41176  -0.00020   0.00000  -0.00034  -0.00034   2.41142
   A12        1.61887  -0.00031   0.00000  -0.00252  -0.00252   1.61635
   A13        1.54623  -0.00046   0.00000  -0.00329  -0.00329   1.54294
   A14        2.02552   0.00019   0.00000   0.00221   0.00221   2.02773
   A15        1.89017   0.00017   0.00000   0.00187   0.00187   1.89204
   A16        1.76686  -0.00009   0.00000  -0.00053  -0.00053   1.76633
   A17        1.41326  -0.00001   0.00000  -0.00082  -0.00083   1.41244
   A18        1.28215   0.00013   0.00000   0.00075   0.00075   1.28290
   A19        1.43147   0.00038   0.00000   0.00282   0.00282   1.43429
   A20        2.12851   0.00031   0.00000   0.00241   0.00241   2.13092
   A21        2.12851   0.00031   0.00000   0.00241   0.00241   2.13092
   A22        1.75984   0.00040   0.00000   0.00414   0.00414   1.76398
   A23        1.28215   0.00013   0.00000   0.00075   0.00075   1.28290
   A24        1.78802   0.00041   0.00000   0.00378   0.00378   1.79180
   A25        2.04498   0.00023   0.00000   0.00190   0.00190   2.04688
   A26        1.98985  -0.00019   0.00000  -0.00154  -0.00154   1.98832
   A27        1.23501   0.00006   0.00000   0.00030   0.00030   1.23531
   A28        2.04498   0.00023   0.00000   0.00190   0.00190   2.04688
   A29        1.32266   0.00028   0.00000   0.00250   0.00250   1.32516
   A30        1.23501   0.00006   0.00000   0.00030   0.00030   1.23531
   A31        1.89215  -0.00019   0.00000  -0.00123  -0.00123   1.89091
   A32        1.98985  -0.00019   0.00000  -0.00154  -0.00154   1.98832
   A33        1.78192  -0.00008   0.00000  -0.00021  -0.00021   1.78171
   A34        1.77328   0.00034   0.00000   0.00427   0.00427   1.77755
   A35        2.64040   0.00008   0.00000   0.00190   0.00190   2.64230
   A36        1.81685  -0.00008   0.00000  -0.00033  -0.00033   1.81653
   A37        2.64040   0.00008   0.00000   0.00190   0.00190   2.64230
   A38        1.75202   0.00032   0.00000   0.00418   0.00417   1.75620
   A39        1.52900  -0.00007   0.00000   0.00009   0.00010   1.52909
   A40        1.78192  -0.00008   0.00000  -0.00021  -0.00021   1.78171
   A41        1.81685  -0.00008   0.00000  -0.00033  -0.00033   1.81653
   A42        1.81501  -0.00013   0.00000  -0.00092  -0.00092   1.81409
   A43        2.07883   0.00019   0.00000   0.00198   0.00199   2.08081
   A44        1.39789  -0.00007   0.00000  -0.00108  -0.00108   1.39680
   A45        1.91224   0.00016   0.00000   0.00230   0.00230   1.91454
   A46        1.61887  -0.00031   0.00000  -0.00252  -0.00252   1.61635
   A47        1.79649   0.00002   0.00000   0.00022   0.00022   1.79672
   A48        2.03373   0.00018   0.00000   0.00168   0.00168   2.03542
   A49        1.54623  -0.00046   0.00000  -0.00329  -0.00329   1.54294
   A50        1.77618   0.00002   0.00000   0.00043   0.00043   1.77661
   A51        1.94208   0.00012   0.00000   0.00118   0.00118   1.94327
   A52        1.85893   0.00013   0.00000   0.00234   0.00234   1.86126
   A53        2.41176  -0.00020   0.00000  -0.00034  -0.00034   2.41142
   A54        2.66930   0.00025   0.00000   0.00176   0.00176   2.67105
   A55        1.76686  -0.00009   0.00000  -0.00053  -0.00053   1.76633
   A56        2.02552   0.00019   0.00000   0.00221   0.00221   2.02773
   A57        1.41326  -0.00001   0.00000  -0.00082  -0.00083   1.41244
   A58        1.89017   0.00017   0.00000   0.00187   0.00187   1.89204
   A59        1.58055   0.00053   0.00000   0.00321   0.00321   1.58375
    D1       -0.16941   0.00002   0.00000  -0.00089  -0.00088  -0.17029
    D2        1.44316  -0.00044   0.00000  -0.00377  -0.00377   1.43939
    D3        0.03192   0.00001   0.00000  -0.00014  -0.00014   0.03178
    D4        2.26997  -0.00004   0.00000   0.00008   0.00008   2.27006
    D5        1.18099  -0.00006   0.00000   0.00006   0.00006   1.18105
    D6        0.11145   0.00002   0.00000   0.00025   0.00026   0.11170
    D7        1.24890  -0.00002   0.00000  -0.00037  -0.00037   1.24852
    D8        0.15992  -0.00004   0.00000  -0.00040  -0.00040   0.15952
    D9       -0.90963   0.00005   0.00000  -0.00020  -0.00020  -0.90983
   D10       -0.64885  -0.00006   0.00000   0.00026   0.00026  -0.64859
   D11       -2.48556  -0.00005   0.00000  -0.00065  -0.00065  -2.48621
   D12       -1.21067  -0.00009   0.00000  -0.00059  -0.00059  -1.21126
   D13        0.15614   0.00000   0.00000   0.00103   0.00103   0.15717
   D14       -1.68057   0.00001   0.00000   0.00012   0.00012  -1.68045
   D15       -0.40567  -0.00002   0.00000   0.00017   0.00017  -0.40550
   D16        0.21483   0.00002   0.00000   0.00093   0.00093   0.21575
   D17       -0.63069  -0.00008   0.00000  -0.00042  -0.00042  -0.63111
   D18        1.24767  -0.00004   0.00000   0.00017   0.00017   1.24784
   D19        2.55731  -0.00002   0.00000   0.00015   0.00015   2.55745
   D20        1.70907   0.00004   0.00000   0.00133   0.00133   1.71040
   D21        0.14983   0.00002   0.00000   0.00117   0.00117   0.15100
   D22        1.45946   0.00005   0.00000   0.00115   0.00115   1.46061
   D23        0.61122   0.00011   0.00000   0.00233   0.00233   0.61355
   D24       -0.76759  -0.00006   0.00000  -0.00024  -0.00024  -0.76783
   D25        0.54204  -0.00004   0.00000  -0.00026  -0.00026   0.54178
   D26       -0.30620   0.00003   0.00000   0.00093   0.00093  -0.30527
   D27       -1.71102   0.00000   0.00000  -0.00047  -0.00048  -1.71150
   D28       -0.40139   0.00002   0.00000  -0.00050  -0.00050  -0.40188
   D29       -1.24962   0.00008   0.00000   0.00069   0.00069  -1.24894
   D30       -1.31282  -0.00005   0.00000  -0.00107  -0.00107  -1.31389
   D31       -1.82859  -0.00015   0.00000  -0.00196  -0.00196  -1.83055
   D32       -2.60855  -0.00002   0.00000  -0.00061  -0.00061  -2.60916
   D33       -0.19340  -0.00005   0.00000  -0.00123  -0.00123  -0.19463
   D34       -0.70917  -0.00015   0.00000  -0.00212  -0.00212  -0.71129
   D35       -1.48913  -0.00002   0.00000  -0.00077  -0.00077  -1.48990
   D36        0.77987   0.00003   0.00000  -0.00007  -0.00007   0.77979
   D37        0.26410  -0.00007   0.00000  -0.00097  -0.00097   0.26313
   D38       -0.51587   0.00006   0.00000   0.00039   0.00039  -0.51548
   D39       -2.34343   0.00026   0.00000   0.00039   0.00039  -2.34305
   D40       -1.36663   0.00013   0.00000   0.00137   0.00138  -1.36526
   D41       -0.08823   0.00030   0.00000   0.00331   0.00332  -0.08491
   D42        0.43233   0.00002   0.00000   0.00072   0.00072   0.43306
   D43       -1.22205   0.00004   0.00000   0.00082   0.00082  -1.22123
   D44       -2.31571   0.00000   0.00000   0.00037   0.00038  -2.31534
[...]
              1
     1  Si   0.014265
     2  Si   0.254964
     3  Si  -0.129433
     4  Si   0.091386
     5  Si   0.502740
     6  Si   0.043354
     7  Si  -0.140964
     8  Si   0.254964
     9  Si  -0.129433
    10  Si   0.091386
    11  Si   0.014265
    12  Si   0.132506
 Sum of Mulliken atomic spin densities =   1.00000
 Electronic spatial extent (au):  <R**2>=           4281.8566
 Charge=              1.0000 electrons
 Dipole moment (field-independent basis, Debye):
    X=             -0.4368    Y=              0.0189    Z=              0.0000  Tot=              0.4372
 Quadrupole moment (field-independent basis, Debye-Ang):
   XX=           -139.3163   YY=           -141.5707   ZZ=           -128.9243
   XY=              0.5197   XZ=              0.0000   YZ=              0.0000
 Traceless Quadrupole moment (field-independent basis, Debye-Ang):
   XX=             -2.7125   YY=             -4.9669   ZZ=              7.6795
   XY=              0.5197   XZ=              0.0000   YZ=              0.0000
 Octapole moment (field-independent basis, Debye-Ang**2):
  XXX=             -1.5043  YYY=              0.5312  ZZZ=              0.0000  XYY=             -2.3447
  XXY=              3.5242  XXZ=              0.0000  XZZ=             -1.5554  YZZ=              0.8038
  YYZ=              0.0000  XYZ=              0.0000
 Hexadecapole moment (field-independent basis, Debye-Ang**3):
 XXXX=          -1594.5252 YYYY=          -1294.6611 ZZZZ=          -3742.8782 XXXY=             -4.3868
 XXXZ=              0.0000 YYYX=             10.6117 YYYZ=              0.0000 ZZZX=              0.0000
 ZZZY=              0.0000 XXYY=           -483.6558 XXZZ=           -865.9727 YYZZ=           -828.3256
 XXYZ=              0.0000 YYXZ=              0.0000 ZZXY=             12.5869
 N-N= 2.077128916153D+03 E-N=-1.859074197276D+04  KE= 5.199633456130D+03
 Symmetry A'   KE= 3.311848442214D+03
 Symmetry A"   KE= 1.887785013916D+03
                          Isotropic Fermi Contact Couplings
        Atom                 a.u.       MegaHertz       Gauss      10(-4) cm-1
     1  Si(29)             0.00707      -6.27903      -2.24051      -2.09446
     2  Si(29)             0.17746    -157.71742     -56.27750     -52.60887
     3  Si(29)            -0.02342      20.81002       7.42553       6.94147
     4  Si(29)             0.00445      -3.95530      -1.41135      -1.31935
     5  Si(29)             0.34114    -303.18279    -108.18315    -101.13089
     6  Si(29)             0.15084    -134.05983     -47.83588     -44.71754
     7  Si(29)            -0.00869       7.72464       2.75634       2.57666
     8  Si(29)             0.17746    -157.71742     -56.27750     -52.60887
     9  Si(29)            -0.02342      20.81002       7.42553       6.94147
    10  Si(29)             0.00445      -3.95530      -1.41135      -1.31935
    11  Si(29)             0.00707      -6.27903      -2.24051      -2.09446
    12  Si(29)            -0.01052       9.35135       3.33680       3.11928
 --------------------------------------------------------
       Center         ----  Spin Dipole Couplings  ----
                      3XX-RR        3YY-RR        3ZZ-RR
 --------------------------------------------------------
     1   Atom       -0.021720      0.035819     -0.014099
     2   Atom       -0.277972      0.531245     -0.253273
     3   Atom        0.077397     -0.168772      0.091375
     4   Atom       -0.053734      0.137178     -0.083444
     5   Atom       -0.438595      0.979363     -0.540768
     6   Atom       -0.143984      0.117000      0.026984
     7   Atom        0.315199     -0.462586      0.147386
     8   Atom       -0.277972      0.531245     -0.253273
     9   Atom        0.077397     -0.168772      0.091375
    10   Atom       -0.053734      0.137178     -0.083444
    11   Atom       -0.021720      0.035819     -0.014099
    12   Atom       -0.234285      0.356527     -0.122241
 --------------------------------------------------------
                        XY            XZ            YZ
 --------------------------------------------------------
     1   Atom       -0.018790      0.009739     -0.003809
     2   Atom       -0.182845      0.037927      0.130321
     3   Atom       -0.003947     -0.003327      0.043471
     4   Atom       -0.064616     -0.018669      0.119699
     5   Atom       -0.172017      0.000000      0.000000
     6   Atom        0.034407      0.000000      0.000000
     7   Atom       -0.022651      0.000000      0.000000
     8   Atom       -0.182845     -0.037927     -0.130321
     9   Atom       -0.003947      0.003327     -0.043471
    10   Atom       -0.064616      0.018669     -0.119699
    11   Atom       -0.018790     -0.009739      0.003809
    12   Atom       -0.055784      0.000000      0.000000
 --------------------------------------------------------


 ---------------------------------------------------------------------------------
              Anisotropic Spin Dipole Couplings in Principal Axis System
 ---------------------------------------------------------------------------------

       Atom             a.u.   MegaHertz   Gauss  10(-4) cm-1        Axes

              Baa    -0.0314     3.329     1.188     1.110  0.8700  0.2182 -0.4422
     1 Si(29) Bbb    -0.0108     1.143     0.408     0.381  0.3940  0.2316  0.8895
              Bcc     0.0422    -4.472    -1.596    -1.492 -0.2965  0.9480 -0.1155
 
              Baa    -0.3620    38.397    13.701    12.808  0.7869  0.2438 -0.5669
     2 Si(29) Bbb    -0.2257    23.947     8.545     7.988  0.5843  0.0014  0.8115
              Bcc     0.5877   -62.344   -22.246   -20.796 -0.1987  0.9698  0.1413
 
              Baa    -0.1759    18.659     6.658     6.224  0.0133  0.9870 -0.1604
     3 Si(29) Bbb     0.0767    -8.140    -2.905    -2.715  0.9840  0.0156  0.1773
              Bcc     0.0992   -10.519    -3.753    -3.509 -0.1775  0.1602  0.9710
 
              Baa    -0.1370    14.537     5.187     4.849 -0.1258 -0.4216  0.8980
     4 Si(29) Bbb    -0.0697     7.394     2.638     2.466  0.9605  0.1747  0.2166
              Bcc     0.2067   -21.930    -7.825    -7.315 -0.2482  0.8898  0.3830
 
              Baa    -0.5408    57.367    20.470    19.136  0.0000  0.0000  1.0000
     5 Si(29) Bbb    -0.4592    48.710    17.381    16.248  0.9929  0.1187  0.0000
              Bcc     0.9999  -106.077   -37.851   -35.383 -0.1187  0.9929  0.0000
 
              Baa    -0.1484    15.748     5.619     5.253  0.9917 -0.1285  0.0000
     6 Si(29) Bbb     0.0270    -2.863    -1.021    -0.955  0.0000  0.0000  1.0000
              Bcc     0.1215   -12.885    -4.598    -4.298  0.1285  0.9917  0.0000
 
              Baa    -0.4632    49.143    17.535    16.392  0.0291  0.9996  0.0000
     7 Si(29) Bbb     0.1474   -15.635    -5.579    -5.215  0.0000  0.0000  1.0000
              Bcc     0.3159   -33.508   -11.956   -11.177  0.9996 -0.0291  0.0000
 
              Baa    -0.3620    38.397    13.701    12.808  0.7869  0.2438  0.5669
     8 Si(29) Bbb    -0.2257    23.947     8.545     7.988 -0.5843 -0.0014  0.8115
              Bcc     0.5877   -62.344   -22.246   -20.796 -0.1987  0.9698 -0.1413
 
              Baa    -0.1759    18.659     6.658     6.224  0.0133  0.9870  0.1604
     9 Si(29) Bbb     0.0767    -8.140    -2.905    -2.715  0.9840  0.0156 -0.1773
              Bcc     0.0992   -10.519    -3.753    -3.509  0.1775 -0.1602  0.9710
 
              Baa    -0.1370    14.537     5.187     4.849  0.1258  0.4216  0.8980
    10 Si(29) Bbb    -0.0697     7.394     2.638     2.466  0.9605  0.1747 -0.2166
              Bcc     0.2067   -21.930    -7.825    -7.315 -0.2482  0.8898 -0.3830
 
              Baa    -0.0314     3.329     1.188     1.110  0.8700  0.2182  0.4422
    11 Si(29) Bbb    -0.0108     1.143     0.408     0.381 -0.3940 -0.2316  0.8895
              Bcc     0.0422    -4.472    -1.596    -1.492 -0.2965  0.9480  0.1155
 
              Baa    -0.2395    25.408     9.066     8.475  0.9956  0.0932  0.0000
    12 Si(29) Bbb    -0.1222    12.968     4.627     4.326  0.0000  0.0000  1.0000
              Bcc     0.3617   -38.376   -13.693   -12.801 -0.0932  0.9956  0.0000
 

 ---------------------------------------------------------------------------------

 1\1\GINC-NODE77\SP\UHF\GFHFB2\Si12(1+,2)\TAM\19-Dec-2011\0\\#N Geom=Al
 lCheck Guess=TCheck SCRF=Check HF/GFHFB2 SCF=Tight\\si12-n\\1,2\Si,0,0
 .0042244925,-0.0830414631,3.7051929906\Si,0,-1.6265949875,0.3290670197
 ,1.8862942618\Si,0,0.938199688,0.6680781172,1.7150227873\Si,0,0.251591
 1374,-1.7829944616,1.8766093245\Si,0,1.6452327372,-1.14343068,0.\Si,0,
 -0.9781989246,1.692718005,0.\Si,0,-1.1350171101,-1.1064854165,0.\Si,0,
 -1.6265949875,0.3290670197,-1.8862942618\Si,0,0.938199688,0.6680781172
 ,-1.7150227873\Si,0,0.2515911374,-1.7829944616,-1.8766093245\Si,0,0.00
 42244925,-0.0830414631,-3.7051929906\Si,0,1.3329531267,2.2949746172,0.
 \\Version=AM64L-G09RevA.02\State=2-A'\HF=-3466.9279938\S2=0.942765\S2-
 1=0.\S2A=0.778088\RMSD=8.927e-09\Dipole=-0.0099889,-0.1717088,0.\Quadr
 upole=-3.7039243,-2.0055725,5.7094968,-0.3612292,0.,0.\PG=CS [SG(Si4),
 X(Si8)]\\@


            ARSENIC

 FOR SMELTER FUMES HAVE I BEEN NAMED,
    I AM AN EVIL POISONOUS SMOKE...
 BUT WHEN FROM POISON I AM FREED,
    THROUGH ART AND SLEIGHT OF HAND,
 THEN CAN I CURE BOTH MAN AND BEAST,
    FROM DIRE DISEASE OFTTIMES DIRECT THEM;
 BUT PREPARE ME CORRECTLY, AND TAKE GREAT CARE
    THAT YOU FAITHFULLY KEEP WATCHFUL GUARD OVER ME;
 FOR ELSE I AM POISON, AND POISON REMAIN,
    THAT PIERCES THE HEART OF MANY A ONE.

 ATTRIBUTED TO THE PROBABLY MYTHICAL 15TH
 CENTURY MONK, BASILIUS VALENTINUS
 Diagonal vibrational polarizability:
        0.0000000       0.0000000       0.0000000

 Temperature=              298.150000 Pressure=                      1.000000
 E(ZPE)=                     0.017904 E(Thermal)=                    0.035321
 E(CCSD(T))=             -3467.787169 E(Empiric)=                   -0.166385
 DE(Plus)=                  -0.026782 DE(2DF)=                      -0.418902
 E(Delta-G3XP)=             -3.765830 DE(HF)=                       -0.079292
 G4(0 K)=                -3472.226456 G4 Energy=                 -3472.209039
 G4 Enthalpy=            -3472.208095 G4 Free Energy=            -3472.271235
 1\1\GINC-NODE77\Mixed\G4\G4\Si12(1+,2)\TAM\19-Dec-2011\0\\# G4 scfcyc=
 500 scf=xqc\\si12-n\\1,2\Si,0,0.0042244925,-0.0830414631,3.7051929906\
 Si,0,-1.6265949875,0.3290670197,1.8862942618\Si,0,0.938199688,0.668078
 1172,1.7150227873\Si,0,0.2515911374,-1.7829944616,1.8766093245\Si,0,1.
 6452327372,-1.14343068,0.\Si,0,-0.9781989246,1.692718005,0.\Si,0,-1.13
 50171101,-1.1064854165,0.\Si,0,-1.6265949875,0.3290670197,-1.886294261
 8\Si,0,0.938199688,0.6680781172,-1.7150227873\Si,0,0.2515911374,-1.782
 9944616,-1.8766093245\Si,0,0.0042244925,-0.0830414631,-3.7051929906\Si
 ,0,1.3329531267,2.2949746172,0.\\Version=AM64L-G09RevA.02\State=2-A'\M
 P2/GTBas1=-3467.7012837\MP4/GTBas1=-3467.8563203\CCSD(T)/G3Bas1=-3467.
 7871694\MP2/GTBas2=-3467.725562\MP4/GTBas2=-3467.8831026\MP2/GTBas3=-3
 468.083246\MP4/GTBas3=-3468.2752219\HF/GTLargeXP=-3466.8516509\MP2/GTL
 argeXP=-3471.873354\HF/GFHFB1=-3466.9158909\HF/GFHFB2=-3466.9279938\G4
 =-3472.2264564\FreqCoord=0.0079831338,-0.156925623,7.0018000217,-3.073
 8190555,0.6218465465,3.5645795609,1.7729404682,1.2624846769,3.24092337
 96,0.4754383472,-3.3693712289,3.5462776816,3.1090392982,-2.1607708371,
 0.,-1.8485280709,3.1987734496,0.,-2.1448714941,-2.0909544071,0.,-3.073
 8190555,0.6218465465,-3.5645795609,1.7729404682,1.2624846769,-3.240923
 3796,0.4754383472,-3.3693712289,-3.5462776816,0.0079831338,-0.15692562
 3,-7.0018000217,2.5189163573,4.3368735084,0.\PG=CS [SG(Si4),X(Si8)]\NI
 mag=0\\0.03827722,0.00347887,0.03620642,-0.00721097,-0.00740867,0.1294
 3550,-0.01414675,0.00230961,-0.01944849,0.06052426,0.00275838,-0.00933
 981,0.00340166,-0.00490341,0.04927536,-0.02474861,0.00563462,-0.026808
 69,-0.00341837,-0.00521448,0.09776888,-0.01468259,-0.00664445,0.024878
 44,-0.02861578,-0.00382708,0.00275800,0.05192509,-0.00788890,-0.014786
 66,0.02055267,-0.00218044,-0.00036543,-0.00014232,0.02135207,0.0911897
 8,0.02738439,0.02263446,-0.06317754,0.00543494,-0.00400270,0.00214234,
 -0.03090373,-0.04239211,0.11648890,-0.00920489,0.00199934,0.00132609,-
 0.00237298,0.01033846,0.00838803,0.00073186,-0.01160673,-0.00440080,0.
 04204776,0.00177361,-0.01471983,-0.01593479,0.00303811,-0.00574079,0.0
 0149601,-0.00603470,-0.03016942,0.00579784,-0.00370368,0.06868320,0.00
 205888,-0.02308176,-0.02159572,0.00390553,0.00777153,-0.00126692,-0.00
 058627,0.00489143,-0.00032638,-0.00189766,-0.00571027,0.08882331,0.001
 67040,-0.00137146,-0.00286720,-0.00745091,0.00145592,-0.00102409,-0.00
 078872,0.00683493,0.00414267,-0.01209651,-0.00711402,0.01680629,0.0559
 3306,0.00163747,0.00027628,0.00039468,-0.00112925,-0.00081823,-0.00046
 795,0.00382985,-0.01142027,-0.00868112,-0.00779448,-0.00261234,0.00691
 388,-0.00215855,0.03619196,0.00263362,0.00177881,-0.00574668,0.0023123
 2,-0.00406134,0.00102052,-0.00170855,-0.00712100,-0.00453074,0.0210614
 4,0.00283265,-0.02543599,0.,0.,0.07592272,0.00115936,0.00152171,-0.000
 48533,-0.00763107,-0.01156169,0.01167967,-0.00936775,0.00301085,0.0006
 1169,-0.00232729,0.00055864,0.00063180,0.00096617,0.00617289,0.,0.0919
 8241,0.00096100,0.00173134,-0.00255177,-0.01023754,-0.01273933,0.01688
 498,0.00208345,-0.00509466,0.00438289,0.00420685,-0.00498565,-0.000264
 96,0.00599795,-0.00790565,0.,0.02319450,0.06350950,0.00112209,0.002257
 64,-0.00342092,0.00811241,0.02178489,-0.03163507,-0.00468723,-0.000541
 65,-0.00081362,-0.00435089,0.00501630,0.00065719,0.,0.,-0.00544749,0.,
 0.,0.08423544,-0.00224396,-0.00260707,0.00303976,-0.00258170,0.0062398
 8,0.00134230,-0.00197320,-0.00136711,-0.00638372,-0.00821148,0.0077339
 1,-0.01703360,-0.01763116,0.00002611,0.,0.00023423,-0.00100573,0.,0.04
 754768,-0.00306538,-0.00090745,0.00243596,0.00879344,-0.00999743,-0.01
 779363,-0.00236478,-0.00070438,-0.00620718,0.00901188,-0.00600306,0.00
 497718,0.00018748,-0.00077607,0.,-0.00230021,-0.01110257,0.,-0.0149993
 1,0.05426295,-0.00018834,-0.00037111,-0.00515858,0.00960663,-0.0266190
 2,-0.02897971,0.00030855,-0.00080388,0.00215342,-0.02421790,0.01054320
 ,-0.02749294,0.,0.,0.00115882,0.,0.,-0.00287237,0.,0.,0.12331125,-0.00
 141495,0.00065114,0.00278461,0.01029066,0.00128947,0.00336636,-0.00072
 226,0.00158500,-0.00088572,-0.00315327,-0.00118015,0.00034733,-0.00745
 091,-0.00112925,-0.00231232,-0.00763107,-0.01023754,-0.00811241,-0.002
 58170,0.00879344,-0.00960663,0.06052426,-0.00187237,-0.00255079,0.0003
 0634,0.00128947,-0.00100117,-0.00130496,-0.00235762,-0.00015878,-0.004
 27036,0.00383721,-0.00435243,0.00173529,0.00145592,-0.00081823,0.00406
 134,-0.01156169,-0.01273933,-0.02178489,0.00623988,-0.00999743,0.02661
 902,-0.00490341,0.04927536,0.00361259,-0.00123778,-0.00008667,-0.00336
 636,0.00130496,-0.01059031,-0.00212077,0.00005604,-0.00197576,-0.00126
 821,-0.00115533,0.00055918,0.00102409,0.00046795,0.00102052,-0.0116796
 7,-0.01688498,-0.03163507,-0.00134230,0.01779363,-0.02897971,0.0034183
 7,0.00521448,0.09776888,-0.00070386,-0.00004188,-0.00134783,-0.0007222
 6,-0.00235762,0.00212077,0.00241300,0.00035914,-0.00102011,-0.00217163
 ,0.00042129,0.00039034,-0.00078872,0.00382985,0.00170855,-0.00936775,0
 .00208345,0.00468723,-0.00197320,-0.00236478,-0.00030855,-0.02861578,-
 0.00382708,-0.00275800,0.05192509,-0.00073072,-0.00160864,-0.00227406,
 0.00158500,-0.00015878,-0.00005604,0.00035914,0.00429494,0.00356469,-0
 .00458917,-0.00307084,0.00507949,0.00683493,-0.01142027,0.00712100,0.0
 0301085,-0.00509466,0.00054165,-0.00136711,-0.00070438,0.00080388,-0.0
 0218044,-0.00036543,0.00014232,0.02135207,0.09118978,-0.00446702,-0.00
 355904,-0.00030729,0.00088572,0.00427036,-0.00197576,0.00102011,-0.003
 56469,-0.01642448,0.00172123,-0.00185765,-0.00050686,-0.00414267,0.008
 68112,-0.00453074,-0.00061169,-0.00438289,-0.00081362,0.00638372,0.006
 20718,0.00215342,-0.00543494,0.00400270,0.00214234,0.03090373,0.042392
 11,0.11648890,-0.00183680,-0.00035246,-0.00015193,-0.00315327,0.003837
 21,0.00126821,-0.00217163,-0.00458917,-0.00172123,0.00192280,0.0012356
 3,-0.00172080,-0.01209651,-0.00779448,-0.02106144,-0.00232729,0.004206
 85,0.00435089,-0.00821148,0.00901188,0.02421790,-0.00237298,0.01033846
 ,-0.00838803,0.00073186,-0.01160673,0.00440080,0.04204776,0.00097690,0
 .00042822,0.00089038,-0.00118015,-0.00435243,0.00115533,0.00042129,-0.
 00307084,0.00185765,0.00123563,0.00581276,0.00143604,-0.00711402,-0.00
 261234,-0.00283265,0.00055864,-0.00498565,-0.00501630,0.00773391,-0.00
 600306,-0.01054320,0.00303811,-0.00574079,-0.00149601,-0.00603470,-0.0
 3016942,-0.00579784,-0.00370368,0.06868320,-0.00161305,0.00273320,0.00
 066801,-0.00034733,-0.00173529,0.00055918,-0.00039034,-0.00507949,-0.0
 0050686,0.00172080,-0.00143604,-0.01265007,-0.01680629,-0.00691388,-0.
 02543599,-0.00063180,0.00026496,0.00065719,0.01703360,-0.00497718,-0.0
 2749294,-0.00390553,-0.00777153,-0.00126692,0.00058627,-0.00489143,-0.
 00032638,0.00189766,0.00571027,0.08882331,0.00511401,0.00030424,-0.000
 27425,-0.00141495,-0.00187237,-0.00361259,-0.00070386,-0.00073072,0.00
 446702,-0.00183680,0.00097690,0.00161305,0.00167040,0.00163747,-0.0026
 3362,0.00115936,0.00096100,-0.00112209,-0.00224396,-0.00306538,0.00018
 834,-0.01414675,0.00275838,0.02474861,-0.01468259,-0.00788890,-0.02738
 439,-0.00920489,0.00177361,-0.00205888,0.03827722,0.00030424,0.0038880
 9,0.00045491,0.00065114,-0.00255079,0.00123778,-0.00004188,-0.00160864
 ,0.00355904,-0.00035246,0.00042822,-0.00273320,-0.00137146,0.00027628,
 -0.00177881,0.00152171,0.00173134,-0.00225764,-0.00260707,-0.00090745,
 0.00037111,0.00230961,-0.00933981,-0.00563462,-0.00664445,-0.01478666,
 -0.02263446,0.00199934,-0.01471983,0.02308176,0.00347887,0.03620642,0.
 00027425,-0.00045491,-0.00465292,-0.00278461,-0.00030634,-0.00008667,0
 .00134783,0.00227406,-0.00030729,0.00015193,-0.00089038,0.00066801,0.0
 0286720,-0.00039468,-0.00574668,0.00048533,0.00255177,-0.00342092,-0.0
 0303976,-0.00243596,-0.00515858,0.01944849,-0.00340166,-0.02680869,-0.
 02487844,-0.02055267,-0.06317754,-0.00132609,0.01593479,-0.02159572,0.
 00721097,0.00740867,0.12943550,-0.00198720,0.00075241,-0.00024292,-0.0
 0272526,-0.00139717,0.00188032,0.00395584,-0.00477892,0.00327460,-0.00
 332758,0.00229446,-0.00451490,-0.00193660,0.00287237,0.,-0.05684932,-0
 .02221425,0.,-0.00013009,-0.00763826,0.,-0.00272526,-0.00139717,-0.001
 88032,0.00395584,-0.00477892,-0.00327460,-0.00332758,0.00229446,0.0045
 1490,-0.00198720,0.00075240,0.00024292,0.06708440,0.00166689,0.0013828
 4,-0.00026730,0.00196401,-0.00221117,-0.00142934,-0.00677529,-0.028105
 63,0.02375688,-0.00258286,-0.00326980,-0.00101467,-0.00363762,0.001638
 87,0.,-0.01412619,-0.00232468,0.,-0.00402032,-0.00715966,0.,0.00196401
 ,-0.00221117,0.00142934,-0.00677529,-0.02810563,-0.02375688,-0.0025828
 5,-0.00326980,0.00101467,0.00166689,0.00138284,0.00026730,0.03323861,0
 .07225299,0.00114219,0.00107454,0.00085151,-0.00089238,0.00340578,-0.0
 0014780,0.01008395,0.03187095,-0.03272198,0.00176595,0.00129846,-0.001
 43281,0.,0.,-0.00224829,0.,0.,-0.00549076,0.,0.,-0.00264208,0.00089238
 ,-0.00340577,-0.00014780,-0.01008395,-0.03187095,-0.03272198,-0.001765
 95,-0.00129846,-0.00143281,-0.00114218,-0.00107454,0.00085151,0.,0.,0.
 07728330\\0.00000057,-0.00000541,-0.00000273,-0.00001137,0.00000222,0.
 00000478,0.00000402,0.00002295,-0.00000340,-0.00000499,0.00000780,-0.0
 0000445,-0.00002294,-0.00002447,0.,0.00004313,-0.00003201,0.,0.0000167
 4,0.00001566,0.,-0.00001137,0.00000222,-0.00000478,0.00000402,0.000022
 95,0.00000340,-0.00000499,0.00000780,0.00000445,0.00000057,-0.00000541
 ,0.00000273,-0.00001336,-0.00001430,0.\\\@
 Job cpu time:  4 days 23 hours 26 minutes  3.3 seconds.
 File lengths (MBytes):  RWF= 368648 Int=      0 D2E=      0 Chk=     96 Scr=      1
 Normal termination of Gaussian 09 at Mon Dec 19 11:25:42 2011.
