 Entering Gaussian System, Link 0=g09
 Initial command:
 /usr/local/chem/g09A2/l1.exe /temp0/tam/Gau-13088.inp -scrdir=/temp0/tam/
 Entering Link 1 = /usr/local/chem/g09A2/l1.exe PID=     13089.
  
 Copyright (c) 1988,1990,1992,1993,1995,1998,2003,2009, Gaussian, Inc.
                  All Rights Reserved.
  
 This is part of the Gaussian(R) 09 program.  It is based on
 the Gaussian(R) 03 system (copyright 2003, Gaussian, Inc.),
 the Gaussian(R) 98 system (copyright 1998, Gaussian, Inc.),
 the Gaussian(R) 94 system (copyright 1995, Gaussian, Inc.),
 the Gaussian 92(TM) system (copyright 1992, Gaussian, Inc.),
 the Gaussian 90(TM) system (copyright 1990, Gaussian, Inc.),
 the Gaussian 88(TM) system (copyright 1988, Gaussian, Inc.),
 the Gaussian 86(TM) system (copyright 1986, Carnegie Mellon
 University), and the Gaussian 82(TM) system (copyright 1983,
 Carnegie Mellon University). Gaussian is a federally registered
 trademark of Gaussian, Inc.
  
 This software contains proprietary and confidential information,
 including trade secrets, belonging to Gaussian, Inc.
  
 This software is provided under written license and may be
 used, copied, transmitted, or stored only in accord with that
 written license.
  
 The following legend is applicable only to US Government
 contracts under FAR:
  
                    RESTRICTED RIGHTS LEGEND
  
 Use, reproduction and disclosure by the US Government is
 subject to restrictions as set forth in subparagraphs (a)
 and (c) of the Commercial Computer Software - Restricted
 Rights clause in FAR 52.227-19.
  
 Gaussian, Inc.
 340 Quinnipiac St., Bldg. 40, Wallingford CT 06492
  
  
 ---------------------------------------------------------------
 Warning -- This program may not be used in any manner that
 competes with the business of Gaussian, Inc. or will provide
 assistance to any competitor of Gaussian, Inc.  The licensee
 of this program is prohibited from giving any competitor of
 Gaussian, Inc. access to this program.  By using this program,
 the user acknowledges that Gaussian, Inc. is engaged in the
 business of creating and licensing software in the field of
 computational chemistry and represents and warrants to the
 licensee that it is not a competitor of Gaussian, Inc. and that
 it will not use this program in any manner prohibited above.
 ---------------------------------------------------------------
  

 Cite this work as:
 Gaussian 09, Revision A.02,
 M. J. Frisch, G. W. Trucks, H. B. Schlegel, G. E. Scuseria, 
 M. A. Robb, J. R. Cheeseman, G. Scalmani, V. Barone, B. Mennucci, 
 G. A. Petersson, H. Nakatsuji, M. Caricato, X. Li, H. P. Hratchian, 
 A. F. Izmaylov, J. Bloino, G. Zheng, J. L. Sonnenberg, M. Hada, 
 M. Ehara, K. Toyota, R. Fukuda, J. Hasegawa, M. Ishida, T. Nakajima, 
 Y. Honda, O. Kitao, H. Nakai, T. Vreven, J. A. Montgomery, Jr., 
 J. E. Peralta, F. Ogliaro, M. Bearpark, J. J. Heyd, E. Brothers, 
 K. N. Kudin, V. N. Staroverov, R. Kobayashi, J. Normand, 
 K. Raghavachari, A. Rendell, J. C. Burant, S. S. Iyengar, J. Tomasi, 
 M. Cossi, N. Rega, J. M. Millam, M. Klene, J. E. Knox, J. B. Cross, 
 V. Bakken, C. Adamo, J. Jaramillo, R. Gomperts, R. E. Stratmann, 
 O. Yazyev, A. J. Austin, R. Cammi, C. Pomelli, J. W. Ochterski, 
 R. L. Martin, K. Morokuma, V. G. Zakrzewski, G. A. Voth, 
 P. Salvador, J. J. Dannenberg, S. Dapprich, A. D. Daniels, 
 O. Farkas, J. B. Foresman, J. V. Ortiz, J. Cioslowski, 
 and D. J. Fox, Gaussian, Inc., Wallingford CT, 2009.
 
 ******************************************
 Gaussian 09:  AM64L-G09RevA.02 11-Jun-2009
                21-Dec-2011 
 ******************************************
 %NprocShared=6
 Will use up to    6 processors via shared memory.
 %mem=18050MB
 %chk=S9L-ne-d-01
 -----------------------
 # G4 scfcyc=500 scf=xqc
 -----------------------
 1/14=-1,18=20,19=15,26=3,38=1/1,3;
 2/9=110,12=2,17=6,18=5,40=1/2;
 3/5=35,7=104,11=2,16=1,25=1,30=1,71=1,74=-5/1,2,3;
 4//1;
 5/5=2,7=500,8=3,13=1,38=5/2,8;
 6/7=2,8=2,9=2,10=2,28=1/1;
 7//1,2,3,16;
 1/14=-1,18=20,19=15/3(2);
 2/9=110/2;
 99//99;
 2/9=110/2;
 3/5=35,7=104,11=2,16=1,25=1,30=1,71=1,74=-5/1,2,3;
 4/5=5,16=3/1;
 5/5=2,7=500,8=3,13=1,38=5/2,8;
 7//1,2,3,16;
 1/14=-1,18=20,19=15/3(-5);
 2/9=110/2;
 6/7=2,8=2,9=2,10=2,19=2,28=1/1;
 99/9=1/99;
 -----
 si5-n
 -----
 Symbolic Z-matrix:
 Charge =  0 Multiplicity = 1
 Si                    0.        1.80448   0. 
 Si                    1.56272  -0.90224   0. 
 Si                   -1.56272  -0.90224   0. 
 Si                    0.        0.        1.47372 
 Si                    0.        0.       -1.47372 
 

 GradGradGradGradGradGradGradGradGradGradGradGradGradGradGradGradGradGrad
 Berny optimization.
 Initialization pass.
                           ----------------------------
                           !    Initial Parameters    !
                           ! (Angstroms and Degrees)  !
 --------------------------                            --------------------------
 ! Name  Definition              Value          Derivative Info.                !
 --------------------------------------------------------------------------------
 ! R1    R(1,4)                  2.3298         estimate D2E/DX2                !
 ! R2    R(1,5)                  2.3298         estimate D2E/DX2                !
 ! R3    R(2,4)                  2.3298         estimate D2E/DX2                !
 ! R4    R(2,5)                  2.3298         estimate D2E/DX2                !
 ! R5    R(3,4)                  2.3298         estimate D2E/DX2                !
 ! R6    R(3,5)                  2.3298         estimate D2E/DX2                !
 ! A1    A(4,1,5)               78.477          estimate D2E/DX2                !
 ! A2    A(4,2,5)               78.477          estimate D2E/DX2                !
 ! A3    A(4,3,5)               78.477          estimate D2E/DX2                !
 ! A4    A(1,4,2)               84.2505         estimate D2E/DX2                !
 ! A5    A(1,4,3)               84.2505         estimate D2E/DX2                !
 ! A6    A(2,4,3)               84.2505         estimate D2E/DX2                !
 ! A7    A(1,5,2)               84.2505         estimate D2E/DX2                !
 ! A8    A(1,5,3)               84.2505         estimate D2E/DX2                !
 ! A9    A(2,5,3)               84.2505         estimate D2E/DX2                !
 ! D1    D(5,1,4,2)             42.3878         estimate D2E/DX2                !
 ! D2    D(5,1,4,3)            -42.3878         estimate D2E/DX2                !
 ! D3    D(4,1,5,2)            -42.3878         estimate D2E/DX2                !
 ! D4    D(4,1,5,3)             42.3878         estimate D2E/DX2                !
 ! D5    D(5,2,4,1)            -42.3878         estimate D2E/DX2                !
 ! D6    D(5,2,4,3)             42.3878         estimate D2E/DX2                !
 ! D7    D(4,2,5,1)             42.3878         estimate D2E/DX2                !
 ! D8    D(4,2,5,3)            -42.3878         estimate D2E/DX2                !
 ! D9    D(5,3,4,1)             42.3878         estimate D2E/DX2                !
 ! D10   D(5,3,4,2)            -42.3878         estimate D2E/DX2                !
 ! D11   D(4,3,5,1)            -42.3878         estimate D2E/DX2                !
 ! D12   D(4,3,5,2)             42.3878         estimate D2E/DX2                !
 --------------------------------------------------------------------------------
 Trust Radius=3.00D-01 FncErr=1.00D-07 GrdErr=1.00D-06
 Number of steps in this run=  37 maximum allowed number of steps= 100.
 GradGradGradGradGradGradGradGradGradGradGradGradGradGradGradGradGradGrad

                          Input orientation:                          
 ---------------------------------------------------------------------
 Center     Atomic      Atomic             Coordinates (Angstroms)
 Number     Number       Type             X           Y           Z
 ---------------------------------------------------------------------
      1         14           0        0.000000    1.804476    0.000000
      2         14           0        1.562722   -0.902238    0.000000
      3         14           0       -1.562722   -0.902238    0.000000
      4         14           0        0.000000    0.000000    1.473715
      5         14           0        0.000000    0.000000   -1.473715
 ---------------------------------------------------------------------
                    Distance matrix (angstroms):
                    1          2          3          4          5
     1  Si   0.000000
     2  Si   3.125444   0.000000
     3  Si   3.125444   3.125444   0.000000
     4  Si   2.329800   2.329800   2.329800   0.000000
     5  Si   2.329800   2.329800   2.329800   2.947430   0.000000
 Stoichiometry    Si5
 Framework group  D3H[C3(Si.Si),3C2(Si)]
 Deg. of freedom     2
 Full point group                 D3H     NOp  12
 Largest Abelian subgroup         C2V     NOp   4
 Largest concise Abelian subgroup C2V     NOp   4
                         Standard orientation:                         
 ---------------------------------------------------------------------
 Center     Atomic      Atomic             Coordinates (Angstroms)
 Number     Number       Type             X           Y           Z
 ---------------------------------------------------------------------
      1         14           0        0.000000    1.804476    0.000000
      2         14           0        1.562722   -0.902238    0.000000
      3         14           0       -1.562722   -0.902238    0.000000
      4         14           0        0.000000    0.000000    1.473715
      5         14           0        0.000000    0.000000   -1.473715
 ---------------------------------------------------------------------
 Rotational constants (GHZ):      1.9575625      1.9575625      1.8492421
 Standard basis: GTBas3 (6D, 7F)
 There are    59 symmetry adapted basis functions of A1  symmetry.
 There are    23 symmetry adapted basis functions of A2  symmetry.
 There are    39 symmetry adapted basis functions of B1  symmetry.
 There are    39 symmetry adapted basis functions of B2  symmetry.
 Integral buffers will be    131072 words long.
 Raffenetti 2 integral format.
 Two-electron integral symmetry is turned on.
   160 basis functions,   340 primitive gaussians,   175 cartesian basis functions
    35 alpha electrons       35 beta electrons
       nuclear repulsion energy       401.8551681713 Hartrees.
 NAtoms=    5 NActive=    5 NUniq=    2 SFac= 3.00D+00 NAtFMM=   80 NAOKFM=F Big=F
 One-electron integrals computed using PRISM.
 NBasis=   160 RedAO= T  NBF=    59    23    39    39
 NBsUse=   160 1.00D-06 NBFU=    59    23    39    39
 Harris functional with IExCor=  402 diagonalized for initial guess.
 ExpMin= 7.78D-02 ExpMax= 1.61D+04 ExpMxC= 2.43D+03 IAcc=2 IRadAn=         0 AccDes= 0.00D+00
 HarFok:  IExCor=  402 AccDes= 0.00D+00 IRadAn=         0 IDoV= 1
 ScaDFX=  1.000000  1.000000  1.000000  1.000000
 FoFCou: FMM=F IPFlag=           0 FMFlag=      100000 FMFlg1=           0
         NFxFlg=           0 DoJE=T BraDBF=F KetDBF=T FulRan=T
         Omega=  0.000000  0.000000  1.000000  0.000000  0.000000 ICntrl=     500 IOpCl=  0
         NMat0=    1 NMatS0=    1 NMatT0=    0 NMatD0=    1 NMtDS0=    0 NMtDT0=    0
         I1Cent=           4 NGrid=           0.
 Petite list used in FoFCou.
 Initial guess orbital symmetries:
       Occupied  (A1') (A2") (E') (E') (A1') (A1') (A2") (E') (E')
                 (A1') (A2") (A1') (E') (E') (E") (E") (E') (E')
                 (A1') (A2") (E") (E") (A2') (E') (E') (A1') (A2")
                 (E') (E') (A1') (A1') (E") (E") (E') (E')
       Virtual   (A2") (E') (E') (A2') (A2") (E') (E') (E") (E")
                 (A1') (A1') (E") (E") (E') (E') (A1') (E') (E')
                 (A2") (E") (E") (A1') (E') (E') (A2') (E') (E')
                 (A2") (A1") (E") (E") (E') (E') (A1') (A2") (E')
                 (E') (E") (E") (E') (E') (A1') (E") (E") (A2')
                 (A2") (A1') (E') (E') (A2") (A1') (E') (E') (E")
                 (E") (A1') (E') (E') (A2") (A2') (A1') (E") (E")
                 (A1") (E') (E') (E") (E") (E') (E') (A1') (A2")
                 (E") (E") (E') (E') (A2') (A1') (E') (E') (A2")
                 (E") (E") (A2") (A1") (E') (E') (A2') (A1') (A2")
                 (E') (E') (A1') (E") (E") (E') (E') (E") (E")
                 (E") (E") (E') (E') (A1') (A1") (A2") (E') (E')
                 (A1') (E") (E") (A2") (A2') (E') (E') (E') (E')
                 (A1') (E") (E") (A1') (E') (E') (A2") (A1')
 The electronic state of the initial guess is 1-A1'.
 Requested convergence on RMS density matrix=1.00D-08 within 128 cycles.
 Requested convergence on MAX density matrix=1.00D-06.
 Requested convergence on             energy=1.00D-06.
 No special actions if energy rises.
 Keep R1 ints in memory in canonical form, NReq=121466048.
 Integral accuracy reduced to 1.0D-05 until final iterations.
 Initial convergence to 1.0D-05 achieved.  Increase integral accuracy.
 SCF Done:  E(RB3LYP) =  -1447.40815561     A.U. after   12 cycles
             Convg  =    0.2644D-08             -V/T =  2.0034
 QCSCF skips out because SCF is already converged.

 **********************************************************************

            Population analysis using the SCF density.

 **********************************************************************

 Orbital symmetries:
       Occupied  (E') (E') (A1') (A1') (A2") (A1') (E') (E') (A1')
                 (A2") (A2') (E') (E') (A1') (E') (E') (A2") (E")
                 (E") (A2") (A1') (E') (E') (E") (E") (A1') (A2")
                 (E') (E') (A1') (A1') (E") (E") (E') (E')
       Virtual   (A2") (E') (E') (A2') (A2") (E') (E') (E") (E")
                 (A1') (A1') (A1') (E") (E") (E') (E') (E') (E')
                 (A2") (A1') (E") (E") (E') (E') (A2') (E') (E')
                 (A2") (E") (E") (E') (E') (A1") (A1') (A2") (E')
                 (E') (E") (E") (A1') (A2') (E') (E') (E") (E")
                 (A2") (A1') (E') (E') (A2") (A1') (E') (E') (E")
                 (E") (A1') (E') (E') (A2") (A2') (A1') (E") (E")
                 (E') (E') (A1") (E") (E") (E') (E') (A1') (A2")
                 (E") (E") (E') (E') (A2') (A1') (E') (E') (A2")
                 (A2") (A1") (E") (E") (A2') (E') (E') (A1') (A2")
                 (E') (E') (E") (E") (A1') (E") (E") (E') (E')
                 (E") (E") (E') (E') (A1') (A1") (E') (E') (A2")
                 (A1') (E") (E") (A2') (E') (E') (A2") (E') (E')
                 (A1') (E") (E") (A1') (E') (E') (A2") (A1')
 The electronic state is 1-A1'.
 Alpha  occ. eigenvalues --  -66.15091 -66.15091 -66.15091 -66.13947 -66.13946
 Alpha  occ. eigenvalues --   -5.29688  -5.29688  -5.29688  -5.28711  -5.28710
 Alpha  occ. eigenvalues --   -3.65653  -3.65652  -3.65652  -3.65403  -3.65402
 Alpha  occ. eigenvalues --   -3.65402  -3.65346  -3.65344  -3.65344  -3.64702
 Alpha  occ. eigenvalues --   -3.64701  -3.64413  -3.64413  -3.64413  -3.64413
 Alpha  occ. eigenvalues --   -0.62687  -0.45614  -0.45411  -0.45411  -0.30200
 Alpha  occ. eigenvalues --   -0.26464  -0.25298  -0.25298  -0.23047  -0.23047
 Alpha virt. eigenvalues --   -0.11138  -0.09966  -0.09966  -0.05976  -0.00714
 Alpha virt. eigenvalues --    0.00647   0.00647   0.02039   0.02039   0.05577
 Alpha virt. eigenvalues --    0.12639   0.14948   0.15062   0.15062   0.15540
 Alpha virt. eigenvalues --    0.15540   0.18939   0.18939   0.19215   0.22809
 Alpha virt. eigenvalues --    0.23057   0.23057   0.23865   0.23865   0.27673
 Alpha virt. eigenvalues --    0.28406   0.28406   0.28461   0.30543   0.30543
 Alpha virt. eigenvalues --    0.31757   0.31757   0.32391   0.33739   0.36445
 Alpha virt. eigenvalues --    0.41264   0.41264   0.44194   0.44194   0.50663
 Alpha virt. eigenvalues --    0.50915   0.50922   0.50922   0.51303   0.51303
 Alpha virt. eigenvalues --    0.57286   0.62594   0.63019   0.63019   0.65431
 Alpha virt. eigenvalues --    0.68154   0.70823   0.70823   0.77103   0.77103
 Alpha virt. eigenvalues --    0.79113   0.85107   0.85107   0.86657   0.90601
 Alpha virt. eigenvalues --    0.91415   0.94242   0.94242   0.96444   0.96444
 Alpha virt. eigenvalues --    0.98351   1.00228   1.00228   1.02590   1.02590
 Alpha virt. eigenvalues --    1.03228   1.05222   1.06929   1.06929   1.07675
 Alpha virt. eigenvalues --    1.07675   1.17075   1.18269   1.23985   1.23985
 Alpha virt. eigenvalues --    1.28396   1.32757   1.34366   1.34619   1.34619
 Alpha virt. eigenvalues --    1.36041   1.36703   1.36703   1.37966   1.41831
 Alpha virt. eigenvalues --    1.44062   1.44062   1.46913   1.46913   1.47710
 Alpha virt. eigenvalues --    1.69070   1.69070   1.69342   1.69342   1.71872
 Alpha virt. eigenvalues --    1.71872   1.74040   1.74040   1.76029   1.79635
 Alpha virt. eigenvalues --    1.90662   1.90662   1.91251   1.93732   2.01814
 Alpha virt. eigenvalues --    2.01814   2.03818   2.05020   2.05020   2.05364
 Alpha virt. eigenvalues --    2.08847   2.08847   2.13443   2.19295   2.19295
 Alpha virt. eigenvalues --    2.48379   2.68481   2.68481   2.77094   2.92914
          Condensed to atoms (all electrons):
              1          2          3          4          5
     1  Si  13.502540   0.022649   0.022649   0.214440   0.214440
     2  Si   0.022649  13.502540   0.022649   0.214440   0.214440
     3  Si   0.022649   0.022649  13.502540   0.214440   0.214440
     4  Si   0.214440   0.214440   0.214440  13.400945  -0.009339
     5  Si   0.214440   0.214440   0.214440  -0.009339  13.400945
 Mulliken atomic charges:
              1
     1  Si   0.023283
     2  Si   0.023283
     3  Si   0.023283
     4  Si  -0.034925
     5  Si  -0.034925
 Sum of Mulliken atomic charges =   0.00000
 Mulliken charges with hydrogens summed into heavy atoms:
              1
     1  Si   0.023283
     2  Si   0.023283
     3  Si   0.023283
     4  Si  -0.034925
     5  Si  -0.034925
 Sum of Mulliken charges with hydrogens summed into heavy atoms =   0.00000
 Electronic spatial extent (au):  <R**2>=            850.2686
 Charge=              0.0000 electrons
 Dipole moment (field-independent basis, Debye):
    X=              0.0000    Y=              0.0000    Z=              0.0000  Tot=              0.0000
 Quadrupole moment (field-independent basis, Debye-Ang):
   XX=            -65.6167   YY=            -65.6167   ZZ=            -63.4427
   XY=              0.0000   XZ=              0.0000   YZ=              0.0000
 Traceless Quadrupole moment (field-independent basis, Debye-Ang):
   XX=             -0.7247   YY=             -0.7247   ZZ=              1.4493
   XY=              0.0000   XZ=              0.0000   YZ=              0.0000
 Octapole moment (field-independent basis, Debye-Ang**2):
  XXX=              0.0000  YYY=             -4.5105  ZZZ=              0.0000  XYY=              0.0000
  XXY=              4.5105  XXZ=              0.0000  XZZ=              0.0000  YZZ=              0.0000
  YYZ=              0.0000  XYZ=              0.0000
 Hexadecapole moment (field-independent basis, Debye-Ang**3):
 XXXX=           -514.2371 YYYY=           -514.2371 ZZZZ=           -431.7370 XXXY=              0.0000
 XXXZ=              0.0000 YYYX=              0.0000 YYYZ=              0.0000 ZZZX=              0.0000
 ZZZY=              0.0000 XXYY=           -171.4124 XXZZ=           -163.8757 YYZZ=           -163.8757
 XXYZ=              0.0000 YYXZ=              0.0000 ZZXY=              0.0000
 N-N= 4.018551681713D+02 E-N=-4.250062004630D+03  KE= 1.442449154249D+03
 Symmetry A1   KE= 7.660238095283D+02
 Symmetry A2   KE= 5.081158372376D+01
 Symmetry B1   KE= 3.127798429647D+02
 Symmetry B2   KE= 3.128339180321D+02
 Calling FoFJK, ICntrl=      2127 FMM=F ISym2X=1 I1Cent= 0 IOpClX= 0 NMat=1 NMatS=1 NMatT=0.
 ***** Axes restored to original set *****
 -------------------------------------------------------------------
 Center     Atomic                   Forces (Hartrees/Bohr)
 Number     Number              X              Y              Z
 -------------------------------------------------------------------
      1       14           0.000000000   -0.001968092    0.000000000
      2       14          -0.001704418    0.000984046    0.000000000
      3       14           0.001704418    0.000984046    0.000000000
      4       14           0.000000000    0.000000000   -0.001009554
      5       14           0.000000000    0.000000000    0.001009554
 -------------------------------------------------------------------
 Cartesian Forces:  Max     0.001968092 RMS     0.000954238

 GradGradGradGradGradGradGradGradGradGradGradGradGradGradGradGradGradGrad
 Berny optimization.
 Internal  Forces:  Max     0.000975027 RMS     0.000570743
 Search for a local minimum.
 Step number   1 out of a maximum of   37
 All quantities printed in internal units (Hartrees-Bohrs-Radians)
 Mixed Optimization -- En-DIIS/RFO-DIIS
 Second derivative matrix not updated -- first step.
     Eigenvalues ---    0.07159   0.07159   0.13122   0.13122   0.13626
     Eigenvalues ---    0.14484   0.14484   0.14570   0.212831000.00000
     Eigenvalues --- 1000.000001000.000001000.000001000.000001000.00000
     Eigenvalues --- 1000.000001000.000001000.000001000.000001000.00000
     Eigenvalues --- 1000.000001000.000001000.000001000.000001000.00000
     Eigenvalues --- 1000.000001000.00000
 RFO step:  Lambda=-5.63644666D-05 EMin= 7.15944898D-02
 Linear search not attempted -- first point.
 Iteration  1 RMS(Cart)=  0.00326177 RMS(Int)=  0.00000363
 Iteration  2 RMS(Cart)=  0.00000321 RMS(Int)=  0.00000110
 Iteration  3 RMS(Cart)=  0.00000000 RMS(Int)=  0.00000110
 ClnCor:  largest displacement from symmetrization is 2.18D-12 for atom     3.
 Variable       Old X    -DE/DX   Delta X   Delta X   Delta X     New X
                                 (Linear)    (Quad)   (Total)
    R1        4.40268  -0.00098   0.00000  -0.00715  -0.00715   4.39553
    R2        4.40268  -0.00098   0.00000  -0.00715  -0.00715   4.39553
    R3        4.40268  -0.00098   0.00000  -0.00715  -0.00715   4.39553
    R4        4.40268  -0.00098   0.00000  -0.00715  -0.00715   4.39553
    R5        4.40268  -0.00098   0.00000  -0.00715  -0.00715   4.39553
    R6        4.40268  -0.00098   0.00000  -0.00715  -0.00715   4.39553
    A1        1.36968   0.00065   0.00000   0.00304   0.00304   1.37272
    A2        1.36968   0.00065   0.00000   0.00304   0.00304   1.37272
    A3        1.36968   0.00065   0.00000   0.00304   0.00304   1.37272
    A4        1.47045  -0.00048   0.00000  -0.00224  -0.00225   1.46820
    A5        1.47045  -0.00048   0.00000  -0.00224  -0.00225   1.46820
    A6        1.47045  -0.00048   0.00000  -0.00224  -0.00225   1.46820
    A7        1.47045  -0.00048   0.00000  -0.00224  -0.00225   1.46820
    A8        1.47045  -0.00048   0.00000  -0.00224  -0.00225   1.46820
    A9        1.47045  -0.00048   0.00000  -0.00224  -0.00225   1.46820
    D1        0.73981  -0.00020   0.00000  -0.00093  -0.00092   0.73888
    D2       -0.73981   0.00020   0.00000   0.00093   0.00092  -0.73888
    D3       -0.73981   0.00020   0.00000   0.00093   0.00092  -0.73888
    D4        0.73981  -0.00020   0.00000  -0.00093  -0.00092   0.73888
    D5       -0.73981   0.00020   0.00000   0.00093   0.00092  -0.73888
    D6        0.73981  -0.00020   0.00000  -0.00093  -0.00092   0.73888
    D7        0.73981  -0.00020   0.00000  -0.00093  -0.00092   0.73888
    D8       -0.73981   0.00020   0.00000   0.00093   0.00092  -0.73888
    D9        0.73981  -0.00020   0.00000  -0.00093  -0.00092   0.73888
   D10       -0.73981   0.00020   0.00000   0.00093   0.00092  -0.73888
   D11       -0.73981   0.00020   0.00000   0.00093   0.00092  -0.73888
   D12        0.73981  -0.00020   0.00000  -0.00093  -0.00092   0.73888
         Item               Value     Threshold  Converged?
 Maximum Force            0.000975     0.000450     NO 
 RMS     Force            0.000571     0.000300     NO 
 Maximum Displacement     0.009768     0.001800     NO 
 RMS     Displacement     0.003261     0.001200     NO 
 Predicted change in Energy=-2.818882D-05
 GradGradGradGradGradGradGradGradGradGradGradGradGradGradGradGradGradGrad

                          Input orientation:                          
 ---------------------------------------------------------------------
 Center     Atomic      Atomic             Coordinates (Angstroms)
 Number     Number       Type             X           Y           Z
 ---------------------------------------------------------------------
      1         14           0        0.000000    1.799307    0.000000
      2         14           0        1.558245   -0.899653    0.000000
      3         14           0       -1.558245   -0.899653    0.000000
      4         14           0        0.000000    0.000000    1.474056
      5         14           0        0.000000    0.000000   -1.474056
 ---------------------------------------------------------------------
                    Distance matrix (angstroms):
                    1          2          3          4          5
     1  Si   0.000000
     2  Si   3.116491   0.000000
     3  Si   3.116491   3.116491   0.000000
     4  Si   2.326015   2.326015   2.326015   0.000000
     5  Si   2.326015   2.326015   2.326015   2.948112   0.000000
 Stoichiometry    Si5
 Framework group  D3H[C3(Si.Si),3C2(Si)]
 Deg. of freedom     2
 Full point group                 D3H     NOp  12
 Largest Abelian subgroup         C2V     NOp   4
 Largest concise Abelian subgroup C2V     NOp   4
                         Standard orientation:                         
 ---------------------------------------------------------------------
 Center     Atomic      Atomic             Coordinates (Angstroms)
 Number     Number       Type             X           Y           Z
 ---------------------------------------------------------------------
      1         14           0        0.000000    1.799307    0.000000
      2         14           0        1.558245   -0.899653    0.000000
      3         14           0       -1.558245   -0.899653    0.000000
      4         14           0        0.000000    0.000000    1.474056
      5         14           0        0.000000    0.000000   -1.474056
 ---------------------------------------------------------------------
 Rotational constants (GHZ):      1.9630790      1.9630790      1.8598822
 Standard basis: GTBas3 (6D, 7F)
 There are    59 symmetry adapted basis functions of A1  symmetry.
 There are    23 symmetry adapted basis functions of A2  symmetry.
 There are    39 symmetry adapted basis functions of B1  symmetry.
 There are    39 symmetry adapted basis functions of B2  symmetry.
 Integral buffers will be    131072 words long.
 Raffenetti 2 integral format.
 Two-electron integral symmetry is turned on.
   160 basis functions,   340 primitive gaussians,   175 cartesian basis functions
    35 alpha electrons       35 beta electrons
       nuclear repulsion energy       402.5676879544 Hartrees.
 NAtoms=    5 NActive=    5 NUniq=    2 SFac= 3.00D+00 NAtFMM=   80 NAOKFM=F Big=F
 One-electron integrals computed using PRISM.
 NBasis=   160 RedAO= T  NBF=    59    23    39    39
 NBsUse=   160 1.00D-06 NBFU=    59    23    39    39
 Initial guess read from the read-write file.
 B after Tr=     0.000000    0.000000    0.000000
         Rot=    1.000000    0.000000    0.000000    0.000000 Ang=   0.00 deg.
 Initial guess orbital symmetries:
       Occupied  (E') (E') (A1') (A1') (A2") (A1') (E') (E') (A1')
                 (A2") (A2') (E') (E') (A1') (E') (E') (A2") (E")
                 (E") (A2") (A1') (E') (E') (E") (E") (A1') (A2")
                 (E') (E') (A1') (A1') (E") (E") (E') (E')
       Virtual   (A2") (E') (E') (A2') (A2") (E') (E') (E") (E")
                 (A1') (A1') (A1') (E") (E") (E') (E') (E') (E')
                 (A2") (A1') (E") (E") (E') (E') (A2') (E') (E')
                 (A2") (E") (E") (E') (E') (A1") (A1') (A2") (E')
                 (E') (E") (E") (A1') (A2') (E') (E') (E") (E")
                 (A2") (A1') (E') (E') (A2") (A1') (E') (E') (E")
                 (E") (A1') (E') (E') (A2") (A2') (A1') (E") (E")
                 (E') (E') (A1") (E") (E") (E') (E') (A1') (A2")
                 (E") (E") (E') (E') (A2') (A1') (E') (E') (A2")
                 (A2") (A1") (E") (E") (A2') (E') (E') (A1') (A2")
                 (E') (E') (E") (E") (A1') (E") (E") (E') (E')
                 (E") (E") (E') (E') (A1') (A1") (E') (E') (A2")
                 (A1') (E") (E") (A2') (E') (E') (A2") (E') (E')
                 (A1') (E") (E") (A1') (E') (E') (A2") (A1')
 Requested convergence on RMS density matrix=1.00D-08 within 128 cycles.
 Requested convergence on MAX density matrix=1.00D-06.
 Requested convergence on             energy=1.00D-06.
 No special actions if energy rises.
 Keep R1 ints in memory in canonical form, NReq=121466048.
 SCF Done:  E(RB3LYP) =  -1447.40819561     A.U. after    8 cycles
             Convg  =    0.1552D-08             -V/T =  2.0034
 QCSCF skips out because SCF is already converged.
 Calling FoFJK, ICntrl=      2127 FMM=F ISym2X=1 I1Cent= 0 IOpClX= 0 NMat=1 NMatS=1 NMatT=0.
 ***** Axes restored to original set *****
 -------------------------------------------------------------------
 Center     Atomic                   Forces (Hartrees/Bohr)
 Number     Number              X              Y              Z
 -------------------------------------------------------------------
      1       14           0.000000000   -0.000808370    0.000000000
      2       14          -0.000700069    0.000404185    0.000000000
      3       14           0.000700069    0.000404185    0.000000000
      4       14           0.000000000    0.000000000   -0.000101573
      5       14           0.000000000    0.000000000    0.000101573
 -------------------------------------------------------------------
 Cartesian Forces:  Max     0.000808370 RMS     0.000363411

 GradGradGradGradGradGradGradGradGradGradGradGradGradGradGradGradGradGrad
 Berny optimization.
 Using GEDIIS/GDIIS optimizer.
 Internal  Forces:  Max     0.000410514 RMS     0.000266291
 Search for a local minimum.
 Step number   2 out of a maximum of   37
 All quantities printed in internal units (Hartrees-Bohrs-Radians)
 Mixed Optimization -- En-DIIS/RFO-DIIS
 Swaping is turned off.
 Update second derivatives using D2CorX and points    1    2
 DE= -4.00D-05 DEPred=-2.82D-05 R= 1.42D+00
 SS=  1.41D+00  RLast= 1.94D-02 DXNew= 5.0454D-01 5.8108D-02
 Trust test= 1.42D+00 RLast= 1.94D-02 DXMaxT set to 3.00D-01
     Eigenvalues ---    0.07137   0.07137   0.08726   0.13123   0.13123
     Eigenvalues ---    0.14488   0.14488   0.14575   0.193701000.00000
     Eigenvalues --- 1000.000001000.000001000.000001000.000001000.00000
     Eigenvalues --- 1000.000001000.000001000.000001000.000001000.00000
     Eigenvalues --- 1000.000001000.000001000.000001000.000001000.00000
     Eigenvalues --- 1000.000001000.00000
 En-DIIS/RFO-DIIS IScMMF=        0 using points:     2    1
 RFO step:  Lambda=-6.07010043D-06.
 DIIS coeffs:      1.71779     -0.71779
 Iteration  1 RMS(Cart)=  0.00289652 RMS(Int)=  0.00000419
 Iteration  2 RMS(Cart)=  0.00000269 RMS(Int)=  0.00000221
 Iteration  3 RMS(Cart)=  0.00000000 RMS(Int)=  0.00000221
 ClnCor:  largest displacement from symmetrization is 1.23D-12 for atom     5.
 Variable       Old X    -DE/DX   Delta X   Delta X   Delta X     New X
                                  (DIIS)     (GDIIS)  (Total)
    R1        4.39553  -0.00033  -0.00513   0.00058  -0.00455   4.39098
    R2        4.39553  -0.00033  -0.00513   0.00058  -0.00455   4.39098
    R3        4.39553  -0.00033  -0.00513   0.00058  -0.00455   4.39098
    R4        4.39553  -0.00033  -0.00513   0.00058  -0.00455   4.39098
    R5        4.39553  -0.00033  -0.00513   0.00058  -0.00455   4.39098
    R6        4.39553  -0.00033  -0.00513   0.00058  -0.00455   4.39098
    A1        1.37272   0.00041   0.00218   0.00128   0.00346   1.37618
    A2        1.37272   0.00041   0.00218   0.00128   0.00346   1.37618
    A3        1.37272   0.00041   0.00218   0.00128   0.00346   1.37618
    A4        1.46820  -0.00030  -0.00161  -0.00094  -0.00256   1.46565
    A5        1.46820  -0.00030  -0.00161  -0.00094  -0.00256   1.46565
    A6        1.46820  -0.00030  -0.00161  -0.00094  -0.00256   1.46565
    A7        1.46820  -0.00030  -0.00161  -0.00094  -0.00256   1.46565
    A8        1.46820  -0.00030  -0.00161  -0.00094  -0.00256   1.46565
    A9        1.46820  -0.00030  -0.00161  -0.00094  -0.00256   1.46565
    D1        0.73888  -0.00012  -0.00066  -0.00039  -0.00105   0.73783
    D2       -0.73888   0.00012   0.00066   0.00039   0.00105  -0.73783
    D3       -0.73888   0.00012   0.00066   0.00039   0.00105  -0.73783
    D4        0.73888  -0.00012  -0.00066  -0.00039  -0.00105   0.73783
    D5       -0.73888   0.00012   0.00066   0.00039   0.00105  -0.73783
    D6        0.73888  -0.00012  -0.00066  -0.00039  -0.00105   0.73783
    D7        0.73888  -0.00012  -0.00066  -0.00039  -0.00105   0.73783
    D8       -0.73888   0.00012   0.00066   0.00039   0.00105  -0.73783
    D9        0.73888  -0.00012  -0.00066  -0.00039  -0.00105   0.73783
   D10       -0.73888   0.00012   0.00066   0.00039   0.00105  -0.73783
   D11       -0.73888   0.00012   0.00066   0.00039   0.00105  -0.73783
   D12        0.73888  -0.00012  -0.00066  -0.00039  -0.00105   0.73783
         Item               Value     Threshold  Converged?
 Maximum Force            0.000411     0.000450     YES
 RMS     Force            0.000266     0.000300     YES
 Maximum Displacement     0.008339     0.001800     NO 
 RMS     Displacement     0.002896     0.001200     NO 
 Predicted change in Energy=-9.805218D-06
 GradGradGradGradGradGradGradGradGradGradGradGradGradGradGradGradGradGrad

                          Input orientation:                          
 ---------------------------------------------------------------------
 Center     Atomic      Atomic             Coordinates (Angstroms)
 Number     Number       Type             X           Y           Z
 ---------------------------------------------------------------------
      1         14           0        0.000000    1.794894    0.000000
      2         14           0        1.554424   -0.897447    0.000000
      3         14           0       -1.554424   -0.897447    0.000000
      4         14           0        0.000000    0.000000    1.475634
      5         14           0        0.000000    0.000000   -1.475634
 ---------------------------------------------------------------------
                    Distance matrix (angstroms):
                    1          2          3          4          5
     1  Si   0.000000
     2  Si   3.108847   0.000000
     3  Si   3.108847   3.108847   0.000000
     4  Si   2.323605   2.323605   2.323605   0.000000
     5  Si   2.323605   2.323605   2.323605   2.951268   0.000000
 Stoichiometry    Si5
 Framework group  D3H[C3(Si.Si),3C2(Si)]
 Deg. of freedom     2
 Full point group                 D3H     NOp  12
 Largest Abelian subgroup         C2V     NOp   4
 Largest concise Abelian subgroup C2V     NOp   4
                         Standard orientation:                         
 ---------------------------------------------------------------------
 Center     Atomic      Atomic             Coordinates (Angstroms)
 Number     Number       Type             X           Y           Z
 ---------------------------------------------------------------------
      1         14           0        0.000000    1.794894    0.000000
      2         14           0        1.554424   -0.897447    0.000000
      3         14           0       -1.554424   -0.897447    0.000000
      4         14           0        0.000000    0.000000    1.475634
      5         14           0        0.000000    0.000000   -1.475634
 ---------------------------------------------------------------------
 Rotational constants (GHZ):      1.9661733      1.9661733      1.8690391
 Standard basis: GTBas3 (6D, 7F)
 There are    59 symmetry adapted basis functions of A1  symmetry.
 There are    23 symmetry adapted basis functions of A2  symmetry.
 There are    39 symmetry adapted basis functions of B1  symmetry.
 There are    39 symmetry adapted basis functions of B2  symmetry.
 Integral buffers will be    131072 words long.
 Raffenetti 2 integral format.
 Two-electron integral symmetry is turned on.
   160 basis functions,   340 primitive gaussians,   175 cartesian basis functions
    35 alpha electrons       35 beta electrons
       nuclear repulsion energy       403.0530482123 Hartrees.
 NAtoms=    5 NActive=    5 NUniq=    2 SFac= 3.00D+00 NAtFMM=   80 NAOKFM=F Big=F
 One-electron integrals computed using PRISM.
 NBasis=   160 RedAO= T  NBF=    59    23    39    39
 NBsUse=   160 1.00D-06 NBFU=    59    23    39    39
 Initial guess read from the read-write file.
 B after Tr=     0.000000    0.000000    0.000000
         Rot=    1.000000    0.000000    0.000000    0.000000 Ang=   0.00 deg.
 Initial guess orbital symmetries:
       Occupied  (E') (E') (A1') (A1') (A2") (A1') (E') (E') (A1')
                 (A2") (A2') (E') (E') (A1') (E') (E') (A2") (E")
                 (E") (A2") (A1') (E') (E') (E") (E") (A1') (A2")
                 (E') (E') (A1') (A1') (E") (E") (E') (E')
       Virtual   (A2") (E') (E') (A2') (A2") (E') (E') (E") (E")
                 (A1') (A1') (A1') (E") (E") (E') (E') (E') (E')
                 (A2") (A1') (E") (E") (E') (E') (A2') (E') (E')
                 (A2") (E") (E") (E') (E') (A1") (A1') (A2") (E')
                 (E') (E") (E") (A1') (E') (E') (A2') (E") (E")
                 (A2") (A1') (E') (E') (A2") (A1') (E') (E') (E")
                 (E") (A1') (E') (E') (A2") (A2') (A1') (E") (E")
                 (E') (E') (A1") (E") (E") (E') (E') (A1') (A2")
                 (E") (E") (E') (E') (A2') (A1') (E') (E') (A2")
                 (A2") (A1") (E") (E") (A2') (E') (E') (A1') (A2")
                 (E') (E') (E") (E") (A1') (E") (E") (E') (E')
                 (E") (E") (E') (E') (A1') (A1") (E') (E') (A2")
                 (A1') (E") (E") (A2') (E') (E') (A2") (E') (E')
                 (A1') (E") (E") (A1') (E') (E') (A2") (A1')
 Requested convergence on RMS density matrix=1.00D-08 within 128 cycles.
 Requested convergence on MAX density matrix=1.00D-06.
 Requested convergence on             energy=1.00D-06.
 No special actions if energy rises.
 Keep R1 ints in memory in canonical form, NReq=121466048.
 SCF Done:  E(RB3LYP) =  -1447.40820605     A.U. after    8 cycles
             Convg  =    0.1113D-08             -V/T =  2.0034
 QCSCF skips out because SCF is already converged.
 Calling FoFJK, ICntrl=      2127 FMM=F ISym2X=1 I1Cent= 0 IOpClX= 0 NMat=1 NMatS=1 NMatT=0.
 ***** Axes restored to original set *****
 -------------------------------------------------------------------
 Center     Atomic                   Forces (Hartrees/Bohr)
 Number     Number              X              Y              Z
 -------------------------------------------------------------------
      1       14           0.000000000    0.000023331    0.000000000
      2       14           0.000020205   -0.000011665    0.000000000
      3       14          -0.000020205   -0.000011665    0.000000000
      4       14           0.000000000    0.000000000    0.000306443
      5       14           0.000000000    0.000000000   -0.000306443
 -------------------------------------------------------------------
 Cartesian Forces:  Max     0.000306443 RMS     0.000112382

 GradGradGradGradGradGradGradGradGradGradGradGradGradGradGradGradGradGrad
 Berny optimization.
 Using GEDIIS/GDIIS optimizer.
 Internal  Forces:  Max     0.000127539 RMS     0.000075245
 Search for a local minimum.
 Step number   3 out of a maximum of   37
 All quantities printed in internal units (Hartrees-Bohrs-Radians)
 Mixed Optimization -- En-DIIS/RFO-DIIS
 Swaping is turned off.
 Update second derivatives using D2CorX and points    1    2    3
 DE= -1.04D-05 DEPred=-9.81D-06 R= 1.07D+00
 SS=  1.41D+00  RLast= 1.46D-02 DXNew= 5.0454D-01 4.3760D-02
 Trust test= 1.07D+00 RLast= 1.46D-02 DXMaxT set to 3.00D-01
     Eigenvalues ---    0.07113   0.07113   0.08623   0.13126   0.13126
     Eigenvalues ---    0.14492   0.14492   0.14578   0.190751000.00000
     Eigenvalues --- 1000.000001000.000001000.000001000.000001000.00000
     Eigenvalues --- 1000.000001000.000001000.000001000.000001000.00000
     Eigenvalues --- 1000.000001000.000001000.000001000.000001000.00000
     Eigenvalues --- 1000.000001000.00000
 En-DIIS/RFO-DIIS IScMMF=        0 using points:     3    2    1
 RFO step:  Lambda=-3.60866586D-07.
 DIIS coeffs:      2.16798     -2.02678      0.85880
 Iteration  1 RMS(Cart)=  0.00092057 RMS(Int)=  0.00000130
 Iteration  2 RMS(Cart)=  0.00000049 RMS(Int)=  0.00000119
 ClnCor:  largest displacement from symmetrization is 2.90D-12 for atom     5.
 Variable       Old X    -DE/DX   Delta X   Delta X   Delta X     New X
                                  (DIIS)     (GDIIS)  (Total)
    R1        4.39098   0.00007   0.00082   0.00000   0.00082   4.39180
    R2        4.39098   0.00007   0.00082   0.00000   0.00082   4.39180
    R3        4.39098   0.00007   0.00082   0.00000   0.00082   4.39180
    R4        4.39098   0.00007   0.00082   0.00000   0.00082   4.39180
    R5        4.39098   0.00007   0.00082   0.00000   0.00082   4.39180
    R6        4.39098   0.00007   0.00082   0.00000   0.00082   4.39180
    A1        1.37618   0.00013   0.00143   0.00000   0.00143   1.37761
    A2        1.37618   0.00013   0.00143   0.00000   0.00143   1.37761
    A3        1.37618   0.00013   0.00143   0.00000   0.00143   1.37761
    A4        1.46565  -0.00009  -0.00106   0.00000  -0.00106   1.46459
    A5        1.46565  -0.00009  -0.00106   0.00000  -0.00106   1.46459
    A6        1.46565  -0.00009  -0.00106   0.00000  -0.00106   1.46459
    A7        1.46565  -0.00009  -0.00106   0.00000  -0.00106   1.46459
    A8        1.46565  -0.00009  -0.00106   0.00000  -0.00106   1.46459
    A9        1.46565  -0.00009  -0.00106   0.00000  -0.00106   1.46459
    D1        0.73783  -0.00004  -0.00043   0.00000  -0.00043   0.73740
    D2       -0.73783   0.00004   0.00043   0.00000   0.00043  -0.73740
    D3       -0.73783   0.00004   0.00043   0.00000   0.00043  -0.73740
    D4        0.73783  -0.00004  -0.00043   0.00000  -0.00043   0.73740
    D5       -0.73783   0.00004   0.00043   0.00000   0.00043  -0.73740
    D6        0.73783  -0.00004  -0.00043   0.00000  -0.00043   0.73740
    D7        0.73783  -0.00004  -0.00043   0.00000  -0.00043   0.73740
    D8       -0.73783   0.00004   0.00043   0.00000   0.00043  -0.73740
    D9        0.73783  -0.00004  -0.00043   0.00000  -0.00043   0.73740
   D10       -0.73783   0.00004   0.00043   0.00000   0.00043  -0.73740
   D11       -0.73783   0.00004   0.00043   0.00000   0.00043  -0.73740
   D12        0.73783  -0.00004  -0.00043   0.00000  -0.00043   0.73740
         Item               Value     Threshold  Converged?
 Maximum Force            0.000128     0.000450     YES
 RMS     Force            0.000075     0.000300     YES
 Maximum Displacement     0.002946     0.001800     NO 
 RMS     Displacement     0.000921     0.001200     YES
 Predicted change in Energy=-5.096786D-08
 GradGradGradGradGradGradGradGradGradGradGradGradGradGradGradGradGradGrad

                          Input orientation:                          
 ---------------------------------------------------------------------
 Center     Atomic      Atomic             Coordinates (Angstroms)
 Number     Number       Type             X           Y           Z
 ---------------------------------------------------------------------
      1         14           0        0.000000    1.794175    0.000000
      2         14           0        1.553801   -0.897088    0.000000
      3         14           0       -1.553801   -0.897088    0.000000
      4         14           0        0.000000    0.000000    1.477193
      5         14           0        0.000000    0.000000   -1.477193
 ---------------------------------------------------------------------
                    Distance matrix (angstroms):
                    1          2          3          4          5
     1  Si   0.000000
     2  Si   3.107603   0.000000
     3  Si   3.107603   3.107603   0.000000
     4  Si   2.324041   2.324041   2.324041   0.000000
     5  Si   2.324041   2.324041   2.324041   2.954387   0.000000
 Stoichiometry    Si5
 Framework group  D3H[C3(Si.Si),3C2(Si)]
 Deg. of freedom     2
 Full point group                 D3H     NOp  12
 Largest Abelian subgroup         C2V     NOp   4
 Largest concise Abelian subgroup C2V     NOp   4
                         Standard orientation:                         
 ---------------------------------------------------------------------
 Center     Atomic      Atomic             Coordinates (Angstroms)
 Number     Number       Type             X           Y           Z
 ---------------------------------------------------------------------
      1         14           0        0.000000    1.794175    0.000000
      2         14           0        1.553801   -0.897088    0.000000
      3         14           0       -1.553801   -0.897088    0.000000
      4         14           0        0.000000    0.000000    1.477193
      5         14           0        0.000000    0.000000   -1.477193
 ---------------------------------------------------------------------
 Rotational constants (GHZ):      1.9650314      1.9650314      1.8705367
 Standard basis: GTBas3 (6D, 7F)
 There are    59 symmetry adapted basis functions of A1  symmetry.
 There are    23 symmetry adapted basis functions of A2  symmetry.
 There are    39 symmetry adapted basis functions of B1  symmetry.
 There are    39 symmetry adapted basis functions of B2  symmetry.
 Integral buffers will be    131072 words long.
 Raffenetti 2 integral format.
 Two-electron integral symmetry is turned on.
   160 basis functions,   340 primitive gaussians,   175 cartesian basis functions
    35 alpha electrons       35 beta electrons
       nuclear repulsion energy       403.0058431995 Hartrees.
 NAtoms=    5 NActive=    5 NUniq=    2 SFac= 3.00D+00 NAtFMM=   80 NAOKFM=F Big=F
 One-electron integrals computed using PRISM.
 NBasis=   160 RedAO= T  NBF=    59    23    39    39
 NBsUse=   160 1.00D-06 NBFU=    59    23    39    39
 Initial guess read from the read-write file.
 B after Tr=     0.000000    0.000000    0.000000
         Rot=    1.000000    0.000000    0.000000    0.000000 Ang=   0.00 deg.
 Initial guess orbital symmetries:
       Occupied  (E') (E') (A1') (A1') (A2") (A1') (E') (E') (A1')
                 (A2") (A2') (E') (E') (A1') (E') (E') (A2") (E")
                 (E") (A2") (A1') (E') (E') (E") (E") (A1') (A2")
                 (E') (E') (A1') (A1') (E") (E") (E') (E')
       Virtual   (A2") (E') (E') (A2') (A2") (E') (E') (E") (E")
                 (A1') (A1') (A1') (E") (E") (E') (E') (E') (E')
                 (A2") (A1') (E") (E") (E') (E') (A2') (E') (E')
                 (A2") (E") (E") (E') (E') (A1") (A1') (A2") (E')
                 (E') (E") (E") (A1') (E') (E') (A2') (E") (E")
                 (A2") (A1') (E') (E') (A2") (A1') (E') (E') (E")
                 (E") (A1') (E') (E') (A2") (A2') (A1') (E") (E")
                 (E') (E') (A1") (E") (E") (E') (E') (A1') (A2")
                 (E") (E") (E') (E') (A2') (A1') (E') (E') (A2")
                 (A2") (A1") (E") (E") (A2') (E') (E') (A1') (A2")
                 (E') (E') (E") (E") (A1') (E") (E") (E') (E')
                 (E") (E") (E') (E') (A1') (A1") (E') (E') (A2")
                 (A1') (E") (E") (A2') (A2") (E') (E') (E') (E')
                 (A1') (E") (E") (A1') (E') (E') (A2") (A1')
 Requested convergence on RMS density matrix=1.00D-08 within 128 cycles.
 Requested convergence on MAX density matrix=1.00D-06.
 Requested convergence on             energy=1.00D-06.
 No special actions if energy rises.
 Keep R1 ints in memory in canonical form, NReq=121466048.
 SCF Done:  E(RB3LYP) =  -1447.40820691     A.U. after    7 cycles
             Convg  =    0.2656D-08             -V/T =  2.0034
 QCSCF skips out because SCF is already converged.
 Calling FoFJK, ICntrl=      2127 FMM=F ISym2X=1 I1Cent= 0 IOpClX= 0 NMat=1 NMatS=1 NMatT=0.
 ***** Axes restored to original set *****
 -------------------------------------------------------------------
 Center     Atomic                   Forces (Hartrees/Bohr)
 Number     Number              X              Y              Z
 -------------------------------------------------------------------
      1       14           0.000000000   -0.000012786    0.000000000
      2       14          -0.000011073    0.000006393    0.000000000
      3       14           0.000011073    0.000006393    0.000000000
      4       14           0.000000000    0.000000000   -0.000010143
      5       14           0.000000000    0.000000000    0.000010143
 -------------------------------------------------------------------
 Cartesian Forces:  Max     0.000012786 RMS     0.000006813

 GradGradGradGradGradGradGradGradGradGradGradGradGradGradGradGradGradGrad
 Berny optimization.
 Using GEDIIS/GDIIS optimizer.
 Internal  Forces:  Max     0.000007084 RMS     0.000003605
 Search for a local minimum.
 Step number   4 out of a maximum of   37
 All quantities printed in internal units (Hartrees-Bohrs-Radians)
 Mixed Optimization -- En-DIIS/RFO-DIIS
 Swaping is turned off.
 Update second derivatives using D2CorX and points    1    2    3    4
 DE= -8.51D-07 DEPred=-5.10D-08 R= 1.67D+01
 Trust test= 1.67D+01 RLast= 4.38D-03 DXMaxT set to 3.00D-01
     Eigenvalues ---    0.07103   0.07103   0.08761   0.09913   0.13127
     Eigenvalues ---    0.13127   0.14493   0.14493   0.145791000.00000
     Eigenvalues --- 1000.000001000.000001000.000001000.000001000.00000
     Eigenvalues --- 1000.000001000.000001000.000001000.000001000.00000
     Eigenvalues --- 1000.000001000.000001000.000001000.000001000.00000
     Eigenvalues --- 1000.000001000.00000
 En-DIIS/RFO-DIIS IScMMF=        0 using points:     4    3    2    1
 RFO step:  Lambda= 0.00000000D+00.
 DIIS coeffs:      0.95522      0.09694     -0.07996      0.02781
 Iteration  1 RMS(Cart)=  0.00003430 RMS(Int)=  0.00000000
 Iteration  2 RMS(Cart)=  0.00000000 RMS(Int)=  0.00000000
 ClnCor:  largest displacement from symmetrization is 6.67D-13 for atom     2.
 Variable       Old X    -DE/DX   Delta X   Delta X   Delta X     New X
                                  (DIIS)     (GDIIS)  (Total)
    R1        4.39180  -0.00001  -0.00008   0.00000  -0.00008   4.39172
    R2        4.39180  -0.00001  -0.00008   0.00000  -0.00008   4.39172
    R3        4.39180  -0.00001  -0.00008   0.00000  -0.00008   4.39172
    R4        4.39180  -0.00001  -0.00008   0.00000  -0.00008   4.39172
    R5        4.39180  -0.00001  -0.00008   0.00000  -0.00008   4.39172
    R6        4.39180  -0.00001  -0.00008   0.00000  -0.00008   4.39172
    A1        1.37761   0.00000   0.00003   0.00000   0.00003   1.37764
    A2        1.37761   0.00000   0.00003   0.00000   0.00003   1.37764
    A3        1.37761   0.00000   0.00003   0.00000   0.00003   1.37764
    A4        1.46459   0.00000  -0.00002   0.00000  -0.00002   1.46456
    A5        1.46459   0.00000  -0.00002   0.00000  -0.00002   1.46456
    A6        1.46459   0.00000  -0.00002   0.00000  -0.00002   1.46456
    A7        1.46459   0.00000  -0.00002   0.00000  -0.00002   1.46456
    A8        1.46459   0.00000  -0.00002   0.00000  -0.00002   1.46456
    A9        1.46459   0.00000  -0.00002   0.00000  -0.00002   1.46456
    D1        0.73740   0.00000  -0.00001   0.00000  -0.00001   0.73739
    D2       -0.73740   0.00000   0.00001   0.00000   0.00001  -0.73739
    D3       -0.73740   0.00000   0.00001   0.00000   0.00001  -0.73739
    D4        0.73740   0.00000  -0.00001   0.00000  -0.00001   0.73739
    D5       -0.73740   0.00000   0.00001   0.00000   0.00001  -0.73739
    D6        0.73740   0.00000  -0.00001   0.00000  -0.00001   0.73739
    D7        0.73740   0.00000  -0.00001   0.00000  -0.00001   0.73739
    D8       -0.73740   0.00000   0.00001   0.00000   0.00001  -0.73739
    D9        0.73740   0.00000  -0.00001   0.00000  -0.00001   0.73739
   D10       -0.73740   0.00000   0.00001   0.00000   0.00001  -0.73739
   D11       -0.73740   0.00000   0.00001   0.00000   0.00001  -0.73739
   D12        0.73740   0.00000  -0.00001   0.00000  -0.00001   0.73739
         Item               Value     Threshold  Converged?
 Maximum Force            0.000007     0.000450     YES
 RMS     Force            0.000004     0.000300     YES
 Maximum Displacement     0.000103     0.001800     YES
 RMS     Displacement     0.000034     0.001200     YES
 Predicted change in Energy=-1.789572D-09
 Optimization completed.
    -- Stationary point found.
                           ----------------------------
                           !   Optimized Parameters   !
                           ! (Angstroms and Degrees)  !
 --------------------------                            --------------------------
 ! Name  Definition              Value          Derivative Info.                !
 --------------------------------------------------------------------------------
 ! R1    R(1,4)                  2.324          -DE/DX =    0.0                 !
 ! R2    R(1,5)                  2.324          -DE/DX =    0.0                 !
 ! R3    R(2,4)                  2.324          -DE/DX =    0.0                 !
 ! R4    R(2,5)                  2.324          -DE/DX =    0.0                 !
 ! R5    R(3,4)                  2.324          -DE/DX =    0.0                 !
 ! R6    R(3,5)                  2.324          -DE/DX =    0.0                 !
 ! A1    A(4,1,5)               78.9311         -DE/DX =    0.0                 !
 ! A2    A(4,2,5)               78.9311         -DE/DX =    0.0                 !
 ! A3    A(4,3,5)               78.9311         -DE/DX =    0.0                 !
 ! A4    A(1,4,2)               83.9147         -DE/DX =    0.0                 !
 ! A5    A(1,4,3)               83.9147         -DE/DX =    0.0                 !
 ! A6    A(2,4,3)               83.9147         -DE/DX =    0.0                 !
 ! A7    A(1,5,2)               83.9147         -DE/DX =    0.0                 !
 ! A8    A(1,5,3)               83.9147         -DE/DX =    0.0                 !
 ! A9    A(2,5,3)               83.9147         -DE/DX =    0.0                 !
 ! D1    D(5,1,4,2)             42.2499         -DE/DX =    0.0                 !
 ! D2    D(5,1,4,3)            -42.2499         -DE/DX =    0.0                 !
 ! D3    D(4,1,5,2)            -42.2499         -DE/DX =    0.0                 !
 ! D4    D(4,1,5,3)             42.2499         -DE/DX =    0.0                 !
 ! D5    D(5,2,4,1)            -42.2499         -DE/DX =    0.0                 !
 ! D6    D(5,2,4,3)             42.2499         -DE/DX =    0.0                 !
 ! D7    D(4,2,5,1)             42.2499         -DE/DX =    0.0                 !
 ! D8    D(4,2,5,3)            -42.2499         -DE/DX =    0.0                 !
 ! D9    D(5,3,4,1)             42.2499         -DE/DX =    0.0                 !
 ! D10   D(5,3,4,2)            -42.2499         -DE/DX =    0.0                 !
 ! D11   D(4,3,5,1)            -42.2499         -DE/DX =    0.0                 !
 ! D12   D(4,3,5,2)             42.2499         -DE/DX =    0.0                 !
 --------------------------------------------------------------------------------
 GradGradGradGradGradGradGradGradGradGradGradGradGradGradGradGradGradGrad

                          Input orientation:                          
 ---------------------------------------------------------------------
 Center     Atomic      Atomic             Coordinates (Angstroms)
 Number     Number       Type             X           Y           Z
 ---------------------------------------------------------------------
      1         14           0        0.000000    1.794175    0.000000
      2         14           0        1.553801   -0.897088    0.000000
      3         14           0       -1.553801   -0.897088    0.000000
      4         14           0        0.000000    0.000000    1.477193
      5         14           0        0.000000    0.000000   -1.477193
 ---------------------------------------------------------------------
                    Distance matrix (angstroms):
                    1          2          3          4          5
     1  Si   0.000000
     2  Si   3.107603   0.000000
     3  Si   3.107603   3.107603   0.000000
     4  Si   2.324041   2.324041   2.324041   0.000000
     5  Si   2.324041   2.324041   2.324041   2.954387   0.000000
 Stoichiometry    Si5
 Framework group  D3H[C3(Si.Si),3C2(Si)]
 Deg. of freedom     2
 Full point group                 D3H     NOp  12
 Largest Abelian subgroup         C2V     NOp   4
 Largest concise Abelian subgroup C2V     NOp   4
                         Standard orientation:                         
 ---------------------------------------------------------------------
 Center     Atomic      Atomic             Coordinates (Angstroms)
 Number     Number       Type             X           Y           Z
 ---------------------------------------------------------------------
      1         14           0        0.000000    1.794175    0.000000
      2         14           0        1.553801   -0.897088    0.000000
      3         14           0       -1.553801   -0.897088    0.000000
      4         14           0        0.000000    0.000000    1.477193
      5         14           0        0.000000    0.000000   -1.477193
 ---------------------------------------------------------------------
 Rotational constants (GHZ):      1.9650314      1.9650314      1.8705367

 **********************************************************************

            Population analysis using the SCF density.

 **********************************************************************

 Orbital symmetries:
       Occupied  (E') (E') (A1') (A1') (A2") (A1') (E') (E') (A1')
                 (A2") (A2') (E') (E') (A1') (E') (E') (A2") (E")
                 (E") (A2") (A1') (E') (E') (E") (E") (A1') (A2")
                 (E') (E') (A1') (A1') (E") (E") (E') (E')
       Virtual   (A2") (E') (E') (A2') (A2") (E') (E') (E") (E")
                 (A1') (A1') (A1') (E") (E") (E') (E') (E') (E')
                 (A2") (A1') (E") (E") (E') (E') (A2') (E') (E')
                 (A2") (E") (E") (E') (E') (A1") (A1') (A2") (E')
                 (E') (E") (E") (A1') (E') (E') (A2') (E") (E")
                 (A2") (A1') (E') (E') (A2") (A1') (E') (E') (E")
                 (E") (A1') (E') (E') (A2") (A2') (A1') (E") (E")
                 (E') (E') (A1") (E") (E") (E') (E') (A1') (A2")
                 (E") (E") (E') (E') (A2') (A1') (E') (E') (A2")
                 (A2") (A1") (E") (E") (A2') (E') (E') (A1') (A2")
                 (E') (E') (E") (E") (A1') (E") (E") (E') (E')
                 (E") (E") (E') (E') (A1') (A1") (E') (E') (A2")
                 (A1') (E") (E") (A2') (A2") (E') (E') (E') (E')
                 (A1') (E") (E") (A1') (E') (E') (A2") (A1')
 The electronic state is 1-A1'.
 Alpha  occ. eigenvalues --  -66.14999 -66.14999 -66.14998 -66.13994 -66.13993
 Alpha  occ. eigenvalues --   -5.29611  -5.29610  -5.29610  -5.28768  -5.28767
 Alpha  occ. eigenvalues --   -3.65570  -3.65569  -3.65569  -3.65329  -3.65328
 Alpha  occ. eigenvalues --   -3.65328  -3.65270  -3.65268  -3.65268  -3.64762
 Alpha  occ. eigenvalues --   -3.64760  -3.64468  -3.64468  -3.64468  -3.64468
 Alpha  occ. eigenvalues --   -0.62865  -0.45773  -0.45398  -0.45398  -0.30105
 Alpha  occ. eigenvalues --   -0.26589  -0.25375  -0.25375  -0.23021  -0.23021
 Alpha virt. eigenvalues --   -0.11289  -0.09851  -0.09851  -0.05830  -0.00640
 Alpha virt. eigenvalues --    0.00586   0.00586   0.02092   0.02092   0.05698
 Alpha virt. eigenvalues --    0.12489   0.14981   0.15022   0.15022   0.15595
 Alpha virt. eigenvalues --    0.15595   0.18998   0.18998   0.19118   0.22759
 Alpha virt. eigenvalues --    0.22978   0.22978   0.23990   0.23990   0.27761
 Alpha virt. eigenvalues --    0.28501   0.28501   0.28524   0.30564   0.30564
 Alpha virt. eigenvalues --    0.31753   0.31753   0.32525   0.33988   0.36486
 Alpha virt. eigenvalues --    0.41455   0.41455   0.44271   0.44271   0.50818
 Alpha virt. eigenvalues --    0.50911   0.50911   0.51233   0.51426   0.51426
 Alpha virt. eigenvalues --    0.57137   0.62565   0.63165   0.63165   0.65756
 Alpha virt. eigenvalues --    0.68539   0.70878   0.70878   0.77367   0.77367
 Alpha virt. eigenvalues --    0.79055   0.85376   0.85376   0.86575   0.90698
 Alpha virt. eigenvalues --    0.91305   0.94311   0.94311   0.96787   0.96787
 Alpha virt. eigenvalues --    0.98722   1.00014   1.00014   1.02757   1.02757
 Alpha virt. eigenvalues --    1.03160   1.05427   1.07086   1.07086   1.07928
 Alpha virt. eigenvalues --    1.07928   1.17473   1.18264   1.24419   1.24419
 Alpha virt. eigenvalues --    1.28235   1.32770   1.34306   1.35120   1.35120
 Alpha virt. eigenvalues --    1.36314   1.37104   1.37104   1.37535   1.42285
 Alpha virt. eigenvalues --    1.44006   1.44006   1.46981   1.46981   1.48181
 Alpha virt. eigenvalues --    1.68946   1.68946   1.69607   1.69607   1.72087
 Alpha virt. eigenvalues --    1.72087   1.74326   1.74326   1.76275   1.79997
 Alpha virt. eigenvalues --    1.90632   1.90632   1.91383   1.93804   2.01944
 Alpha virt. eigenvalues --    2.01944   2.04375   2.05262   2.05451   2.05451
 Alpha virt. eigenvalues --    2.08769   2.08769   2.13901   2.19774   2.19774
 Alpha virt. eigenvalues --    2.48514   2.68589   2.68589   2.77019   2.92869
          Condensed to atoms (all electrons):
              1          2          3          4          5
     1  Si  13.503346   0.022606   0.022606   0.215041   0.215041
     2  Si   0.022606  13.503346   0.022606   0.215041   0.215041
     3  Si   0.022606   0.022606  13.503346   0.215041   0.215041
     4  Si   0.215041   0.215041   0.215041  13.396620  -0.009700
     5  Si   0.215041   0.215041   0.215041  -0.009700  13.396620
 Mulliken atomic charges:
              1
     1  Si   0.021361
     2  Si   0.021361
     3  Si   0.021361
     4  Si  -0.032041
     5  Si  -0.032041
 Sum of Mulliken atomic charges =   0.00000
 Mulliken charges with hydrogens summed into heavy atoms:
              1
     1  Si   0.021361
     2  Si   0.021361
     3  Si   0.021361
     4  Si  -0.032041
     5  Si  -0.032041
 Sum of Mulliken charges with hydrogens summed into heavy atoms =   0.00000
 Electronic spatial extent (au):  <R**2>=            845.6485
 Charge=              0.0000 electrons
 Dipole moment (field-independent basis, Debye):
    X=              0.0000    Y=              0.0000    Z=              0.0000  Tot=              0.0000
 Quadrupole moment (field-independent basis, Debye-Ang):
   XX=            -65.7094   YY=            -65.7094   ZZ=            -63.1407
   XY=              0.0000   XZ=              0.0000   YZ=              0.0000
 Traceless Quadrupole moment (field-independent basis, Debye-Ang):
   XX=             -0.8562   YY=             -0.8562   ZZ=              1.7125
   XY=              0.0000   XZ=              0.0000   YZ=              0.0000
 Octapole moment (field-independent basis, Debye-Ang**2):
  XXX=              0.0000  YYY=             -4.5283  ZZZ=              0.0000  XYY=              0.0000
  XXY=              4.5283  XXZ=              0.0000  XZZ=              0.0000  YZZ=              0.0000
  YYZ=              0.0000  XYZ=              0.0000
 Hexadecapole moment (field-independent basis, Debye-Ang**3):
 XXXX=           -510.4052 YYYY=           -510.4052 ZZZZ=           -430.8543 XXXY=              0.0000
 XXXZ=              0.0000 YYYX=              0.0000 YYYZ=              0.0000 ZZZX=              0.0000
 ZZZY=              0.0000 XXYY=           -170.1351 XXZZ=           -163.1465 YYZZ=           -163.1465
 XXYZ=              0.0000 YYXZ=              0.0000 ZZXY=              0.0000
 N-N= 4.030058431995D+02 E-N=-4.252388479598D+03  KE= 1.442473369108D+03
 Symmetry A1   KE= 7.660308076077D+02
 Symmetry A2   KE= 5.081748537403D+01
 Symmetry B1   KE= 3.127821629904D+02
 Symmetry B2   KE= 3.128429131359D+02
 1\1\GINC-NODE41\FOpt\RB3LYP\GTBas3\Si5\TAM\21-Dec-2011\0\\# G4 scfcyc=
 500 scf=xqc\\si5-n\\0,1\Si,0.0000000049,1.7941751491,0.\Si,1.553801257
 2,-0.8970875817,0.\Si,-1.5538012621,-0.8970875733,0.\Si,0.,-0.00000000
 2,1.4771933429\Si,0.,-0.000000002,-1.4771933429\\Version=AM64L-G09RevA
 .02\State=1-A1'\HF=-1447.4082069\RMSD=2.656e-09\RMSF=6.813e-06\Dipole=
 0.,0.,0.\Quadrupole=-0.6365984,-0.6365984,1.2731968,0.,0.,0.\PG=D03H [
 C3(Si1.Si1),3C2(Si1)]\\@


 IBM COMPATIBILITY IS LIKE PREGNANCY. YOU ARE OR
 OR YOU ARE NOT. -- ADAM OSBORNE
 Job cpu time:  0 days  0 hours  3 minutes 33.0 seconds.
 File lengths (MBytes):  RWF=     14 Int=      0 D2E=      0 Chk=      3 Scr=      1
 Normal termination of Gaussian 09 at Wed Dec 21 10:10:10 2011.
 Link1:  Proceeding to internal job step number  2.
 ----------------------------------------------------------
 #N Geom=AllCheck Guess=TCheck SCRF=Check B3LYP/GTBas3 Freq
 ----------------------------------------------------------
 1/10=4,29=7,30=1,38=1,40=1/1,3;
 2/12=2,40=1/2;
 3/5=35,11=2,14=-4,16=1,25=1,30=1,70=2,71=2,74=-5,116=-2/1,2,3;
 4/5=101/1;
 5/5=2,7=500,8=3,13=1,98=1/2,8;
 8/6=4,10=90,11=11/1;
 11/6=1,8=1,9=11,15=111,16=1/1,2,10;
 10/6=1/2;
 6/7=2,8=2,9=2,10=2,18=1,28=1/1;
 7/8=1,10=1,25=1/1,2,3,16;
 1/10=4,30=1/3;
 99//99;
 -----
 si5-n
 -----
 Redundant internal coordinates taken from checkpoint file:
 S9L-ne-d-01.chk
 Charge =  0 Multiplicity = 1
 Si,0,0.0000000049,1.7941751491,0.
 Si,0,1.5538012572,-0.8970875817,0.
 Si,0,-1.5538012621,-0.8970875733,0.
 Si,0,0.,-0.000000002,1.4771933429
 Si,0,0.,-0.000000002,-1.4771933429
 Recover connectivity data from disk.

 GradGradGradGradGradGradGradGradGradGradGradGradGradGradGradGradGradGrad
 Berny optimization.
 Initialization pass.
                           ----------------------------
                           !    Initial Parameters    !
                           ! (Angstroms and Degrees)  !
 --------------------------                            --------------------------
 ! Name  Definition              Value          Derivative Info.                !
 --------------------------------------------------------------------------------
 ! R1    R(1,4)                  2.324          calculate D2E/DX2 analytically  !
 ! R2    R(1,5)                  2.324          calculate D2E/DX2 analytically  !
 ! R3    R(2,4)                  2.324          calculate D2E/DX2 analytically  !
 ! R4    R(2,5)                  2.324          calculate D2E/DX2 analytically  !
 ! R5    R(3,4)                  2.324          calculate D2E/DX2 analytically  !
 ! R6    R(3,5)                  2.324          calculate D2E/DX2 analytically  !
 ! A1    A(4,1,5)               78.9311         calculate D2E/DX2 analytically  !
 ! A2    A(4,2,5)               78.9311         calculate D2E/DX2 analytically  !
 ! A3    A(4,3,5)               78.9311         calculate D2E/DX2 analytically  !
 ! A4    A(1,4,2)               83.9147         calculate D2E/DX2 analytically  !
 ! A5    A(1,4,3)               83.9147         calculate D2E/DX2 analytically  !
 ! A6    A(2,4,3)               83.9147         calculate D2E/DX2 analytically  !
 ! A7    A(1,5,2)               83.9147         calculate D2E/DX2 analytically  !
 ! A8    A(1,5,3)               83.9147         calculate D2E/DX2 analytically  !
 ! A9    A(2,5,3)               83.9147         calculate D2E/DX2 analytically  !
 ! D1    D(5,1,4,2)             42.2499         calculate D2E/DX2 analytically  !
 ! D2    D(5,1,4,3)            -42.2499         calculate D2E/DX2 analytically  !
 ! D3    D(4,1,5,2)            -42.2499         calculate D2E/DX2 analytically  !
 ! D4    D(4,1,5,3)             42.2499         calculate D2E/DX2 analytically  !
 ! D5    D(5,2,4,1)            -42.2499         calculate D2E/DX2 analytically  !
 ! D6    D(5,2,4,3)             42.2499         calculate D2E/DX2 analytically  !
 ! D7    D(4,2,5,1)             42.2499         calculate D2E/DX2 analytically  !
 ! D8    D(4,2,5,3)            -42.2499         calculate D2E/DX2 analytically  !
 ! D9    D(5,3,4,1)             42.2499         calculate D2E/DX2 analytically  !
 ! D10   D(5,3,4,2)            -42.2499         calculate D2E/DX2 analytically  !
 ! D11   D(4,3,5,1)            -42.2499         calculate D2E/DX2 analytically  !
 ! D12   D(4,3,5,2)             42.2499         calculate D2E/DX2 analytically  !
 --------------------------------------------------------------------------------
 Trust Radius=3.00D-01 FncErr=1.00D-07 GrdErr=1.00D-07
 Number of steps in this run=   2 maximum allowed number of steps=   2.
 GradGradGradGradGradGradGradGradGradGradGradGradGradGradGradGradGradGrad

                          Input orientation:                          
 ---------------------------------------------------------------------
 Center     Atomic      Atomic             Coordinates (Angstroms)
 Number     Number       Type             X           Y           Z
 ---------------------------------------------------------------------
      1         14           0        0.000000    1.794175    0.000000
      2         14           0        1.553801   -0.897088    0.000000
      3         14           0       -1.553801   -0.897088    0.000000
      4         14           0        0.000000    0.000000    1.477193
      5         14           0        0.000000    0.000000   -1.477193
 ---------------------------------------------------------------------
                    Distance matrix (angstroms):
                    1          2          3          4          5
     1  Si   0.000000
     2  Si   3.107603   0.000000
     3  Si   3.107603   3.107603   0.000000
     4  Si   2.324041   2.324041   2.324041   0.000000
     5  Si   2.324041   2.324041   2.324041   2.954387   0.000000
 Stoichiometry    Si5
 Framework group  D3H[C3(Si.Si),3C2(Si)]
 Deg. of freedom     2
 Full point group                 D3H     NOp  12
 Largest Abelian subgroup         C2V     NOp   4
 Largest concise Abelian subgroup C2V     NOp   4
                         Standard orientation:                         
 ---------------------------------------------------------------------
 Center     Atomic      Atomic             Coordinates (Angstroms)
 Number     Number       Type             X           Y           Z
 ---------------------------------------------------------------------
      1         14           0        0.000000    1.794175    0.000000
      2         14           0        1.553801   -0.897088    0.000000
      3         14           0       -1.553801   -0.897088    0.000000
      4         14           0        0.000000    0.000000    1.477193
      5         14           0        0.000000    0.000000   -1.477193
 ---------------------------------------------------------------------
 Rotational constants (GHZ):      1.9650314      1.9650314      1.8705367
 Standard basis: GTBas3 (6D, 7F)
 There are    59 symmetry adapted basis functions of A1  symmetry.
 There are    23 symmetry adapted basis functions of A2  symmetry.
 There are    39 symmetry adapted basis functions of B1  symmetry.
 There are    39 symmetry adapted basis functions of B2  symmetry.
 Integral buffers will be    131072 words long.
 Raffenetti 2 integral format.
 Two-electron integral symmetry is turned on.
   160 basis functions,   340 primitive gaussians,   175 cartesian basis functions
    35 alpha electrons       35 beta electrons
       nuclear repulsion energy       403.0058431995 Hartrees.
 NAtoms=    5 NActive=    5 NUniq=    2 SFac= 3.00D+00 NAtFMM=   80 NAOKFM=F Big=F
 One-electron integrals computed using PRISM.
 NBasis=   160 RedAO= T  NBF=    59    23    39    39
 NBsUse=   160 1.00D-06 NBFU=    59    23    39    39
 Initial guess read from the checkpoint file:  S9L-ne-d-01.chk
 B after Tr=     0.000000    0.000000    0.000000
         Rot=    1.000000    0.000000    0.000000    0.000000 Ang=   0.00 deg.
 Initial guess orbital symmetries:
       Occupied  (E') (E') (A1') (A1') (A2") (A1') (E') (E') (A1')
                 (A2") (A2') (E') (E') (A1') (E') (E') (A2") (E")
                 (E") (A2") (A1') (E') (E') (E") (E") (A1') (A2")
                 (E') (E') (A1') (A1') (E") (E") (E') (E')
       Virtual   (A2") (E') (E') (A2') (A2") (E') (E') (E") (E")
                 (A1') (A1') (A1') (E") (E") (E') (E') (E') (E')
                 (A2") (A1') (E") (E") (E') (E') (A2') (E') (E')
                 (A2") (E") (E") (E') (E') (A1") (A1') (A2") (E')
                 (E') (E") (E") (A1') (E') (E') (A2') (E") (E")
                 (A2") (A1') (E') (E') (A2") (A1') (E') (E') (E")
                 (E") (A1') (E') (E') (A2") (A2') (A1') (E") (E")
                 (E') (E') (A1") (E") (E") (E') (E') (A1') (A2")
                 (E") (E") (E') (E') (A2') (A1') (E') (E') (A2")
                 (A2") (A1") (E") (E") (A2') (E') (E') (A1') (A2")
                 (E') (E') (E") (E") (A1') (E") (E") (E') (E')
                 (E") (E") (E') (E') (A1') (A1") (E') (E') (A2")
                 (A1') (E") (E") (A2') (A2") (E') (E') (E') (E')
                 (A1') (E") (E") (A1') (E') (E') (A2") (A1')
 Requested convergence on RMS density matrix=1.00D-08 within 128 cycles.
 Requested convergence on MAX density matrix=1.00D-06.
 Requested convergence on             energy=1.00D-06.
 No special actions if energy rises.
 Keep R1 ints in memory in canonical form, NReq=121466048.
 SCF Done:  E(RB3LYP) =  -1447.40820691     A.U. after    1 cycles
             Convg  =    0.4739D-09             -V/T =  2.0034
 QCSCF skips out because SCF is already converged.
 Range of M.O.s used for correlation:     1   160
 NBasis=   160 NAE=    35 NBE=    35 NFC=     0 NFV=     0
 NROrb=    160 NOA=    35 NOB=    35 NVA=   125 NVB=   125

 **** Warning!!: The largest alpha MO coefficient is  0.10215598D+02

 Symmetrizing basis deriv contribution to polar:
 IMax=3 JMax=2 DiffMx= 0.00D+00
 G2DrvN: will do     6 centers at a time, making    1 passes doing MaxLOS=3.
 Calling FoFCou, ICntrl=  3107 FMM=F I1Cent=   0 AccDes= 0.00D+00.
 FoFDir/FoFCou used for L=0 through L=3.
 End of G2Drv Frequency-dependent properties file   721 does not exist.
 End of G2Drv Frequency-dependent properties file   722 does not exist.
          IDoAtm=11111
          Differentiating once with respect to electric field.
                with respect to dipole field.
          Differentiating once with respect to nuclear coordinates.
          Keep R1 ints in memory in canonical form, NReq=120530685.
          There are     9 degrees of freedom in the 1st order CPHF.  IDoFFX=4.
      9 vectors produced by pass  0 Test12= 4.86D-14 1.11D-08 XBig12= 6.29D+02 1.65D+01.
 AX will form     9 AO Fock derivatives at one time.
      9 vectors produced by pass  1 Test12= 4.86D-14 1.11D-08 XBig12= 3.55D+02 8.50D+00.
      9 vectors produced by pass  2 Test12= 4.86D-14 1.11D-08 XBig12= 1.86D+01 1.64D+00.
      9 vectors produced by pass  3 Test12= 4.86D-14 1.11D-08 XBig12= 7.84D-01 4.32D-01.
      9 vectors produced by pass  4 Test12= 4.86D-14 1.11D-08 XBig12= 7.46D-02 9.19D-02.
      9 vectors produced by pass  5 Test12= 4.86D-14 1.11D-08 XBig12= 1.37D-03 1.08D-02.
      9 vectors produced by pass  6 Test12= 4.86D-14 1.11D-08 XBig12= 1.27D-05 1.19D-03.
      9 vectors produced by pass  7 Test12= 4.86D-14 1.11D-08 XBig12= 2.25D-07 1.65D-04.
      6 vectors produced by pass  8 Test12= 4.86D-14 1.11D-08 XBig12= 1.62D-09 8.78D-06.
      3 vectors produced by pass  9 Test12= 4.86D-14 1.11D-08 XBig12= 1.61D-11 1.37D-06.
      3 vectors produced by pass 10 Test12= 4.86D-14 1.11D-08 XBig12= 1.07D-13 1.09D-07.
 Inverted reduced A of dimension    84 with in-core refinement.
 Isotropic polarizability for W=    0.000000      158.45 Bohr**3.
 End of Minotr Frequency-dependent properties file   721 does not exist.
 End of Minotr Frequency-dependent properties file   722 does not exist.

 **********************************************************************

            Population analysis using the SCF density.

 **********************************************************************

 Orbital symmetries:
       Occupied  (E') (E') (A1') (A1') (A2") (A1') (E') (E') (A1')
                 (A2") (A2') (E') (E') (A1') (E') (E') (A2") (E")
                 (E") (A2") (A1') (E') (E') (E") (E") (A1') (A2")
                 (E') (E') (A1') (A1') (E") (E") (E') (E')
       Virtual   (A2") (E') (E') (A2') (A2") (E') (E') (E") (E")
                 (A1') (A1') (A1') (E") (E") (E') (E') (E') (E')
                 (A2") (A1') (E") (E") (E') (E') (A2') (E') (E')
                 (A2") (E") (E") (E') (E') (A1") (A1') (A2") (E')
                 (E') (E") (E") (A1') (E') (E') (A2') (E") (E")
                 (A2") (A1') (E') (E') (A2") (A1') (E') (E') (E")
                 (E") (A1') (E') (E') (A2") (A2') (A1') (E") (E")
                 (E') (E') (A1") (E") (E") (E') (E') (A1') (A2")
                 (E") (E") (E') (E') (A2') (A1') (E') (E') (A2")
                 (A2") (A1") (E") (E") (A2') (E') (E') (A1') (A2")
                 (E') (E') (E") (E") (A1') (E") (E") (E') (E')
                 (E") (E") (E') (E') (A1') (A1") (E') (E') (A2")
                 (A1') (E") (E") (A2') (A2") (E') (E') (E') (E')
                 (A1') (E") (E") (A1') (E') (E') (A2") (A1')
 The electronic state is 1-A1'.
 Alpha  occ. eigenvalues --  -66.14999 -66.14999 -66.14998 -66.13994 -66.13993
 Alpha  occ. eigenvalues --   -5.29611  -5.29610  -5.29610  -5.28768  -5.28767
 Alpha  occ. eigenvalues --   -3.65570  -3.65569  -3.65569  -3.65329  -3.65328
 Alpha  occ. eigenvalues --   -3.65328  -3.65270  -3.65268  -3.65268  -3.64762
 Alpha  occ. eigenvalues --   -3.64760  -3.64468  -3.64468  -3.64468  -3.64468
 Alpha  occ. eigenvalues --   -0.62865  -0.45773  -0.45398  -0.45398  -0.30105
 Alpha  occ. eigenvalues --   -0.26589  -0.25375  -0.25375  -0.23021  -0.23021
 Alpha virt. eigenvalues --   -0.11289  -0.09851  -0.09851  -0.05830  -0.00640
 Alpha virt. eigenvalues --    0.00586   0.00586   0.02092   0.02092   0.05698
 Alpha virt. eigenvalues --    0.12489   0.14981   0.15022   0.15022   0.15595
 Alpha virt. eigenvalues --    0.15595   0.18998   0.18998   0.19118   0.22759
 Alpha virt. eigenvalues --    0.22978   0.22978   0.23990   0.23990   0.27761
 Alpha virt. eigenvalues --    0.28501   0.28501   0.28524   0.30564   0.30564
 Alpha virt. eigenvalues --    0.31753   0.31753   0.32525   0.33988   0.36486
 Alpha virt. eigenvalues --    0.41455   0.41455   0.44271   0.44271   0.50818
 Alpha virt. eigenvalues --    0.50911   0.50911   0.51233   0.51426   0.51426
 Alpha virt. eigenvalues --    0.57137   0.62565   0.63165   0.63165   0.65756
 Alpha virt. eigenvalues --    0.68539   0.70878   0.70878   0.77367   0.77367
 Alpha virt. eigenvalues --    0.79055   0.85376   0.85376   0.86575   0.90698
 Alpha virt. eigenvalues --    0.91305   0.94311   0.94311   0.96787   0.96787
 Alpha virt. eigenvalues --    0.98722   1.00014   1.00014   1.02757   1.02757
 Alpha virt. eigenvalues --    1.03160   1.05427   1.07086   1.07086   1.07928
 Alpha virt. eigenvalues --    1.07928   1.17473   1.18264   1.24419   1.24419
 Alpha virt. eigenvalues --    1.28235   1.32770   1.34306   1.35120   1.35120
 Alpha virt. eigenvalues --    1.36314   1.37104   1.37104   1.37535   1.42285
 Alpha virt. eigenvalues --    1.44006   1.44006   1.46981   1.46981   1.48181
 Alpha virt. eigenvalues --    1.68946   1.68946   1.69607   1.69607   1.72087
[...]
                 (E") (E") (E') (E') (A2') (A2") (A1") (A1') (E")
                 (E") (E') (E') (E") (E") (A1') (E') (E') (A1')
                 (A2') (E") (E") (E') (E') (E") (E") (A2") (E')
                 (E') (A1") (E") (E") (E') (E') (A1') (E') (E')
                 (A2") (A2') (E') (E') (E") (E") (A1') (A2") (E')
                 (E') (A1') (A2") (E") (E") (E") (E") (A1") (A2')
                 (E') (E') (A1') (A2") (E') (E') (E") (E") (E')
                 (E') (A2') (A2") (E") (E") (E') (E') (E") (E")
                 (A1') (A2") (A1') (E') (E') (A1') (E') (E') (A2")
                 (A1') (?A) (?A) (?A) (?A) (?A) (?A) (?A) (?A)
                 (?A) (?A) (?A) (?A) (?A) (?A) (?A) (?A) (?A) (?A)
                 (?A) (?A) (?A) (?A) (?A) (?A) (?A) (?A) (?A) (?A)
                 (?A) (?A) (?A) (?A) (?A) (?A) (?A) (?A) (?A) (?A)
                 (?A) (?A) (?A) (?A) (?A) (?A) (?A) (?A) (?A) (?A)
                 (?A) (?A) (?A) (?A) (?A) (?A) (?B) (?B) (?B) (?B)
                 (?B) (?B) (?B) (?B) (?B) (?B) (?B) (?B) (?B) (?B)
                 (?B) (?B) (?B) (?B) (?B) (?B) (?B) (?B) (?B) (?B)
                 (?B) (?B) (?B) (?B) (?B) (?B) (?B) (?B) (?B) (?B)
                 (?B) (?B) (?A) (?A) (?A) (?A) (?A) (?A) (?A) (?A)
                 (?A) (?A) (?A) (?A) (?A) (?A) (?A) (?A) (?A) (?A)
                 (?A) (?A) (?A) (?A) (?A) (?A) (?A) (?A) (?A) (?A)
                 (?A) (?A) (?A) (?A) (?A) (?A) (?A) (?A) (?A) (?A)
                 (?A) (?A) (?A) (?A) (?A) (?A) (?A) (?B) (?B) (?B)
                 (?B) (?B) (?B) (?B) (?B) (?B) (?B) (?B) (?B) (?B)
                 (?B) (?B) (?B) (?B) (?B) (?B) (?B) (?B) (?B) (?B)
                 (?B) (?B) (?B) (?B) (?B) (?B) (?B) (?B) (?B) (?B)
                 (?B) (?B) (?B) (?B) (?B) (?B) (?B) (?B) (?B) (?B)
                 (?B) (?B)
 Requested convergence on RMS density matrix=1.00D-08 within 128 cycles.
 Requested convergence on MAX density matrix=1.00D-06.
 Requested convergence on             energy=1.00D-06.
 No special actions if energy rises.
 SCF Done:  E(RHF) =  -1444.59761889     A.U. after    9 cycles
             Convg  =    0.8031D-08             -V/T =  2.0000
 QCSCF skips out because SCF is already converged.

 **********************************************************************

            Population analysis using the SCF density.

 **********************************************************************

 Orbital symmetries:
       Occupied  (A1') (E') (E') (A1') (A2") (A1') (E') (E') (A1')
                 (A2") (E') (E') (A2') (A1') (E') (E') (E") (E")
                 (A2") (A1') (A2") (E') (E') (E") (E") (A1') (A2")
                 (E') (E') (A1') (E") (E") (A1') (E') (E')
       Virtual   (A2") (E') (E') (A1') (A2") (E') (E') (A1') (A2')
                 (E") (E") (E') (E') (E') (E') (A2") (E") (E")
                 (A2') (A2") (A1') (E') (E') (A1') (E") (E") (A1')
                 (E') (E') (A2") (E") (E") (E') (E') (A1') (E')
                 (E') (A2") (A2') (A1') (E") (E") (E') (E') (A2")
                 (E") (E") (E') (E') (A1') (A1") (A1') (E') (E')
                 (A2") (A1') (E") (E") (E') (E') (A1') (E') (E')
                 (E') (E') (E") (E") (A2") (A2') (A2") (E') (E')
                 (E") (E") (A2") (E') (E') (A1') (E") (E") (A2')
                 (A1') (E") (E") (E') (E') (A1") (A1') (A2') (E")
                 (E") (E') (E') (A1') (A2") (E') (E') (E") (E")
                 (E') (E') (A1') (E") (E") (E') (E') (A2') (A2")
                 (A1") (A1') (E") (E") (E') (E') (A2") (E') (E')
                 (A2") (E") (E") (A2') (A2") (A1") (A1') (E') (E')
                 (E') (E') (A1') (A2") (E") (E") (A1') (E') (E')
                 (E') (E') (E") (E") (A1') (E') (E') (E') (E')
                 (E") (E") (A2") (A1') (A2') (A1') (E") (E") (E")
                 (E") (A1") (A2') (E') (E') (A2") (E') (E') (E")
                 (E") (E') (E') (E") (E") (E') (E') (A1') (A2")
                 (A2') (E") (E") (E') (E') (A2") (A1") (A1') (A1')
                 (A2") (E') (E') (A1') (E") (E") (A2') (E') (E')
                 (E') (E') (A1") (A2") (E") (E") (A2") (A1') (E')
                 (E') (E") (E") (A2') (E') (E') (E") (E") (E')
                 (E') (A1") (A1') (A2') (E") (E") (A1') (E') (E')
                 (E") (E") (E') (E') (A1") (A2") (A1') (E') (E')
                 (E") (E") (E") (E") (A2") (A1') (E') (E') (A2')
                 (A2") (E') (E') (A1') (E') (E') (E") (E") (E")
                 (E") (A1') (A1") (A2') (A2") (E') (E') (A2") (E')
                 (E') (E") (E") (A1') (E') (E') (E') (E') (E")
                 (E") (E") (E") (A2") (A1") (E") (E") (E') (E')
                 (A1') (A2') (E') (E') (E") (E") (A2") (E') (E')
                 (E') (E') (A1') (A2') (A2") (A1') (E') (E') (E")
                 (E") (A1') (A2') (E') (E') (A2") (A1") (E") (E")
                 (E") (E") (E') (E') (A2') (E") (E") (A1') (E')
                 (E') (A2') (A2") (E') (E') (A1") (E") (E") (A2")
                 (E') (E') (A1') (A2') (E") (E") (E") (E") (A2")
                 (E') (E') (A1') (E') (E') (E') (E') (E") (E")
                 (A1") (A1') (A2") (A2') (E") (E") (A1') (E') (E')
                 (E') (E') (A1") (E") (E") (A2") (A1') (A2") (E')
                 (E') (E") (E") (E") (E") (E') (E') (A1') (A1')
                 (A2') (A1") (E') (E') (E") (E") (A1') (E") (E")
                 (E') (E') (A2") (A2") (A1') (E') (E') (E") (E")
                 (A2') (E') (E') (A2") (E") (E") (E') (E') (E')
                 (E') (A1') (A2') (A1') (A1") (E") (E") (E') (E')
                 (E') (E') (E") (E") (A1") (E") (E") (E') (E')
                 (A2") (A2') (A2") (E") (E") (E') (E') (A1') (A2")
                 (A1') (A1') (E') (E') (E") (E") (A1") (E') (E')
                 (A2') (A1') (E') (E') (E") (E") (A2") (E") (E")
                 (E') (E') (A1') (E") (E") (E') (E') (A2") (E')
                 (E') (A2') (E") (E") (A2") (E') (E') (A1') (E')
                 (E') (A1') (A2") (E") (E") (A1') (E') (E') (A1')
                 (A2")
 The electronic state is 1-A1'.
 Alpha  occ. eigenvalues --  -68.80721 -68.80721 -68.80721 -68.78375 -68.78375
 Alpha  occ. eigenvalues --   -6.15160  -6.15158  -6.15158  -6.13233  -6.13230
 Alpha  occ. eigenvalues --   -4.25277  -4.25277  -4.25275  -4.25247  -4.25241
 Alpha  occ. eigenvalues --   -4.25241  -4.25230  -4.25230  -4.25230  -4.23544
 Alpha  occ. eigenvalues --   -4.23537  -4.23443  -4.23443  -4.23443  -4.23443
 Alpha  occ. eigenvalues --   -0.83277  -0.60514  -0.59804  -0.59804  -0.38471
 Alpha  occ. eigenvalues --   -0.33371  -0.33371  -0.33275  -0.29512  -0.29512
 Alpha virt. eigenvalues --   -0.01834  -0.00570  -0.00570   0.03046   0.03150
 Alpha virt. eigenvalues --    0.03866   0.03866   0.04500   0.05147   0.05698
 Alpha virt. eigenvalues --    0.05698   0.05993   0.05993   0.07162   0.07162
 Alpha virt. eigenvalues --    0.07170   0.07263   0.07263   0.08825   0.09788
 Alpha virt. eigenvalues --    0.09937   0.10935   0.10935   0.12811   0.13223
 Alpha virt. eigenvalues --    0.13223   0.15162   0.15883   0.15883   0.16964
 Alpha virt. eigenvalues --    0.19932   0.19932   0.21119   0.21119   0.21787
 Alpha virt. eigenvalues --    0.24312   0.24312   0.25079   0.26988   0.27871
 Alpha virt. eigenvalues --    0.28046   0.28046   0.28552   0.28552   0.29104
 Alpha virt. eigenvalues --    0.30901   0.30901   0.31853   0.31853   0.32972
 Alpha virt. eigenvalues --    0.36792   0.37326   0.38448   0.38448   0.40318
 Alpha virt. eigenvalues --    0.42812   0.44722   0.44722   0.44884   0.44884
 Alpha virt. eigenvalues --    0.49474   0.50264   0.50264   0.50548   0.50548
 Alpha virt. eigenvalues --    0.51195   0.51195   0.52380   0.53595   0.59330
 Alpha virt. eigenvalues --    0.60354   0.60354   0.62233   0.62233   0.62543
 Alpha virt. eigenvalues --    0.62977   0.62977   0.62983   0.65009   0.65009
 Alpha virt. eigenvalues --    0.68558   0.70142   0.70419   0.70419   0.72071
 Alpha virt. eigenvalues --    0.72071   0.75323   0.75461   0.76363   0.78100
 Alpha virt. eigenvalues --    0.78100   0.78872   0.78872   0.82642   0.83445
 Alpha virt. eigenvalues --    0.84651   0.84651   0.85804   0.85804   0.87194
 Alpha virt. eigenvalues --    0.87194   0.88010   0.89907   0.89907   0.90783
 Alpha virt. eigenvalues --    0.90783   0.91000   0.91555   0.91834   0.94474
 Alpha virt. eigenvalues --    0.94921   0.94921   0.95303   0.95303   0.96299
 Alpha virt. eigenvalues --    0.98202   0.98202   0.99756   1.01426   1.01426
 Alpha virt. eigenvalues --    1.01529   1.03101   1.03779   1.03805   1.05184
 Alpha virt. eigenvalues --    1.05184   1.07931   1.07931   1.08200   1.11896
 Alpha virt. eigenvalues --    1.13223   1.13223   1.14539   1.17195   1.17195
 Alpha virt. eigenvalues --    1.19650   1.19650   1.21836   1.21836   1.23627
 Alpha virt. eigenvalues --    1.29695   1.29695   1.33752   1.33752   1.37931
 Alpha virt. eigenvalues --    1.37931   1.39026   1.42982   1.44280   1.47822
 Alpha virt. eigenvalues --    1.48861   1.48861   1.50844   1.50844   1.51679
 Alpha virt. eigenvalues --    1.52220   1.53515   1.53515   1.55810   1.56670
 Alpha virt. eigenvalues --    1.56670   1.58781   1.58781   1.63362   1.63362
 Alpha virt. eigenvalues --    1.65128   1.65128   1.65234   1.65234   1.66035
 Alpha virt. eigenvalues --    1.71154   1.71921   1.72875   1.72875   1.76568
 Alpha virt. eigenvalues --    1.76568   1.76768   1.78321   1.79413   1.80461
 Alpha virt. eigenvalues --    1.80537   1.81020   1.81020   1.84579   1.86008
 Alpha virt. eigenvalues --    1.86008   1.86658   1.88399   1.88399   1.88766
 Alpha virt. eigenvalues --    1.88766   1.89045   1.90836   1.92309   1.92309
 Alpha virt. eigenvalues --    1.92641   1.94048   1.96757   1.96757   1.97371
 Alpha virt. eigenvalues --    1.97371   2.00062   2.00381   2.00381   2.01937
 Alpha virt. eigenvalues --    2.01937   2.03529   2.03529   2.03544   2.05270
 Alpha virt. eigenvalues --    2.05321   2.05706   2.05706   2.13070   2.13550
 Alpha virt. eigenvalues --    2.13550   2.15081   2.15081   2.19942   2.19942
 Alpha virt. eigenvalues --    2.20186   2.22597   2.24744   2.25765   2.25765
 Alpha virt. eigenvalues --    2.26006   2.26006   2.29917   2.29917   2.30122
 Alpha virt. eigenvalues --    2.34370   2.38133   2.38133   2.40835   2.51821
 Alpha virt. eigenvalues --    2.53809   2.53809   2.57478   2.65506   2.65506
 Alpha virt. eigenvalues --    2.66483   2.66483   2.71827   2.71827   2.82465
 Alpha virt. eigenvalues --    2.88362   2.89298   2.89336   2.91121   2.91121
 Alpha virt. eigenvalues --    2.94684   2.96932   2.96932   2.98400   2.98400
 Alpha virt. eigenvalues --    2.99923   3.07646   3.07646   3.14093   3.14093
 Alpha virt. eigenvalues --    3.18320   3.18320   3.24219   3.24219   3.28173
 Alpha virt. eigenvalues --    3.28232   3.31164   3.31164   3.31208   3.31208
 Alpha virt. eigenvalues --    3.33747   3.33924   3.34505   3.34505   3.40481
 Alpha virt. eigenvalues --    3.40481   3.41996   3.44296   3.44296   3.48366
 Alpha virt. eigenvalues --    3.48366   3.49331   3.49554   3.50374   3.51657
 Alpha virt. eigenvalues --    3.52224   3.52224   3.52285   3.52285   3.52459
 Alpha virt. eigenvalues --    3.56789   3.56807   3.56807   3.57858   3.60656
 Alpha virt. eigenvalues --    3.61933   3.61933   3.64438   3.64438   3.65123
 Alpha virt. eigenvalues --    3.65123   3.68857   3.68936   3.68936   3.70433
 Alpha virt. eigenvalues --    3.71767   3.71767   3.71856   3.71861   3.72453
 Alpha virt. eigenvalues --    3.72453   3.73625   3.74581   3.74581   3.74770
 Alpha virt. eigenvalues --    3.77564   3.77564   3.77706   3.79628   3.81744
 Alpha virt. eigenvalues --    3.81744   3.85168   3.85168   3.87064   3.87373
 Alpha virt. eigenvalues --    3.87373   3.91441   3.91755   3.91755   3.97224
 Alpha virt. eigenvalues --    3.97224   3.97347   3.97347   4.01110   4.01186
 Alpha virt. eigenvalues --    4.01428   4.08761   4.10914   4.10914   4.12307
 Alpha virt. eigenvalues --    4.13798   4.13798   4.14752   4.14752   4.16244
 Alpha virt. eigenvalues --    4.18166   4.18166   4.19142   4.21423   4.21854
 Alpha virt. eigenvalues --    4.21944   4.21944   4.22809   4.22809   4.27770
 Alpha virt. eigenvalues --    4.27770   4.33296   4.33296   4.33763   4.36122
 Alpha virt. eigenvalues --    4.36891   4.43638   4.44926   4.44926   4.45073
 Alpha virt. eigenvalues --    4.45073   4.49117   4.51091   4.51091   4.52313
 Alpha virt. eigenvalues --    4.52313   4.53854   4.59372   4.61220   4.62974
 Alpha virt. eigenvalues --    4.62974   4.64601   4.64601   4.64835   4.70317
 Alpha virt. eigenvalues --    4.70317   4.70336   4.72574   4.72574   4.72810
 Alpha virt. eigenvalues --    4.72810   4.75053   4.75053   4.75999   4.76004
 Alpha virt. eigenvalues --    4.83738   4.85164   4.86793   4.86793   4.91472
 Alpha virt. eigenvalues --    4.91472   4.96573   4.96573   5.00043   5.00043
 Alpha virt. eigenvalues --    5.08326   5.16890   5.16890   5.17548   5.17548
 Alpha virt. eigenvalues --    5.18909   5.20959   5.37931   5.41685   5.41685
 Alpha virt. eigenvalues --    5.43158   5.43158   5.48532   5.68713   5.93490
 Alpha virt. eigenvalues --    6.38347   6.39813   6.39813   6.44318   6.44318
 Alpha virt. eigenvalues --    6.76422   6.77168   6.77168   6.91606   6.95844
 Alpha virt. eigenvalues --    6.97627   6.97627   7.09204   7.09204   7.13786
 Alpha virt. eigenvalues --    7.19053   7.19053   7.19161   7.19161   7.19237
 Alpha virt. eigenvalues --    7.22108   7.22108   7.22633   7.22633   7.23612
 Alpha virt. eigenvalues --   13.53549  13.53549  13.76423  13.79761  13.79761
 Alpha virt. eigenvalues --   13.87217  13.99093  13.99093  14.01562  14.93471
 Alpha virt. eigenvalues --   14.93471  14.95985  14.96914  15.03621  15.03621
 Alpha virt. eigenvalues --   39.53340  40.60559  40.60559  43.34377  43.41453
          Condensed to atoms (all electrons):
              1          2          3          4          5
     1  Si  13.177638   0.055416   0.055416   0.327016   0.327016
     2  Si   0.055416  13.177638   0.055416   0.327016   0.327016
     3  Si   0.055416   0.055416  13.177638   0.327016   0.327016
     4  Si   0.327016   0.327016   0.327016  13.060070   0.045129
     5  Si   0.327016   0.327016   0.327016   0.045129  13.060070
 Mulliken atomic charges:
              1
     1  Si   0.057497
     2  Si   0.057497
     3  Si   0.057497
     4  Si  -0.086246
     5  Si  -0.086246
 Sum of Mulliken atomic charges =   0.00000
 Mulliken charges with hydrogens summed into heavy atoms:
              1
     1  Si   0.057497
     2  Si   0.057497
     3  Si   0.057497
     4  Si  -0.086246
     5  Si  -0.086246
 Sum of Mulliken charges with hydrogens summed into heavy atoms =   0.00000
 Electronic spatial extent (au):  <R**2>=            851.4948
 Charge=              0.0000 electrons
 Dipole moment (field-independent basis, Debye):
    X=              0.0000    Y=              0.0000    Z=              0.0000  Tot=              0.0000
 Quadrupole moment (field-independent basis, Debye-Ang):
   XX=            -68.7693   YY=            -68.7693   ZZ=            -64.8844
   XY=              0.0000   XZ=              0.0000   YZ=              0.0000
 Traceless Quadrupole moment (field-independent basis, Debye-Ang):
   XX=             -1.2950   YY=             -1.2950   ZZ=              2.5899
   XY=              0.0000   XZ=              0.0000   YZ=              0.0000
 Octapole moment (field-independent basis, Debye-Ang**2):
  XXX=              0.0000  YYY=            -11.3783  ZZZ=              0.0000  XYY=              0.0000
  XXY=             11.3783  XXZ=              0.0000  XZZ=              0.0000  YZZ=              0.0000
  YYZ=              0.0000  XYZ=              0.0000
 Hexadecapole moment (field-independent basis, Debye-Ang**3):
 XXXX=           -550.8980 YYYY=           -550.8980 ZZZZ=           -445.6445 XXXY=              0.0000
 XXXZ=              0.0000 YYYX=              0.0000 YYYZ=              0.0000 ZZZX=              0.0000
 ZZZY=              0.0000 XXYY=           -183.6327 XXZZ=           -171.4393 YYZZ=           -171.4393
 XXYZ=              0.0000 YYXZ=              0.0000 ZZXY=              0.0000
 N-N= 4.030058431995D+02 E-N=-4.253818815458D+03  KE= 1.444609122738D+03
 Symmetry A1   KE= 7.669524598976D+02
 Symmetry A2   KE= 5.096889987670D+01
 Symmetry B1   KE= 3.132767770686D+02
 Symmetry B2   KE= 3.134109858947D+02
 1\1\GINC-NODE41\SP\RHF\GFHFB2\Si5\TAM\21-Dec-2011\0\\#N Geom=AllCheck 
 Guess=TCheck SCRF=Check HF/GFHFB2 SCF=Tight\\si5-n\\0,1\Si,0,0.0000000
 049,1.7941751491,0.\Si,0,1.5538012572,-0.8970875817,0.\Si,0,-1.5538012
 621,-0.8970875733,0.\Si,0,0.,-0.000000002,1.4771933429\Si,0,0.,-0.0000
 00002,-1.4771933429\\Version=AM64L-G09RevA.02\State=1-A1'\HF=-1444.597
 6189\RMSD=8.031e-09\Dipole=0.,0.,0.\Quadrupole=-0.9627772,-0.9627772,1
 .9255544,0.,0.,0.\PG=D03H [C3(Si1.Si1),3C2(Si1)]\\@


 IF I HAVE SEEN FARTHER, IT IS BY STANDING ON THE
 SHOULDERS OF GIANTS. -- SIR ISAAC NEWTON
 Diagonal vibrational polarizability:
        0.0000000       0.0000000       0.0000000

 Temperature=              298.150000 Pressure=                      1.000000
 E(ZPE)=                     0.006726 E(Thermal)=                    0.013183
 E(CCSD(T))=             -1444.950867 E(Empiric)=                   -0.069470
 DE(Plus)=                  -0.006905 DE(2DF)=                      -0.160415
 E(Delta-G3XP)=             -1.571621 DE(HF)=                       -0.033339
 G4(0 K)=                -1446.785892 G4 Energy=                 -1446.779435
 G4 Enthalpy=            -1446.778490 G4 Free Energy=            -1446.815568
 1\1\GINC-NODE41\Mixed\G4\G4\Si5\TAM\21-Dec-2011\0\\# G4 scfcyc=500 scf
 =xqc\\si5-n\\0,1\Si,0,0.0000000049,1.7941751491,0.\Si,0,1.5538012572,-
 0.8970875817,0.\Si,0,-1.5538012621,-0.8970875733,0.\Si,0,0.,-0.0000000
 02,1.4771933429\Si,0,0.,-0.000000002,-1.4771933429\\Version=AM64L-G09R
 evA.02\State=1-A1'\MP2/GTBas1=-1444.892632\MP4/GTBas1=-1444.9586401\CC
 SD(T)/G3Bas1=-1444.9508675\MP2/GTBas2=-1444.8985779\MP4/GTBas2=-1444.9
 655451\MP2/GTBas3=-1445.0433553\MP4/GTBas3=-1445.1190551\HF/GTLargeXP=
 -1444.5653619\MP2/GTLargeXP=-1446.6209218\HF/GFHFB1=-1444.5931772\HF/G
 FHFB2=-1444.5976189\G4=-1446.7858917\FreqCoord=0.0000000092,3.39049966
 61,0.,2.9362588411,-1.6952498467,0.,-2.9362588503,-1.6952498308,0.,0.,
 -0.0000000038,2.7914908634,0.,-0.0000000038,-2.7914908634\PG=D03H [C3(
 Si1.Si1),3C2(Si1)]\NImag=0\\0.01511940,0.,0.12416397,0.,0.,0.06140098,
 -0.00282879,-0.00343426,0.,0.09690283,0.01042886,-0.00686712,0.,-0.047
 21769,0.04238054,0.,0.,0.00085227,0.,0.,0.06140098,-0.00282879,0.00343
 426,0.,-0.00888629,-0.00693156,0.,0.09690283,-0.01042886,-0.00686712,0
 .,0.00693156,-0.00080962,0.,0.04721769,0.04238054,0.,0.,0.00085227,0.,
 0.,0.00085227,0.,0.,0.06140098,-0.00473043,0.,0.,-0.04259402,0.0218603
 7,0.03191737,-0.04259402,-0.02186037,-0.03191737,0.07844392,0.,-0.0552
 1534,0.03685432,0.02186010,-0.01735159,-0.01842716,-0.02186010,-0.0173
 5159,-0.01842716,0.,0.07844284,0.,0.03492722,-0.03155276,0.03024745,-0
 .01746341,-0.03155279,-0.03024745,-0.01746341,-0.03155279,0.,-0.000000
 42,0.12516999,-0.00473043,0.,0.,-0.04259402,0.02186037,-0.03191736,-0.
 04259402,-0.02186037,0.03191737,0.01147436,0.,0.,0.07844392,0.,-0.0552
 1534,-0.03685432,0.02186010,-0.01735159,0.01842716,-0.02186010,-0.0173
 5159,0.01842716,0.,0.01147555,-0.00000041,0.,0.07844284,0.,-0.03492722
 ,-0.03155276,-0.03024745,0.01746341,-0.03155279,0.03024745,0.01746341,
 -0.03155279,0.,0.00000041,-0.03051157,0.,0.00000042,0.12516999\\0.,0.0
 0001278,0.,0.00001107,-0.00000639,0.,-0.00001107,-0.00000639,0.,0.,0.,
 0.00001014,0.,0.,-0.00001014\\\@
 Job cpu time:  0 days  0 hours 39 minutes 11.9 seconds.
 File lengths (MBytes):  RWF=    361 Int=      0 D2E=      0 Chk=     13 Scr=      1
 Normal termination of Gaussian 09 at Wed Dec 21 10:23:03 2011.
