 Entering Gaussian System, Link 0=g09
 Initial command:
 /usr/local/chem/g09A2/l1.exe /temp0/tam/Gau-30720.inp -scrdir=/temp0/tam/
 Entering Link 1 = /usr/local/chem/g09A2/l1.exe PID=     30721.
  
 Copyright (c) 1988,1990,1992,1993,1995,1998,2003,2009, Gaussian, Inc.
                  All Rights Reserved.
  
 This is part of the Gaussian(R) 09 program.  It is based on
 the Gaussian(R) 03 system (copyright 2003, Gaussian, Inc.),
 the Gaussian(R) 98 system (copyright 1998, Gaussian, Inc.),
 the Gaussian(R) 94 system (copyright 1995, Gaussian, Inc.),
 the Gaussian 92(TM) system (copyright 1992, Gaussian, Inc.),
 the Gaussian 90(TM) system (copyright 1990, Gaussian, Inc.),
 the Gaussian 88(TM) system (copyright 1988, Gaussian, Inc.),
 the Gaussian 86(TM) system (copyright 1986, Carnegie Mellon
 University), and the Gaussian 82(TM) system (copyright 1983,
 Carnegie Mellon University). Gaussian is a federally registered
 trademark of Gaussian, Inc.
  
 This software contains proprietary and confidential information,
 including trade secrets, belonging to Gaussian, Inc.
  
 This software is provided under written license and may be
 used, copied, transmitted, or stored only in accord with that
 written license.
  
 The following legend is applicable only to US Government
 contracts under FAR:
  
                    RESTRICTED RIGHTS LEGEND
  
 Use, reproduction and disclosure by the US Government is
 subject to restrictions as set forth in subparagraphs (a)
 and (c) of the Commercial Computer Software - Restricted
 Rights clause in FAR 52.227-19.
  
 Gaussian, Inc.
 340 Quinnipiac St., Bldg. 40, Wallingford CT 06492
  
  
 ---------------------------------------------------------------
 Warning -- This program may not be used in any manner that
 competes with the business of Gaussian, Inc. or will provide
 assistance to any competitor of Gaussian, Inc.  The licensee
 of this program is prohibited from giving any competitor of
 Gaussian, Inc. access to this program.  By using this program,
 the user acknowledges that Gaussian, Inc. is engaged in the
 business of creating and licensing software in the field of
 computational chemistry and represents and warrants to the
 licensee that it is not a competitor of Gaussian, Inc. and that
 it will not use this program in any manner prohibited above.
 ---------------------------------------------------------------
  

 Cite this work as:
 Gaussian 09, Revision A.02,
 M. J. Frisch, G. W. Trucks, H. B. Schlegel, G. E. Scuseria, 
 M. A. Robb, J. R. Cheeseman, G. Scalmani, V. Barone, B. Mennucci, 
 G. A. Petersson, H. Nakatsuji, M. Caricato, X. Li, H. P. Hratchian, 
 A. F. Izmaylov, J. Bloino, G. Zheng, J. L. Sonnenberg, M. Hada, 
 M. Ehara, K. Toyota, R. Fukuda, J. Hasegawa, M. Ishida, T. Nakajima, 
 Y. Honda, O. Kitao, H. Nakai, T. Vreven, J. A. Montgomery, Jr., 
 J. E. Peralta, F. Ogliaro, M. Bearpark, J. J. Heyd, E. Brothers, 
 K. N. Kudin, V. N. Staroverov, R. Kobayashi, J. Normand, 
 K. Raghavachari, A. Rendell, J. C. Burant, S. S. Iyengar, J. Tomasi, 
 M. Cossi, N. Rega, J. M. Millam, M. Klene, J. E. Knox, J. B. Cross, 
 V. Bakken, C. Adamo, J. Jaramillo, R. Gomperts, R. E. Stratmann, 
 O. Yazyev, A. J. Austin, R. Cammi, C. Pomelli, J. W. Ochterski, 
 R. L. Martin, K. Morokuma, V. G. Zakrzewski, G. A. Voth, 
 P. Salvador, J. J. Dannenberg, S. Dapprich, A. D. Daniels, 
 O. Farkas, J. B. Foresman, J. V. Ortiz, J. Cioslowski, 
 and D. J. Fox, Gaussian, Inc., Wallingford CT, 2009.
 
 ******************************************
 Gaussian 09:  AM64L-G09RevA.02 11-Jun-2009
                 5-Mar-2012 
 ******************************************
 %NprocShared=8
 Will use up to    8 processors via shared memory.
 %mem=19050MB
 %chk=S9L-ne-d-01
 -----------------------
 # G4 scfcyc=500 scf=xqc
 -----------------------
 1/14=-1,18=20,19=15,26=3,38=1/1,3;
 2/9=110,12=2,17=6,18=5,40=1/2;
 3/5=35,7=104,11=2,16=1,25=1,30=1,71=1,74=-5/1,2,3;
 4//1;
 5/5=2,7=500,8=3,13=1,38=5/2,8;
 6/7=2,8=2,9=2,10=2,28=1/1;
 7//1,2,3,16;
 1/14=-1,18=20,19=15/3(2);
 2/9=110/2;
 99//99;
 2/9=110/2;
 3/5=35,7=104,11=2,16=1,25=1,30=1,71=1,74=-5/1,2,3;
 4/5=5,16=3/1;
 5/5=2,7=500,8=3,13=1,38=5/2,8;
 7//1,2,3,16;
 1/14=-1,18=20,19=15/3(-5);
 2/9=110/2;
 6/7=2,8=2,9=2,10=2,19=2,28=1/1;
 99/9=1/99;
 --------
 si3-an-d
 --------
 Symbolic Z-matrix:
 Charge = -1 Multiplicity = 2
 Si                    0.        1.22703  -0.6339 
 Si                    0.       -1.22703  -0.6339 
 Si                    0.        0.        1.26781 
 

 GradGradGradGradGradGradGradGradGradGradGradGradGradGradGradGradGradGrad
 Berny optimization.
 Initialization pass.
                           ----------------------------
                           !    Initial Parameters    !
                           ! (Angstroms and Degrees)  !
 --------------------------                            --------------------------
 ! Name  Definition              Value          Derivative Info.                !
 --------------------------------------------------------------------------------
 ! R1    R(1,2)                  2.4541         estimate D2E/DX2                !
 ! R2    R(1,3)                  2.2632         estimate D2E/DX2                !
 ! R3    R(2,3)                  2.2632         estimate D2E/DX2                !
 --------------------------------------------------------------------------------
 Trust Radius=3.00D-01 FncErr=1.00D-07 GrdErr=1.00D-06
 Number of steps in this run=  20 maximum allowed number of steps= 100.
 GradGradGradGradGradGradGradGradGradGradGradGradGradGradGradGradGradGrad

                          Input orientation:                          
 ---------------------------------------------------------------------
 Center     Atomic      Atomic             Coordinates (Angstroms)
 Number     Number       Type             X           Y           Z
 ---------------------------------------------------------------------
      1         14           0        0.000000    1.227029   -0.633904
      2         14           0        0.000000   -1.227029   -0.633904
      3         14           0        0.000000    0.000000    1.267807
 ---------------------------------------------------------------------
                    Distance matrix (angstroms):
                    1          2          3
     1  Si   0.000000
     2  Si   2.454058   0.000000
     3  Si   2.263207   2.263207   0.000000
 Stoichiometry    Si3(1-,2)
 Framework group  C2V[C2(Si),SGV(Si2)]
 Deg. of freedom     2
 Full point group                 C2V     NOp   4
 Largest Abelian subgroup         C2V     NOp   4
 Largest concise Abelian subgroup C2      NOp   2
                         Standard orientation:                         
 ---------------------------------------------------------------------
 Center     Atomic      Atomic             Coordinates (Angstroms)
 Number     Number       Type             X           Y           Z
 ---------------------------------------------------------------------
      1         14           0        0.000000    1.227029   -0.633904
      2         14           0        0.000000   -1.227029   -0.633904
      3         14           0        0.000000    0.000000    1.267807
 ---------------------------------------------------------------------
 Rotational constants (GHZ):      7.4923729      5.9989814      3.3315118
 Standard basis: GTBas3 (6D, 7F)
 There are    37 symmetry adapted basis functions of A1  symmetry.
 There are    13 symmetry adapted basis functions of A2  symmetry.
 There are    17 symmetry adapted basis functions of B1  symmetry.
 There are    29 symmetry adapted basis functions of B2  symmetry.
 Integral buffers will be    131072 words long.
 Raffenetti 2 integral format.
 Two-electron integral symmetry is turned on.
    96 basis functions,   204 primitive gaussians,   105 cartesian basis functions
    22 alpha electrons       21 beta electrons
       nuclear repulsion energy       133.9206090106 Hartrees.
 NAtoms=    3 NActive=    3 NUniq=    2 SFac= 1.69D+00 NAtFMM=   80 NAOKFM=F Big=F
 One-electron integrals computed using PRISM.
 NBasis=    96 RedAO= T  NBF=    37    13    17    29
 NBsUse=    96 1.00D-06 NBFU=    37    13    17    29
 Harris functional with IExCor=  402 diagonalized for initial guess.
 ExpMin= 7.78D-02 ExpMax= 1.61D+04 ExpMxC= 2.43D+03 IAcc=2 IRadAn=         0 AccDes= 0.00D+00
 HarFok:  IExCor=  402 AccDes= 0.00D+00 IRadAn=         0 IDoV= 1
 ScaDFX=  1.000000  1.000000  1.000000  1.000000
 FoFCou: FMM=F IPFlag=           0 FMFlag=      100000 FMFlg1=           0
         NFxFlg=           0 DoJE=T BraDBF=F KetDBF=T FulRan=T
         Omega=  0.000000  0.000000  1.000000  0.000000  0.000000 ICntrl=     500 IOpCl=  0
         NMat0=    1 NMatS0=    1 NMatT0=    0 NMatD0=    1 NMtDS0=    0 NMtDT0=    0
         I1Cent=           4 NGrid=           0.
 Petite list used in FoFCou.
 Initial guess orbital symmetries:
 Alpha Orbitals:
       Occupied  (A1) (B2) (A1) (A1) (A1) (B2) (A1) (B2) (B1) (A1)
                 (B2) (B2) (A1) (A2) (B1) (A1) (B2) (A1) (B1) (A1)
                 (B2) (A1)
       Virtual   (A2) (B1) (B2) (B2) (A1) (A1) (B1) (A1) (A1) (B2)
                 (A1) (A2) (B1) (B2) (A1) (A2) (B1) (B1) (B2) (B2)
                 (A1) (B2) (A1) (A2) (B2) (A1) (A2) (B1) (A1) (B2)
                 (A1) (B2) (A1) (B1) (A1) (B2) (B1) (A1) (B2) (A1)
                 (B1) (A2) (A1) (B2) (A1) (A2) (B1) (B2) (B2) (A2)
                 (A1) (B1) (B2) (A1) (A2) (B2) (A1) (B1) (A2) (B1)
                 (B2) (A1) (B2) (A1) (B2) (A2) (B1) (A2) (A1) (A1)
                 (B2) (A1) (B2) (A1)
 Beta  Orbitals:
       Occupied  (A1) (B2) (A1) (A1) (A1) (B2) (A1) (B2) (B1) (A1)
                 (B2) (B2) (A1) (A2) (B1) (A1) (B2) (A1) (B1) (A1)
                 (B2)
       Virtual   (A1) (A2) (B1) (B2) (B2) (A1) (A1) (B1) (A1) (A1)
                 (B2) (A1) (A2) (B1) (B2) (A1) (A2) (B1) (B1) (B2)
                 (B2) (A1) (B2) (A1) (A2) (B2) (A1) (A2) (B1) (A1)
                 (B2) (A1) (B2) (A1) (B1) (A1) (B2) (B1) (A1) (B2)
                 (A1) (B1) (A2) (A1) (B2) (A1) (A2) (B1) (B2) (B2)
                 (A2) (A1) (B1) (B2) (A1) (A2) (B2) (A1) (B1) (A2)
                 (B1) (B2) (A1) (B2) (A1) (B2) (A2) (B1) (A2) (A1)
                 (A1) (B2) (A1) (B2) (A1)
 The electronic state of the initial guess is 2-A1.
 Initial guess <Sx>= 0.0000 <Sy>= 0.0000 <Sz>= 0.5000 <S**2>= 0.7500 S= 0.5000
 Requested convergence on RMS density matrix=1.00D-08 within 128 cycles.
 Requested convergence on MAX density matrix=1.00D-06.
 Requested convergence on             energy=1.00D-06.
 No special actions if energy rises.
 Keep R1 and R2 ints in memory in canonical form, NReq=32991127.
 Integral accuracy reduced to 1.0D-05 until final iterations.
 Initial convergence to 1.0D-05 achieved.  Increase integral accuracy.
 SCF Done:  E(UB3LYP) =  -868.451599426     A.U. after   17 cycles
             Convg  =    0.7776D-08             -V/T =  2.0033
 <Sx>= 0.0000 <Sy>= 0.0000 <Sz>= 0.5000 <S**2>= 0.7575 S= 0.5037
 <L.S>= 0.000000000000E+00
 Annihilation of the first spin contaminant:
 S**2 before annihilation     0.7575,   after     0.7500
 QCSCF skips out because SCF is already converged.

 **********************************************************************

            Population analysis using the SCF density.

 **********************************************************************

 Orbital symmetries:
 Alpha Orbitals:
       Occupied  (B2) (A1) (A1) (A1) (B2) (A1) (A1) (A2) (B1) (B2)
                 (A1) (B2) (B1) (A1) (B2) (A1) (B2) (A1) (A1) (B1)
                 (A1) (B2)
       Virtual   (A2) (B1) (B2) (B2) (A1) (A1) (A1) (B1) (B2) (A1)
                 (A1) (B2) (A1) (A2) (B1) (A2) (B1) (B2) (B1) (B2)
                 (A1) (B2) (A1) (A2) (B2) (A1) (A2) (A1) (B1) (B2)
                 (A1) (A1) (B2) (B1) (B2) (A1) (B2) (B1) (A1) (A1)
                 (B1) (A2) (A1) (B2) (A2) (A1) (B2) (B1) (B2) (A2)
                 (A1) (B1) (B2) (A2) (A1) (B2) (B1) (A1) (A2) (B1)
                 (B2) (A1) (B2) (B2) (A1) (A2) (B1) (A2) (A1) (A1)
                 (B2) (A1) (B2) (A1)
 Beta  Orbitals:
       Occupied  (B2) (A1) (A1) (A1) (B2) (A1) (A2) (B1) (A1) (B2)
                 (A1) (B2) (B1) (B2) (A1) (A1) (B2) (A1) (B1) (A1)
                 (B2)
       Virtual   (A1) (A2) (B1) (B2) (A1) (B2) (A1) (A1) (B1) (B2)
                 (A1) (A1) (B2) (A2) (A1) (B1) (A2) (B1) (B1) (B2)
                 (B2) (A1) (A1) (B2) (A2) (B2) (A1) (A2) (A1) (B1)
                 (B2) (A1) (A1) (B2) (B1) (B2) (B2) (A1) (A1) (B1)
                 (A1) (B1) (A2) (A1) (B2) (A2) (A1) (B2) (B1) (B2)
                 (A2) (A1) (B1) (B2) (A2) (A1) (B2) (B1) (A1) (A2)
                 (B1) (B2) (A1) (B2) (B2) (A1) (A2) (B1) (A2) (A1)
                 (A1) (B2) (A1) (B2) (A1)
 The electronic state is 2-A1.
 Alpha  occ. eigenvalues --  -65.93872 -65.93871 -65.92165  -5.08651  -5.08646
 Alpha  occ. eigenvalues --   -5.07135  -3.44645  -3.44640  -3.44640  -3.44636
 Alpha  occ. eigenvalues --   -3.44111  -3.44095  -3.43165  -3.42953  -3.42690
 Alpha  occ. eigenvalues --   -0.37302  -0.20458  -0.18458  -0.04853  -0.04647
 Alpha  occ. eigenvalues --   -0.01459  -0.01105
 Alpha virt. eigenvalues --    0.10239   0.11792   0.17589   0.20098   0.20218
 Alpha virt. eigenvalues --    0.28110   0.32628   0.34540   0.35845   0.36383
 Alpha virt. eigenvalues --    0.37482   0.39881   0.41498   0.42689   0.42784
 Alpha virt. eigenvalues --    0.44519   0.45152   0.46504   0.46680   0.48341
 Alpha virt. eigenvalues --    0.49408   0.56640   0.56814   0.61745   0.66354
 Alpha virt. eigenvalues --    0.68483   0.69520   0.70444   0.71544   0.85633
 Alpha virt. eigenvalues --    0.91678   0.93753   0.94357   1.00194   1.09711
 Alpha virt. eigenvalues --    1.09840   1.10971   1.11260   1.11474   1.12817
 Alpha virt. eigenvalues --    1.15755   1.16533   1.17397   1.25473   1.26932
 Alpha virt. eigenvalues --    1.28159   1.33865   1.34497   1.41273   1.45128
 Alpha virt. eigenvalues --    1.45894   1.49885   1.51368   1.56840   1.57758
 Alpha virt. eigenvalues --    1.60429   1.83496   1.83743   1.86740   1.90268
 Alpha virt. eigenvalues --    1.91292   1.92388   1.95042   2.02241   2.02941
 Alpha virt. eigenvalues --    2.03877   2.06055   2.08933   2.20969   2.25646
 Alpha virt. eigenvalues --    2.35017   2.62060   2.87613   2.88992
  Beta  occ. eigenvalues --  -65.93748 -65.93747 -65.92086  -5.08513  -5.08508
  Beta  occ. eigenvalues --   -5.07043  -3.44564  -3.44564  -3.44212  -3.44198
  Beta  occ. eigenvalues --   -3.44025  -3.44017  -3.43124  -3.42681  -3.42648
  Beta  occ. eigenvalues --   -0.36259  -0.18940  -0.16503  -0.04364  -0.03645
  Beta  occ. eigenvalues --   -0.00615
  Beta virt. eigenvalues --    0.05761   0.10639   0.12251   0.18937   0.20910
  Beta virt. eigenvalues --    0.20972   0.28551   0.33126   0.34761   0.36201
  Beta virt. eigenvalues --    0.37846   0.38829   0.40304   0.42943   0.43012
  Beta virt. eigenvalues --    0.44586   0.44667   0.45330   0.47313   0.47542
  Beta virt. eigenvalues --    0.48604   0.50109   0.57939   0.57950   0.62907
  Beta virt. eigenvalues --    0.67607   0.69229   0.69632   0.71245   0.72298
  Beta virt. eigenvalues --    0.86382   0.92489   0.94272   0.95248   1.01219
  Beta virt. eigenvalues --    1.10172   1.11359   1.11410   1.12116   1.12306
  Beta virt. eigenvalues --    1.13726   1.16372   1.17081   1.18364   1.26113
  Beta virt. eigenvalues --    1.28428   1.29552   1.34993   1.35080   1.41677
  Beta virt. eigenvalues --    1.45515   1.46548   1.50324   1.52704   1.57448
  Beta virt. eigenvalues --    1.58803   1.61486   1.84154   1.84509   1.86922
  Beta virt. eigenvalues --    1.90398   1.91607   1.92658   1.95432   2.03254
  Beta virt. eigenvalues --    2.03539   2.04310   2.06501   2.08954   2.21301
  Beta virt. eigenvalues --    2.26184   2.35448   2.62597   2.88255   2.89479
          Condensed to atoms (all electrons):
              1          2          3
     1  Si  13.778032   0.200373   0.341277
     2  Si   0.200373  13.778032   0.341277
     3  Si   0.341277   0.341277  13.678081
 Mulliken atomic charges:
              1
     1  Si  -0.319682
     2  Si  -0.319682
     3  Si  -0.360635
 Sum of Mulliken atomic charges =  -1.00000
 Mulliken charges with hydrogens summed into heavy atoms:
              1
     1  Si  -0.319682
     2  Si  -0.319682
     3  Si  -0.360635
 Sum of Mulliken charges with hydrogens summed into heavy atoms =  -1.00000
          Atomic-Atomic Spin Densities.
              1          2          3
     1  Si   0.356220   0.063741  -0.027875
     2  Si   0.063741   0.356220  -0.027875
     3  Si  -0.027875  -0.027875   0.271577
 Mulliken atomic spin densities:
              1
     1  Si   0.392086
     2  Si   0.392086
     3  Si   0.215827
 Sum of Mulliken atomic spin densities =   1.00000
 Electronic spatial extent (au):  <R**2>=            386.9351
 Charge=             -1.0000 electrons
 Dipole moment (field-independent basis, Debye):
    X=              0.0000    Y=              0.0000    Z=              0.3663  Tot=              0.3663
 Quadrupole moment (field-independent basis, Debye-Ang):
   XX=            -44.7450   YY=            -56.1045   ZZ=            -54.9761
   XY=              0.0000   XZ=              0.0000   YZ=              0.0000
 Traceless Quadrupole moment (field-independent basis, Debye-Ang):
   XX=              7.1968   YY=             -4.1626   ZZ=             -3.0342
   XY=              0.0000   XZ=              0.0000   YZ=              0.0000
 Octapole moment (field-independent basis, Debye-Ang**2):
  XXX=              0.0000  YYY=              0.0000  ZZZ=             -2.6522  XYY=              0.0000
  XXY=              0.0000  XXZ=              0.4253  XZZ=              0.0000  YZZ=              0.0000
  YYZ=             11.1579  XYZ=              0.0000
 Hexadecapole moment (field-independent basis, Debye-Ang**3):
 XXXX=            -92.2458 YYYY=           -426.5870 ZZZZ=           -363.5119 XXXY=              0.0000
 XXXZ=              0.0000 YYYX=              0.0000 YYYZ=              0.0000 ZZZX=              0.0000
 ZZZY=              0.0000 XXYY=            -79.0807 XXZZ=            -70.3151 YYZZ=           -140.4203
 XXYZ=              0.0000 YYXZ=              0.0000 ZZXY=              0.0000
 N-N= 1.339206090106D+02 E-N=-3.510440937578D+03  KE= 1.297821967647D+03
 Symmetry A1   KE= 7.534527043619D+02
 Symmetry A2   KE= 3.643744638232D+01
 Symmetry B1   KE= 7.523343182381D+01
 Symmetry B2   KE= 4.326983850793D+02
                          Isotropic Fermi Contact Couplings
        Atom                 a.u.       MegaHertz       Gauss      10(-4) cm-1
     1  Si(29)             0.02529     -22.47960      -8.02128      -7.49839
     2  Si(29)             0.02529     -22.47960      -8.02128      -7.49839
     3  Si(29)             0.09243     -82.14281     -29.31060     -27.39989
 --------------------------------------------------------
       Center         ----  Spin Dipole Couplings  ----
                      3XX-RR        3YY-RR        3ZZ-RR
 --------------------------------------------------------
     1   Atom       -0.350155      0.067349      0.282805
     2   Atom       -0.350155      0.067349      0.282805
     3   Atom       -0.228106     -0.303772      0.531878
 --------------------------------------------------------
                        XY            XZ            YZ
 --------------------------------------------------------
     1   Atom        0.000000      0.000000      0.543735
     2   Atom        0.000000      0.000000     -0.543735
     3   Atom        0.000000      0.000000      0.000000
 --------------------------------------------------------


 ---------------------------------------------------------------------------------
              Anisotropic Spin Dipole Couplings in Principal Axis System
 ---------------------------------------------------------------------------------

       Atom             a.u.   MegaHertz   Gauss  10(-4) cm-1        Axes

              Baa    -0.3792    40.230    14.355    13.419  0.0000  0.7728 -0.6347
     1 Si(29) Bbb    -0.3502    37.146    13.255    12.391  1.0000  0.0000  0.0000
              Bcc     0.7294   -77.376   -27.610   -25.810  0.0000  0.6347  0.7728
 
              Baa    -0.3792    40.230    14.355    13.419  0.0000  0.7728  0.6347
     2 Si(29) Bbb    -0.3502    37.146    13.255    12.391  1.0000  0.0000  0.0000
              Bcc     0.7294   -77.376   -27.610   -25.810  0.0000 -0.6347  0.7728
 
              Baa    -0.3038    32.225    11.499    10.749  0.0000  1.0000  0.0000
     3 Si(29) Bbb    -0.2281    24.198     8.635     8.072  1.0000  0.0000  0.0000
              Bcc     0.5319   -56.424   -20.133   -18.821  0.0000  0.0000  1.0000
 

 ---------------------------------------------------------------------------------

 Calling FoFJK, ICntrl=      2127 FMM=F ISym2X=1 I1Cent= 0 IOpClX= 1 NMat=1 NMatS=1 NMatT=0.
 ***** Axes restored to original set *****
 -------------------------------------------------------------------
 Center     Atomic                   Forces (Hartrees/Bohr)
 Number     Number              X              Y              Z
 -------------------------------------------------------------------
      1       14           0.000000000   -0.002240323    0.000930447
      2       14           0.000000000    0.002240323    0.000930447
      3       14           0.000000000    0.000000000   -0.001860894
 -------------------------------------------------------------------
 Cartesian Forces:  Max     0.002240323 RMS     0.001300961

 GradGradGradGradGradGradGradGradGradGradGradGradGradGradGradGradGradGrad
 Berny optimization.
 Internal  Forces:  Max     0.001639977 RMS     0.001309175
 Search for a local minimum.
 Step number   1 out of a maximum of   20
 All quantities printed in internal units (Hartrees-Bohrs-Radians)
 Mixed Optimization -- RFO/linear search
 Second derivative matrix not updated -- first step.
 The second derivative matrix:
                          R1        R2        R3
           R1           0.10221
           R2           0.00000   0.16090
           R3           0.00000   0.00000   0.16090
     Eigenvalues ---    0.10221   0.16090   0.16090
 RFO step:  Lambda=-4.15395266D-05 EMin= 1.02212610D-01
 Linear search not attempted -- first point.
 Iteration  1 RMS(Cart)=  0.00669997 RMS(Int)=  0.00000249
 Iteration  2 RMS(Cart)=  0.00000171 RMS(Int)=  0.00000000
 Iteration  3 RMS(Cart)=  0.00000000 RMS(Int)=  0.00000000
 ClnCor:  largest displacement from symmetrization is 7.43D-14 for atom     2.
 Variable       Old X    -DE/DX   Delta X   Delta X   Delta X     New X
                                 (Linear)    (Quad)   (Total)
    R1        4.63750  -0.00164   0.00000  -0.01604  -0.01604   4.62146
    R2        4.27684  -0.00111   0.00000  -0.00688  -0.00688   4.26996
    R3        4.27684  -0.00111   0.00000  -0.00688  -0.00688   4.26996
         Item               Value     Threshold  Converged?
 Maximum Force            0.001640     0.000450     NO 
 RMS     Force            0.001309     0.000300     NO 
 Maximum Displacement     0.008019     0.001800     NO 
 RMS     Displacement     0.006700     0.001200     NO 
 Predicted change in Energy=-2.077707D-05
 GradGradGradGradGradGradGradGradGradGradGradGradGradGradGradGradGradGrad

                          Input orientation:                          
 ---------------------------------------------------------------------
 Center     Atomic      Atomic             Coordinates (Angstroms)
 Number     Number       Type             X           Y           Z
 ---------------------------------------------------------------------
      1         14           0        0.000000    1.222785   -0.633372
      2         14           0        0.000000   -1.222785   -0.633372
      3         14           0        0.000000    0.000000    1.266742
 ---------------------------------------------------------------------
                    Distance matrix (angstroms):
                    1          2          3
     1  Si   0.000000
     2  Si   2.445571   0.000000
     3  Si   2.259566   2.259566   0.000000
 Stoichiometry    Si3(1-,2)
 Framework group  C2V[C2(Si),SGV(Si2)]
 Deg. of freedom     2
 Full point group                 C2V     NOp   4
 Largest Abelian subgroup         C2V     NOp   4
 Largest concise Abelian subgroup C2      NOp   2
                         Standard orientation:                         
 ---------------------------------------------------------------------
 Center     Atomic      Atomic             Coordinates (Angstroms)
 Number     Number       Type             X           Y           Z
 ---------------------------------------------------------------------
      1         14           0        0.000000    1.222785   -0.633371
      2         14           0        0.000000   -1.222785   -0.633371
      3         14           0        0.000000    0.000000    1.266743
 ---------------------------------------------------------------------
 Rotational constants (GHZ):      7.5049713      6.0406912      3.3468436
 Standard basis: GTBas3 (6D, 7F)
 There are    37 symmetry adapted basis functions of A1  symmetry.
 There are    13 symmetry adapted basis functions of A2  symmetry.
 There are    17 symmetry adapted basis functions of B1  symmetry.
 There are    29 symmetry adapted basis functions of B2  symmetry.
 Integral buffers will be    131072 words long.
 Raffenetti 2 integral format.
 Two-electron integral symmetry is turned on.
    96 basis functions,   204 primitive gaussians,   105 cartesian basis functions
    22 alpha electrons       21 beta electrons
       nuclear repulsion energy       134.2149690464 Hartrees.
 NAtoms=    3 NActive=    3 NUniq=    2 SFac= 1.69D+00 NAtFMM=   80 NAOKFM=F Big=F
 One-electron integrals computed using PRISM.
 NBasis=    96 RedAO= T  NBF=    37    13    17    29
 NBsUse=    96 1.00D-06 NBFU=    37    13    17    29
 Initial guess read from the read-write file.
 B after Tr=     0.000000    0.000000    0.000000
         Rot=    1.000000    0.000000    0.000000    0.000000 Ang=   0.00 deg.
 Initial guess orbital symmetries:
 Alpha Orbitals:
       Occupied  (B2) (A1) (A1) (A1) (B2) (A1) (A1) (A2) (B1) (B2)
                 (A1) (B2) (B1) (A1) (B2) (A1) (B2) (A1) (A1) (B1)
                 (A1) (B2)
       Virtual   (A2) (B1) (B2) (B2) (A1) (A1) (A1) (B1) (B2) (A1)
                 (A1) (B2) (A1) (A2) (B1) (A2) (B1) (B2) (B1) (B2)
                 (A1) (B2) (A1) (A2) (B2) (A1) (A2) (A1) (B1) (B2)
                 (A1) (A1) (B2) (B1) (B2) (A1) (B2) (B1) (A1) (A1)
                 (B1) (A2) (A1) (B2) (A2) (A1) (B2) (B1) (B2) (A2)
                 (A1) (B1) (B2) (A2) (A1) (B2) (B1) (A1) (A2) (B1)
                 (B2) (A1) (B2) (B2) (A1) (A2) (B1) (A2) (A1) (A1)
                 (B2) (A1) (B2) (A1)
 Beta  Orbitals:
       Occupied  (B2) (A1) (A1) (A1) (B2) (A1) (A2) (B1) (A1) (B2)
                 (A1) (B2) (B1) (B2) (A1) (A1) (B2) (A1) (B1) (A1)
                 (B2)
       Virtual   (A1) (A2) (B1) (B2) (A1) (B2) (A1) (A1) (B1) (B2)
                 (A1) (A1) (B2) (A2) (A1) (B1) (A2) (B1) (B1) (B2)
                 (B2) (A1) (A1) (B2) (A2) (B2) (A1) (A2) (A1) (B1)
                 (B2) (A1) (A1) (B2) (B1) (B2) (B2) (A1) (A1) (B1)
                 (A1) (B1) (A2) (A1) (B2) (A2) (A1) (B2) (B1) (B2)
                 (A2) (A1) (B1) (B2) (A2) (A1) (B2) (B1) (A1) (A2)
                 (B1) (B2) (A1) (B2) (B2) (A1) (A2) (B1) (A2) (A1)
                 (A1) (B2) (A1) (B2) (A1)
 Initial guess <Sx>= 0.0000 <Sy>= 0.0000 <Sz>= 0.5000 <S**2>= 0.7575 S= 0.5037
 Requested convergence on RMS density matrix=1.00D-08 within 128 cycles.
 Requested convergence on MAX density matrix=1.00D-06.
 Requested convergence on             energy=1.00D-06.
 No special actions if energy rises.
 Keep R1 and R2 ints in memory in canonical form, NReq=32991127.
 SCF Done:  E(UB3LYP) =  -868.451629029     A.U. after   11 cycles
             Convg  =    0.5277D-08             -V/T =  2.0033
 <Sx>= 0.0000 <Sy>= 0.0000 <Sz>= 0.5000 <S**2>= 0.7574 S= 0.5037
 <L.S>= 0.000000000000E+00
 Annihilation of the first spin contaminant:
 S**2 before annihilation     0.7574,   after     0.7500
 QCSCF skips out because SCF is already converged.
 Calling FoFJK, ICntrl=      2127 FMM=F ISym2X=1 I1Cent= 0 IOpClX= 1 NMat=1 NMatS=1 NMatT=0.
 ***** Axes restored to original set *****
 -------------------------------------------------------------------
 Center     Atomic                   Forces (Hartrees/Bohr)
 Number     Number              X              Y              Z
 -------------------------------------------------------------------
      1       14           0.000000000   -0.000976881    0.000314332
      2       14           0.000000000    0.000976881    0.000314332
      3       14           0.000000000    0.000000000   -0.000628665
 -------------------------------------------------------------------
 Cartesian Forces:  Max     0.000976881 RMS     0.000527196

 GradGradGradGradGradGradGradGradGradGradGradGradGradGradGradGradGradGrad
 Berny optimization.
 Using GEDIIS/GDIIS optimizer.
 Internal  Forces:  Max     0.000774598 RMS     0.000541433
 Search for a local minimum.
 Step number   2 out of a maximum of   20
 All quantities printed in internal units (Hartrees-Bohrs-Radians)
 Mixed Optimization -- En-DIIS/RFO-DIIS
 Update second derivatives using D2CorX and points    1    2
 DE= -2.96D-05 DEPred=-2.08D-05 R= 1.42D+00
 SS=  1.41D+00  RLast= 1.88D-02 DXNew= 5.0454D-01 5.6277D-02
 Trust test= 1.42D+00 RLast= 1.88D-02 DXMaxT set to 3.00D-01
 The second derivative matrix:
                          R1        R2        R3
           R1           0.06874
           R2          -0.01722   0.15383
           R3          -0.01722  -0.00707   0.15383
 Use linear search instead of GDIIS.
     Eigenvalues ---    0.06176   0.15374   0.16090
 RFO step:  Lambda=-5.00207237D-07 EMin= 6.17552835D-02
 Quartic linear search produced a step of  0.71733.
 Iteration  1 RMS(Cart)=  0.00533192 RMS(Int)=  0.00000255
 Iteration  2 RMS(Cart)=  0.00000175 RMS(Int)=  0.00000000
 Iteration  3 RMS(Cart)=  0.00000000 RMS(Int)=  0.00000000
 ClnCor:  largest displacement from symmetrization is 7.73D-14 for atom     2.
 Variable       Old X    -DE/DX   Delta X   Delta X   Delta X     New X
                                 (Linear)    (Quad)   (Total)
    R1        4.62146  -0.00077  -0.01150  -0.00154  -0.01304   4.60842
    R2        4.26996  -0.00037  -0.00494   0.00091  -0.00403   4.26593
    R3        4.26996  -0.00037  -0.00494   0.00091  -0.00403   4.26593
         Item               Value     Threshold  Converged?
 Maximum Force            0.000775     0.000450     NO 
 RMS     Force            0.000541     0.000300     NO 
 Maximum Displacement     0.006521     0.001800     NO 
 RMS     Displacement     0.005332     0.001200     NO 
 Predicted change in Energy=-6.696390D-06
 GradGradGradGradGradGradGradGradGradGradGradGradGradGradGradGradGradGrad

                          Input orientation:                          
 ---------------------------------------------------------------------
 Center     Atomic      Atomic             Coordinates (Angstroms)
 Number     Number       Type             X           Y           Z
 ---------------------------------------------------------------------
      1         14           0        0.000000    1.219335   -0.633266
      2         14           0        0.000000   -1.219335   -0.633266
      3         14           0        0.000000    0.000000    1.266532
 ---------------------------------------------------------------------
                    Distance matrix (angstroms):
                    1          2          3
     1  Si   0.000000
     2  Si   2.438669   0.000000
     3  Si   2.257434   2.257434   0.000000
 Stoichiometry    Si3(1-,2)
 Framework group  C2V[C2(Si),SGV(Si2)]
 Deg. of freedom     2
 Full point group                 C2V     NOp   4
 Largest Abelian subgroup         C2V     NOp   4
 Largest concise Abelian subgroup C2      NOp   2
                         Standard orientation:                         
 ---------------------------------------------------------------------
 Center     Atomic      Atomic             Coordinates (Angstroms)
 Number     Number       Type             X           Y           Z
 ---------------------------------------------------------------------
      1         14           0        0.000000    1.219335   -0.633266
      2         14           0        0.000000   -1.219335   -0.633266
      3         14           0        0.000000    0.000000    1.266532
 ---------------------------------------------------------------------
 Rotational constants (GHZ):      7.5074691      6.0749316      3.3578277
 Standard basis: GTBas3 (6D, 7F)
 There are    37 symmetry adapted basis functions of A1  symmetry.
 There are    13 symmetry adapted basis functions of A2  symmetry.
 There are    17 symmetry adapted basis functions of B1  symmetry.
 There are    29 symmetry adapted basis functions of B2  symmetry.
 Integral buffers will be    131072 words long.
 Raffenetti 2 integral format.
 Two-electron integral symmetry is turned on.
    96 basis functions,   204 primitive gaussians,   105 cartesian basis functions
    22 alpha electrons       21 beta electrons
       nuclear repulsion energy       134.4216869178 Hartrees.
 NAtoms=    3 NActive=    3 NUniq=    2 SFac= 1.69D+00 NAtFMM=   80 NAOKFM=F Big=F
 One-electron integrals computed using PRISM.
 NBasis=    96 RedAO= T  NBF=    37    13    17    29
 NBsUse=    96 1.00D-06 NBFU=    37    13    17    29
 Initial guess read from the read-write file.
 B after Tr=     0.000000    0.000000    0.000000
         Rot=    1.000000    0.000000    0.000000    0.000000 Ang=   0.00 deg.
 Initial guess orbital symmetries:
 Alpha Orbitals:
       Occupied  (B2) (A1) (A1) (A1) (B2) (A1) (A1) (A2) (B1) (B2)
                 (A1) (B2) (B1) (A1) (B2) (A1) (B2) (A1) (A1) (B1)
                 (A1) (B2)
       Virtual   (A2) (B1) (B2) (B2) (A1) (A1) (A1) (B1) (B2) (A1)
                 (A1) (B2) (A1) (A2) (B1) (A2) (B1) (B2) (B1) (B2)
                 (A1) (B2) (A1) (A2) (B2) (A1) (A2) (A1) (B1) (B2)
                 (A1) (A1) (B2) (B1) (B2) (A1) (B2) (B1) (A1) (A1)
                 (B1) (A2) (A1) (B2) (A2) (A1) (B2) (B1) (B2) (A2)
                 (A1) (B1) (B2) (A2) (A1) (B2) (B1) (A1) (A2) (B1)
                 (B2) (A1) (B2) (B2) (A1) (A2) (B1) (A2) (A1) (A1)
                 (B2) (A1) (B2) (A1)
 Beta  Orbitals:
       Occupied  (B2) (A1) (A1) (A1) (B2) (A1) (A2) (B1) (A1) (B2)
                 (A1) (B2) (B1) (B2) (A1) (A1) (B2) (A1) (B1) (A1)
                 (B2)
       Virtual   (A1) (A2) (B1) (B2) (A1) (B2) (A1) (A1) (B1) (B2)
                 (A1) (A1) (B2) (A2) (A1) (B1) (A2) (B1) (B1) (B2)
                 (B2) (A1) (B2) (A1) (A2) (B2) (A1) (A2) (A1) (B1)
                 (B2) (A1) (A1) (B2) (B1) (B2) (B2) (A1) (A1) (B1)
                 (A1) (B1) (A2) (A1) (B2) (A2) (A1) (B1) (B2) (B2)
                 (A2) (A1) (B1) (B2) (A2) (A1) (B2) (B1) (A1) (A2)
                 (B1) (B2) (A1) (B2) (B2) (A1) (A2) (B1) (A2) (A1)
                 (A1) (B2) (A1) (B2) (A1)
 Initial guess <Sx>= 0.0000 <Sy>= 0.0000 <Sz>= 0.5000 <S**2>= 0.7574 S= 0.5037
 Requested convergence on RMS density matrix=1.00D-08 within 128 cycles.
 Requested convergence on MAX density matrix=1.00D-06.
 Requested convergence on             energy=1.00D-06.
 No special actions if energy rises.
 Keep R1 and R2 ints in memory in canonical form, NReq=32991127.
 SCF Done:  E(UB3LYP) =  -868.451635690     A.U. after   11 cycles
             Convg  =    0.3862D-08             -V/T =  2.0033
 <Sx>= 0.0000 <Sy>= 0.0000 <Sz>= 0.5000 <S**2>= 0.7574 S= 0.5037
 <L.S>= 0.000000000000E+00
 Annihilation of the first spin contaminant:
 S**2 before annihilation     0.7574,   after     0.7500
 QCSCF skips out because SCF is already converged.
 Calling FoFJK, ICntrl=      2127 FMM=F ISym2X=1 I1Cent= 0 IOpClX= 1 NMat=1 NMatS=1 NMatT=0.
 ***** Axes restored to original set *****
 -------------------------------------------------------------------
 Center     Atomic                   Forces (Hartrees/Bohr)
 Number     Number              X              Y              Z
 -------------------------------------------------------------------
      1       14           0.000000000   -0.000016982   -0.000050703
      2       14           0.000000000    0.000016982   -0.000050703
      3       14           0.000000000    0.000000000    0.000101406
 -------------------------------------------------------------------
 Cartesian Forces:  Max     0.000101406 RMS     0.000042166

 GradGradGradGradGradGradGradGradGradGradGradGradGradGradGradGradGradGrad
 Berny optimization.
 Using GEDIIS/GDIIS optimizer.
 Internal  Forces:  Max     0.000060248 RMS     0.000056898
 Search for a local minimum.
 Step number   3 out of a maximum of   20
 All quantities printed in internal units (Hartrees-Bohrs-Radians)
 Mixed Optimization -- En-DIIS/RFO-DIIS
 Swaping is turned off.
 Update second derivatives using D2CorX and points    1    2    3
 DE= -6.66D-06 DEPred=-6.70D-06 R= 9.95D-01
 SS=  1.41D+00  RLast= 1.42D-02 DXNew= 5.0454D-01 4.2697D-02
 Trust test= 9.95D-01 RLast= 1.42D-02 DXMaxT set to 3.00D-01
 The second derivative matrix:
                          R1        R2        R3
           R1           0.06476
           R2          -0.01483   0.15834
           R3          -0.01483  -0.00256   0.15834
     Eigenvalues ---    0.06015   0.16038   0.16090
 En-DIIS/RFO-DIIS IScMMF=        0 using points:     3    2
 RFO step:  Lambda=-2.56853530D-08.
 DIIS coeffs:      1.01239     -0.01239
 Iteration  1 RMS(Cart)=  0.00037354 RMS(Int)=  0.00000003
 Iteration  2 RMS(Cart)=  0.00000001 RMS(Int)=  0.00000000
 ClnCor:  largest displacement from symmetrization is 1.05D-13 for atom     2.
 Variable       Old X    -DE/DX   Delta X   Delta X   Delta X     New X
                                  (DIIS)     (GDIIS)  (Total)
    R1        4.60842  -0.00005  -0.00016  -0.00045  -0.00061   4.60780
    R2        4.26593   0.00006  -0.00005   0.00038   0.00033   4.26626
    R3        4.26593   0.00006  -0.00005   0.00038   0.00033   4.26626
         Item               Value     Threshold  Converged?
 Maximum Force            0.000060     0.000450     YES
 RMS     Force            0.000057     0.000300     YES
 Maximum Displacement     0.000391     0.001800     YES
 RMS     Displacement     0.000374     0.001200     YES
 Predicted change in Energy=-3.499100D-08
 Optimization completed.
    -- Stationary point found.
                           ----------------------------
                           !   Optimized Parameters   !
                           ! (Angstroms and Degrees)  !
 --------------------------                            --------------------------
 ! Name  Definition              Value          Derivative Info.                !
 --------------------------------------------------------------------------------
 ! R1    R(1,2)                  2.4387         -DE/DX =    0.0                 !
 ! R2    R(1,3)                  2.2574         -DE/DX =    0.0001              !
 ! R3    R(2,3)                  2.2574         -DE/DX =    0.0001              !
 --------------------------------------------------------------------------------
 GradGradGradGradGradGradGradGradGradGradGradGradGradGradGradGradGradGrad

                          Input orientation:                          
 ---------------------------------------------------------------------
 Center     Atomic      Atomic             Coordinates (Angstroms)
 Number     Number       Type             X           Y           Z
 ---------------------------------------------------------------------
      1         14           0        0.000000    1.219335   -0.633266
      2         14           0        0.000000   -1.219335   -0.633266
      3         14           0        0.000000    0.000000    1.266532
 ---------------------------------------------------------------------
                    Distance matrix (angstroms):
                    1          2          3
     1  Si   0.000000
     2  Si   2.438669   0.000000
     3  Si   2.257434   2.257434   0.000000
 Stoichiometry    Si3(1-,2)
 Framework group  C2V[C2(Si),SGV(Si2)]
 Deg. of freedom     2
 Full point group                 C2V     NOp   4
 Largest Abelian subgroup         C2V     NOp   4
 Largest concise Abelian subgroup C2      NOp   2
                         Standard orientation:                         
 ---------------------------------------------------------------------
 Center     Atomic      Atomic             Coordinates (Angstroms)
 Number     Number       Type             X           Y           Z
 ---------------------------------------------------------------------
      1         14           0        0.000000    1.219335   -0.633266
      2         14           0        0.000000   -1.219335   -0.633266
      3         14           0        0.000000    0.000000    1.266532
 ---------------------------------------------------------------------
 Rotational constants (GHZ):      7.5074691      6.0749316      3.3578277

 **********************************************************************

            Population analysis using the SCF density.

 **********************************************************************

 Orbital symmetries:
 Alpha Orbitals:
       Occupied  (B2) (A1) (A1) (A1) (B2) (A1) (A1) (B1) (A2) (B2)
                 (A1) (B2) (B1) (A1) (B2) (A1) (B2) (A1) (A1) (B1)
                 (A1) (B2)
       Virtual   (A2) (B1) (B2) (B2) (A1) (A1) (A1) (B1) (B2) (A1)
                 (A1) (B2) (A1) (A2) (B1) (A2) (B1) (B2) (B1) (B2)
                 (A1) (B2) (A1) (A2) (B2) (A1) (A2) (A1) (B1) (B2)
                 (A1) (A1) (B2) (B1) (B2) (A1) (B2) (B1) (A1) (A1)
                 (B1) (A2) (A1) (B2) (A2) (A1) (B2) (B1) (B2) (A2)
                 (A1) (B1) (B2) (A2) (A1) (B2) (B1) (A1) (A2) (B1)
                 (B2) (A1) (B2) (B2) (A1) (A2) (B1) (A2) (A1) (A1)
                 (B2) (A1) (B2) (A1)
 Beta  Orbitals:
       Occupied  (B2) (A1) (A1) (A1) (B2) (A1) (B1) (A2) (A1) (B2)
                 (A1) (B2) (B1) (B2) (A1) (A1) (B2) (A1) (B1) (A1)
                 (B2)
       Virtual   (A1) (A2) (B1) (B2) (A1) (B2) (A1) (A1) (B1) (B2)
                 (A1) (A1) (B2) (A2) (A1) (B1) (A2) (B1) (B1) (B2)
                 (B2) (A1) (B2) (A1) (A2) (B2) (A1) (A2) (A1) (B1)
                 (B2) (A1) (A1) (B2) (B1) (B2) (B2) (A1) (A1) (B1)
                 (A1) (B1) (A2) (A1) (B2) (A2) (A1) (B1) (B2) (B2)
                 (A2) (A1) (B1) (B2) (A2) (A1) (B2) (B1) (A1) (A2)
                 (B1) (B2) (A1) (B2) (B2) (A1) (A2) (B1) (A2) (A1)
                 (A1) (B2) (A1) (B2) (A1)
 The electronic state is 2-A1.
 Alpha  occ. eigenvalues --  -65.93790 -65.93790 -65.92115  -5.08586  -5.08580
 Alpha  occ. eigenvalues --   -5.07102  -3.44581  -3.44573  -3.44573  -3.44570
 Alpha  occ. eigenvalues --   -3.44045  -3.44029  -3.43132  -3.42919  -3.42654
 Alpha  occ. eigenvalues --   -0.37455  -0.20385  -0.18487  -0.04866  -0.04719
 Alpha  occ. eigenvalues --   -0.01484  -0.01052
 Alpha virt. eigenvalues --    0.10321   0.11802   0.17754   0.20151   0.20248
 Alpha virt. eigenvalues --    0.28098   0.32593   0.34459   0.35877   0.36357
 Alpha virt. eigenvalues --    0.37491   0.39990   0.41502   0.42728   0.42802
 Alpha virt. eigenvalues --    0.44571   0.45139   0.46577   0.46737   0.48419
 Alpha virt. eigenvalues --    0.49461   0.56809   0.56996   0.61939   0.66548
 Alpha virt. eigenvalues --    0.68595   0.69711   0.70480   0.71678   0.86050
 Alpha virt. eigenvalues --    0.91866   0.93728   0.94596   1.00148   1.09854
 Alpha virt. eigenvalues --    1.10019   1.11071   1.11513   1.11605   1.12780
 Alpha virt. eigenvalues --    1.15838   1.16668   1.17448   1.25702   1.27271
 Alpha virt. eigenvalues --    1.28246   1.34108   1.34524   1.41601   1.45524
 Alpha virt. eigenvalues --    1.46136   1.50049   1.51841   1.57118   1.58029
 Alpha virt. eigenvalues --    1.60455   1.83742   1.83943   1.86902   1.90540
 Alpha virt. eigenvalues --    1.91302   1.92425   1.94491   2.02480   2.03117
 Alpha virt. eigenvalues --    2.04070   2.05909   2.08840   2.21758   2.25846
 Alpha virt. eigenvalues --    2.35189   2.62102   2.87814   2.89010
  Beta  occ. eigenvalues --  -65.93666 -65.93666 -65.92036  -5.08447  -5.08442
  Beta  occ. eigenvalues --   -5.07008  -3.44497  -3.44497  -3.44145  -3.44128
  Beta  occ. eigenvalues --   -3.43960  -3.43951  -3.43090  -3.42644  -3.42614
  Beta  occ. eigenvalues --   -0.36410  -0.18856  -0.16521  -0.04435  -0.03650
  Beta  occ. eigenvalues --   -0.00574
  Beta virt. eigenvalues --    0.05747   0.10724   0.12263   0.19078   0.20940
  Beta virt. eigenvalues --    0.21041   0.28539   0.33094   0.34681   0.36235
  Beta virt. eigenvalues --    0.37820   0.38860   0.40423   0.42981   0.42989
  Beta virt. eigenvalues --    0.44639   0.44714   0.45308   0.47356   0.47619
  Beta virt. eigenvalues --    0.48679   0.50167   0.58098   0.58120   0.63096
  Beta virt. eigenvalues --    0.67809   0.69353   0.69839   0.71279   0.72432
  Beta virt. eigenvalues --    0.86806   0.92680   0.94250   0.95496   1.01184
  Beta virt. eigenvalues --    1.10316   1.11454   1.11580   1.12238   1.12541
  Beta virt. eigenvalues --    1.13693   1.16473   1.17214   1.18430   1.26339
  Beta virt. eigenvalues --    1.28759   1.29643   1.35108   1.35220   1.42026
  Beta virt. eigenvalues --    1.45910   1.46793   1.50489   1.53181   1.57734
  Beta virt. eigenvalues --    1.59080   1.61508   1.84408   1.84703   1.87081
  Beta virt. eigenvalues --    1.90665   1.91641   1.92697   1.94862   2.03494
  Beta virt. eigenvalues --    2.03721   2.04499   2.06357   2.08872   2.22082
  Beta virt. eigenvalues --    2.26405   2.35620   2.62638   2.88457   2.89499
          Condensed to atoms (all electrons):
              1          2          3
     1  Si  13.775442   0.202837   0.341467
     2  Si   0.202837  13.775442   0.341467
     3  Si   0.341467   0.341467  13.677573
 Mulliken atomic charges:
              1
     1  Si  -0.319746
     2  Si  -0.319746
     3  Si  -0.360507
 Sum of Mulliken atomic charges =  -1.00000
 Mulliken charges with hydrogens summed into heavy atoms:
              1
     1  Si  -0.319746
     2  Si  -0.319746
     3  Si  -0.360507
 Sum of Mulliken charges with hydrogens summed into heavy atoms =  -1.00000
          Atomic-Atomic Spin Densities.
              1          2          3
     1  Si   0.355386   0.063759  -0.027836
     2  Si   0.063759   0.355386  -0.027836
     3  Si  -0.027836  -0.027836   0.273055
 Mulliken atomic spin densities:
              1
     1  Si   0.391309
     2  Si   0.391309
     3  Si   0.217383
 Sum of Mulliken atomic spin densities =   1.00000
 Electronic spatial extent (au):  <R**2>=            384.7247
 Charge=             -1.0000 electrons
 Dipole moment (field-independent basis, Debye):
    X=              0.0000    Y=              0.0000    Z=              0.3768  Tot=              0.3768
 Quadrupole moment (field-independent basis, Debye-Ang):
   XX=            -44.6928   YY=            -56.0568   ZZ=            -54.9605
   XY=              0.0000   XZ=              0.0000   YZ=              0.0000
 Traceless Quadrupole moment (field-independent basis, Debye-Ang):
   XX=              7.2105   YY=             -4.1534   ZZ=             -3.0571
   XY=              0.0000   XZ=              0.0000   YZ=              0.0000
 Octapole moment (field-independent basis, Debye-Ang**2):
  XXX=              0.0000  YYY=              0.0000  ZZZ=             -2.6527  XYY=              0.0000
  XXY=              0.0000  XXZ=              0.4434  XZZ=              0.0000  YZZ=              0.0000
  YYZ=             11.1357  XYZ=              0.0000
 Hexadecapole moment (field-independent basis, Debye-Ang**3):
 XXXX=            -92.0127 YYYY=           -422.7978 ZZZZ=           -362.9712 XXXY=              0.0000
 XXXZ=              0.0000 YYYX=              0.0000 YYYZ=              0.0000 ZZZX=              0.0000
 ZZZY=              0.0000 XXYY=            -78.4793 XXZZ=            -70.1717 YYZZ=           -139.7568
 XXYZ=              0.0000 YYXZ=              0.0000 ZZXY=              0.0000
 N-N= 1.344216869178D+02 E-N=-3.511972180720D+03  KE= 1.297844250189D+03
 Symmetry A1   KE= 7.534723372133D+02
 Symmetry A2   KE= 3.643646295316D+01
 Symmetry B1   KE= 7.523845632260D+01
 Symmetry B2   KE= 4.326969937001D+02
                          Isotropic Fermi Contact Couplings
        Atom                 a.u.       MegaHertz       Gauss      10(-4) cm-1
     1  Si(29)             0.02558     -22.73574      -8.11268      -7.58383
     2  Si(29)             0.02558     -22.73574      -8.11268      -7.58383
     3  Si(29)             0.09411     -83.63626     -29.84350     -27.89806
 --------------------------------------------------------
       Center         ----  Spin Dipole Couplings  ----
                      3XX-RR        3YY-RR        3ZZ-RR
 --------------------------------------------------------
     1   Atom       -0.351716      0.078150      0.273566
     2   Atom       -0.351716      0.078150      0.273566
     3   Atom       -0.228883     -0.302642      0.531525
 --------------------------------------------------------
                        XY            XZ            YZ
 --------------------------------------------------------
     1   Atom        0.000000      0.000000      0.546340
     2   Atom        0.000000      0.000000     -0.546340
     3   Atom        0.000000      0.000000      0.000000
 --------------------------------------------------------


 ---------------------------------------------------------------------------------
              Anisotropic Spin Dipole Couplings in Principal Axis System
 ---------------------------------------------------------------------------------

       Atom             a.u.   MegaHertz   Gauss  10(-4) cm-1        Axes

              Baa    -0.3792    40.222    14.352    13.417  0.0000  0.7668 -0.6419
     1 Si(29) Bbb    -0.3517    37.311    13.314    12.446  1.0000  0.0000  0.0000
              Bcc     0.7309   -77.533   -27.666   -25.862  0.0000  0.6419  0.7668
 
              Baa    -0.3792    40.222    14.352    13.417  0.0000  0.7668  0.6419
     2 Si(29) Bbb    -0.3517    37.311    13.314    12.446  1.0000  0.0000  0.0000
              Bcc     0.7309   -77.533   -27.666   -25.862  0.0000 -0.6419  0.7668
 
              Baa    -0.3026    32.105    11.456    10.709  0.0000  1.0000  0.0000
     3 Si(29) Bbb    -0.2289    24.281     8.664     8.099  1.0000  0.0000  0.0000
              Bcc     0.5315   -56.386   -20.120   -18.808  0.0000  0.0000  1.0000
 

 ---------------------------------------------------------------------------------

 1\1\GINC-NODE190\FOpt\UB3LYP\GTBas3\Si3(1-,2)\TAM\05-Mar-2012\0\\# G4 
 scfcyc=500 scf=xqc\\si3-an-d\\-1,2\Si,0.,1.2193345702,-0.6332663479\Si
 ,0.,-1.2193345702,-0.6332663479\Si,0.,0.,1.2665316957\\Version=AM64L-G
 09RevA.02\State=2-A1\HF=-868.4516357\S2=0.757402\S2-1=0.\S2A=0.750043\
 RMSD=3.862e-09\RMSF=4.217e-05\Dipole=0.,0.,0.1482622\Quadrupole=5.3608
 647,-3.0879614,-2.2729032,0.,0.,0.\PG=C02V [C2(Si1),SGV(Si2)]\\@


 A MAN BEGINS CUTTING HIS WISDOM TEETH THE 1ST
 TIME HE BITES OFF MORE THAN HE CAN CHEW.
 Job cpu time:  0 days  0 hours  2 minutes 25.0 seconds.
 File lengths (MBytes):  RWF=      9 Int=      0 D2E=      0 Chk=      4 Scr=      1
 Normal termination of Gaussian 09 at Mon Mar  5 12:00:57 2012.
 Link1:  Proceeding to internal job step number  2.
 ----------------------------------------------------------
 #N Geom=AllCheck Guess=TCheck SCRF=Check B3LYP/GTBas3 Freq
 ----------------------------------------------------------
 1/10=4,29=7,30=1,38=1,40=1/1,3;
 2/12=2,40=1/2;
 3/5=35,11=2,14=-4,16=1,25=1,30=1,70=2,71=2,74=-5,116=-2/1,2,3;
 4/5=101/1;
 5/5=2,7=500,8=3,13=1,98=1/2,8;
 8/6=4,10=90,11=11/1;
 11/6=1,8=1,9=11,15=111,16=1/1,2,10;
 10/6=1/2;
 6/7=2,8=2,9=2,10=2,18=1,28=1/1;
 7/8=1,10=1,25=1/1,2,3,16;
 1/10=4,30=1/3;
 99//99;
 --------
 si3-an-d
 --------
 Redundant internal coordinates taken from checkpoint file:
 S9L-ne-d-01.chk
 Charge = -1 Multiplicity = 2
 Si,0,0.,1.2193345702,-0.6332663479
 Si,0,0.,-1.2193345702,-0.6332663479
 Si,0,0.,0.,1.2665316957
 Recover connectivity data from disk.

 GradGradGradGradGradGradGradGradGradGradGradGradGradGradGradGradGradGrad
 Berny optimization.
 Initialization pass.
                           ----------------------------
                           !    Initial Parameters    !
                           ! (Angstroms and Degrees)  !
 --------------------------                            --------------------------
 ! Name  Definition              Value          Derivative Info.                !
 --------------------------------------------------------------------------------
 ! R1    R(1,2)                  2.4387         calculate D2E/DX2 analytically  !
 ! R2    R(1,3)                  2.2574         calculate D2E/DX2 analytically  !
 ! R3    R(2,3)                  2.2574         calculate D2E/DX2 analytically  !
 --------------------------------------------------------------------------------
 Trust Radius=3.00D-01 FncErr=1.00D-07 GrdErr=1.00D-07
 Number of steps in this run=   2 maximum allowed number of steps=   2.
 GradGradGradGradGradGradGradGradGradGradGradGradGradGradGradGradGradGrad

                          Input orientation:                          
 ---------------------------------------------------------------------
 Center     Atomic      Atomic             Coordinates (Angstroms)
 Number     Number       Type             X           Y           Z
 ---------------------------------------------------------------------
      1         14           0        0.000000    1.219335   -0.633266
      2         14           0        0.000000   -1.219335   -0.633266
      3         14           0        0.000000    0.000000    1.266532
 ---------------------------------------------------------------------
                    Distance matrix (angstroms):
                    1          2          3
     1  Si   0.000000
     2  Si   2.438669   0.000000
     3  Si   2.257434   2.257434   0.000000
 Stoichiometry    Si3(1-,2)
 Framework group  C2V[C2(Si),SGV(Si2)]
 Deg. of freedom     2
 Full point group                 C2V     NOp   4
 Largest Abelian subgroup         C2V     NOp   4
 Largest concise Abelian subgroup C2      NOp   2
                         Standard orientation:                         
 ---------------------------------------------------------------------
 Center     Atomic      Atomic             Coordinates (Angstroms)
 Number     Number       Type             X           Y           Z
 ---------------------------------------------------------------------
      1         14           0        0.000000    1.219335   -0.633266
      2         14           0        0.000000   -1.219335   -0.633266
      3         14           0        0.000000    0.000000    1.266532
 ---------------------------------------------------------------------
 Rotational constants (GHZ):      7.5074691      6.0749316      3.3578277
 Standard basis: GTBas3 (6D, 7F)
 There are    37 symmetry adapted basis functions of A1  symmetry.
 There are    13 symmetry adapted basis functions of A2  symmetry.
 There are    17 symmetry adapted basis functions of B1  symmetry.
 There are    29 symmetry adapted basis functions of B2  symmetry.
 Integral buffers will be    131072 words long.
 Raffenetti 2 integral format.
 Two-electron integral symmetry is turned on.
    96 basis functions,   204 primitive gaussians,   105 cartesian basis functions
    22 alpha electrons       21 beta electrons
       nuclear repulsion energy       134.4216869178 Hartrees.
 NAtoms=    3 NActive=    3 NUniq=    2 SFac= 1.69D+00 NAtFMM=   80 NAOKFM=F Big=F
 One-electron integrals computed using PRISM.
 NBasis=    96 RedAO= T  NBF=    37    13    17    29
 NBsUse=    96 1.00D-06 NBFU=    37    13    17    29
 Initial guess read from the checkpoint file:  S9L-ne-d-01.chk
 B after Tr=     0.000000    0.000000    0.000000
         Rot=    1.000000    0.000000    0.000000    0.000000 Ang=   0.00 deg.
 Initial guess orbital symmetries:
 Alpha Orbitals:
       Occupied  (B2) (A1) (A1) (A1) (B2) (A1) (A1) (B1) (A2) (B2)
                 (A1) (B2) (B1) (A1) (B2) (A1) (B2) (A1) (A1) (B1)
                 (A1) (B2)
       Virtual   (A2) (B1) (B2) (B2) (A1) (A1) (A1) (B1) (B2) (A1)
                 (A1) (B2) (A1) (A2) (B1) (A2) (B1) (B2) (B1) (B2)
                 (A1) (B2) (A1) (A2) (B2) (A1) (A2) (A1) (B1) (B2)
                 (A1) (A1) (B2) (B1) (B2) (A1) (B2) (B1) (A1) (A1)
                 (B1) (A2) (A1) (B2) (A2) (A1) (B2) (B1) (B2) (A2)
                 (A1) (B1) (B2) (A2) (A1) (B2) (B1) (A1) (A2) (B1)
                 (B2) (A1) (B2) (B2) (A1) (A2) (B1) (A2) (A1) (A1)
                 (B2) (A1) (B2) (A1)
 Beta  Orbitals:
       Occupied  (B2) (A1) (A1) (A1) (B2) (A1) (B1) (A2) (A1) (B2)
                 (A1) (B2) (B1) (B2) (A1) (A1) (B2) (A1) (B1) (A1)
                 (B2)
       Virtual   (A1) (A2) (B1) (B2) (A1) (B2) (A1) (A1) (B1) (B2)
                 (A1) (A1) (B2) (A2) (A1) (B1) (A2) (B1) (B1) (B2)
                 (B2) (A1) (B2) (A1) (A2) (B2) (A1) (A2) (A1) (B1)
                 (B2) (A1) (A1) (B2) (B1) (B2) (B2) (A1) (A1) (B1)
                 (A1) (B1) (A2) (A1) (B2) (A2) (A1) (B1) (B2) (B2)
                 (A2) (A1) (B1) (B2) (A2) (A1) (B2) (B1) (A1) (A2)
                 (B1) (B2) (A1) (B2) (B2) (A1) (A2) (B1) (A2) (A1)
                 (A1) (B2) (A1) (B2) (A1)
 Initial guess <Sx>= 0.0000 <Sy>= 0.0000 <Sz>= 0.5000 <S**2>= 0.7574 S= 0.5037
 Requested convergence on RMS density matrix=1.00D-08 within 128 cycles.
 Requested convergence on MAX density matrix=1.00D-06.
 Requested convergence on             energy=1.00D-06.
 No special actions if energy rises.
 Keep R1 and R2 ints in memory in canonical form, NReq=32991127.
 SCF Done:  E(UB3LYP) =  -868.451635690     A.U. after    1 cycles
             Convg  =    0.7221D-09             -V/T =  2.0033
 <Sx>= 0.0000 <Sy>= 0.0000 <Sz>= 0.5000 <S**2>= 0.7574 S= 0.5037
 <L.S>= 0.000000000000E+00
 Annihilation of the first spin contaminant:
 S**2 before annihilation     0.7574,   after     0.7500
 QCSCF skips out because SCF is already converged.
 Range of M.O.s used for correlation:     1    96
 NBasis=    96 NAE=    22 NBE=    21 NFC=     0 NFV=     0
 NROrb=     96 NOA=    22 NOB=    21 NVA=    74 NVB=    75

 **** Warning!!: The smallest beta delta epsilon is  0.63218291D-01

 Symmetrizing basis deriv contribution to polar:
 IMax=3 JMax=2 DiffMx= 0.00D+00
 G2DrvN: will do     4 centers at a time, making    1 passes doing MaxLOS=3.
 Calling FoFCou, ICntrl=  3107 FMM=F I1Cent=   0 AccDes= 0.00D+00.
 FoFDir/FoFCou used for L=0 through L=3.
 End of G2Drv Frequency-dependent properties file   721 does not exist.
 End of G2Drv Frequency-dependent properties file   722 does not exist.
          IDoAtm=111
          Differentiating once with respect to electric field.
                with respect to dipole field.
          Differentiating once with respect to nuclear coordinates.
          Keep R1 and R2 ints in memory in canonical form, NReq=32916600.
          There are     9 degrees of freedom in the 1st order CPHF.  IDoFFX=4.
      9 vectors produced by pass  0 Test12= 3.56D-14 1.11D-08 XBig12= 7.60D+02 1.29D+01.
 AX will form     9 AO Fock derivatives at one time.
      9 vectors produced by pass  1 Test12= 3.56D-14 1.11D-08 XBig12= 3.79D+02 5.44D+00.
      9 vectors produced by pass  2 Test12= 3.56D-14 1.11D-08 XBig12= 1.41D+01 1.15D+00.
      9 vectors produced by pass  3 Test12= 3.56D-14 1.11D-08 XBig12= 4.13D-01 2.31D-01.
      9 vectors produced by pass  4 Test12= 3.56D-14 1.11D-08 XBig12= 1.27D-02 5.78D-02.
      9 vectors produced by pass  5 Test12= 3.56D-14 1.11D-08 XBig12= 4.72D-04 9.57D-03.
      9 vectors produced by pass  6 Test12= 3.56D-14 1.11D-08 XBig12= 1.36D-05 1.06D-03.
      9 vectors produced by pass  7 Test12= 3.56D-14 1.11D-08 XBig12= 2.26D-07 2.37D-04.
      8 vectors produced by pass  8 Test12= 3.56D-14 1.11D-08 XBig12= 3.91D-09 2.83D-05.
      5 vectors produced by pass  9 Test12= 3.56D-14 1.11D-08 XBig12= 1.75D-11 1.13D-06.
      2 vectors produced by pass 10 Test12= 3.56D-14 1.11D-08 XBig12= 7.99D-14 7.14D-08.
 Inverted reduced A of dimension    87 with in-core refinement.
 Isotropic polarizability for W=    0.000000      111.02 Bohr**3.
 End of Minotr Frequency-dependent properties file   721 does not exist.
 End of Minotr Frequency-dependent properties file   722 does not exist.

 **********************************************************************

            Population analysis using the SCF density.

 **********************************************************************

 Orbital symmetries:
 Alpha Orbitals:
       Occupied  (B2) (A1) (A1) (A1) (B2) (A1) (A1) (B1) (A2) (B2)
                 (A1) (B2) (B1) (A1) (B2) (A1) (B2) (A1) (A1) (B1)
                 (A1) (B2)
       Virtual   (A2) (B1) (B2) (B2) (A1) (A1) (A1) (B1) (B2) (A1)
                 (A1) (B2) (A1) (A2) (B1) (A2) (B1) (B2) (B1) (B2)
                 (A1) (B2) (A1) (A2) (B2) (A1) (A2) (A1) (B1) (B2)
                 (A1) (A1) (B2) (B1) (B2) (A1) (B2) (B1) (A1) (A1)
                 (B1) (A2) (A1) (B2) (A2) (A1) (B2) (B1) (B2) (A2)
                 (A1) (B1) (B2) (A2) (A1) (B2) (B1) (A1) (A2) (B1)
                 (B2) (A1) (B2) (B2) (A1) (A2) (B1) (A2) (A1) (A1)
                 (B2) (A1) (B2) (A1)
 Beta  Orbitals:
       Occupied  (B2) (A1) (A1) (A1) (B2) (A1) (B1) (A2) (A1) (B2)
                 (A1) (B2) (B1) (B2) (A1) (A1) (B2) (A1) (B1) (A1)
                 (B2)
       Virtual   (A1) (A2) (B1) (B2) (A1) (B2) (A1) (A1) (B1) (B2)
                 (A1) (A1) (B2) (A2) (A1) (B1) (A2) (B1) (B1) (B2)
                 (B2) (A1) (B2) (A1) (A2) (B2) (A1) (A2) (A1) (B1)
                 (B2) (A1) (A1) (B2) (B1) (B2) (B2) (A1) (A1) (B1)
                 (A1) (B1) (A2) (A1) (B2) (A2) (A1) (B1) (B2) (B2)
                 (A2) (A1) (B1) (B2) (A2) (A1) (B2) (B1) (A1) (A2)
                 (B1) (B2) (A1) (B2) (B2) (A1) (A2) (B1) (A2) (A1)
                 (A1) (B2) (A1) (B2) (A1)
 The electronic state is 2-A1.
 Alpha  occ. eigenvalues --  -65.93790 -65.93790 -65.92115  -5.08586  -5.08580
 Alpha  occ. eigenvalues --   -5.07102  -3.44581  -3.44573  -3.44573  -3.44570
 Alpha  occ. eigenvalues --   -3.44045  -3.44029  -3.43132  -3.42919  -3.42654
 Alpha  occ. eigenvalues --   -0.37455  -0.20385  -0.18487  -0.04866  -0.04719
 Alpha  occ. eigenvalues --   -0.01484  -0.01052
 Alpha virt. eigenvalues --    0.10321   0.11802   0.17754   0.20151   0.20248
 Alpha virt. eigenvalues --    0.28098   0.32593   0.34459   0.35877   0.36357
 Alpha virt. eigenvalues --    0.37491   0.39990   0.41502   0.42728   0.42802
 Alpha virt. eigenvalues --    0.44571   0.45139   0.46577   0.46737   0.48419
 Alpha virt. eigenvalues --    0.49461   0.56809   0.56996   0.61939   0.66548
 Alpha virt. eigenvalues --    0.68595   0.69711   0.70480   0.71678   0.86050
 Alpha virt. eigenvalues --    0.91866   0.93728   0.94596   1.00148   1.09854
 Alpha virt. eigenvalues --    1.10019   1.11071   1.11513   1.11605   1.12780
 Alpha virt. eigenvalues --    1.15838   1.16668   1.17448   1.25702   1.27271
 Alpha virt. eigenvalues --    1.28246   1.34108   1.34524   1.41601   1.45524
 Alpha virt. eigenvalues --    1.46136   1.50049   1.51841   1.57118   1.58029
 Alpha virt. eigenvalues --    1.60455   1.83742   1.83943   1.86902   1.90540
 Alpha virt. eigenvalues --    1.91302   1.92425   1.94491   2.02480   2.03117
 Alpha virt. eigenvalues --    2.04070   2.05909   2.08840   2.21758   2.25846
 Alpha virt. eigenvalues --    2.35189   2.62102   2.87814   2.89010
  Beta  occ. eigenvalues --  -65.93666 -65.93666 -65.92036  -5.08447  -5.08442
  Beta  occ. eigenvalues --   -5.07008  -3.44497  -3.44497  -3.44145  -3.44128
  Beta  occ. eigenvalues --   -3.43960  -3.43951  -3.43090  -3.42644  -3.42614
  Beta  occ. eigenvalues --   -0.36410  -0.18856  -0.16521  -0.04435  -0.03650
  Beta  occ. eigenvalues --   -0.00574
  Beta virt. eigenvalues --    0.05747   0.10724   0.12263   0.19078   0.20940
  Beta virt. eigenvalues --    0.21041   0.28539   0.33094   0.34681   0.36235
  Beta virt. eigenvalues --    0.37820   0.38860   0.40423   0.42981   0.42989
  Beta virt. eigenvalues --    0.44639   0.44714   0.45308   0.47356   0.47619
  Beta virt. eigenvalues --    0.48679   0.50167   0.58098   0.58120   0.63096
  Beta virt. eigenvalues --    0.67809   0.69353   0.69839   0.71279   0.72432
  Beta virt. eigenvalues --    0.86806   0.92680   0.94250   0.95496   1.01184
  Beta virt. eigenvalues --    1.10316   1.11454   1.11580   1.12238   1.12541
  Beta virt. eigenvalues --    1.13693   1.16473   1.17214   1.18430   1.26339
  Beta virt. eigenvalues --    1.28759   1.29643   1.35108   1.35220   1.42026
  Beta virt. eigenvalues --    1.45910   1.46793   1.50489   1.53181   1.57734
  Beta virt. eigenvalues --    1.59080   1.61508   1.84408   1.84703   1.87081
  Beta virt. eigenvalues --    1.90665   1.91641   1.92697   1.94862   2.03494
  Beta virt. eigenvalues --    2.03721   2.04499   2.06357   2.08872   2.22082
  Beta virt. eigenvalues --    2.26405   2.35620   2.62638   2.88457   2.89499
          Condensed to atoms (all electrons):
              1          2          3
     1  Si  13.775443   0.202837   0.341467
     2  Si   0.202837  13.775443   0.341467
     3  Si   0.341467   0.341467  13.677573
 Mulliken atomic charges:
              1
     1  Si  -0.319746
     2  Si  -0.319746
     3  Si  -0.360507
 Sum of Mulliken atomic charges =  -1.00000
 Mulliken charges with hydrogens summed into heavy atoms:
              1
     1  Si  -0.319746
     2  Si  -0.319746
     3  Si  -0.360507
 Sum of Mulliken charges with hydrogens summed into heavy atoms =  -1.00000
          Atomic-Atomic Spin Densities.
              1          2          3
     1  Si   0.355386   0.063759  -0.027836
     2  Si   0.063759   0.355386  -0.027836
     3  Si  -0.027836  -0.027836   0.273055
 Mulliken atomic spin densities:
              1
     1  Si   0.391309
     2  Si   0.391309
     3  Si   0.217383
 Sum of Mulliken atomic spin densities =   1.00000
 APT atomic charges:
              1
     1  Si  -0.318387
     2  Si  -0.318387
     3  Si  -0.363227
 Sum of APT charges=  -1.00000
 APT Atomic charges with hydrogens summed into heavy atoms:
              1
     1  Si  -0.318387
     2  Si  -0.318387
     3  Si  -0.363227
 Sum of APT charges=  -1.00000
 Electronic spatial extent (au):  <R**2>=            384.7247
 Charge=             -1.0000 electrons
 Dipole moment (field-independent basis, Debye):
    X=              0.0000    Y=              0.0000    Z=              0.3768  Tot=              0.3768
 Quadrupole moment (field-independent basis, Debye-Ang):
   XX=            -44.6928   YY=            -56.0568   ZZ=            -54.9605
   XY=              0.0000   XZ=              0.0000   YZ=              0.0000
 Traceless Quadrupole moment (field-independent basis, Debye-Ang):
   XX=              7.2105   YY=             -4.1534   ZZ=             -3.0571
   XY=              0.0000   XZ=              0.0000   YZ=              0.0000
 Octapole moment (field-independent basis, Debye-Ang**2):
  XXX=              0.0000  YYY=              0.0000  ZZZ=             -2.6527  XYY=              0.0000
  XXY=              0.0000  XXZ=              0.4434  XZZ=              0.0000  YZZ=              0.0000
  YYZ=             11.1357  XYZ=              0.0000
 Hexadecapole moment (field-independent basis, Debye-Ang**3):
 XXXX=            -92.0127 YYYY=           -422.7978 ZZZZ=           -362.9712 XXXY=              0.0000
 XXXZ=              0.0000 YYYX=              0.0000 YYYZ=              0.0000 ZZZX=              0.0000
 ZZZY=              0.0000 XXYY=            -78.4793 XXZZ=            -70.1717 YYZZ=           -139.7568
 XXYZ=              0.0000 YYXZ=              0.0000 ZZXY=              0.0000
 N-N= 1.344216869178D+02 E-N=-3.511972180469D+03  KE= 1.297844250110D+03
 Symmetry A1   KE= 7.534723371754D+02
 Symmetry A2   KE= 3.643646295018D+01
 Symmetry B1   KE= 7.523845631055D+01
 Symmetry B2   KE= 4.326969936735D+02
  Exact polarizability:  64.887   0.000 137.931   0.000   0.000 130.233
 Approx polarizability: 124.724   0.000 295.455   0.000   0.000 289.810
                          Isotropic Fermi Contact Couplings
        Atom                 a.u.       MegaHertz       Gauss      10(-4) cm-1
     1  Si(29)             0.02558     -22.73575      -8.11268      -7.58383
     2  Si(29)             0.02558     -22.73575      -8.11268      -7.58383
     3  Si(29)             0.09411     -83.63625     -29.84349     -27.89805
 --------------------------------------------------------
       Center         ----  Spin Dipole Couplings  ----
                      3XX-RR        3YY-RR        3ZZ-RR
 --------------------------------------------------------
     1   Atom       -0.351716      0.078150      0.273566
     2   Atom       -0.351716      0.078150      0.273566
     3   Atom       -0.228883     -0.302642      0.531525
 --------------------------------------------------------
                        XY            XZ            YZ
 --------------------------------------------------------
     1   Atom        0.000000      0.000000      0.546340
     2   Atom        0.000000      0.000000     -0.546340
     3   Atom        0.000000      0.000000      0.000000
 --------------------------------------------------------


 ---------------------------------------------------------------------------------
              Anisotropic Spin Dipole Couplings in Principal Axis System
 ---------------------------------------------------------------------------------

       Atom             a.u.   MegaHertz   Gauss  10(-4) cm-1        Axes

              Baa    -0.3792    40.222    14.352    13.417  0.0000  0.7668 -0.6419
     1 Si(29) Bbb    -0.3517    37.311    13.314    12.446  1.0000  0.0000  0.0000
              Bcc     0.7309   -77.533   -27.666   -25.862  0.0000  0.6419  0.7668
 
              Baa    -0.3792    40.222    14.352    13.417  0.0000  0.7668  0.6419
     2 Si(29) Bbb    -0.3517    37.311    13.314    12.446  1.0000  0.0000  0.0000
              Bcc     0.7309   -77.533   -27.666   -25.862  0.0000 -0.6419  0.7668
 
              Baa    -0.3026    32.105    11.456    10.709  0.0000  1.0000  0.0000
     3 Si(29) Bbb    -0.2289    24.281     8.664     8.099  1.0000  0.0000  0.0000
              Bcc     0.5315   -56.386   -20.120   -18.808  0.0000  0.0000  1.0000
 

 ---------------------------------------------------------------------------------

 Calling FoFJK, ICntrl=    100127 FMM=F ISym2X=1 I1Cent= 0 IOpClX= 1 NMat=1 NMatS=1 NMatT=0.
 Full mass-weighted force constant matrix:
 Low frequencies ---  -14.4188   -9.8518   -7.7815   -0.0051   -0.0037   -0.0035
 Low frequencies ---  294.6137  317.6484  517.0254
 Diagonal vibrational polarizability:
        0.0000000       0.1104867       0.3388231
 Harmonic frequencies (cm**-1), IR intensities (KM/Mole), Raman scattering
 activities (A**4/AMU), depolarization ratios for plane and unpolarized
 incident light, reduced masses (AMU), force constants (mDyne/A),
 and normal coordinates:
                     1                      2                      3
                    A1                     B2                     A1
 Frequencies --   294.6137               317.6482               517.0254
 Red. masses --    27.9769                27.9769                27.9769
 Frc consts  --     1.4307                 1.6632                 4.4063
 IR Inten    --     0.0000                 0.4143                 3.3655
  Atom  AN      X      Y      Z        X      Y      Z        X      Y      Z
     1  14     0.00   0.60   0.21     0.00  -0.30   0.47     0.00  -0.37   0.35
     2  14     0.00  -0.60   0.21     0.00  -0.30  -0.47     0.00   0.37   0.35
     3  14     0.00   0.00  -0.43     0.00   0.61   0.00     0.00   0.00  -0.70

 -------------------
 - Thermochemistry -
 -------------------
 Temperature   298.150 Kelvin.  Pressure   1.00000 Atm.
 Atom     1 has atomic number 14 and mass  27.97693
 Atom     2 has atomic number 14 and mass  27.97693
 Atom     3 has atomic number 14 and mass  27.97693
 Molecular mass:    83.93079 amu.
 Principal axes and moments of inertia in atomic units:
                           1         2         3
     Eigenvalues --   240.39276 297.08008 537.47284
           X            0.00000   0.00000   1.00000
           Y            1.00000   0.00000   0.00000
           Z            0.00000   1.00000   0.00000
 This molecule is an asymmetric top.
 Rotational symmetry number  2.
 Rotational temperatures (Kelvin)      0.36030     0.29155     0.16115
 Rotational constants (GHZ):           7.50747     6.07493     3.35783
 Zero-point vibrational energy       6754.6 (Joules/Mol)
                                    1.61440 (Kcal/Mol)
 Warning -- explicit consideration of   3 degrees of freedom as
           vibrations may cause significant error
 Vibrational temperatures:    423.88   457.02   743.88
          (Kelvin)
 
 Zero-point correction=                           0.002573 (Hartree/Particle)
 Thermal correction to Energy=                    0.006443
 Thermal correction to Enthalpy=                  0.007387
 Thermal correction to Gibbs Free Energy=        -0.024797
 Sum of electronic and zero-point Energies=           -868.449063
 Sum of electronic and thermal Energies=              -868.445193
 Sum of electronic and thermal Enthalpies=            -868.444249
 Sum of electronic and thermal Free Energies=         -868.476433
 
                     E (Thermal)             CV                S
                      KCal/Mol        Cal/Mol-Kelvin    Cal/Mol-Kelvin
 Total                    4.043             10.498             67.737
 Electronic               0.000              0.000              1.377
 Translational            0.889              2.981             39.196
 Rotational               0.889              2.981             23.777
 Vibrational              2.265              4.536              3.386
 Vibration     1          0.689              1.684              1.447
 Vibration     2          0.704              1.640              1.322
 Vibration     3          0.872              1.212              0.617
                       Q            Log10(Q)             Ln(Q)
 Total Bot       0.254601D+12         11.405859         26.262962
 Total V=0       0.388346D+13         12.589219         28.987749
 Vib (Bot)       0.120116D+00         -0.920400         -2.119299
 Vib (Bot)    1  0.647456D+00         -0.188790         -0.434705
 Vib (Bot)    2  0.592624D+00         -0.227221         -0.523195
 Vib (Bot)    3  0.313048D+00         -0.504389         -1.161399
 Vib (V=0)       0.183215D+01          0.262960          0.605488
 Vib (V=0)    1  0.131805D+01          0.119930          0.276150
 Vib (V=0)    2  0.127537D+01          0.105637          0.243239
 Vib (V=0)    3  0.108991D+01          0.037392          0.086099
 Electronic      0.200000D+01          0.301030          0.693147
 Translational   0.302230D+08          7.480337         17.224113
 Rotational      0.350665D+05          4.544892         10.465001
 ***** Axes restored to original set *****
 -------------------------------------------------------------------
 Center     Atomic                   Forces (Hartrees/Bohr)
 Number     Number              X              Y              Z
 -------------------------------------------------------------------
      1       14           0.000000000   -0.000016983   -0.000050702
      2       14           0.000000000    0.000016983   -0.000050702
      3       14           0.000000000    0.000000000    0.000101404
 -------------------------------------------------------------------
 Cartesian Forces:  Max     0.000101404 RMS     0.000042165

 GradGradGradGradGradGradGradGradGradGradGradGradGradGradGradGradGradGrad
 Berny optimization.
 Internal  Forces:  Max     0.000060246 RMS     0.000056897
 Search for a local minimum.
 Step number   1 out of a maximum of    2
 All quantities printed in internal units (Hartrees-Bohrs-Radians)
 Second derivative matrix not updated -- analytic derivatives used.
 The second derivative matrix:
                          R1        R2        R3
           R1           0.05638
           R2          -0.00010   0.08802
           R3          -0.00010   0.02056   0.08802
     Eigenvalues ---    0.05638   0.06746   0.10859
 Angle between quadratic step and forces=  18.04 degrees.
 Linear search not attempted -- first point.
 Iteration  1 RMS(Cart)=  0.00056936 RMS(Int)=  0.00000005
 Iteration  2 RMS(Cart)=  0.00000003 RMS(Int)=  0.00000000
 ClnCor:  largest displacement from symmetrization is 6.89D-12 for atom     2.
 Variable       Old X    -DE/DX   Delta X   Delta X   Delta X     New X
                                 (Linear)    (Quad)   (Total)
    R1        4.60842  -0.00005   0.00000  -0.00088  -0.00088   4.60754
    R2        4.26593   0.00006   0.00000   0.00055   0.00055   4.26649
    R3        4.26593   0.00006   0.00000   0.00055   0.00055   4.26649
         Item               Value     Threshold  Converged?
 Maximum Force            0.000060     0.000450     YES
 RMS     Force            0.000057     0.000300     YES
 Maximum Displacement     0.000626     0.001800     YES
 RMS     Displacement     0.000569     0.001200     YES
 Predicted change in Energy=-5.508111D-08
 Optimization completed.
    -- Stationary point found.
                           ----------------------------
                           !   Optimized Parameters   !
                           ! (Angstroms and Degrees)  !
 --------------------------                            --------------------------
 ! Name  Definition              Value          Derivative Info.                !
 --------------------------------------------------------------------------------
 ! R1    R(1,2)                  2.4387         -DE/DX =    0.0                 !
 ! R2    R(1,3)                  2.2574         -DE/DX =    0.0001              !
 ! R3    R(2,3)                  2.2574         -DE/DX =    0.0001              !
 --------------------------------------------------------------------------------
 GradGradGradGradGradGradGradGradGradGradGradGradGradGradGradGradGradGrad

 1\1\GINC-NODE190\Freq\UB3LYP\GTBas3\Si3(1-,2)\TAM\05-Mar-2012\0\\#N Ge
 om=AllCheck Guess=TCheck SCRF=Check B3LYP/GTBas3 Freq\\si3-an-d\\-1,2\
 Si,0.,1.2193345702,-0.6332663479\Si,0.,-1.2193345702,-0.6332663479\Si,
 0.,0.,1.2665316957\\Version=AM64L-G09RevA.02\State=2-A1\HF=-868.451635
 7\S2=0.757402\S2-1=0.\S2A=0.750043\RMSD=7.221e-10\RMSF=4.216e-05\ZeroP
 oint=0.0025727\Thermal=0.0064426\Dipole=0.,0.,0.1482625\DipoleDeriv=-0
 .3539648,0.,0.,0.,-0.3757606,-0.1156082,0.,0.0335896,-0.2254347,-0.353
 9648,0.,0.,0.,-0.3757606,0.1156082,0.,-0.0335896,-0.2254347,-0.2920705
 ,0.,0.,0.,-0.2484787,0.,0.,0.,-0.5491307\Polar=64.8868367,0.,137.93119
 65,0.,-0.0000005,130.2326021\PG=C02V [C2(Si1),SGV(Si2)]\NImag=0\\-0.00
 006874,0.,0.08195807,0.,-0.03994359,0.06225242,-0.00000463,0.,0.,-0.00
 006874,0.,-0.06225059,0.00925500,0.,0.08195807,0.,-0.00925500,0.014649
 66,0.,0.03994359,0.06225242,0.00007337,0.,0.,0.00007337,0.,0.,-0.00014
 674,0.,-0.01970748,0.03068859,0.,-0.01970748,-0.03068859,0.,0.03941496
 ,0.,0.04919859,-0.07690208,0.,-0.04919859,-0.07690208,0.,0.,0.15380417
 \\0.,0.00001698,0.00005070,0.,-0.00001698,0.00005070,0.,0.,-0.00010140
 \\\@


 THAT'S WHAT MAKES US A GREAT COUNTRY.
 THE LITTLE THINGS ARE SERIOUS AND THE BIG ONES ARE NOT.
           WILL ROGERS
[...]
                 (B2) (A1) (A2) (B2) (A2) (B1) (B2) (A1) (A1) (A1)
                 (B2) (B1) (A2) (B1) (A1) (A1) (B2) (A2) (A1) (B2)
                 (B2) (A2) (B1) (A1) (B1) (A1) (B1) (B1) (B2) (A2)
                 (A1) (A2) (B1) (A1) (B1) (B2) (A1) (B1) (B2) (B1)
                 (A1) (A2) (B2) (A1) (A1) (B2) (B1) (A1) (A2) (B2)
                 (A1) (B1) (B2) (A2) (B2) (B1) (A2) (A1) (B2) (B1)
                 (A1) (B2) (A2) (B2) (B1) (A1) (A2) (B1) (B2) (A1)
                 (B2) (A1) (A1) (A2) (B1) (A1) (B2) (A2) (B2) (A1)
                 (A1) (B2) (B1) (A2) (A1) (A1) (A2) (B2) (A2) (B1)
                 (B2) (B1) (A1) (B2) (A2) (B2) (A1) (B2) (B1) (B2)
                 (A2) (B1) (A2) (A1) (B1) (A2) (B2) (A1) (A1) (B1)
                 (B2) (B2) (A2) (A1) (A1) (B2) (B2) (A1) (B1) (A1)
                 (A2) (B1) (A1) (B2) (A2) (A1) (A2) (B1) (B2) (A1)
                 (B2) (A1) (B2) (B1) (A2) (B1) (A1) (B2) (A1) (B2)
                 (B2) (A1) (A1) (B2) (A1)
 Beta  Orbitals:
       Occupied  (A1) (B2) (A1) (A1) (B2) (A1) (B1) (A2) (A1) (B2)
                 (A1) (B2) (B1) (B2) (A1) (A1) (B2) (A1) (A1) (B1)
                 (B2)
       Virtual   (B2) (A1) (A1) (A1) (A2) (B1) (B1) (B2) (B2) (A1)
                 (A1) (A2) (B1) (B2) (A1) (B2) (A1) (B2) (A1) (B2)
                 (B1) (A1) (A2) (A1) (B1) (B2) (A1) (B2) (A2) (A1)
                 (B1) (B1) (B2) (A1) (A1) (B2) (A1) (A2) (B2) (A1)
                 (A2) (B1) (B2) (B1) (A1) (A1) (B2) (B2) (A1) (B1)
                 (A1) (A2) (B1) (B2) (A1) (A2) (B1) (B2) (A2) (B1)
                 (B2) (A1) (A1) (B2) (B2) (B1) (B2) (A1) (A2) (A1)
                 (A2) (B1) (A2) (B1) (A1) (A2) (B1) (B2) (A1) (B2)
                 (A1) (B2) (A1) (A1) (B2) (A2) (B1) (A1) (A1) (B2)
                 (B1) (A1) (A1) (B1) (B2) (A2) (B2) (B1) (A1) (A2)
                 (B1) (A1) (B2) (A2) (B2) (A1) (A1) (B2) (B1) (A1)
                 (B2) (B1) (A2) (B2) (A2) (A1) (A1) (B2) (B1) (B1)
                 (A2) (B2) (A2) (A1) (B2) (B1) (B2) (A1) (B1) (A2)
                 (A1) (B2) (A1) (A2) (B2) (A2) (B1) (B2) (A1) (A1)
                 (A1) (B2) (B1) (A2) (B1) (A1) (A1) (B2) (A2) (A1)
                 (B2) (B2) (A2) (B1) (A1) (B1) (A1) (B1) (B1) (B2)
                 (A2) (A1) (A2) (B1) (A1) (B1) (B2) (A1) (B1) (B2)
                 (B1) (A2) (A1) (B2) (A1) (B2) (B1) (A1) (A1) (A2)
                 (B2) (B1) (A1) (B2) (A2) (B2) (B1) (A2) (A1) (B2)
                 (B1) (A1) (B2) (A2) (B2) (B1) (A1) (A2) (B1) (B2)
                 (A1) (A1) (B2) (A1) (A2) (B1) (A1) (B2) (A2) (B2)
                 (A1) (A1) (B2) (B1) (A2) (A1) (A2) (A1) (B2) (A2)
                 (B1) (B2) (B1) (A1) (B2) (A2) (B2) (A1) (B2) (B1)
                 (B2) (A2) (B1) (A2) (A1) (B1) (A2) (B2) (A1) (A1)
                 (B1) (B2) (B2) (A2) (A1) (A1) (B2) (B2) (A1) (B1)
                 (A1) (A2) (B1) (A1) (B2) (A2) (A1) (A2) (B1) (B2)
                 (A1) (B2) (A1) (B2) (B1) (A2) (B1) (A1) (B2) (A1)
                 (B2) (B2) (A1) (A1) (B2) (A1)
 The electronic state is 2-A1.
 Alpha  occ. eigenvalues --  -68.60644 -68.60644 -68.58065  -5.95195  -5.95182
 Alpha  occ. eigenvalues --   -5.92823  -4.05896  -4.05874  -4.05390  -4.05385
 Alpha  occ. eigenvalues --   -4.05302  -4.05272  -4.03435  -4.03038  -4.02914
 Alpha  occ. eigenvalues --   -0.58159  -0.35325  -0.32418  -0.15004  -0.11889
 Alpha  occ. eigenvalues --   -0.11348  -0.09653
 Alpha virt. eigenvalues --    0.12193   0.12236   0.13893   0.14774   0.15033
 Alpha virt. eigenvalues --    0.15050   0.15632   0.15658   0.16293   0.19430
 Alpha virt. eigenvalues --    0.20390   0.22239   0.22574   0.22917   0.27104
 Alpha virt. eigenvalues --    0.29199   0.29417   0.32624   0.35464   0.35526
 Alpha virt. eigenvalues --    0.36365   0.39262   0.41482   0.41552   0.42373
 Alpha virt. eigenvalues --    0.42996   0.43966   0.44220   0.44410   0.45922
 Alpha virt. eigenvalues --    0.48535   0.52213   0.52878   0.56905   0.57010
 Alpha virt. eigenvalues --    0.60875   0.61017   0.63259   0.63961   0.65770
 Alpha virt. eigenvalues --    0.66713   0.73717   0.74043   0.75954   0.76284
 Alpha virt. eigenvalues --    0.77149   0.79187   0.79742   0.80274   0.83425
 Alpha virt. eigenvalues --    0.85960   0.86885   0.88755   0.89462   0.91570
 Alpha virt. eigenvalues --    0.93629   0.93772   0.95448   0.96789   0.97919
 Alpha virt. eigenvalues --    0.99010   1.02183   1.04265   1.04637   1.08413
 Alpha virt. eigenvalues --    1.09145   1.09452   1.09581   1.10397   1.10569
 Alpha virt. eigenvalues --    1.10719   1.13228   1.13580   1.14331   1.18231
 Alpha virt. eigenvalues --    1.18495   1.18659   1.20192   1.20998   1.21852
 Alpha virt. eigenvalues --    1.23836   1.25522   1.26744   1.29846   1.39395
 Alpha virt. eigenvalues --    1.41149   1.49391   1.52329   1.55236   1.55977
 Alpha virt. eigenvalues --    1.61201   1.62472   1.64621   1.67978   1.69126
 Alpha virt. eigenvalues --    1.69217   1.69249   1.69461   1.73431   1.73494
 Alpha virt. eigenvalues --    1.80048   1.82187   1.83331   1.84134   1.84966
 Alpha virt. eigenvalues --    1.86907   1.87095   1.88041   1.88570   1.89373
 Alpha virt. eigenvalues --    1.90680   1.97097   1.97763   1.98769   1.99846
 Alpha virt. eigenvalues --    2.00464   2.01106   2.02158   2.05856   2.06357
 Alpha virt. eigenvalues --    2.06621   2.10549   2.11596   2.11896   2.12765
 Alpha virt. eigenvalues --    2.15442   2.17593   2.20003   2.20100   2.21408
 Alpha virt. eigenvalues --    2.21733   2.21919   2.22029   2.22542   2.27875
 Alpha virt. eigenvalues --    2.31289   2.31890   2.32802   2.34727   2.55230
 Alpha virt. eigenvalues --    2.56729   2.58302   2.58620   2.60615   2.70712
 Alpha virt. eigenvalues --    2.86375   2.88928   2.99384   3.02493   3.05817
 Alpha virt. eigenvalues --    3.15934   3.20516   3.23686   3.24426   3.32654
 Alpha virt. eigenvalues --    3.34373   3.35962   3.38773   3.39577   3.40646
 Alpha virt. eigenvalues --    3.48184   3.49475   3.50960   3.51279   3.52765
 Alpha virt. eigenvalues --    3.53249   3.53634   3.54012   3.55253   3.58805
 Alpha virt. eigenvalues --    3.59183   3.59237   3.59932   3.60496   3.65546
 Alpha virt. eigenvalues --    3.65554   3.65655   3.67408   3.68665   3.72813
 Alpha virt. eigenvalues --    3.74234   3.74350   3.75770   3.76325   3.78016
 Alpha virt. eigenvalues --    3.79844   3.81191   3.82558   3.82955   3.84637
 Alpha virt. eigenvalues --    3.86335   3.87197   3.87714   3.92481   3.95620
 Alpha virt. eigenvalues --    3.96401   3.99897   4.00346   4.01519   4.03575
 Alpha virt. eigenvalues --    4.12653   4.12948   4.15786   4.18482   4.20363
 Alpha virt. eigenvalues --    4.21523   4.22906   4.23518   4.26578   4.28193
 Alpha virt. eigenvalues --    4.30776   4.30992   4.33275   4.33578   4.35406
 Alpha virt. eigenvalues --    4.36621   4.36789   4.38207   4.40270   4.42921
 Alpha virt. eigenvalues --    4.44701   4.48523   4.48544   4.49655   4.51695
 Alpha virt. eigenvalues --    4.52103   4.60802   4.61714   4.70676   4.77031
 Alpha virt. eigenvalues --    4.77320   4.78090   4.79854   4.83981   4.86997
 Alpha virt. eigenvalues --    4.87450   4.89596   4.90174   4.98055   5.08639
 Alpha virt. eigenvalues --    5.10014   5.21638   5.22805   5.25338   5.26408
 Alpha virt. eigenvalues --    5.40594   5.78191   5.80121   6.41429   6.45464
 Alpha virt. eigenvalues --    6.46451   6.50504   6.84016   6.88804   6.94743
 Alpha virt. eigenvalues --    6.98850   7.16067   7.17021   7.18918   7.31217
 Alpha virt. eigenvalues --    7.42477   7.49136   7.60876  13.20582  13.50366
 Alpha virt. eigenvalues --   13.65740  13.80752  13.82538  13.90744  14.51842
 Alpha virt. eigenvalues --   15.16051  15.20780  38.75138  39.43729  40.21122
  Beta  occ. eigenvalues --  -68.60369 -68.60369 -68.58021  -5.94886  -5.94877
  Beta  occ. eigenvalues --   -5.92777  -4.05158  -4.05153  -4.05140  -4.05109
  Beta  occ. eigenvalues --   -4.04622  -4.04603  -4.03192  -4.03181  -4.02744
  Beta  occ. eigenvalues --   -0.55647  -0.30766  -0.27556  -0.11884  -0.11640
  Beta  occ. eigenvalues --   -0.09416
  Beta virt. eigenvalues --    0.12199   0.12231   0.13951   0.14471   0.14890
  Beta virt. eigenvalues --    0.14982   0.15116   0.15685   0.16351   0.17992
  Beta virt. eigenvalues --    0.19651   0.21272   0.22337   0.22774   0.23178
  Beta virt. eigenvalues --    0.29255   0.29959   0.29997   0.32782   0.35717
  Beta virt. eigenvalues --    0.36458   0.37736   0.41883   0.42093   0.42526
  Beta virt. eigenvalues --    0.43632   0.43915   0.44530   0.45687   0.45732
  Beta virt. eigenvalues --    0.47025   0.49296   0.52868   0.53821   0.58253
  Beta virt. eigenvalues --    0.58330   0.61190   0.61784   0.64148   0.65549
  Beta virt. eigenvalues --    0.65962   0.67044   0.74612   0.74880   0.76267
  Beta virt. eigenvalues --    0.77197   0.77791   0.79791   0.80304   0.80406
  Beta virt. eigenvalues --    0.85123   0.87130   0.87168   0.89342   0.90875
  Beta virt. eigenvalues --    0.92020   0.93823   0.94262   0.95755   0.97321
  Beta virt. eigenvalues --    0.98196   0.99625   1.03356   1.04828   1.05452
  Beta virt. eigenvalues --    1.09516   1.09984   1.10017   1.10143   1.10986
  Beta virt. eigenvalues --    1.11307   1.11621   1.13440   1.14085   1.15358
  Beta virt. eigenvalues --    1.18407   1.18726   1.19330   1.21054   1.21903
  Beta virt. eigenvalues --    1.22234   1.24407   1.26504   1.27463   1.30742
  Beta virt. eigenvalues --    1.39634   1.41367   1.49789   1.53488   1.55436
  Beta virt. eigenvalues --    1.56732   1.61804   1.64350   1.66113   1.68596
  Beta virt. eigenvalues --    1.69579   1.69742   1.69881   1.70433   1.73637
  Beta virt. eigenvalues --    1.74393   1.81128   1.82651   1.84551   1.84847
  Beta virt. eigenvalues --    1.85665   1.87053   1.87852   1.88619   1.89347
  Beta virt. eigenvalues --    1.89843   1.90923   1.97592   1.98120   1.99137
  Beta virt. eigenvalues --    2.00306   2.00749   2.01573   2.02536   2.06528
  Beta virt. eigenvalues --    2.06785   2.06842   2.10841   2.12307   2.12556
  Beta virt. eigenvalues --    2.13314   2.15997   2.18076   2.20285   2.20477
  Beta virt. eigenvalues --    2.21892   2.21964   2.22367   2.22407   2.23153
  Beta virt. eigenvalues --    2.28160   2.31692   2.32240   2.33248   2.35308
  Beta virt. eigenvalues --    2.55788   2.57407   2.58572   2.58705   2.61108
  Beta virt. eigenvalues --    2.71257   2.86739   2.89376   2.99873   3.02911
  Beta virt. eigenvalues --    3.06285   3.16247   3.20570   3.23935   3.25051
  Beta virt. eigenvalues --    3.33019   3.34697   3.36181   3.38752   3.40171
  Beta virt. eigenvalues --    3.40894   3.48952   3.49661   3.51228   3.52114
  Beta virt. eigenvalues --    3.53425   3.53449   3.53852   3.54526   3.55472
  Beta virt. eigenvalues --    3.59525   3.59596   3.59950   3.60488   3.61174
  Beta virt. eigenvalues --    3.65870   3.66127   3.66390   3.68130   3.69499
  Beta virt. eigenvalues --    3.73462   3.74355   3.74525   3.75755   3.76808
  Beta virt. eigenvalues --    3.78446   3.80204   3.81719   3.83355   3.83554
  Beta virt. eigenvalues --    3.84934   3.86762   3.87666   3.87940   3.92776
  Beta virt. eigenvalues --    3.95796   3.96889   4.00170   4.00611   4.01838
  Beta virt. eigenvalues --    4.04165   4.13263   4.13364   4.16276   4.18922
  Beta virt. eigenvalues --    4.21179   4.21874   4.23369   4.24068   4.26971
  Beta virt. eigenvalues --    4.28637   4.30975   4.31405   4.33473   4.33648
  Beta virt. eigenvalues --    4.35413   4.36947   4.37020   4.38466   4.40783
  Beta virt. eigenvalues --    4.43443   4.45279   4.48812   4.49041   4.50118
  Beta virt. eigenvalues --    4.52154   4.52672   4.61100   4.61940   4.71016
  Beta virt. eigenvalues --    4.77311   4.77602   4.78324   4.80231   4.84493
  Beta virt. eigenvalues --    4.87263   4.87666   4.90105   4.90466   4.98390
  Beta virt. eigenvalues --    5.08788   5.10584   5.21871   5.22978   5.25598
  Beta virt. eigenvalues --    5.26769   5.41080   5.78417   5.80321   6.41780
  Beta virt. eigenvalues --    6.45822   6.46509   6.50620   6.84063   6.89068
  Beta virt. eigenvalues --    6.94983   6.99217   7.16077   7.17138   7.19187
  Beta virt. eigenvalues --    7.31328   7.42806   7.49361   7.61027  13.20674
  Beta virt. eigenvalues --   13.50538  13.65721  13.81058  13.82739  13.91509
  Beta virt. eigenvalues --   14.52357  15.16085  15.21096  38.75329  39.43930
  Beta virt. eigenvalues --   40.21155
          Condensed to atoms (all electrons):
              1          2          3
     1  Si  13.558288   0.302700   0.428745
     2  Si   0.302700  13.558288   0.428745
     3  Si   0.428745   0.428745  13.563045
 Mulliken atomic charges:
              1
     1  Si  -0.289732
     2  Si  -0.289732
     3  Si  -0.420535
 Sum of Mulliken atomic charges =  -1.00000
 Mulliken charges with hydrogens summed into heavy atoms:
              1
     1  Si  -0.289732
     2  Si  -0.289732
     3  Si  -0.420535
 Sum of Mulliken charges with hydrogens summed into heavy atoms =  -1.00000
          Atomic-Atomic Spin Densities.
              1          2          3
     1  Si   0.455132   0.075790   0.000466
     2  Si   0.075790   0.455132   0.000466
     3  Si   0.000466   0.000466  -0.063710
 Mulliken atomic spin densities:
              1
     1  Si   0.531388
     2  Si   0.531388
     3  Si  -0.062777
 Sum of Mulliken atomic spin densities =   1.00000
 Electronic spatial extent (au):  <R**2>=            392.7672
 Charge=             -1.0000 electrons
 Dipole moment (field-independent basis, Debye):
    X=              0.0000    Y=              0.0000    Z=              0.3602  Tot=              0.3602
 Quadrupole moment (field-independent basis, Debye-Ang):
   XX=            -48.1521   YY=            -59.1117   ZZ=            -59.2637
   XY=              0.0000   XZ=              0.0000   YZ=              0.0000
 Traceless Quadrupole moment (field-independent basis, Debye-Ang):
   XX=              7.3570   YY=             -3.6026   ZZ=             -3.7545
   XY=              0.0000   XZ=              0.0000   YZ=              0.0000
 Octapole moment (field-independent basis, Debye-Ang**2):
  XXX=              0.0000  YYY=              0.0000  ZZZ=             -3.7664  XYY=              0.0000
  XXY=              0.0000  XXZ=              0.4560  XZZ=              0.0000  YZZ=              0.0000
  YYZ=             14.4945  XYZ=              0.0000
 Hexadecapole moment (field-independent basis, Debye-Ang**3):
 XXXX=           -125.8784 YYYY=           -478.4484 ZZZZ=           -424.8094 XXXY=              0.0000
 XXXZ=              0.0000 YYYX=              0.0000 YYYZ=              0.0000 ZZZX=              0.0000
 ZZZY=              0.0000 XXYY=            -91.7581 XXZZ=            -84.3626 YYZZ=           -163.6133
 XXYZ=              0.0000 YYXZ=              0.0000 ZZXY=              0.0000
 N-N= 1.344216869178D+02 E-N=-3.512316082004D+03  KE= 1.299566961308D+03
 Symmetry A1   KE= 7.543826293568D+02
 Symmetry A2   KE= 3.654412178460D+01
 Symmetry B1   KE= 7.514512102266D+01
 Symmetry B2   KE= 4.334950891442D+02
                          Isotropic Fermi Contact Couplings
        Atom                 a.u.       MegaHertz       Gauss      10(-4) cm-1
     1  Si(29)             0.00671      -5.95992      -2.12665      -1.98801
     2  Si(29)             0.00671      -5.95992      -2.12665      -1.98801
     3  Si(29)            -0.00685       6.08466       2.17116       2.02963
 --------------------------------------------------------
       Center         ----  Spin Dipole Couplings  ----
                      3XX-RR        3YY-RR        3ZZ-RR
 --------------------------------------------------------
     1   Atom       -0.381431      0.108449      0.272982
     2   Atom       -0.381431      0.108449      0.272982
     3   Atom       -0.296218     -0.425842      0.722060
 --------------------------------------------------------
                        XY            XZ            YZ
 --------------------------------------------------------
     1   Atom        0.000000      0.000000      0.648252
     2   Atom        0.000000      0.000000     -0.648252
     3   Atom        0.000000      0.000000      0.000000
 --------------------------------------------------------


 ---------------------------------------------------------------------------------
              Anisotropic Spin Dipole Couplings in Principal Axis System
 ---------------------------------------------------------------------------------

       Atom             a.u.   MegaHertz   Gauss  10(-4) cm-1        Axes

              Baa    -0.4627    49.089    17.516    16.374  0.0000  0.7503 -0.6611
     1 Si(29) Bbb    -0.3814    40.464    14.438    13.497  1.0000  0.0000  0.0000
              Bcc     0.8442   -89.553   -31.955   -29.872  0.0000  0.6611  0.7503
 
              Baa    -0.4627    49.089    17.516    16.374  0.0000  0.7503  0.6611
     2 Si(29) Bbb    -0.3814    40.464    14.438    13.497  1.0000  0.0000  0.0000
              Bcc     0.8442   -89.553   -31.955   -29.872  0.0000 -0.6611  0.7503
 
              Baa    -0.4258    45.175    16.120    15.069  0.0000  1.0000  0.0000
     3 Si(29) Bbb    -0.2962    31.424    11.213    10.482  1.0000  0.0000  0.0000
              Bcc     0.7221   -76.599   -27.332   -25.551  0.0000  0.0000  1.0000
 

 ---------------------------------------------------------------------------------

 1\1\GINC-NODE190\SP\UHF\GFHFB2\Si3(1-,2)\TAM\05-Mar-2012\0\\#N Geom=Al
 lCheck Guess=TCheck SCRF=Check HF/GFHFB2 SCF=Tight\\si3-an-d\\-1,2\Si,
 0,0.,1.2193345702,-0.6332663479\Si,0,0.,-1.2193345702,-0.6332663479\Si
 ,0,0.,0.,1.2665316957\\Version=AM64L-G09RevA.02\State=2-A1\HF=-866.776
 542\S2=0.805169\S2-1=0.\S2A=0.752547\RMSD=3.338e-09\Dipole=0.,0.,0.141
 7124\Quadrupole=5.4697801,-2.6784126,-2.7913675,0.,0.,0.\PG=C02V [C2(S
 i1),SGV(Si2)]\\@


 SCIENCE AND PEACE WILL TRIUMPH OVER IGNORANCE AND WAR

                          -- PASTEUR
 Diagonal vibrational polarizability:
        0.0000000       0.0000000       0.0000000

 Temperature=              298.150000 Pressure=                      1.000000
 E(ZPE)=                     0.002535 E(Thermal)=                    0.006421
 E(CCSD(T))=              -866.962853 E(Empiric)=                   -0.045209
 DE(Plus)=                  -0.011179 DE(2DF)=                      -0.094082
 E(Delta-G3XP)=             -0.940591 DE(HF)=                       -0.020528
 G4(0 K)=                 -868.071907 G4 Energy=                  -868.068021
 G4 Enthalpy=             -868.067076 G4 Free Energy=             -868.099292
 1\1\GINC-NODE190\Mixed\G4\G4\Si3(1-,2)\TAM\05-Mar-2012\0\\# G4 scfcyc=
 500 scf=xqc\\si3-an-d\\-1,2\Si,0,0.,1.2193345702,-0.6332663479\Si,0,0.
 ,-1.2193345702,-0.6332663479\Si,0,0.,0.,1.2665316957\\Version=AM64L-G0
 9RevA.02\State=2-A1\MP2/GTBas1=-866.9180502\MP4/GTBas1=-866.9615597\CC
 SD(T)/G3Bas1=-866.9628533\MP2/GTBas2=-866.9290504\MP4/GTBas2=-866.9727
 383\MP2/GTBas3=-867.0026801\MP4/GTBas3=-867.055642\HF/GTLargeXP=-866.7
 565836\MP2/GTLargeXP=-867.9542716\HF/GFHFB1=-866.7742062\HF/GFHFB2=-86
 6.776542\G4=-868.0719069\FreqCoord=0.,2.304208402,-1.1966999666,0.,-2.
 304208402,-1.1966999666,0.,0.,2.3933980436\PG=C02V [C2(Si1),SGV(Si2)]\
 NImag=0\\-0.00006874,0.,0.08195807,0.,-0.03994359,0.06225242,-0.000004
 63,0.,0.,-0.00006874,0.,-0.06225059,0.00925500,0.,0.08195807,0.,-0.009
 25500,0.01464966,0.,0.03994359,0.06225242,0.00007337,0.,0.,0.00007337,
 0.,0.,-0.00014674,0.,-0.01970748,0.03068859,0.,-0.01970748,-0.03068859
 ,0.,0.03941496,0.,0.04919859,-0.07690208,0.,-0.04919859,-0.07690208,0.
 ,0.,0.15380417\\0.,0.00001698,0.00005070,0.,-0.00001698,0.00005070,0.,
 0.,-0.00010140\\\@
 Job cpu time:  0 days  1 hours  0 minutes 17.3 seconds.
 File lengths (MBytes):  RWF=     86 Int=      0 D2E=      0 Chk=      7 Scr=      1
 Normal termination of Gaussian 09 at Mon Mar  5 12:15:43 2012.
