 Entering Gaussian System, Link 0=g09
 Initial command:
 /usr/local/chem/g09A2/l1.exe /temp0/minh/Gau-14753.inp -scrdir=/temp0/minh/
 Entering Link 1 = /usr/local/chem/g09A2/l1.exe PID=     14975.
  
 Copyright (c) 1988,1990,1992,1993,1995,1998,2003,2009, Gaussian, Inc.
                  All Rights Reserved.
  
 This is part of the Gaussian(R) 09 program.  It is based on
 the Gaussian(R) 03 system (copyright 2003, Gaussian, Inc.),
 the Gaussian(R) 98 system (copyright 1998, Gaussian, Inc.),
 the Gaussian(R) 94 system (copyright 1995, Gaussian, Inc.),
 the Gaussian 92(TM) system (copyright 1992, Gaussian, Inc.),
 the Gaussian 90(TM) system (copyright 1990, Gaussian, Inc.),
 the Gaussian 88(TM) system (copyright 1988, Gaussian, Inc.),
 the Gaussian 86(TM) system (copyright 1986, Carnegie Mellon
 University), and the Gaussian 82(TM) system (copyright 1983,
 Carnegie Mellon University). Gaussian is a federally registered
 trademark of Gaussian, Inc.
  
 This software contains proprietary and confidential information,
 including trade secrets, belonging to Gaussian, Inc.
  
 This software is provided under written license and may be
 used, copied, transmitted, or stored only in accord with that
 written license.
  
 The following legend is applicable only to US Government
 contracts under FAR:
  
                    RESTRICTED RIGHTS LEGEND
  
 Use, reproduction and disclosure by the US Government is
 subject to restrictions as set forth in subparagraphs (a)
 and (c) of the Commercial Computer Software - Restricted
 Rights clause in FAR 52.227-19.
  
 Gaussian, Inc.
 340 Quinnipiac St., Bldg. 40, Wallingford CT 06492
  
  
 ---------------------------------------------------------------
 Warning -- This program may not be used in any manner that
 competes with the business of Gaussian, Inc. or will provide
 assistance to any competitor of Gaussian, Inc.  The licensee
 of this program is prohibited from giving any competitor of
 Gaussian, Inc. access to this program.  By using this program,
 the user acknowledges that Gaussian, Inc. is engaged in the
 business of creating and licensing software in the field of
 computational chemistry and represents and warrants to the
 licensee that it is not a competitor of Gaussian, Inc. and that
 it will not use this program in any manner prohibited above.
 ---------------------------------------------------------------
  

 Cite this work as:
 Gaussian 09, Revision A.02,
 M. J. Frisch, G. W. Trucks, H. B. Schlegel, G. E. Scuseria, 
 M. A. Robb, J. R. Cheeseman, G. Scalmani, V. Barone, B. Mennucci, 
 G. A. Petersson, H. Nakatsuji, M. Caricato, X. Li, H. P. Hratchian, 
 A. F. Izmaylov, J. Bloino, G. Zheng, J. L. Sonnenberg, M. Hada, 
 M. Ehara, K. Toyota, R. Fukuda, J. Hasegawa, M. Ishida, T. Nakajima, 
 Y. Honda, O. Kitao, H. Nakai, T. Vreven, J. A. Montgomery, Jr., 
 J. E. Peralta, F. Ogliaro, M. Bearpark, J. J. Heyd, E. Brothers, 
 K. N. Kudin, V. N. Staroverov, R. Kobayashi, J. Normand, 
 K. Raghavachari, A. Rendell, J. C. Burant, S. S. Iyengar, J. Tomasi, 
 M. Cossi, N. Rega, J. M. Millam, M. Klene, J. E. Knox, J. B. Cross, 
 V. Bakken, C. Adamo, J. Jaramillo, R. Gomperts, R. E. Stratmann, 
 O. Yazyev, A. J. Austin, R. Cammi, C. Pomelli, J. W. Ochterski, 
 R. L. Martin, K. Morokuma, V. G. Zakrzewski, G. A. Voth, 
 P. Salvador, J. J. Dannenberg, S. Dapprich, A. D. Daniels, 
 O. Farkas, J. B. Foresman, J. V. Ortiz, J. Cioslowski, 
 and D. J. Fox, Gaussian, Inc., Wallingford CT, 2009.
 
 ******************************************
 Gaussian 09:  AM64L-G09RevA.02 11-Jun-2009
                23-Feb-2012 
 ******************************************
 %NprocShared=12
 Will use up to   12 processors via shared memory.
 %mem=70000MB
 %chk=si12-anion-2
 --------------------------------------------------------------
 #n g4 test opt=(readfc,noeigentest) # geom=allcheck guess=read
 --------------------------------------------------------------
 1/10=3,11=1,14=-1,18=20,19=15,26=3,29=7,38=1/1,3;
 2/9=110,12=2,40=1/2;
 3/5=35,7=104,11=2,14=-4,16=1,25=1,30=1,71=1,74=-5,116=-2/1,2,3;
 4/5=1/1;
 5/5=2,38=6/2;
 6/7=2,8=2,9=2,10=2,28=1/1;
 7//1,2,3,16;
 1/11=1,14=-1,18=20,19=15/3(2);
 2/9=110/2;
 99//99;
 2/9=110/2;
 3/5=35,7=104,11=2,14=-2,16=1,25=1,30=1,71=1,74=-5/1,2,3;
 4/5=5,16=3/1;
 5/5=2,38=5/2;
 7//1,2,3,16;
 1/11=1,14=-1,18=20,19=15/3(-5);
 2/9=110/2;
 6/7=2,8=2,9=2,10=2,19=2,28=1/1;
 99/9=1/99;
 ---------------------------------
 Si-12 (-) anion 2d struct doublet
 ---------------------------------
 No Z-matrix found on checkpoint file.
 Cartesian coordinates read from the checkpoint file:
 si12-anion-2.chk
 Charge = -1 Multiplicity = 2
  Si                                               -0.125026895100     -0.083159321100      3.608121432000
  Si                                               -1.682620230500     -0.110434500400      1.656446843600
  Si                                                0.472531762800      1.074821379100      1.665863296100
  Si                                                0.614479850500     -1.503251428900      1.758853765200
  Si                                                1.913605551800     -0.493321388800      0.000000000000
  Si                                               -1.398062618700      1.730507147300      0.000000000000
  Si                                               -1.052256215200     -1.874037988300      0.000000000000
  Si                                               -1.682620230500     -0.110434500400     -1.656446843600
  Si                                                0.472531762800      1.074821379100     -1.665863296100
  Si                                                0.614479850500     -1.503251428900     -1.758853765200
  Si                                               -0.125026895100     -0.083159321100     -3.608121432000
  Si                                                1.983021199000      1.900646021600      0.000000000000
 Recover connectivity data from disk.

 GradGradGradGradGradGradGradGradGradGradGradGradGradGradGradGradGradGrad
 Berny optimization.
 Initialization pass.
 No redundant coordinates on chk file, so ReadFC converted to ReadCartesianFC.
 Cartesian force constants read from checkpoint file:
 si12-anion-2.chk
                           ----------------------------
                           !    Initial Parameters    !
                           ! (Angstroms and Degrees)  !
 --------------------------                            --------------------------
 ! Name  Definition              Value          Derivative Info.                !
 --------------------------------------------------------------------------------
 ! R1    R(1,2)                  2.4972         D2E/DX2 =    0.028              !
 ! R2    R(1,3)                  2.3389         D2E/DX2 =    0.0514             !
 ! R3    R(1,4)                  2.4461         D2E/DX2 =    0.0327             !
 ! R4    R(2,3)                  2.4596         D2E/DX2 =    0.0206             !
 ! R5    R(2,4)                  2.6883         D2E/DX2 =    0.0119             !
 ! R6    R(2,6)                  2.4928         D2E/DX2 =    0.0199             !
 ! R7    R(2,7)                  2.5003         D2E/DX2 =    0.019              !
 ! R8    R(3,4)                  2.5837         D2E/DX2 =    0.0127             !
 ! R9    R(3,5)                  2.7039         D2E/DX2 =    0.01               !
 ! R10   R(3,6)                  2.5892         D2E/DX2 =    0.0141             !
 ! R11   R(3,12)                 2.3956         D2E/DX2 =    0.0401             !
 ! R12   R(4,5)                  2.4086         D2E/DX2 =    0.0283             !
 ! R13   R(4,7)                  2.4513         D2E/DX2 =    0.0222             !
 ! R14   R(5,9)                  2.7039         D2E/DX2 =    0.01               !
 ! R15   R(5,10)                 2.4086         D2E/DX2 =    0.0283             !
 ! R16   R(5,12)                 2.395          D2E/DX2 =    0.027              !
 ! R17   R(6,8)                  2.4928         D2E/DX2 =    0.0199             !
 ! R18   R(6,9)                  2.5892         D2E/DX2 =    0.0141             !
 ! R19   R(7,8)                  2.5003         D2E/DX2 =    0.019              !
 ! R20   R(7,10)                 2.4513         D2E/DX2 =    0.0222             !
 ! R21   R(8,9)                  2.4596         D2E/DX2 =    0.0206             !
 ! R22   R(8,10)                 2.6883         D2E/DX2 =    0.0119             !
 ! R23   R(8,11)                 2.4972         D2E/DX2 =    0.028              !
 ! R24   R(9,10)                 2.5837         D2E/DX2 =    0.0127             !
 ! R25   R(9,11)                 2.3389         D2E/DX2 =    0.0514             !
 ! R26   R(9,12)                 2.3956         D2E/DX2 =    0.0401             !
 ! R27   R(10,11)                2.4461         D2E/DX2 =    0.0327             !
 ! A1    A(1,2,6)              116.1087         D2E/DX2 =    0.0036             !
 ! A2    A(1,2,7)              111.6064         D2E/DX2 =    0.0025             !
 ! A3    A(3,2,7)               96.9806         D2E/DX2 =    0.0025             !
 ! A4    A(4,2,6)              108.0831         D2E/DX2 =    0.0026             !
 ! A5    A(6,2,7)               92.9752         D2E/DX2 =    0.0035             !
 ! A6    A(1,3,5)              111.1404         D2E/DX2 =    0.0022             !
 ! A7    A(1,3,6)              118.3643         D2E/DX2 =    0.0028             !
 ! A8    A(1,3,12)             155.4016         D2E/DX2 =    0.0027             !
 ! A9    A(2,3,5)              100.6705         D2E/DX2 =    0.0016             !
 ! A10   A(2,3,12)             135.7215         D2E/DX2 =    0.0022             !
 ! A11   A(4,3,6)              108.3932         D2E/DX2 =    0.0021             !
 ! A12   A(4,3,12)             109.5345         D2E/DX2 =    0.0015             !
 ! A13   A(5,3,6)               97.7887         D2E/DX2 =    0.0027             !
 ! A14   A(6,3,12)              85.4591         D2E/DX2 =    0.0024             !
 ! A15   A(1,4,5)              118.1453         D2E/DX2 =    0.0035             !
 ! A16   A(1,4,7)              115.1317         D2E/DX2 =    0.0022             !
 ! A17   A(2,4,5)              102.4637         D2E/DX2 =    0.0022             !
 ! A18   A(3,4,7)               95.0343         D2E/DX2 =    0.0023             !
 ! A19   A(5,4,7)               84.6179         D2E/DX2 =    0.0033             !
 ! A20   A(3,5,9)               76.0646         D2E/DX2 =    0.002              !
 ! A21   A(3,5,10)             113.93           D2E/DX2 =    0.0025             !
 ! A22   A(4,5,9)              113.93           D2E/DX2 =    0.0025             !
 ! A23   A(4,5,10)              93.8139         D2E/DX2 =    0.003              !
 ! A24   A(4,5,12)             115.7702         D2E/DX2 =    0.0025             !
 ! A25   A(10,5,12)            115.7702         D2E/DX2 =    0.0025             !
 ! A26   A(2,6,8)               83.2884         D2E/DX2 =    0.0033             !
 ! A27   A(2,6,9)              108.8433         D2E/DX2 =    0.0038             !
 ! A28   A(3,6,8)              108.8433         D2E/DX2 =    0.0038             !
 ! A29   A(3,6,9)               80.0886         D2E/DX2 =    0.0026             !
 ! A30   A(2,7,8)               82.9817         D2E/DX2 =    0.0027             !
 ! A31   A(2,7,10)             122.689          D2E/DX2 =    0.0041             !
 ! A32   A(4,7,8)              122.689          D2E/DX2 =    0.0041             !
 ! A33   A(4,7,10)              91.6982         D2E/DX2 =    0.0029             !
 ! A34   A(6,8,7)               92.9752         D2E/DX2 =    0.0035             !
 ! A35   A(6,8,10)             108.0831         D2E/DX2 =    0.0026             !
 ! A36   A(6,8,11)             116.1087         D2E/DX2 =    0.0036             !
 ! A37   A(7,8,9)               96.9806         D2E/DX2 =    0.0025             !
 ! A38   A(7,8,11)             111.6064         D2E/DX2 =    0.0025             !
 ! A39   A(5,9,6)               97.7887         D2E/DX2 =    0.0027             !
 ! A40   A(5,9,8)              100.6705         D2E/DX2 =    0.0016             !
 ! A41   A(5,9,11)             111.1404         D2E/DX2 =    0.0022             !
 ! A42   A(6,9,10)             108.3932         D2E/DX2 =    0.0021             !
 ! A43   A(6,9,11)             118.3643         D2E/DX2 =    0.0028             !
 ! A44   A(6,9,12)              85.4591         D2E/DX2 =    0.0024             !
 ! A45   A(8,9,12)             135.7215         D2E/DX2 =    0.0022             !
 ! A46   A(10,9,12)            109.5345         D2E/DX2 =    0.0015             !
 ! A47   A(11,9,12)            155.4016         D2E/DX2 =    0.0027             !
 ! A48   A(5,10,7)              84.6179         D2E/DX2 =    0.0033             !
 ! A49   A(5,10,8)             102.4637         D2E/DX2 =    0.0022             !
 ! A50   A(5,10,11)            118.1453         D2E/DX2 =    0.0035             !
 ! A51   A(7,10,9)              95.0343         D2E/DX2 =    0.0023             !
 ! A52   A(7,10,11)            115.1317         D2E/DX2 =    0.0022             !
 ! A53   A(3,12,9)              88.118          D2E/DX2 =    0.0036             !
 ! D1    D(7,2,3,5)             -2.9561         D2E/DX2 =    0.0012             !
 ! D2    D(7,2,3,12)            48.0185         D2E/DX2 =    0.0021             !
 ! D3    D(6,2,4,5)             -5.7862         D2E/DX2 =    0.0014             !
 ! D4    D(1,2,6,8)            136.795          D2E/DX2 =    0.0028             !
 ! D5    D(1,2,6,9)             84.1135         D2E/DX2 =    0.0029             !
 ! D6    D(4,2,6,8)             76.3065         D2E/DX2 =    0.0015             !
 ! D7    D(4,2,6,9)             23.6251         D2E/DX2 =    0.0013             !
 ! D8    D(7,2,6,8)             20.9398         D2E/DX2 =    0.001              !
 ! D9    D(7,2,6,9)            -31.7416         D2E/DX2 =    0.0012             !
 ! D10   D(1,2,7,8)           -140.5285         D2E/DX2 =    0.0037             !
 ! D11   D(1,2,7,10)           -85.3191         D2E/DX2 =    0.0036             !
 ! D12   D(3,2,7,8)            -84.0799         D2E/DX2 =    0.0014             !
 ! D13   D(3,2,7,10)           -28.8705         D2E/DX2 =    0.0013             !
 ! D14   D(6,2,7,8)            -20.8879         D2E/DX2 =    0.001              !
 ! D15   D(6,2,7,10)            34.3215         D2E/DX2 =    0.0013             !
 ! D16   D(6,3,4,7)              4.5835         D2E/DX2 =    0.0017             !
 ! D17   D(12,3,4,7)           -87.1041         D2E/DX2 =    0.0033             !
 ! D18   D(1,3,5,9)            145.8838         D2E/DX2 =    0.0023             !
 ! D19   D(1,3,5,10)            97.7335         D2E/DX2 =    0.0029             !
 ! D20   D(2,3,5,9)             81.2382         D2E/DX2 =    0.0012             !
 ! D21   D(2,3,5,10)            33.0879         D2E/DX2 =    0.0016             !
 ! D22   D(6,3,5,9)             21.3432         D2E/DX2 =    0.0008             !
 ! D23   D(6,3,5,10)           -26.8071         D2E/DX2 =    0.0013             !
 ! D24   D(1,3,6,8)            -90.2459         D2E/DX2 =    0.0023             !
 ! D25   D(1,3,6,9)           -141.1695         D2E/DX2 =    0.0017             !
 ! D26   D(4,3,6,8)            -25.7844         D2E/DX2 =    0.0016             !
 ! D27   D(4,3,6,9)            -76.708          D2E/DX2 =    0.0015             !
 ! D28   D(5,3,6,8)             28.9322         D2E/DX2 =    0.0012             !
 ! D29   D(5,3,6,9)            -21.9915         D2E/DX2 =    0.0008             !
 ! D30   D(12,3,6,8)            83.3071         D2E/DX2 =    0.0017             !
 ! D31   D(12,3,6,9)            32.3835         D2E/DX2 =    0.0011             !
 ! D32   D(1,3,12,9)           131.4801         D2E/DX2 =    0.0056             !
 ! D33   D(2,3,12,9)             0.2043         D2E/DX2 =    0.0018             !
 ! D34   D(4,3,12,9)            73.1309         D2E/DX2 =    0.0016             !
 ! D35   D(6,3,12,9)           -34.7889         D2E/DX2 =    0.001              !
 ! D36   D(1,4,5,9)            -73.909          D2E/DX2 =    0.0027             !
 ! D37   D(1,4,5,10)          -133.0927         D2E/DX2 =    0.0026             !
 ! D38   D(1,4,5,12)           -12.0262         D2E/DX2 =    0.0033             !
 ! D39   D(2,4,5,9)            -13.7571         D2E/DX2 =    0.0013             !
 ! D40   D(2,4,5,10)           -72.9408         D2E/DX2 =    0.0014             !
 ! D41   D(2,4,5,12)            48.1257         D2E/DX2 =    0.0023             !
 ! D42   D(7,4,5,9)             41.7737         D2E/DX2 =    0.0011             !
 ! D43   D(7,4,5,10)           -17.41           D2E/DX2 =    0.0008             !
 ! D44   D(7,4,5,12)           103.6565         D2E/DX2 =    0.0027             !
 ! D45   D(1,4,7,8)             73.67           D2E/DX2 =    0.0039             !
 ! D46   D(1,4,7,10)           135.6951         D2E/DX2 =    0.0038             !
 ! D47   D(3,4,7,8)             19.7758         D2E/DX2 =    0.0015             !
 ! D48   D(3,4,7,10)            81.8009         D2E/DX2 =    0.0017             !
 ! D49   D(5,4,7,8)            -44.9595         D2E/DX2 =    0.0013             !
 ! D50   D(5,4,7,10)            17.0656         D2E/DX2 =    0.0009             !
 ! D51   D(3,5,9,6)            -21.3432         D2E/DX2 =    0.0008             !
 ! D52   D(3,5,9,8)            -81.2382         D2E/DX2 =    0.0012             !
 ! D53   D(3,5,9,11)          -145.8838         D2E/DX2 =    0.0023             !
 ! D54   D(4,5,9,6)             26.8071         D2E/DX2 =    0.0013             !
 ! D55   D(4,5,9,8)            -33.0879         D2E/DX2 =    0.0016             !
 ! D56   D(4,5,9,11)           -97.7335         D2E/DX2 =    0.0029             !
 ! D57   D(3,5,10,7)           -41.7737         D2E/DX2 =    0.0011             !
 ! D58   D(3,5,10,8)            13.7571         D2E/DX2 =    0.0013             !
 ! D59   D(3,5,10,11)           73.909          D2E/DX2 =    0.0027             !
 ! D60   D(4,5,10,7)            17.41           D2E/DX2 =    0.0008             !
 ! D61   D(4,5,10,8)            72.9408         D2E/DX2 =    0.0014             !
 ! D62   D(4,5,10,11)          133.0927         D2E/DX2 =    0.0026             !
 ! D63   D(12,5,10,7)         -103.6565         D2E/DX2 =    0.0027             !
 ! D64   D(12,5,10,8)          -48.1257         D2E/DX2 =    0.0023             !
 ! D65   D(12,5,10,11)          12.0262         D2E/DX2 =    0.0033             !
 ! D66   D(2,6,8,7)            -20.9398         D2E/DX2 =    0.001              !
 ! D67   D(2,6,8,10)           -76.3065         D2E/DX2 =    0.0015             !
 ! D68   D(2,6,8,11)          -136.795          D2E/DX2 =    0.0028             !
 ! D69   D(3,6,8,7)             31.7416         D2E/DX2 =    0.0012             !
 ! D70   D(3,6,8,10)           -23.6251         D2E/DX2 =    0.0013             !
 ! D71   D(3,6,8,11)           -84.1135         D2E/DX2 =    0.0029             !
 ! D72   D(2,6,9,5)            -28.9322         D2E/DX2 =    0.0012             !
 ! D73   D(2,6,9,10)            25.7844         D2E/DX2 =    0.0016             !
 ! D74   D(2,6,9,11)            90.2459         D2E/DX2 =    0.0023             !
 ! D75   D(2,6,9,12)           -83.3071         D2E/DX2 =    0.0017             !
 ! D76   D(3,6,9,5)             21.9915         D2E/DX2 =    0.0008             !
 ! D77   D(3,6,9,10)            76.708          D2E/DX2 =    0.0015             !
 ! D78   D(3,6,9,11)           141.1695         D2E/DX2 =    0.0017             !
 ! D79   D(3,6,9,12)           -32.3835         D2E/DX2 =    0.0011             !
 ! D80   D(2,7,8,6)             20.8879         D2E/DX2 =    0.001              !
 ! D81   D(2,7,8,9)             84.0799         D2E/DX2 =    0.0014             !
 ! D82   D(2,7,8,11)           140.5285         D2E/DX2 =    0.0037             !
 ! D83   D(4,7,8,6)            -34.3215         D2E/DX2 =    0.0013             !
 ! D84   D(4,7,8,9)             28.8705         D2E/DX2 =    0.0013             !
 ! D85   D(4,7,8,11)            85.3191         D2E/DX2 =    0.0036             !
 ! D86   D(2,7,10,5)            44.9595         D2E/DX2 =    0.0013             !
 ! D87   D(2,7,10,9)           -19.7758         D2E/DX2 =    0.0015             !
 ! D88   D(2,7,10,11)          -73.67           D2E/DX2 =    0.0039             !
 ! D89   D(4,7,10,5)           -17.0656         D2E/DX2 =    0.0009             !
 ! D90   D(4,7,10,9)           -81.8009         D2E/DX2 =    0.0017             !
 ! D91   D(4,7,10,11)         -135.6951         D2E/DX2 =    0.0038             !
 ! D92   D(7,8,9,5)              2.9561         D2E/DX2 =    0.0012             !
 ! D93   D(7,8,9,12)           -48.0185         D2E/DX2 =    0.0021             !
 ! D94   D(6,8,10,5)             5.7862         D2E/DX2 =    0.0014             !
 ! D95   D(6,9,10,7)            -4.5835         D2E/DX2 =    0.0017             !
 ! D96   D(12,9,10,7)           87.1041         D2E/DX2 =    0.0033             !
 ! D97   D(6,9,12,3)            34.7889         D2E/DX2 =    0.001              !
 ! D98   D(8,9,12,3)            -0.2043         D2E/DX2 =    0.0018             !
 ! D99   D(10,9,12,3)          -73.1309         D2E/DX2 =    0.0016             !
 ! D100  D(11,9,12,3)         -131.4801         D2E/DX2 =    0.0056             !
 --------------------------------------------------------------------------------
 Trust Radius=3.00D-01 FncErr=1.00D-07 GrdErr=1.00D-06
 Number of steps in this run= 100 maximum allowed number of steps= 100.
 GradGradGradGradGradGradGradGradGradGradGradGradGradGradGradGradGradGrad

                          Input orientation:                          
 ---------------------------------------------------------------------
 Center     Atomic      Atomic             Coordinates (Angstroms)
 Number     Number       Type             X           Y           Z
 ---------------------------------------------------------------------
      1         14           0       -0.125027   -0.083159    3.608121
      2         14           0       -1.682620   -0.110435    1.656447
      3         14           0        0.472532    1.074821    1.665863
      4         14           0        0.614480   -1.503251    1.758854
      5         14           0        1.913606   -0.493321    0.000000
      6         14           0       -1.398063    1.730507    0.000000
      7         14           0       -1.052256   -1.874038    0.000000
      8         14           0       -1.682620   -0.110435   -1.656447
      9         14           0        0.472532    1.074821   -1.665863
     10         14           0        0.614480   -1.503251   -1.758854
     11         14           0       -0.125027   -0.083159   -3.608121
     12         14           0        1.983021    1.900646    0.000000
 ---------------------------------------------------------------------
                    Distance matrix (angstroms):
                    1          2          3          4          5
     1  Si   0.000000
     2  Si   2.497173   0.000000
     3  Si   2.338881   2.459594   0.000000
     4  Si   2.446083   2.688326   2.583652   0.000000
     5  Si   4.164468   3.977846   2.703861   2.408579   0.000000
     6  Si   4.234211   2.492761   2.589237   4.195365   3.989055
     7  Si   4.133466   2.500294   3.714277   2.451338   3.271500
     8  Si   5.490220   3.312894   4.133673   4.345214   3.977846
     9  Si   5.432579   4.133673   3.331727   4.288974   2.703861
    10  Si   5.600710   4.345214   4.288974   3.517708   2.408579
    11  Si   7.216243   5.490220   5.432579   5.600710   4.164468
    12  Si   4.625785   4.497242   2.395551   4.068537   2.394974
                    6          7          8          9         10
     6  Si   0.000000
     7  Si   3.621095   0.000000
     8  Si   2.492761   2.500294   0.000000
     9  Si   2.589237   3.714277   2.459594   0.000000
    10  Si   4.195365   2.451338   2.688326   2.583652   0.000000
    11  Si   4.234211   4.133466   2.497173   2.338881   2.446083
    12  Si   3.385362   4.843671   4.497242   2.395551   4.068537
                   11         12
    11  Si   0.000000
    12  Si   4.625785   0.000000
 Stoichiometry    Si12(1-,2)
 Framework group  CS[SG(Si4),X(Si8)]
 Deg. of freedom    17
 Full point group                 CS      NOp   2
 Largest Abelian subgroup         CS      NOp   2
 Largest concise Abelian subgroup CS      NOp   2
                         Standard orientation:                         
 ---------------------------------------------------------------------
 Center     Atomic      Atomic             Coordinates (Angstroms)
 Number     Number       Type             X           Y           Z
 ---------------------------------------------------------------------
      1         14           0        0.082595   -0.126912    3.608121
      2         14           0        0.082595   -1.684744    1.656447
      3         14           0       -1.064745    0.490829    1.665863
      4         14           0        1.515417    0.587618    1.758854
      5         14           0        0.528388    1.904226    0.000000
      6         14           0       -1.753082   -1.367998    0.000000
      7         14           0        1.856965   -1.085355    0.000000
      8         14           0        0.082595   -1.684744   -1.656447
      9         14           0       -1.064745    0.490829   -1.665863
     10         14           0        1.515417    0.587618   -1.758854
     11         14           0        0.082595   -0.126912   -3.608121
     12         14           0       -1.863997    2.015546    0.000000
 ---------------------------------------------------------------------
 Rotational constants (GHZ):      0.5193499      0.3076938      0.2885730
 Standard basis: GTBas3 (6D, 7F)
 There are   216 symmetry adapted basis functions of A'  symmetry.
 There are   168 symmetry adapted basis functions of A"  symmetry.
 Integral buffers will be    131072 words long.
 Raffenetti 2 integral format.
 Two-electron integral symmetry is turned on.
   384 basis functions,   816 primitive gaussians,   420 cartesian basis functions
    85 alpha electrons       84 beta electrons
       nuclear repulsion energy      2074.3833304633 Hartrees.
 NAtoms=   12 NActive=   12 NUniq=    8 SFac= 1.69D+00 NAtFMM=   80 NAOKFM=F Big=F
 One-electron integrals computed using PRISM.
 NBasis=   384 RedAO= T  NBF=   216   168
 NBsUse=   384 1.00D-06 NBFU=   216   168
 Initial guess read from the checkpoint file:  si12-anion-2.chk
 B after Tr=     0.000000    0.000000    0.000000
         Rot=    1.000000    0.000000    0.000000    0.000000 Ang=   0.00 deg.
 Initial guess orbital symmetries:
 Alpha Orbitals:
       Occupied  (A') (A") (A') (A') (A') (A') (A") (A') (A") (A')
                 (A") (A') (A') (A") (A') (A') (A') (A') (A") (A')
                 (A") (A') (A") (A') (A') (A") (A') (A") (A') (A")
                 (A') (A') (A') (A") (A') (A") (A') (A") (A') (A')
                 (A") (A') (A") (A') (A") (A') (A') (A") (A") (A')
                 (A') (A") (A") (A') (A') (A") (A") (A') (A") (A')
                 (A') (A") (A') (A') (A') (A") (A') (A") (A") (A')
                 (A') (A') (A') (A") (A') (A") (A") (A') (A') (A")
                 (A') (A') (A") (A") (A')
       Virtual   (A') (A') (A") (A') (A") (A") (A') (A') (A') (A")
                 (A') (A') (A') (A") (A") (A') (A") (A") (A") (A')
                 (A") (A') (A') (A") (A") (A') (A') (A') (A") (A')
                 (A") (A') (A') (A') (A") (A") (A') (A') (A") (A')
                 (A") (A') (A") (A') (A") (A') (A') (A') (A') (A")
                 (A') (A") (A') (A") (A") (A') (A') (A") (A') (A")
                 (A') (A") (A') (A') (A") (A') (A") (A') (A") (A")
                 (A') (A") (A') (A") (A") (A') (A') (A") (A') (A')
                 (A") (A") (A") (A') (A') (A") (A') (A') (A') (A')
                 (A") (A') (A') (A") (A") (A') (A") (A') (A") (A')
                 (A') (A") (A') (A') (A") (A') (A") (A') (A') (A")
                 (A") (A') (A') (A") (A") (A") (A') (A') (A') (A')
                 (A") (A') (A") (A") (A') (A") (A') (A') (A") (A')
                 (A") (A') (A') (A") (A') (A') (A") (A') (A") (A')
                 (A") (A') (A') (A') (A') (A') (A') (A') (A') (A')
                 (A') (A') (A') (A') (A') (A') (A') (A') (A') (A')
                 (A') (A') (A') (A') (A') (A') (A') (A') (A') (A')
                 (A') (A') (A') (A') (A') (A') (A') (A') (A') (A')
                 (A') (A') (A') (A') (A') (A') (A') (A') (A') (A')
                 (A') (A') (A') (A') (A') (A') (A') (A') (A') (A')
                 (A') (A') (A') (A') (A') (A') (A') (A') (A') (A')
                 (A') (A') (A') (A') (A') (A') (A') (A') (A') (A')
                 (A') (A') (A') (A') (A') (A') (A') (A") (A") (A")
                 (A") (A") (A") (A") (A") (A") (A") (A") (A") (A")
                 (A") (A") (A") (A") (A") (A") (A") (A") (A") (A")
                 (A") (A") (A") (A") (A") (A") (A") (A") (A") (A")
                 (A") (A") (A") (A") (A") (A") (A") (A") (A") (A")
                 (A") (A") (A") (A") (A") (A") (A") (A") (A") (A")
                 (A") (A") (A") (A") (A") (A") (A") (A") (A") (A")
                 (A") (A") (A") (A") (A") (A") (A") (A") (A")
 Beta  Orbitals:
       Occupied  (A') (A") (A') (A') (A') (A') (A") (A') (A") (A')
                 (A") (A') (A') (A") (A') (A') (A') (A') (A") (A')
                 (A") (A') (A") (A') (A') (A") (A') (A") (A') (A")
                 (A') (A') (A") (A') (A") (A') (A') (A") (A') (A")
                 (A') (A') (A") (A') (A") (A') (A") (A") (A') (A')
                 (A') (A") (A") (A') (A') (A") (A') (A") (A") (A')
                 (A') (A") (A') (A') (A') (A") (A') (A") (A") (A')
                 (A') (A') (A') (A") (A') (A") (A") (A') (A') (A")
                 (A') (A') (A") (A")
       Virtual   (A') (A') (A') (A") (A') (A") (A") (A') (A') (A')
                 (A") (A') (A') (A') (A") (A") (A') (A") (A") (A")
                 (A') (A") (A') (A') (A") (A') (A") (A') (A') (A")
                 (A') (A") (A') (A') (A') (A") (A") (A') (A') (A")
                 (A') (A") (A') (A") (A') (A") (A') (A') (A') (A')
                 (A") (A') (A") (A') (A") (A") (A') (A') (A") (A')
                 (A") (A') (A") (A') (A') (A") (A') (A") (A') (A")
                 (A") (A') (A") (A') (A") (A") (A') (A") (A') (A')
                 (A") (A') (A") (A") (A') (A') (A") (A') (A') (A')
                 (A') (A") (A') (A") (A') (A") (A') (A") (A') (A")
                 (A') (A') (A") (A') (A') (A") (A') (A") (A') (A')
                 (A") (A") (A') (A') (A") (A") (A") (A') (A') (A')
                 (A') (A") (A') (A") (A") (A') (A") (A') (A') (A")
                 (A') (A") (A') (A') (A") (A') (A') (A") (A') (A")
                 (A') (A") (A') (A') (A') (A') (A') (A') (A') (A')
                 (A') (A') (A') (A') (A') (A') (A') (A') (A') (A')
                 (A') (A') (A') (A') (A') (A') (A') (A') (A') (A')
                 (A') (A') (A') (A') (A') (A') (A') (A') (A') (A')
                 (A') (A') (A') (A') (A') (A') (A') (A') (A') (A')
                 (A') (A') (A') (A') (A') (A') (A') (A') (A') (A')
                 (A') (A') (A') (A') (A') (A') (A') (A') (A') (A')
                 (A') (A') (A') (A') (A') (A') (A') (A') (A') (A')
                 (A') (A') (A') (A') (A') (A') (A') (A') (A") (A")
                 (A") (A") (A") (A") (A") (A") (A") (A") (A") (A")
                 (A") (A") (A") (A") (A") (A") (A") (A") (A") (A")
                 (A") (A") (A") (A") (A") (A") (A") (A") (A") (A")
                 (A") (A") (A") (A") (A") (A") (A") (A") (A") (A")
                 (A") (A") (A") (A") (A") (A") (A") (A") (A") (A")
                 (A") (A") (A") (A") (A") (A") (A") (A") (A") (A")
                 (A") (A") (A") (A") (A") (A") (A") (A") (A") (A")
 Initial guess <Sx>= 0.0000 <Sy>= 0.0000 <Sz>= 0.5000 <S**2>= 0.7566 S= 0.5033
 Requested convergence on RMS density matrix=1.00D-08 within 128 cycles.
 Requested convergence on MAX density matrix=1.00D-06.
 Requested convergence on             energy=1.00D-06.
 No special actions if energy rises.
 Keep R1 and R2 ints in memory in canonical form, NReq=7854377779.
 SCF Done:  E(UB3LYP) =  -3474.00097541     A.U. after   16 cycles
             Convg  =    0.7347D-08             -V/T =  2.0036
 <Sx>= 0.0000 <Sy>= 0.0000 <Sz>= 0.5000 <S**2>= 0.7577 S= 0.5038
 <L.S>= 0.000000000000E+00
 Annihilation of the first spin contaminant:
 S**2 before annihilation     0.7577,   after     0.7500

 **********************************************************************

            Population analysis using the SCF density.

 **********************************************************************

 Orbital symmetries:
 Alpha Orbitals:
       Occupied  (A') (A') (A") (A') (A') (A') (A") (A') (A') (A")
                 (A") (A') (A') (A") (A') (A') (A') (A') (A") (A")
                 (A') (A') (A") (A') (A') (A') (A") (A") (A') (A")
                 (A') (A') (A') (A") (A') (A") (A') (A") (A') (A')
                 (A") (A") (A') (A') (A") (A') (A') (A") (A") (A')
                 (A") (A') (A") (A') (A") (A') (A") (A') (A') (A")
                 (A') (A") (A') (A') (A') (A") (A') (A") (A") (A')
                 (A') (A') (A') (A") (A') (A") (A") (A') (A') (A')
                 (A") (A') (A") (A") (A')
       Virtual   (A') (A') (A") (A') (A") (A") (A') (A') (A') (A")
                 (A') (A') (A') (A") (A') (A") (A") (A") (A') (A")
                 (A") (A') (A') (A') (A") (A') (A") (A") (A') (A')
                 (A") (A') (A') (A') (A") (A') (A") (A') (A') (A')
                 (A") (A') (A") (A') (A") (A") (A") (A') (A') (A')
                 (A') (A') (A") (A') (A") (A") (A') (A') (A") (A')
                 (A') (A") (A") (A") (A') (A") (A') (A') (A") (A')
                 (A') (A") (A') (A") (A') (A") (A') (A") (A") (A')
                 (A") (A") (A') (A') (A") (A') (A") (A') (A") (A")
                 (A') (A') (A") (A') (A') (A') (A") (A") (A') (A')
                 (A') (A') (A") (A') (A") (A') (A") (A') (A") (A')
                 (A') (A") (A') (A') (A") (A') (A") (A') (A") (A")
                 (A') (A") (A') (A") (A') (A') (A") (A') (A") (A')
                 (A") (A") (A') (A') (A") (A') (A') (A") (A') (A")
                 (A') (A") (A") (A') (A") (A') (A') (A') (A") (A')
                 (A") (A') (A") (A') (A") (A') (A") (A') (A') (A")
                 (A') (A") (A") (A") (A') (A') (A") (A') (A') (A')
                 (A") (A') (A") (A') (A") (A') (A') (A") (A') (A")
                 (A") (A') (A') (A") (A") (A') (A') (A") (A") (A')
                 (A") (A') (A') (A") (A') (A") (A") (A') (A') (A")
                 (A') (A") (A') (A") (A') (A") (A') (A') (A') (A")
                 (A') (A") (A") (A') (A') (A') (A") (A') (A") (A')
                 (A") (A') (A") (A") (A') (A") (A') (A') (A') (A")
                 (A") (A') (A") (A') (A") (A') (A") (A') (A") (A')
                 (A") (A') (A") (A') (A") (A') (A") (A") (A') (A')
                 (A") (A') (A") (A') (A') (A") (A') (A') (A') (A")
                 (A') (A") (A') (A') (A") (A") (A') (A') (A") (A")
                 (A") (A') (A") (A') (A") (A') (A') (A") (A") (A')
                 (A') (A') (A") (A') (A') (A") (A') (A") (A") (A')
                 (A') (A') (A") (A') (A") (A") (A') (A') (A')
 Beta  Orbitals:
       Occupied  (A') (A') (A") (A') (A') (A') (A") (A') (A') (A")
                 (A") (A') (A') (A") (A') (A') (A') (A') (A") (A")
                 (A') (A') (A") (A') (A') (A") (A') (A") (A') (A")
                 (A') (A") (A') (A') (A") (A') (A") (A') (A') (A')
                 (A") (A') (A") (A") (A') (A') (A') (A") (A") (A')
                 (A") (A') (A") (A') (A") (A') (A") (A') (A') (A")
                 (A') (A") (A') (A') (A') (A") (A') (A") (A") (A')
                 (A') (A') (A') (A") (A') (A") (A") (A') (A') (A")
                 (A') (A') (A") (A")
       Virtual   (A') (A') (A') (A") (A') (A") (A") (A') (A') (A')
                 (A") (A') (A') (A') (A") (A') (A") (A") (A") (A")
                 (A') (A") (A') (A') (A') (A") (A') (A") (A') (A")
                 (A') (A") (A') (A') (A") (A') (A') (A") (A') (A')
                 (A') (A") (A') (A") (A') (A") (A") (A") (A') (A')
                 (A') (A') (A") (A') (A') (A") (A") (A') (A') (A")
                 (A') (A') (A") (A") (A") (A') (A") (A') (A') (A")
                 (A') (A") (A') (A") (A') (A') (A") (A') (A") (A")
                 (A") (A') (A") (A') (A') (A") (A") (A') (A') (A")
                 (A") (A') (A") (A') (A') (A') (A') (A") (A") (A')
                 (A') (A') (A') (A") (A') (A") (A') (A") (A') (A")
                 (A') (A') (A") (A') (A') (A") (A') (A") (A') (A")
                 (A") (A') (A") (A') (A") (A') (A') (A") (A') (A")
                 (A') (A") (A") (A') (A') (A") (A') (A") (A') (A')
                 (A") (A') (A") (A") (A') (A") (A') (A') (A') (A")
                 (A') (A") (A') (A") (A') (A") (A') (A") (A') (A')
                 (A") (A') (A") (A") (A") (A') (A') (A") (A') (A')
                 (A") (A') (A') (A") (A') (A") (A') (A') (A") (A')
                 (A") (A") (A') (A') (A") (A") (A') (A') (A") (A")
                 (A') (A") (A') (A') (A") (A') (A") (A") (A') (A')
                 (A") (A') (A") (A') (A") (A') (A") (A') (A') (A')
                 (A") (A') (A") (A") (A') (A') (A') (A") (A') (A")
                 (A') (A") (A') (A") (A") (A") (A') (A') (A') (A')
                 (A") (A") (A') (A") (A') (A") (A') (A") (A') (A")
                 (A') (A") (A') (A") (A') (A") (A') (A") (A") (A')
                 (A') (A") (A') (A") (A') (A') (A") (A') (A') (A')
                 (A") (A') (A") (A') (A') (A") (A") (A') (A') (A")
                 (A") (A") (A') (A") (A') (A") (A') (A') (A") (A")
                 (A') (A') (A') (A") (A') (A') (A") (A') (A") (A")
                 (A') (A') (A') (A") (A') (A") (A") (A') (A') (A')
 The electronic state is 2-A'.
 Alpha  occ. eigenvalues --  -66.02816 -66.02527 -66.02527 -66.02320 -66.01878
 Alpha  occ. eigenvalues --  -66.01599 -66.01561 -66.01561 -66.01477 -66.01477
 Alpha  occ. eigenvalues --  -66.00506 -66.00506  -5.17198  -5.17057  -5.17057
 Alpha  occ. eigenvalues --   -5.16679  -5.16331  -5.16007  -5.16007  -5.15974
 Alpha  occ. eigenvalues --   -5.15974  -5.15944  -5.14999  -5.14999  -3.53107
 Alpha  occ. eigenvalues --   -3.53060  -3.53060  -3.53017  -3.52939  -3.52936
 Alpha  occ. eigenvalues --   -3.52909  -3.52742  -3.52713  -3.52712  -3.52514
 Alpha  occ. eigenvalues --   -3.52384  -3.52260  -3.52138  -3.52099  -3.51924
 Alpha  occ. eigenvalues --   -3.51923  -3.51905  -3.51905  -3.51874  -3.51874
 Alpha  occ. eigenvalues --   -3.51848  -3.51821  -3.51821  -3.51762  -3.51699
 Alpha  occ. eigenvalues --   -3.51697  -3.51653  -3.51652  -3.51644  -3.50845
 Alpha  occ. eigenvalues --   -3.50845  -3.50800  -3.50800  -3.50732  -3.50732
 Alpha  occ. eigenvalues --   -0.53738  -0.48516  -0.44107  -0.41645  -0.38419
 Alpha  occ. eigenvalues --   -0.31958  -0.31515  -0.31006  -0.28657  -0.26587
 Alpha  occ. eigenvalues --   -0.23171  -0.19742  -0.17149  -0.16431  -0.15606
 Alpha  occ. eigenvalues --   -0.14391  -0.13548  -0.13371  -0.12853  -0.10010
 Alpha  occ. eigenvalues --   -0.09955  -0.09033  -0.07974  -0.07530  -0.06199
 Alpha virt. eigenvalues --    0.02597   0.04165   0.05022   0.05513   0.06751
 Alpha virt. eigenvalues --    0.07673   0.07831   0.08215   0.08850   0.09609
 Alpha virt. eigenvalues --    0.10177   0.11443   0.12731   0.14022   0.14329
 Alpha virt. eigenvalues --    0.14333   0.15565   0.17307   0.18132   0.18303
 Alpha virt. eigenvalues --    0.18661   0.19784   0.21462   0.22363   0.24313
 Alpha virt. eigenvalues --    0.25608   0.25830   0.25872   0.26067   0.26926
 Alpha virt. eigenvalues --    0.27542   0.27840   0.28112   0.28526   0.29063
 Alpha virt. eigenvalues --    0.29672   0.29881   0.30364   0.31833   0.32117
 Alpha virt. eigenvalues --    0.32522   0.33075   0.33281   0.33592   0.35625
 Alpha virt. eigenvalues --    0.36046   0.36722   0.36958   0.37318   0.37861
 Alpha virt. eigenvalues --    0.38281   0.38918   0.39035   0.40427   0.40954
 Alpha virt. eigenvalues --    0.41692   0.41709   0.42167   0.42242   0.42796
 Alpha virt. eigenvalues --    0.43363   0.44078   0.44714   0.44932   0.45047
 Alpha virt. eigenvalues --    0.45322   0.46613   0.46791   0.47930   0.48677
 Alpha virt. eigenvalues --    0.49285   0.49294   0.50616   0.50721   0.51667
 Alpha virt. eigenvalues --    0.53311   0.53315   0.54587   0.55517   0.56607
 Alpha virt. eigenvalues --    0.56873   0.59307   0.59710   0.60374   0.61266
 Alpha virt. eigenvalues --    0.61694   0.61760   0.62511   0.62575   0.63533
 Alpha virt. eigenvalues --    0.64045   0.64397   0.64411   0.65532   0.66484
 Alpha virt. eigenvalues --    0.66951   0.67320   0.68232   0.68298   0.69350
 Alpha virt. eigenvalues --    0.70959   0.72264   0.73277   0.73549   0.74406
 Alpha virt. eigenvalues --    0.75915   0.75972   0.77014   0.78123   0.78339
 Alpha virt. eigenvalues --    0.80179   0.80334   0.80588   0.80953   0.80997
 Alpha virt. eigenvalues --    0.81554   0.82100   0.82231   0.82883   0.83662
 Alpha virt. eigenvalues --    0.83704   0.84893   0.85198   0.86942   0.87526
 Alpha virt. eigenvalues --    0.88478   0.88555   0.90028   0.90442   0.90854
 Alpha virt. eigenvalues --    0.94797   0.96909   0.97697   0.97820   1.01414
 Alpha virt. eigenvalues --    1.01751   1.02648   1.02873   1.04165   1.05242
 Alpha virt. eigenvalues --    1.05791   1.06625   1.08545   1.09390   1.10784
 Alpha virt. eigenvalues --    1.11650   1.12787   1.12913   1.13643   1.14869
 Alpha virt. eigenvalues --    1.15337   1.15638   1.17305   1.18155   1.19144
 Alpha virt. eigenvalues --    1.19484   1.19932   1.20599   1.21783   1.22441
 Alpha virt. eigenvalues --    1.23017   1.24333   1.24499   1.24909   1.25246
 Alpha virt. eigenvalues --    1.27055   1.27862   1.29188   1.30358   1.30741
 Alpha virt. eigenvalues --    1.30754   1.31788   1.33000   1.33655   1.35061
 Alpha virt. eigenvalues --    1.35756   1.36877   1.37632   1.37723   1.38584
 Alpha virt. eigenvalues --    1.40216   1.40492   1.41197   1.41361   1.43837
 Alpha virt. eigenvalues --    1.44008   1.46371   1.48065   1.48185   1.48813
 Alpha virt. eigenvalues --    1.48965   1.50166   1.50899   1.51342   1.52487
 Alpha virt. eigenvalues --    1.52504   1.53140   1.54773   1.56542   1.57721
 Alpha virt. eigenvalues --    1.57844   1.58281   1.59064   1.59676   1.59932
 Alpha virt. eigenvalues --    1.60990   1.61441   1.62881   1.63230   1.63525
 Alpha virt. eigenvalues --    1.64116   1.64337   1.65003   1.65723   1.67171
 Alpha virt. eigenvalues --    1.67471   1.68739   1.69819   1.71181   1.72343
 Alpha virt. eigenvalues --    1.73563   1.76110   1.77931   1.78723   1.83217
 Alpha virt. eigenvalues --    1.83288   1.85730   1.88112   1.89694   1.90654
 Alpha virt. eigenvalues --    1.91788   1.92360   1.94013   1.94660   1.95764
 Alpha virt. eigenvalues --    1.95930   1.97544   1.97859   1.99417   1.99697
 Alpha virt. eigenvalues --    2.00749   2.00951   2.01458   2.02647   2.02919
 Alpha virt. eigenvalues --    2.05086   2.05242   2.06674   2.06697   2.07157
 Alpha virt. eigenvalues --    2.08817   2.09105   2.10027   2.10452   2.11403
 Alpha virt. eigenvalues --    2.11471   2.11938   2.13219   2.13879   2.14161
 Alpha virt. eigenvalues --    2.16116   2.16558   2.17921   2.18684   2.20001
 Alpha virt. eigenvalues --    2.21632   2.21720   2.22820   2.23135   2.24569
 Alpha virt. eigenvalues --    2.25838   2.26680   2.27950   2.29332   2.30292
 Alpha virt. eigenvalues --    2.30777   2.33319   2.36193   2.38427   2.38907
 Alpha virt. eigenvalues --    2.41342   2.43721   2.43996   2.48232   2.48811
 Alpha virt. eigenvalues --    2.52096   2.66940   2.77021   2.86797   2.96469
 Alpha virt. eigenvalues --    3.00939   3.07632   3.19232   3.24250   3.24689
 Alpha virt. eigenvalues --    3.27850   3.37100   3.48910   3.80865
  Beta  occ. eigenvalues --  -66.02781 -66.02490 -66.02489 -66.02121 -66.01861
  Beta  occ. eigenvalues --  -66.01594 -66.01551 -66.01551 -66.01456 -66.01456
  Beta  occ. eigenvalues --  -66.00508 -66.00508  -5.17157  -5.17015  -5.17014
  Beta  occ. eigenvalues --   -5.16443  -5.16313  -5.15995  -5.15995  -5.15949
  Beta  occ. eigenvalues --   -5.15948  -5.15939  -5.15001  -5.15001  -3.53091
  Beta  occ. eigenvalues --   -3.53000  -3.52989  -3.52989  -3.52859  -3.52857
  Beta  occ. eigenvalues --   -3.52791  -3.52687  -3.52687  -3.52370  -3.52255
  Beta  occ. eigenvalues --   -3.52239  -3.52132  -3.52116  -3.52042  -3.51891
  Beta  occ. eigenvalues --   -3.51890  -3.51877  -3.51876  -3.51867  -3.51866
  Beta  occ. eigenvalues --   -3.51849  -3.51771  -3.51770  -3.51761  -3.51688
  Beta  occ. eigenvalues --   -3.51687  -3.51640  -3.51640  -3.51618  -3.50849
  Beta  occ. eigenvalues --   -3.50849  -3.50805  -3.50804  -3.50735  -3.50735
  Beta  occ. eigenvalues --   -0.53457  -0.48325  -0.43751  -0.41415  -0.38061
  Beta  occ. eigenvalues --   -0.31723  -0.30918  -0.30717  -0.28557  -0.26290
  Beta  occ. eigenvalues --   -0.22939  -0.18701  -0.16906  -0.16113  -0.15346
  Beta  occ. eigenvalues --   -0.14296  -0.13283  -0.12630  -0.12117  -0.09832
  Beta  occ. eigenvalues --   -0.09789  -0.08745  -0.07931  -0.07384
  Beta virt. eigenvalues --   -0.00089   0.02775   0.04300   0.05200   0.05857
  Beta virt. eigenvalues --    0.06840   0.07823   0.08003   0.08401   0.09141
  Beta virt. eigenvalues --    0.09848   0.10259   0.11647   0.13180   0.14159
  Beta virt. eigenvalues --    0.14576   0.14606   0.15671   0.17610   0.18432
  Beta virt. eigenvalues --    0.18573   0.18824   0.20051   0.22053   0.23175
  Beta virt. eigenvalues --    0.24410   0.25703   0.25938   0.26164   0.26375
  Beta virt. eigenvalues --    0.27028   0.27744   0.27943   0.28226   0.29111
  Beta virt. eigenvalues --    0.29231   0.29876   0.29958   0.30950   0.32229
  Beta virt. eigenvalues --    0.32563   0.32623   0.33342   0.33389   0.33739
  Beta virt. eigenvalues --    0.35718   0.36114   0.36827   0.37047   0.37613
  Beta virt. eigenvalues --    0.38085   0.38493   0.39115   0.39287   0.40552
  Beta virt. eigenvalues --    0.41041   0.41805   0.41814   0.42251   0.42456
  Beta virt. eigenvalues --    0.42878   0.43538   0.44191   0.44868   0.45216
  Beta virt. eigenvalues --    0.45451   0.45479   0.46753   0.47090   0.48070
  Beta virt. eigenvalues --    0.48986   0.49420   0.49555   0.50855   0.51247
  Beta virt. eigenvalues --    0.51864   0.53438   0.53767   0.54685   0.55600
  Beta virt. eigenvalues --    0.56968   0.57007   0.59476   0.60070   0.60630
  Beta virt. eigenvalues --    0.61485   0.61938   0.62018   0.62759   0.62927
  Beta virt. eigenvalues --    0.63800   0.64198   0.64474   0.64592   0.65744
  Beta virt. eigenvalues --    0.66742   0.67114   0.67565   0.68528   0.68568
  Beta virt. eigenvalues --    0.69705   0.71197   0.72527   0.73453   0.73853
  Beta virt. eigenvalues --    0.74754   0.76118   0.76121   0.77492   0.78206
  Beta virt. eigenvalues --    0.78494   0.80367   0.80398   0.80911   0.81084
  Beta virt. eigenvalues --    0.81220   0.81813   0.82268   0.82430   0.83105
  Beta virt. eigenvalues --    0.83844   0.84178   0.85040   0.85478   0.87106
  Beta virt. eigenvalues --    0.87733   0.88708   0.88868   0.90255   0.90609
  Beta virt. eigenvalues --    0.91058   0.94938   0.97051   0.98053   0.98165
  Beta virt. eigenvalues --    1.01641   1.02118   1.02968   1.02986   1.04339
  Beta virt. eigenvalues --    1.05572   1.05905   1.07018   1.08657   1.09528
  Beta virt. eigenvalues --    1.10981   1.11831   1.12921   1.13206   1.13819
  Beta virt. eigenvalues --    1.15082   1.15493   1.16099   1.17424   1.18343
  Beta virt. eigenvalues --    1.19336   1.19783   1.20093   1.20669   1.22280
  Beta virt. eigenvalues --    1.22620   1.23340   1.24426   1.24710   1.25130
  Beta virt. eigenvalues --    1.25414   1.27246   1.28020   1.29452   1.30596
  Beta virt. eigenvalues --    1.30850   1.31016   1.32051   1.33153   1.33944
  Beta virt. eigenvalues --    1.35166   1.36173   1.37125   1.37975   1.38114
  Beta virt. eigenvalues --    1.38675   1.40349   1.40703   1.41420   1.41509
  Beta virt. eigenvalues --    1.43986   1.44245   1.46650   1.48196   1.48291
  Beta virt. eigenvalues --    1.48998   1.49163   1.50369   1.51270   1.51644
  Beta virt. eigenvalues --    1.52617   1.52665   1.53532   1.54962   1.56750
  Beta virt. eigenvalues --    1.57847   1.58186   1.58425   1.59289   1.59769
  Beta virt. eigenvalues --    1.60093   1.61111   1.61812   1.63041   1.63488
  Beta virt. eigenvalues --    1.63735   1.64335   1.64523   1.65544   1.65849
  Beta virt. eigenvalues --    1.67414   1.67737   1.68906   1.70026   1.71426
  Beta virt. eigenvalues --    1.72428   1.73764   1.76270   1.78073   1.78850
  Beta virt. eigenvalues --    1.83443   1.83696   1.85849   1.88196   1.89910
  Beta virt. eigenvalues --    1.90751   1.91881   1.92498   1.94028   1.94825
  Beta virt. eigenvalues --    1.95894   1.96111   1.97629   1.97954   1.99455
  Beta virt. eigenvalues --    1.99864   2.00840   2.01101   2.01575   2.02820
  Beta virt. eigenvalues --    2.03073   2.05211   2.05413   2.06764   2.06906
  Beta virt. eigenvalues --    2.07487   2.08870   2.09194   2.10133   2.10552
  Beta virt. eigenvalues --    2.11539   2.11608   2.12094   2.13343   2.14042
  Beta virt. eigenvalues --    2.14309   2.16223   2.16729   2.18030   2.18806
  Beta virt. eigenvalues --    2.20081   2.21668   2.21830   2.22944   2.23235
  Beta virt. eigenvalues --    2.24712   2.25977   2.26786   2.28109   2.29563
  Beta virt. eigenvalues --    2.30482   2.30904   2.33499   2.36306   2.38500
  Beta virt. eigenvalues --    2.39037   2.41412   2.43807   2.44148   2.48437
  Beta virt. eigenvalues --    2.49004   2.52222   2.67151   2.77148   2.86841
  Beta virt. eigenvalues --    2.96554   3.01170   3.07772   3.19346   3.24596
  Beta virt. eigenvalues --    3.24755   3.27981   3.37240   3.49193   3.81066
          Condensed to atoms (all electrons):
              1          2          3          4          5          6
     1  Si  13.721615   0.167235   0.276791   0.193084  -0.017188  -0.024696
     2  Si   0.167235  13.636126   0.063033  -0.025336  -0.001015   0.127622
     3  Si   0.276791   0.063033  13.185869   0.039505  -0.008607   0.099657
     4  Si   0.193084  -0.025336   0.039505  13.536206   0.215887  -0.003384
     5  Si  -0.017188  -0.001015  -0.008607   0.215887  13.522484   0.003490
     6  Si  -0.024696   0.127622   0.099657  -0.003384   0.003490  13.775711
     7  Si  -0.026365   0.137423  -0.015703   0.179268  -0.047489  -0.005557
     8  Si   0.004431  -0.062722   0.000467   0.002213  -0.001015   0.127622
     9  Si   0.003443   0.000467  -0.039730  -0.003138  -0.008607   0.099657
    10  Si   0.004222   0.002213  -0.003138  -0.052196   0.215887  -0.003384
    11  Si  -0.000495   0.004431   0.003443   0.004222  -0.017188  -0.024696
    12  Si  -0.021454  -0.008373   0.239628  -0.027489   0.190024  -0.009198
              7          8          9         10         11         12
     1  Si  -0.026365   0.004431   0.003443   0.004222  -0.000495  -0.021454
     2  Si   0.137423  -0.062722   0.000467   0.002213   0.004431  -0.008373
     3  Si  -0.015703   0.000467  -0.039730  -0.003138   0.003443   0.239628
     4  Si   0.179268   0.002213  -0.003138  -0.052196   0.004222  -0.027489
     5  Si  -0.047489  -0.001015  -0.008607   0.215887  -0.017188   0.190024
     6  Si  -0.005557   0.127622   0.099657  -0.003384  -0.024696  -0.009198
     7  Si  13.601690   0.137423  -0.015703   0.179268  -0.026365   0.004839
     8  Si   0.137423  13.636126   0.063033  -0.025336   0.167235  -0.008373
     9  Si  -0.015703   0.063033  13.185869   0.039505   0.276791   0.239628
    10  Si   0.179268  -0.025336   0.039505  13.536206   0.193084  -0.027489
    11  Si  -0.026365   0.167235   0.276791   0.193084  13.721615  -0.021454
    12  Si   0.004839  -0.008373   0.239628  -0.027489  -0.021454  13.693908
 Mulliken atomic charges:
              1
     1  Si  -0.280623
     2  Si  -0.041103
     3  Si   0.158785
     4  Si  -0.058842
     5  Si  -0.046663
     6  Si  -0.162842
     7  Si  -0.102729
     8  Si  -0.041103
     9  Si   0.158785
    10  Si  -0.058842
    11  Si  -0.280623
    12  Si  -0.244198
 Sum of Mulliken atomic charges =  -1.00000
 Mulliken charges with hydrogens summed into heavy atoms:
              1
     1  Si  -0.280623
     2  Si  -0.041103
     3  Si   0.158785
     4  Si  -0.058842
     5  Si  -0.046663
     6  Si  -0.162842
     7  Si  -0.102729
     8  Si  -0.041103
     9  Si   0.158785
    10  Si  -0.058842
    11  Si  -0.280623
    12  Si  -0.244198
 Sum of Mulliken charges with hydrogens summed into heavy atoms =  -1.00000
          Atomic-Atomic Spin Densities.
              1          2          3          4          5          6
     1  Si  -0.003519  -0.003296   0.004676  -0.004901   0.002170   0.000893
     2  Si  -0.003296   0.015906  -0.005431   0.012759  -0.006318  -0.001651
     3  Si   0.004676  -0.005431   0.110239   0.001647   0.012041   0.008179
     4  Si  -0.004901   0.012759   0.001647   0.042581  -0.002356  -0.001034
     5  Si   0.002170  -0.006318   0.012041  -0.002356   0.045959   0.002289
     6  Si   0.000893  -0.001651   0.008179  -0.001034   0.002289   0.014303
     7  Si  -0.000399  -0.003148  -0.016690  -0.018992  -0.014623  -0.006120
     8  Si  -0.000456   0.002977  -0.002592   0.003280  -0.006318  -0.001651
     9  Si   0.000485  -0.002592   0.005764   0.000095   0.012041   0.008179
    10  Si  -0.000310   0.003280   0.000095   0.001657  -0.002356  -0.001034
    11  Si   0.000022  -0.000456   0.000485  -0.000310   0.002170   0.000893
    12  Si  -0.000918   0.001521  -0.020267  -0.001841   0.003891  -0.002844
              7          8          9         10         11         12
     1  Si  -0.000399  -0.000456   0.000485  -0.000310   0.000022  -0.000918
     2  Si  -0.003148   0.002977  -0.002592   0.003280  -0.000456   0.001521
     3  Si  -0.016690  -0.002592   0.005764   0.000095   0.000485  -0.020267
     4  Si  -0.018992   0.003280   0.000095   0.001657  -0.000310  -0.001841
     5  Si  -0.014623  -0.006318   0.012041  -0.002356   0.002170   0.003891
     6  Si  -0.006120  -0.001651   0.008179  -0.001034   0.000893  -0.002844
     7  Si   0.654880  -0.003148  -0.016690  -0.018992  -0.000399   0.005988
     8  Si  -0.003148   0.015906  -0.005431   0.012759  -0.003296   0.001521
     9  Si  -0.016690  -0.005431   0.110239   0.001647   0.004676  -0.020267
    10  Si  -0.018992   0.012759   0.001647   0.042581  -0.004901  -0.001841
    11  Si  -0.000399  -0.003296   0.004676  -0.004901  -0.003519  -0.000918
    12  Si   0.005988   0.001521  -0.020267  -0.001841  -0.000918   0.127862
 Mulliken atomic spin densities:
              1
     1  Si  -0.005552
     2  Si   0.013551
     3  Si   0.098146
     4  Si   0.032583
     5  Si   0.048591
     6  Si   0.020401
     7  Si   0.561666
     8  Si   0.013551
     9  Si   0.098146
    10  Si   0.032583
    11  Si  -0.005552
    12  Si   0.091886
 Sum of Mulliken atomic spin densities =   1.00000
 Electronic spatial extent (au):  <R**2>=           4312.7313
 Charge=             -1.0000 electrons
 Dipole moment (field-independent basis, Debye):
    X=              0.2009    Y=              0.6250    Z=              0.0000  Tot=              0.6564
 Quadrupole moment (field-independent basis, Debye-Ang):
   XX=           -176.7168   YY=           -174.4735   ZZ=           -201.5059
   XY=             -0.2115   XZ=              0.0000   YZ=              0.0000
 Traceless Quadrupole moment (field-independent basis, Debye-Ang):
   XX=              7.5153   YY=              9.7586   ZZ=            -17.2739
   XY=             -0.2115   XZ=              0.0000   YZ=              0.0000
 Octapole moment (field-independent basis, Debye-Ang**2):
  XXX=              8.0188  YYY=              2.9251  ZZZ=              0.0000  XYY=              9.8942
  XXY=             -1.0178  XXZ=              0.0000  XZZ=             -8.0672  YZZ=              5.5364
  YYZ=              0.0000  XYZ=              0.0000
 Hexadecapole moment (field-independent basis, Debye-Ang**3):
 XXXX=          -1851.5170 YYYY=          -1841.8821 ZZZZ=          -4640.9699 XXXY=             87.1982
 XXXZ=              0.0000 YYYX=             85.3508 YYYZ=              0.0000 ZZZX=              0.0000
 ZZZY=              0.0000 XXYY=           -632.5423 XXZZ=           -949.4182 YYZZ=           -955.2314
 XXYZ=              0.0000 YYXZ=              0.0000 ZZXY=             18.6297
 N-N= 2.074383330463D+03 E-N=-1.864655695618D+04  KE= 5.191786232934D+03
 Symmetry A'   KE= 3.308343124186D+03
 Symmetry A"   KE= 1.883443108747D+03
                          Isotropic Fermi Contact Couplings
        Atom                 a.u.       MegaHertz       Gauss      10(-4) cm-1
     1  Si(29)             0.00603      -5.35489      -1.91076      -1.78620
     2  Si(29)             0.00896      -7.96027      -2.84042      -2.65526
     3  Si(29)             0.02534     -22.51880      -8.03527      -7.51146
     4  Si(29)             0.02556     -22.71374      -8.10483      -7.57649
     5  Si(29)            -0.00805       7.15779       2.55408       2.38758
     6  Si(29)            -0.00579       5.14504       1.83588       1.71620
     7  Si(29)             0.24580    -218.44808     -77.94770     -72.86644
     8  Si(29)             0.00896      -7.96027      -2.84042      -2.65526
     9  Si(29)             0.02534     -22.51880      -8.03527      -7.51146
    10  Si(29)             0.02556     -22.71374      -8.10483      -7.57649
    11  Si(29)             0.00603      -5.35489      -1.91076      -1.78620
    12  Si(29)             0.05378     -47.79419     -17.05415     -15.94243
 --------------------------------------------------------
       Center         ----  Spin Dipole Couplings  ----
                      3XX-RR        3YY-RR        3ZZ-RR
 --------------------------------------------------------
     1   Atom       -0.004989     -0.001964      0.006952
     2   Atom        0.054783     -0.045370     -0.009413
     3   Atom        0.097384     -0.058804     -0.038580
     4   Atom       -0.006218      0.060203     -0.053985
     5   Atom       -0.049795      0.115073     -0.065278
     6   Atom        0.047347     -0.024726     -0.022621
     7   Atom        0.518504     -0.037271     -0.481233
     8   Atom        0.054783     -0.045370     -0.009413
     9   Atom        0.097384     -0.058804     -0.038580
    10   Atom       -0.006218      0.060203     -0.053985
    11   Atom       -0.004989     -0.001964      0.006952
    12   Atom        0.167298     -0.072422     -0.094877
 --------------------------------------------------------
                        XY            XZ            YZ
 --------------------------------------------------------
     1   Atom        0.004580     -0.014523      0.007125
     2   Atom        0.018505     -0.045885     -0.002858
     3   Atom       -0.088277     -0.108273      0.046975
     4   Atom       -0.099933     -0.023482      0.021008
     5   Atom       -0.074348      0.000000      0.000000
     6   Atom        0.020815      0.000000      0.000000
     7   Atom       -0.623590      0.000000      0.000000
     8   Atom        0.018505      0.045885      0.002858
     9   Atom       -0.088277      0.108273     -0.046975
    10   Atom       -0.099933      0.023482     -0.021008
    11   Atom        0.004580      0.014523     -0.007125
    12   Atom       -0.089359      0.000000      0.000000
 --------------------------------------------------------


 ---------------------------------------------------------------------------------
              Anisotropic Spin Dipole Couplings in Principal Axis System
 ---------------------------------------------------------------------------------

       Atom             a.u.   MegaHertz   Gauss  10(-4) cm-1        Axes

              Baa    -0.0185     1.958     0.699     0.653  0.7250 -0.4328  0.5358
     1 Si(29) Bbb     0.0011    -0.119    -0.042    -0.040  0.4654  0.8813  0.0822
              Bcc     0.0173    -1.839    -0.656    -0.613 -0.5077  0.1897  0.8404
 
              Baa    -0.0500     5.302     1.892     1.769 -0.2695  0.9329 -0.2390
     2 Si(29) Bbb    -0.0312     3.309     1.181     1.104  0.3874  0.3323  0.8599
              Bcc     0.0812    -8.611    -3.073    -2.872  0.8816  0.1391 -0.4510
 
              Baa    -0.0997    10.579     3.775     3.529  0.5740  0.6053  0.5514
     3 Si(29) Bbb    -0.0967    10.258     3.660     3.422 -0.0705  0.7075 -0.7032
              Bcc     0.1964   -20.837    -7.435    -6.950  0.8158 -0.3648 -0.4488
 
              Baa    -0.0804     8.528     3.043     2.845  0.7993  0.5243  0.2937
     4 Si(29) Bbb    -0.0569     6.033     2.153     2.012 -0.1509 -0.2980  0.9426
              Bcc     0.1373   -14.561    -5.196    -4.857 -0.5817  0.7977  0.1591
 
              Baa    -0.0784     8.314     2.967     2.773  0.9334  0.3588  0.0000
     5 Si(29) Bbb    -0.0653     6.925     2.471     2.310  0.0000  0.0000  1.0000
              Bcc     0.1436   -15.239    -5.438    -5.083 -0.3588  0.9334  0.0000
 
              Baa    -0.0303     3.215     1.147     1.072 -0.2589  0.9659  0.0000
     6 Si(29) Bbb    -0.0226     2.400     0.856     0.800  0.0000  0.0000  1.0000
              Bcc     0.0529    -5.615    -2.003    -1.873  0.9659  0.2589  0.0000
 
              Baa    -0.4812    51.051    18.216    17.029  0.0000  0.0000  1.0000
     7 Si(29) Bbb    -0.4421    46.899    16.735    15.644  0.5445  0.8388  0.0000
              Bcc     0.9233   -97.950   -34.951   -32.673  0.8388 -0.5445  0.0000
 
              Baa    -0.0500     5.302     1.892     1.769 -0.2695  0.9329  0.2390
     8 Si(29) Bbb    -0.0312     3.309     1.181     1.104 -0.3874 -0.3323  0.8599
              Bcc     0.0812    -8.611    -3.073    -2.872  0.8816  0.1391  0.4510
 
              Baa    -0.0997    10.579     3.775     3.529  0.5740  0.6053 -0.5514
     9 Si(29) Bbb    -0.0967    10.258     3.660     3.422 -0.0705  0.7075  0.7032
              Bcc     0.1964   -20.837    -7.435    -6.950  0.8158 -0.3648  0.4488
 
              Baa    -0.0804     8.528     3.043     2.845  0.7993  0.5243 -0.2937
    10 Si(29) Bbb    -0.0569     6.033     2.153     2.012  0.1509  0.2980  0.9426
              Bcc     0.1373   -14.561    -5.196    -4.857 -0.5817  0.7977 -0.1591
 
              Baa    -0.0185     1.958     0.699     0.653  0.7250 -0.4328 -0.5358
    11 Si(29) Bbb     0.0011    -0.119    -0.042    -0.040  0.4654  0.8813 -0.0822
              Bcc     0.0173    -1.839    -0.656    -0.613  0.5077 -0.1897  0.8404
 
              Baa    -0.1021    10.828     3.864     3.612  0.3149  0.9491  0.0000
    12 Si(29) Bbb    -0.0949    10.065     3.591     3.357  0.0000  0.0000  1.0000
              Bcc     0.1969   -20.892    -7.455    -6.969  0.9491 -0.3149  0.0000
 

 ---------------------------------------------------------------------------------

 Calling FoFJK, ICntrl=      2127 FMM=F ISym2X=1 I1Cent= 0 IOpClX= 1 NMat=1 NMatS=1 NMatT=0.
 ***** Axes restored to original set *****
 -------------------------------------------------------------------
 Center     Atomic                   Forces (Hartrees/Bohr)
 Number     Number              X              Y              Z
 -------------------------------------------------------------------
      1       14           0.000386302    0.000413163   -0.001035035
      2       14           0.001835951    0.000210434   -0.000488017
      3       14          -0.000520046   -0.002215007   -0.000531556
      4       14          -0.001293753    0.001247618   -0.000092939
      5       14          -0.001666948    0.001551103    0.000000000
      6       14           0.002136550   -0.001602583    0.000000000
      7       14           0.000572259    0.001126036    0.000000000
      8       14           0.001835951    0.000210434    0.000488017
      9       14          -0.000520046   -0.002215007    0.000531556
     10       14          -0.001293753    0.001247618    0.000092939
     11       14           0.000386302    0.000413163    0.001035035
     12       14          -0.001858767   -0.000386972    0.000000000
 -------------------------------------------------------------------
 Cartesian Forces:  Max     0.002215007 RMS     0.001118074

 GradGradGradGradGradGradGradGradGradGradGradGradGradGradGradGradGradGrad
 Berny optimization.
 Internal  Forces:  Max     0.001035142 RMS     0.000308323
 Search for a local minimum.
 Step number   1 out of a maximum of  100
 All quantities printed in internal units (Hartrees-Bohrs-Radians)
 Mixed Optimization -- En-DIIS/RFO-DIIS
 Second derivative matrix not updated -- first step.
     Eigenvalues ---    0.00253   0.00673   0.00695   0.00955   0.00972
     Eigenvalues ---    0.01196   0.01210   0.01419   0.01423   0.01484
     Eigenvalues ---    0.02233   0.02336   0.02549   0.02713   0.02986
     Eigenvalues ---    0.03297   0.03433   0.03631   0.03689   0.04069
     Eigenvalues ---    0.04164   0.04434   0.04758   0.05193   0.05374
     Eigenvalues ---    0.05523   0.06134   0.06472   0.07239   0.07875
     Eigenvalues --- 1000.000001000.000001000.000001000.000001000.00000
     Eigenvalues --- 1000.000001000.000001000.000001000.000001000.00000
     Eigenvalues --- 1000.000001000.000001000.000001000.000001000.00000
     Eigenvalues --- 1000.000001000.000001000.000001000.000001000.00000
     Eigenvalues --- 1000.000001000.000001000.000001000.000001000.00000
     Eigenvalues --- 1000.000001000.000001000.000001000.000001000.00000
     Eigenvalues --- 1000.000001000.000001000.000001000.000001000.00000
     Eigenvalues --- 1000.000001000.000001000.000001000.000001000.00000
     Eigenvalues --- 1000.000001000.000001000.000001000.000001000.00000
     Eigenvalues --- 1000.000001000.000001000.000001000.000001000.00000
     Eigenvalues --- 1000.000001000.000001000.000001000.000001000.00000
     Eigenvalues --- 1000.000001000.000001000.000001000.000001000.00000
     Eigenvalues --- 1000.000001000.000001000.000001000.000001000.00000
     Eigenvalues --- 1000.000001000.000001000.000001000.000001000.00000
     Eigenvalues --- 1000.000001000.000001000.000001000.000001000.00000
     Eigenvalues --- 1000.000001000.000001000.000001000.000001000.00000
     Eigenvalues --- 1000.000001000.000001000.000001000.000001000.00000
     Eigenvalues --- 1000.000001000.000001000.000001000.000001000.00000
     Eigenvalues --- 1000.000001000.000001000.000001000.000001000.00000
     Eigenvalues --- 1000.000001000.000001000.000001000.000001000.00000
     Eigenvalues --- 1000.000001000.000001000.000001000.000001000.00000
     Eigenvalues --- 1000.000001000.000001000.000001000.000001000.00000
     Eigenvalues --- 1000.000001000.000001000.000001000.000001000.00000
     Eigenvalues --- 1000.000001000.000001000.000001000.000001000.00000
     Eigenvalues --- 1000.000001000.000001000.000001000.000001000.00000
     Eigenvalues --- 1000.000001000.000001000.000001000.000001000.00000
     Eigenvalues --- 1000.000001000.000001000.000001000.000001000.00000
     Eigenvalues --- 1000.000001000.000001000.000001000.000001000.00000
     Eigenvalues --- 1000.000001000.000001000.000001000.000001000.00000
     Eigenvalues --- 1000.000001000.000001000.000001000.000001000.00000
 RFO step:  Lambda=-6.74325043D-04 EMin= 2.52669436D-03
 Linear search not attempted -- first point.
 Maximum step size (   0.300) exceeded in Quadratic search.
    -- Step size scaled by   0.972
 Iteration  1 RMS(Cart)=  0.01234199 RMS(Int)=  0.00067995
 Iteration  2 RMS(Cart)=  0.00031081 RMS(Int)=  0.00049005
 Iteration  3 RMS(Cart)=  0.00000050 RMS(Int)=  0.00049005
 ClnCor:  largest displacement from symmetrization is 1.02D-09 for atom     7.
 Variable       Old X    -DE/DX   Delta X   Delta X   Delta X     New X
                                 (Linear)    (Quad)   (Total)
    R1        4.71897  -0.00025   0.00000  -0.00466  -0.00524   4.71374
    R2        4.41984  -0.00079   0.00000  -0.01875  -0.01817   4.40167
    R3        4.62243  -0.00044   0.00000  -0.00356  -0.00462   4.61781
    R4        4.64796  -0.00098   0.00000  -0.02724  -0.02681   4.62115
    R5        5.08020  -0.00096   0.00000  -0.01381  -0.01365   5.06655
    R6        4.71063  -0.00065   0.00000  -0.00260  -0.00251   4.70812
    R7        4.72487  -0.00050   0.00000  -0.01201  -0.01195   4.71292
    R8        4.88239  -0.00071   0.00000  -0.06285  -0.06217   4.82022
    R9        5.10956  -0.00084   0.00000  -0.05573  -0.05529   5.05427
   R10        4.89295  -0.00104   0.00000  -0.02283  -0.02275   4.87020
   R11        4.52694  -0.00083   0.00000  -0.02560  -0.02546   4.50147
   R12        4.55155  -0.00034   0.00000   0.01547   0.01496   4.56652
   R13        4.63236  -0.00038   0.00000  -0.00947  -0.00962   4.62273
   R14        5.10956  -0.00084   0.00000  -0.05573  -0.05529   5.05427
   R15        4.55155  -0.00034   0.00000   0.01547   0.01496   4.56652
   R16        4.52584  -0.00048   0.00000   0.02769   0.02684   4.55269
   R17        4.71063  -0.00065   0.00000  -0.00260  -0.00251   4.70812
   R18        4.89295  -0.00104   0.00000  -0.02283  -0.02275   4.87020
   R19        4.72487  -0.00050   0.00000  -0.01201  -0.01195   4.71292
   R20        4.63236  -0.00038   0.00000  -0.00947  -0.00962   4.62273
   R21        4.64796  -0.00098   0.00000  -0.02724  -0.02681   4.62115
   R22        5.08020  -0.00096   0.00000  -0.01381  -0.01365   5.06655
   R23        4.71897  -0.00025   0.00000  -0.00466  -0.00524   4.71374
   R24        4.88239  -0.00071   0.00000  -0.06285  -0.06217   4.82022
   R25        4.41984  -0.00079   0.00000  -0.01875  -0.01817   4.40167
   R26        4.52694  -0.00083   0.00000  -0.02560  -0.02546   4.50147
   R27        4.62243  -0.00044   0.00000  -0.00356  -0.00462   4.61781
    A1        2.02648  -0.00006   0.00000  -0.00282  -0.00265   2.02383
    A2        1.94790   0.00015   0.00000   0.00172   0.00140   1.94930
    A3        1.69263   0.00003   0.00000  -0.00806  -0.00796   1.68467
    A4        1.88641  -0.00008   0.00000  -0.01278  -0.01276   1.87365
    A5        1.62272  -0.00023   0.00000  -0.00968  -0.00953   1.61320
    A6        1.93977   0.00014   0.00000   0.02300   0.02263   1.96240
    A7        2.06585   0.00028   0.00000   0.00948   0.00933   2.07518
    A8        2.71227   0.00016   0.00000   0.03443   0.03382   2.74609
    A9        1.75703  -0.00006   0.00000   0.02126   0.02112   1.77815
   A10        2.36879  -0.00018   0.00000  -0.00415  -0.00611   2.36267
   A11        1.89182  -0.00004   0.00000   0.00676   0.00667   1.89849
   A12        1.91174   0.00016   0.00000   0.03374   0.03341   1.94514
   A13        1.70674  -0.00031   0.00000  -0.00302  -0.00332   1.70341
   A14        1.49154  -0.00040   0.00000  -0.03516  -0.03579   1.45575
   A15        2.06202  -0.00012   0.00000  -0.00467  -0.00453   2.05749
   A16        2.00943   0.00018   0.00000   0.00071   0.00061   2.01004
   A17        1.78833  -0.00018   0.00000   0.00033   0.00017   1.78850
   A18        1.65866  -0.00007   0.00000  -0.00005   0.00003   1.65869
   A19        1.47686  -0.00026   0.00000   0.00609   0.00607   1.48293
   A20        1.32758   0.00026   0.00000   0.01746   0.01746   1.34503
   A21        1.98845   0.00025   0.00000  -0.00414  -0.00416   1.98429
   A22        1.98845   0.00025   0.00000  -0.00414  -0.00416   1.98429
   A23        1.63736   0.00023   0.00000  -0.01458  -0.01449   1.62287
   A24        2.02057  -0.00005   0.00000  -0.00742  -0.00776   2.01281
   A25        2.02057  -0.00005   0.00000  -0.00742  -0.00776   2.01281
   A26        1.45366   0.00025   0.00000   0.00519   0.00500   1.45866
   A27        1.89967   0.00029   0.00000   0.00402   0.00394   1.90362
   A28        1.89967   0.00029   0.00000   0.00402   0.00394   1.90362
   A29        1.39781   0.00036   0.00000   0.00826   0.00817   1.40598
   A30        1.44830   0.00019   0.00000   0.00868   0.00853   1.45684
   A31        2.14133   0.00012   0.00000   0.00340   0.00325   2.14458
   A32        2.14133   0.00012   0.00000   0.00340   0.00325   2.14458
   A33        1.60044   0.00024   0.00000  -0.00284  -0.00302   1.59742
   A34        1.62272  -0.00023   0.00000  -0.00968  -0.00953   1.61320
   A35        1.88641  -0.00008   0.00000  -0.01278  -0.01276   1.87365
   A36        2.02648  -0.00006   0.00000  -0.00282  -0.00265   2.02383
   A37        1.69263   0.00003   0.00000  -0.00806  -0.00796   1.68467
   A38        1.94790   0.00015   0.00000   0.00172   0.00140   1.94930
   A39        1.70674  -0.00031   0.00000  -0.00302  -0.00332   1.70341
   A40        1.75703  -0.00006   0.00000   0.02126   0.02112   1.77815
   A41        1.93977   0.00014   0.00000   0.02300   0.02263   1.96240
   A42        1.89182  -0.00004   0.00000   0.00676   0.00667   1.89849
   A43        2.06585   0.00028   0.00000   0.00948   0.00933   2.07518
   A44        1.49154  -0.00040   0.00000  -0.03516  -0.03579   1.45575
   A45        2.36879  -0.00018   0.00000  -0.00415  -0.00611   2.36267
   A46        1.91174   0.00016   0.00000   0.03374   0.03341   1.94514
   A47        2.71227   0.00016   0.00000   0.03443   0.03382   2.74609
   A48        1.47686  -0.00026   0.00000   0.00609   0.00607   1.48293
   A49        1.78833  -0.00018   0.00000   0.00033   0.00017   1.78850
   A50        2.06202  -0.00012   0.00000  -0.00467  -0.00453   2.05749
   A51        1.65866  -0.00007   0.00000  -0.00005   0.00003   1.65869
   A52        2.00943   0.00018   0.00000   0.00071   0.00061   2.01004
   A53        1.53795   0.00036   0.00000   0.01143   0.01133   1.54928
    D1       -0.05159   0.00003   0.00000   0.00820   0.00846  -0.04314
    D2        0.83808   0.00017   0.00000   0.06058   0.06014   0.89822
    D3       -0.10099   0.00002   0.00000   0.01010   0.01002  -0.09097
    D4        2.38752   0.00006   0.00000   0.00244   0.00222   2.38975
    D5        1.46806   0.00009   0.00000   0.00526   0.00502   1.47308
    D6        1.33180   0.00005   0.00000   0.00608   0.00608   1.33788
    D7        0.41234   0.00008   0.00000   0.00890   0.00888   0.42121
    D8        0.36547   0.00004   0.00000   0.00681   0.00676   0.37223
    D9       -0.55400   0.00007   0.00000   0.00963   0.00956  -0.54444
   D10       -2.45269   0.00010   0.00000  -0.00003  -0.00020  -2.45288
   D11       -1.48910   0.00004   0.00000   0.00475   0.00462  -1.48448
   D12       -1.46747   0.00004   0.00000  -0.00445  -0.00442  -1.47189
   D13       -0.50389  -0.00003   0.00000   0.00034   0.00040  -0.50349
   D14       -0.36456  -0.00003   0.00000  -0.00737  -0.00735  -0.37191
   D15        0.59902  -0.00010   0.00000  -0.00259  -0.00253   0.59649
   D16        0.08000  -0.00006   0.00000  -0.00878  -0.00889   0.07110
   D17       -1.52025   0.00035   0.00000   0.01638   0.01727  -1.50298
   D18        2.54615   0.00017   0.00000  -0.00513  -0.00535   2.54080
   D19        1.70577   0.00017   0.00000  -0.01080  -0.01088   1.69489
   D20        1.41787   0.00000   0.00000  -0.01833  -0.01863   1.39924
   D21        0.57749   0.00000   0.00000  -0.02400  -0.02416   0.55333
   D22        0.37251  -0.00004   0.00000  -0.02433  -0.02438   0.34813
   D23       -0.46787  -0.00004   0.00000  -0.03000  -0.02991  -0.49778
   D24       -1.57509  -0.00005   0.00000  -0.00513  -0.00461  -1.57970
   D25       -2.46387  -0.00007   0.00000  -0.00392  -0.00348  -2.46735
   D26       -0.45002   0.00004   0.00000   0.01026   0.01043  -0.43959
   D27       -1.33881   0.00002   0.00000   0.01147   0.01156  -1.32725
   D28        0.50496   0.00004   0.00000   0.02529   0.02535   0.53031
   D29       -0.38382   0.00002   0.00000   0.02650   0.02648  -0.35734
   D30        1.45398   0.00008   0.00000   0.03465   0.03426   1.48824
   D31        0.56520   0.00006   0.00000   0.03586   0.03539   0.60059
   D32        2.29476   0.00016   0.00000   0.02819   0.03123   2.32599
   D33        0.00357  -0.00038   0.00000  -0.08954  -0.08940  -0.08583
   D34        1.27637  -0.00026   0.00000  -0.04468  -0.04564   1.23073
   D35       -0.60718  -0.00008   0.00000  -0.04071  -0.04042  -0.64760
   D36       -1.28996  -0.00011   0.00000  -0.02693  -0.02680  -1.31675
   D37       -2.32291  -0.00015   0.00000  -0.01093  -0.01090  -2.33381
   D38       -0.20990  -0.00009   0.00000  -0.03116  -0.03119  -0.24108
   D39       -0.24011  -0.00007   0.00000  -0.02532  -0.02534  -0.26545
   D40       -1.27306  -0.00011   0.00000  -0.00932  -0.00945  -1.28250
   D41        0.83995  -0.00005   0.00000  -0.02955  -0.02973   0.81022
   D42        0.72909  -0.00006   0.00000  -0.02349  -0.02349   0.70560
   D43       -0.30386  -0.00010   0.00000  -0.00750  -0.00759  -0.31145
   D44        1.80915  -0.00004   0.00000  -0.02773  -0.02788   1.78127
   D45        1.28578  -0.00012   0.00000   0.01085   0.01112   1.29691
   D46        2.36833  -0.00014   0.00000   0.00713   0.00735   2.37568
   D47        0.34515   0.00002   0.00000   0.00707   0.00714   0.35230
   D48        1.42769   0.00000   0.00000   0.00335   0.00337   1.43107
   D49       -0.78469   0.00012   0.00000   0.01301   0.01314  -0.77155
   D50        0.29785   0.00010   0.00000   0.00928   0.00937   0.30722
   D51       -0.37251   0.00004   0.00000   0.02433   0.02438  -0.34813
   D52       -1.41787   0.00000   0.00000   0.01833   0.01863  -1.39924
   D53       -2.54615  -0.00017   0.00000   0.00513   0.00535  -2.54080
   D54        0.46787   0.00004   0.00000   0.03000   0.02991   0.49778
   D55       -0.57749   0.00000   0.00000   0.02400   0.02416  -0.55333
   D56       -1.70577  -0.00017   0.00000   0.01080   0.01088  -1.69489
   D57       -0.72909   0.00006   0.00000   0.02349   0.02349  -0.70560
   D58        0.24011   0.00007   0.00000   0.02532   0.02534   0.26545
   D59        1.28996   0.00011   0.00000   0.02693   0.02680   1.31675
   D60        0.30386   0.00010   0.00000   0.00750   0.00759   0.31145
   D61        1.27306   0.00011   0.00000   0.00932   0.00945   1.28250
   D62        2.32291   0.00015   0.00000   0.01093   0.01090   2.33381
   D63       -1.80915   0.00004   0.00000   0.02773   0.02788  -1.78127
   D64       -0.83995   0.00005   0.00000   0.02955   0.02973  -0.81022
   D65        0.20990   0.00009   0.00000   0.03116   0.03119   0.24108
   D66       -0.36547  -0.00004   0.00000  -0.00681  -0.00676  -0.37223
   D67       -1.33180  -0.00005   0.00000  -0.00608  -0.00608  -1.33788
   D68       -2.38752  -0.00006   0.00000  -0.00244  -0.00222  -2.38975
   D69        0.55400  -0.00007   0.00000  -0.00963  -0.00956   0.54444
   D70       -0.41234  -0.00008   0.00000  -0.00890  -0.00888  -0.42121
   D71       -1.46806  -0.00009   0.00000  -0.00526  -0.00502  -1.47308
   D72       -0.50496  -0.00004   0.00000  -0.02529  -0.02535  -0.53031
   D73        0.45002  -0.00004   0.00000  -0.01026  -0.01043   0.43959
   D74        1.57509   0.00005   0.00000   0.00513   0.00461   1.57970
   D75       -1.45398  -0.00008   0.00000  -0.03465  -0.03426  -1.48824
   D76        0.38382  -0.00002   0.00000  -0.02650  -0.02648   0.35734
   D77        1.33881  -0.00002   0.00000  -0.01147  -0.01156   1.32725
   D78        2.46387   0.00007   0.00000   0.00392   0.00348   2.46735
   D79       -0.56520  -0.00006   0.00000  -0.03586  -0.03539  -0.60059
   D80        0.36456   0.00003   0.00000   0.00737   0.00735   0.37191
   D81        1.46747  -0.00004   0.00000   0.00445   0.00442   1.47189
   D82        2.45269  -0.00010   0.00000   0.00003   0.00020   2.45288
[...]
    12  Si   0.003401   0.000718   0.006318  -0.002050  -0.002586   0.009535
 Mulliken atomic spin densities:
              1
     1  Si  -0.020606
     2  Si   0.000374
     3  Si   0.099344
     4  Si  -0.012910
     5  Si   0.016142
     6  Si   0.023754
     7  Si   0.801153
     8  Si   0.000374
     9  Si   0.099344
    10  Si  -0.012910
    11  Si  -0.020606
    12  Si   0.026546
 Sum of Mulliken atomic spin densities =   1.00000
 Electronic spatial extent (au):  <R**2>=           4310.7221
 Charge=             -1.0000 electrons
 Dipole moment (field-independent basis, Debye):
    X=              0.7344    Y=              0.4358    Z=              0.0000  Tot=              0.8540
 Quadrupole moment (field-independent basis, Debye-Ang):
   XX=           -183.2038   YY=           -182.3072   ZZ=           -208.9985
   XY=             -1.4268   XZ=              0.0000   YZ=              0.0000
 Traceless Quadrupole moment (field-independent basis, Debye-Ang):
   XX=              8.2994   YY=              9.1959   ZZ=            -17.4954
   XY=             -1.4268   XZ=              0.0000   YZ=              0.0000
 Octapole moment (field-independent basis, Debye-Ang**2):
  XXX=             18.6599  YYY=              0.8690  ZZZ=              0.0000  XYY=             13.2905
  XXY=             -4.3793  XXZ=              0.0000  XZZ=            -10.6381  YZZ=              7.7370
  YYZ=              0.0000  XYZ=              0.0000
 Hexadecapole moment (field-independent basis, Debye-Ang**3):
 XXXX=          -1980.6489 YYYY=          -1938.2231 ZZZZ=          -4938.4896 XXXY=             88.2855
 XXXZ=              0.0000 YYYX=             83.1163 YYYZ=              0.0000 ZZZX=              0.0000
 ZZZY=              0.0000 XXYY=           -672.4666 XXZZ=           -982.9188 YYZZ=           -988.5698
 XXYZ=              0.0000 YYXZ=              0.0000 ZZXY=             16.8325
 N-N= 2.081106273433D+03 E-N=-1.867157281212D+04  KE= 5.200142908287D+03
 Symmetry A'   KE= 3.313368512122D+03
 Symmetry A"   KE= 1.886774396165D+03
                          Isotropic Fermi Contact Couplings
        Atom                 a.u.       MegaHertz       Gauss      10(-4) cm-1
     1  Si(29)             0.00284      -2.52255      -0.90011      -0.84143
     2  Si(29)             0.01791     -15.91454      -5.67870      -5.30852
     3  Si(29)             0.03995     -35.50171     -12.66789     -11.84210
     4  Si(29)             0.03000     -26.66349      -9.51420      -8.89398
     5  Si(29)            -0.02227      19.79236       7.06241       6.60202
     6  Si(29)            -0.01928      17.13135       6.11289       5.71440
     7  Si(29)             0.44041    -391.40640    -139.66353    -130.55912
     8  Si(29)             0.01791     -15.91454      -5.67870      -5.30852
     9  Si(29)             0.03995     -35.50171     -12.66789     -11.84210
    10  Si(29)             0.03000     -26.66349      -9.51420      -8.89398
    11  Si(29)             0.00284      -2.52255      -0.90011      -0.84143
    12  Si(29)            -0.01219      10.83730       3.86702       3.61493
 --------------------------------------------------------
       Center         ----  Spin Dipole Couplings  ----
                      3XX-RR        3YY-RR        3ZZ-RR
 --------------------------------------------------------
     1   Atom       -0.018150      0.004623      0.013527
     2   Atom        0.059883     -0.065891      0.006008
     3   Atom        0.099320     -0.057762     -0.041559
     4   Atom       -0.061769      0.070663     -0.008894
     5   Atom       -0.053698      0.092141     -0.038443
     6   Atom        0.065110     -0.035193     -0.029917
     7   Atom        0.784058     -0.073133     -0.710925
     8   Atom        0.059883     -0.065891      0.006008
     9   Atom        0.099320     -0.057762     -0.041559
    10   Atom       -0.061769      0.070663     -0.008894
    11   Atom       -0.018150      0.004623      0.013527
    12   Atom        0.112263     -0.021828     -0.090435
 --------------------------------------------------------
                        XY            XZ            YZ
 --------------------------------------------------------
     1   Atom        0.015432     -0.026232      0.012475
     2   Atom        0.039218     -0.053804      0.004378
     3   Atom       -0.085857     -0.110370      0.044585
     4   Atom       -0.086946     -0.043356      0.024484
     5   Atom       -0.057353      0.000000      0.000000
     6   Atom        0.025863      0.000000      0.000000
     7   Atom       -0.803232      0.000000      0.000000
     8   Atom        0.039218      0.053804     -0.004378
     9   Atom       -0.085857      0.110370     -0.044585
    10   Atom       -0.086946      0.043356     -0.024484
    11   Atom        0.015432      0.026232     -0.012475
    12   Atom       -0.120749      0.000000      0.000000
 --------------------------------------------------------


 ---------------------------------------------------------------------------------
              Anisotropic Spin Dipole Couplings in Principal Axis System
 ---------------------------------------------------------------------------------

       Atom             a.u.   MegaHertz   Gauss  10(-4) cm-1        Axes

              Baa    -0.0413     4.383     1.564     1.462  0.7916 -0.3930  0.4680
     1 Si(29) Bbb     0.0124    -1.315    -0.469    -0.439  0.4303  0.9022  0.0296
              Bcc     0.0289    -3.069    -1.095    -1.024 -0.4338  0.1779  0.8832
 
              Baa    -0.0822     8.717     3.111     2.908 -0.3461  0.9026 -0.2560
     2 Si(29) Bbb    -0.0170     1.799     0.642     0.600  0.3886  0.3863  0.8365
              Bcc     0.0991   -10.517    -3.753    -3.508  0.8539  0.1901 -0.4844
 
              Baa    -0.1026    10.881     3.882     3.629  0.5403  0.2297  0.8095
     3 Si(29) Bbb    -0.0940     9.975     3.559     3.327  0.1851  0.9060 -0.3806
              Bcc     0.1966   -20.855    -7.442    -6.957  0.8209 -0.3554 -0.4470
 
              Baa    -0.1129    11.982     4.276     3.997  0.8820  0.3806  0.2779
     4 Si(29) Bbb    -0.0136     1.446     0.516     0.482 -0.1200 -0.3890  0.9134
              Bcc     0.1266   -13.428    -4.791    -4.479 -0.4557  0.8389  0.2975
 
              Baa    -0.0736     7.802     2.784     2.603  0.9450  0.3271  0.0000
     5 Si(29) Bbb    -0.0384     4.078     1.455     1.360  0.0000  0.0000  1.0000
              Bcc     0.1120   -11.881    -4.239    -3.963 -0.3271  0.9450  0.0000
 
              Baa    -0.0415     4.399     1.570     1.467 -0.2358  0.9718  0.0000
     6 Si(29) Bbb    -0.0299     3.174     1.132     1.059  0.0000  0.0000  1.0000
              Bcc     0.0714    -7.573    -2.702    -2.526  0.9718  0.2358  0.0000
 
              Baa    -0.7109    75.418    26.911    25.157  0.0000  0.0000  1.0000
     7 Si(29) Bbb    -0.5550    58.873    21.007    19.638  0.5144  0.8575  0.0000
              Bcc     1.2659  -134.291   -47.918   -44.795  0.8575 -0.5144  0.0000
 
              Baa    -0.0822     8.717     3.111     2.908 -0.3461  0.9026  0.2560
     8 Si(29) Bbb    -0.0170     1.799     0.642     0.600 -0.3886 -0.3863  0.8365
              Bcc     0.0991   -10.517    -3.753    -3.508  0.8539  0.1901  0.4844
 
              Baa    -0.1026    10.881     3.882     3.629 -0.5403 -0.2297  0.8095
     9 Si(29) Bbb    -0.0940     9.975     3.559     3.327  0.1851  0.9060  0.3806
              Bcc     0.1966   -20.855    -7.442    -6.957  0.8209 -0.3554  0.4470
 
              Baa    -0.1129    11.982     4.276     3.997  0.8820  0.3806 -0.2779
    10 Si(29) Bbb    -0.0136     1.446     0.516     0.482  0.1200  0.3890  0.9134
              Bcc     0.1266   -13.428    -4.791    -4.479 -0.4557  0.8389 -0.2975
 
              Baa    -0.0413     4.383     1.564     1.462  0.7916 -0.3930 -0.4680
    11 Si(29) Bbb     0.0124    -1.315    -0.469    -0.439  0.4303  0.9022 -0.0296
              Bcc     0.0289    -3.069    -1.095    -1.024  0.4338 -0.1779  0.8832
 
              Baa    -0.0929     9.855     3.516     3.287  0.5072  0.8618  0.0000
    12 Si(29) Bbb    -0.0904     9.594     3.423     3.200  0.0000  0.0000  1.0000
              Bcc     0.1833   -19.448    -6.940    -6.487  0.8618 -0.5072  0.0000
 

 ---------------------------------------------------------------------------------


 Test job not archived.
 1\1\GINC-NODE78\SP\UHF\GFHFB2\Si12(1-,2)\MINH\24-Feb-2012\0\\#N Geom=A
 llCheck Guess=TCheck SCRF=Check Test HF/GFHFB2 SCF=Tight\\Si-12 (-) an
 ion 2d struct doublet\\-1,2\Si,0,-0.1220357452,-0.100646925,3.61282236
 98\Si,0,-1.6795179314,-0.0959310491,1.6649741357\Si,0,0.490762414,1.02
 72439809,1.6731679327\Si,0,0.6048834789,-1.5067984626,1.7470494786\Si,
 0,1.9302236677,-0.4695674583,0.\Si,0,-1.3394460965,1.7313342937,0.\Si,
 0,-1.0731484326,-1.8487732249,0.\Si,0,-1.6795179314,-0.0959310491,-1.6
 649741357\Si,0,0.490762414,1.0272439809,-1.6731679327\Si,0,0.604883478
 9,-1.5067984626,-1.7470494786\Si,0,-0.1220357452,-0.100646925,-3.61282
 23698\Si,0,1.8992233209,1.9590173501,0.\\Version=AM64L-G09RevA.02\Stat
 e=2-A'\HF=-3467.2394683\S2=0.783303\S2-1=0.\S2A=0.750803\RMSD=8.429e-0
 9\Dipole=0.1705622,-0.2894662,0.\Quadrupole=6.8433771,6.1639911,-13.00
 73682,1.0587581,0.,0.\PG=CS [SG(Si4),X(Si8)]\\@


 THE RARE EARTHS PERPLEX US IN OUR RESEARCHES,
 BAFFLE US IN OUR SPECULATIONS, AND HAUNT US IN OUR
 VERY DREAMS.  THEY STRETCH LIKE AN UNKNOWN BEFORE US,
 MOCKING, MYSTIFYING, AND MURMURING STRANGE REVELATIONS
 AND POSSIBILITIES.  -- SIR WILLIAM CROOKE, 1832-1919
 Diagonal vibrational polarizability:
        0.0000000       0.0000000       0.0000000

 Temperature=              298.150000 Pressure=                      1.000000
 E(ZPE)=                     0.018532 E(Thermal)=                    0.035559
 E(CCSD(T))=             -3468.125764 E(Empiric)=                   -0.173513
 DE(Plus)=                  -0.033296 DE(2DF)=                      -0.429655
 E(Delta-G3XP)=             -3.766036 DE(HF)=                       -0.079645
 G4(0 K)=                -3472.589378 G4 Energy=                 -3472.572350
 G4 Enthalpy=            -3472.571406 G4 Free Energy=            -3472.633586

 Test job not archived.
 1\1\GINC-NODE78\Mixed\G4\G4\Si12(1-,2)\MINH\24-Feb-2012\0\\#n g4 test 
 opt=(readfc,noeigentest) # geom=allcheck guess=read\\Si-12 (-) anion 2
 d struct doublet\\-1,2\Si,0,-0.1220357452,-0.100646925,3.6128223698\Si
 ,0,-1.6795179314,-0.0959310491,1.6649741357\Si,0,0.490762414,1.0272439
 809,1.6731679327\Si,0,0.6048834789,-1.5067984626,1.7470494786\Si,0,1.9
 302236677,-0.4695674583,0.\Si,0,-1.3394460965,1.7313342937,0.\Si,0,-1.
 0731484326,-1.8487732249,0.\Si,0,-1.6795179314,-0.0959310491,-1.664974
 1357\Si,0,0.490762414,1.0272439809,-1.6731679327\Si,0,0.6048834789,-1.
 5067984626,-1.7470494786\Si,0,-0.1220357452,-0.100646925,-3.6128223698
 \Si,0,1.8992233209,1.9590173501,0.\\Version=AM64L-G09RevA.02\State=2-A
 '\MP2/GTBas1=-3468.0423252\MP4/GTBas1=-3468.1945911\CCSD(T)/G3Bas1=-34
 68.1257641\MP2/GTBas2=-3468.0719193\MP4/GTBas2=-3468.2278871\MP2/GTBas
 3=-3468.4306353\MP4/GTBas3=-3468.6242458\HF/GTLargeXP=-3467.1627244\MP
 2/GTLargeXP=-3472.2262659\HF/GFHFB1=-3467.2275631\HF/GFHFB2=-3467.2394
 683\G4=-3472.5893776\FreqCoord=-0.2306141369,-0.1901951244,6.827244845
 6,-3.1738289257,-0.1812834104,3.1463451349,0.9274065587,1.9412097955,3
 .1618291672,1.1430641174,-2.8474364318,3.3014450552,3.6475941072,-0.88
 73538971,0.,-2.5311862922,3.2717476595,0.,-2.0279566375,-3.4936750769,
 0.,-3.1738289257,-0.1812834104,-3.1463451349,0.9274065587,1.9412097955
 ,-3.1618291672,1.1430641174,-2.8474364318,-3.3014450552,-0.2306141369,
 -0.1901951244,-6.8272448456,3.5890119416,3.7020062812,0.\PG=CS [SG(Si4
 ),X(Si8)]\NImag=0\\0.03308100,0.00235090,0.04102408,-0.00916307,-0.009
 22558,0.13801370,-0.01342467,-0.00012928,-0.01715642,0.08396946,0.0012
 9353,-0.01146926,0.00016029,0.00747061,0.06189822,-0.02191057,0.000375
 70,-0.02925245,0.00724167,-0.00116903,0.07141687,-0.00948668,-0.007067
 16,0.01694991,-0.03950729,-0.02545447,0.00143150,0.09613365,-0.0070192
 8,-0.01691212,0.03228268,-0.02022117,-0.00560802,-0.00186572,0.0371760
 0,0.07799902,0.01734002,0.03361740,-0.06270581,0.00326918,-0.00582465,
 0.00334390,-0.03621748,-0.04603911,0.12102110,-0.01035318,0.00265429,0
 .01139220,-0.01235178,0.01121744,0.00273998,-0.00132013,0.00147489,-0.
 00469233,0.06388351,0.00264815,-0.01426394,-0.02050978,0.00580075,-0.0
 0375848,0.00632300,0.00397764,-0.02904065,0.00142793,0.00136557,0.0752
 4062,0.01226235,-0.02461725,-0.03415211,0.00230065,0.00682489,-0.00194
 603,-0.00092300,0.00069884,0.00050486,-0.00835795,0.00617815,0.0948124
 3,0.00067790,0.00099920,-0.00258127,-0.00962700,0.00243484,-0.00150417
 ,-0.00989666,0.00778384,0.00338027,-0.01091983,-0.01120424,0.01528041,
 0.06660487,0.00174398,0.00085748,-0.00081455,-0.00089555,-0.00057958,-
 0.00241563,0.00845264,-0.00610376,-0.00210106,-0.01541756,-0.01111736,
 0.01106307,0.01192214,0.09015963,0.00192618,0.00019590,-0.00256433,0.0
 0540759,-0.00255866,-0.00031030,0.00537530,-0.00712365,-0.00370646,0.0
 2126018,0.01319932,-0.02761778,0.,0.,0.08485367,-0.00048073,0.00105938
 ,0.00139562,-0.00200557,-0.00212054,-0.00041755,-0.01241009,0.00802507
 ,-0.00839416,-0.00207298,0.00219022,-0.00369833,-0.00522935,0.00681338
 ,0.,0.04097857,-0.00132411,0.00112430,-0.00306852,0.00080323,-0.020061
 01,0.01443645,0.00705192,-0.00562583,0.00452300,0.00488290,-0.00774984
 ,0.00008347,-0.00086848,-0.00066241,0.,-0.02092541,0.07049028,0.001315
 81,0.00063060,-0.00081532,-0.00285361,0.01742922,-0.01453230,-0.008842
 86,0.00302901,-0.01069444,-0.00363236,0.00646266,0.00067207,0.,0.,-0.0
 0610842,0.,0.,0.05880568,-0.00053388,-0.00126053,0.00078123,-0.0041592
 0,0.00634240,0.00469110,-0.00019874,-0.00438271,-0.00330696,-0.0184328
 0,-0.00550159,-0.01752664,-0.00556464,-0.00349578,0.,-0.00245352,0.000
 79230,0.,0.05669503,-0.00015905,-0.00137935,0.00351315,0.00403638,-0.0
 1540098,-0.01543350,-0.00414578,-0.00366811,-0.00512609,-0.00322347,-0
 .00319180,-0.00629775,-0.00089415,-0.00614686,0.,-0.00341300,-0.004042
 62,0.,0.01322467,0.06150762,-0.00008078,0.00096894,-0.00359341,0.00321
 551,-0.01534696,-0.01549100,-0.00388055,-0.00766417,0.00401796,-0.0193
 2466,-0.00954528,-0.02004901,0.,0.,-0.00252721,0.,0.,-0.00415080,0.,0.
 ,0.08388753,-0.00029397,0.00147931,0.00126554,0.00430270,0.00027726,0.
 00054211,-0.00291556,-0.00219432,0.00255027,-0.00304093,-0.00010213,-0
 .00095689,-0.00962700,-0.00089555,-0.00540759,-0.00200557,0.00080322,0
 .00285361,-0.00415920,0.00403638,-0.00321551,0.08396946,-0.00054850,-0
 .00089322,-0.00027204,0.00027726,0.00181586,0.00040573,-0.00412685,-0.
 00209974,-0.00132527,0.00502112,-0.00157745,0.00277876,0.00243484,-0.0
 0057958,0.00255867,-0.00212054,-0.02006101,-0.01742922,0.00634240,-0.0
 1540098,0.01534696,0.00747061,0.06189822,0.00011023,-0.00082073,-0.001
 94667,-0.00054211,-0.00040573,-0.00896298,-0.00217587,-0.00003971,-0.0
 0028530,-0.00322401,-0.00124980,0.00043524,0.00150417,0.00241563,-0.00
 031030,0.00041755,-0.01443645,-0.01453230,-0.00469110,0.01543350,-0.01
 549100,-0.00724167,0.00116903,0.07141687,-0.00062090,-0.00048251,-0.00
 111167,-0.00291556,-0.00412685,0.00217587,0.00501690,0.00227400,0.0000
 2521,-0.00105086,0.00053806,-0.00017448,-0.00989666,0.00845264,-0.0053
 7530,-0.01241009,0.00705192,0.00884286,-0.00019874,-0.00414578,0.00388
 055,-0.03950729,-0.02545447,-0.00143150,0.09613365,-0.00090826,-0.0008
 6486,-0.00261535,-0.00219432,-0.00209974,0.00003971,0.00227400,0.00200
 554,-0.00129430,-0.00195104,-0.00388059,0.00034658,0.00778384,-0.00610
 376,0.00712365,0.00802507,-0.00562583,-0.00302901,-0.00438271,-0.00366
 811,0.00766417,-0.02022117,-0.00560802,0.00186572,0.03717600,0.0779990
 2,-0.00189563,-0.00360407,-0.00263616,-0.00255027,0.00132527,-0.000285
 30,-0.00002521,0.00129430,-0.01352954,0.00303369,-0.00091158,-0.001312
 97,-0.00338027,0.00210106,-0.00370646,0.00839416,-0.00452300,-0.010694
 45,0.00330696,0.00512609,0.00401796,-0.00326918,0.00582465,0.00334390,
 0.03621748,0.04603911,0.12102110,-0.00176256,-0.00164662,-0.00030044,-
 0.00304093,0.00502112,0.00322401,-0.00105086,-0.00195104,-0.00303369,0
 .00052110,-0.00120071,0.00157508,-0.01091983,-0.01541756,-0.02126018,-
 0.00207298,0.00488290,0.00363236,-0.01843280,-0.00322347,0.01932466,-0
 .01235178,0.01121744,-0.00273998,-0.00132013,0.00147489,0.00469233,0.0
 6388351,0.00004759,-0.00019341,0.00102019,-0.00010213,-0.00157745,0.00
 124980,0.00053806,-0.00388059,0.00091158,-0.00120071,0.00353345,0.0036
 5999,-0.01120424,-0.01111736,-0.01319932,0.00219022,-0.00774984,-0.006
 46266,-0.00550159,-0.00319180,0.00954528,0.00580075,-0.00375848,-0.006
 32300,0.00397764,-0.02904065,-0.00142793,0.00136557,0.07524062,-0.0013
 3079,0.00206357,-0.00130329,0.00095689,-0.00277876,0.00043524,0.000174
 48,-0.00034658,-0.00131297,-0.00157508,-0.00365999,-0.01102074,-0.0152
 8041,-0.01106307,-0.02761778,0.00369833,-0.00008347,0.00067207,0.01752
 664,0.00629775,-0.02004901,-0.00230065,-0.00682489,-0.00194603,0.00092
 300,-0.00069884,0.00050486,0.00835795,-0.00617815,0.09481243,0.0032443
 4,-0.00012660,-0.00020488,-0.00029397,-0.00054850,-0.00011023,-0.00062
 090,-0.00090826,0.00189563,-0.00176256,0.00004759,0.00133079,0.0006779
 0,0.00174398,-0.00192618,-0.00048073,-0.00132411,-0.00131581,-0.000533
 88,-0.00015905,0.00008078,-0.01342467,0.00129353,0.02191057,-0.0094866
 8,-0.00701928,-0.01734002,-0.01035318,0.00264815,-0.01226235,0.0330810
 0,-0.00012660,0.00359590,0.00021911,0.00147931,-0.00089322,0.00082073,
 -0.00048251,-0.00086486,0.00360407,-0.00164662,-0.00019341,-0.00206357
 ,0.00099920,0.00085748,-0.00019590,0.00105938,0.00112430,-0.00063060,-
 0.00126053,-0.00137935,-0.00096894,-0.00012928,-0.01146926,-0.00037570
 ,-0.00706716,-0.01691212,-0.03361740,0.00265429,-0.01426394,0.02461725
 ,0.00235090,0.04102408,0.00020488,-0.00021911,-0.00180250,-0.00126554,
 0.00027204,-0.00194667,0.00111167,0.00261535,-0.00263616,0.00030044,-0
 .00102019,-0.00130329,0.00258127,0.00081455,-0.00256433,-0.00139562,0.
 00306852,-0.00081532,-0.00078123,-0.00351315,-0.00359341,0.01715642,-0
 .00016029,-0.02925245,-0.01694991,-0.03228268,-0.06270581,-0.01139220,
 0.02050978,-0.03415211,0.00916307,0.00922558,0.13801370,-0.00004667,0.
 00216962,-0.00126676,-0.00094619,-0.00180683,0.00189628,-0.02374366,-0
 .02005702,0.02718403,-0.00309956,0.00144068,-0.00111198,0.00372031,-0.
 00300677,0.,0.00064304,-0.00182627,0.,-0.00202765,-0.00193368,0.,-0.00
 094619,-0.00180683,-0.00189628,-0.02374366,-0.02005702,-0.02718403,-0.
 00309956,0.00144068,0.00111198,-0.00004667,0.00216962,0.00126676,0.053
 33648,0.00200164,-0.00062561,-0.00068959,0.00367491,-0.00226635,-0.002
 76724,-0.01819348,-0.00620090,0.01762651,-0.00317681,-0.00400057,0.001
 34483,-0.01018681,-0.04946393,0.,-0.00078322,-0.00116049,0.,-0.0009163
 4,-0.00403767,0.,0.00367491,-0.00226635,0.00276724,-0.01819348,-0.0062
 0090,-0.01762651,-0.00317681,-0.00400057,-0.00134483,0.00200164,-0.000
 62561,0.00068959,0.04327383,0.08084894,0.00122136,0.00063462,0.0027583
 5,0.00197647,0.00207209,-0.00246899,0.02702209,0.02315876,-0.03401713,
 0.00207990,0.00330557,0.00097732,0.,0.,-0.00782027,0.,0.,0.00219354,0.
 ,0.,-0.00697857,-0.00197647,-0.00207209,-0.00246899,-0.02702209,-0.023
 15876,-0.03401713,-0.00207990,-0.00330557,0.00097732,-0.00122136,-0.00
 063462,0.00275835,0.,0.,0.07810622\\0.00000110,-0.00000252,-0.00000051
 ,0.00000003,-0.00001548,-0.00000033,-0.00000956,0.00000323,0.00000173,
 0.00001504,0.00000788,-0.00000004,0.00000600,0.00002631,0.,-0.00001829
 ,-0.00001113,0.,0.00001761,-0.00001118,0.,0.00000003,-0.00001548,0.000
 00033,-0.00000956,0.00000323,-0.00000173,0.00001504,0.00000788,0.00000
 004,0.00000110,-0.00000252,0.00000051,-0.00001854,0.00000979,0.\\\@
 Job cpu time:  2 days 21 hours  7 minutes 31.9 seconds.
Normal termination of Gaussian 09 at Thu Mar  8 14:46:53 2012.
