 Entering Gaussian System, Link 0=g09
 Initial command:
 /usr/local/chem/g09A2/l1.exe /temp0/tam/Gau-17532.inp -scrdir=/temp0/tam/
 Entering Link 1 = /usr/local/chem/g09A2/l1.exe PID=     17533.
  
 Copyright (c) 1988,1990,1992,1993,1995,1998,2003,2009, Gaussian, Inc.
                  All Rights Reserved.
  
 This is part of the Gaussian(R) 09 program.  It is based on
 the Gaussian(R) 03 system (copyright 2003, Gaussian, Inc.),
 the Gaussian(R) 98 system (copyright 1998, Gaussian, Inc.),
 the Gaussian(R) 94 system (copyright 1995, Gaussian, Inc.),
 the Gaussian 92(TM) system (copyright 1992, Gaussian, Inc.),
 the Gaussian 90(TM) system (copyright 1990, Gaussian, Inc.),
 the Gaussian 88(TM) system (copyright 1988, Gaussian, Inc.),
 the Gaussian 86(TM) system (copyright 1986, Carnegie Mellon
 University), and the Gaussian 82(TM) system (copyright 1983,
 Carnegie Mellon University). Gaussian is a federally registered
 trademark of Gaussian, Inc.
  
 This software contains proprietary and confidential information,
 including trade secrets, belonging to Gaussian, Inc.
  
 This software is provided under written license and may be
 used, copied, transmitted, or stored only in accord with that
 written license.
  
 The following legend is applicable only to US Government
 contracts under FAR:
  
                    RESTRICTED RIGHTS LEGEND
  
 Use, reproduction and disclosure by the US Government is
 subject to restrictions as set forth in subparagraphs (a)
 and (c) of the Commercial Computer Software - Restricted
 Rights clause in FAR 52.227-19.
  
 Gaussian, Inc.
 340 Quinnipiac St., Bldg. 40, Wallingford CT 06492
  
  
 ---------------------------------------------------------------
 Warning -- This program may not be used in any manner that
 competes with the business of Gaussian, Inc. or will provide
 assistance to any competitor of Gaussian, Inc.  The licensee
 of this program is prohibited from giving any competitor of
 Gaussian, Inc. access to this program.  By using this program,
 the user acknowledges that Gaussian, Inc. is engaged in the
 business of creating and licensing software in the field of
 computational chemistry and represents and warrants to the
 licensee that it is not a competitor of Gaussian, Inc. and that
 it will not use this program in any manner prohibited above.
 ---------------------------------------------------------------
  

 Cite this work as:
 Gaussian 09, Revision A.02,
 M. J. Frisch, G. W. Trucks, H. B. Schlegel, G. E. Scuseria, 
 M. A. Robb, J. R. Cheeseman, G. Scalmani, V. Barone, B. Mennucci, 
 G. A. Petersson, H. Nakatsuji, M. Caricato, X. Li, H. P. Hratchian, 
 A. F. Izmaylov, J. Bloino, G. Zheng, J. L. Sonnenberg, M. Hada, 
 M. Ehara, K. Toyota, R. Fukuda, J. Hasegawa, M. Ishida, T. Nakajima, 
 Y. Honda, O. Kitao, H. Nakai, T. Vreven, J. A. Montgomery, Jr., 
 J. E. Peralta, F. Ogliaro, M. Bearpark, J. J. Heyd, E. Brothers, 
 K. N. Kudin, V. N. Staroverov, R. Kobayashi, J. Normand, 
 K. Raghavachari, A. Rendell, J. C. Burant, S. S. Iyengar, J. Tomasi, 
 M. Cossi, N. Rega, J. M. Millam, M. Klene, J. E. Knox, J. B. Cross, 
 V. Bakken, C. Adamo, J. Jaramillo, R. Gomperts, R. E. Stratmann, 
 O. Yazyev, A. J. Austin, R. Cammi, C. Pomelli, J. W. Ochterski, 
 R. L. Martin, K. Morokuma, V. G. Zakrzewski, G. A. Voth, 
 P. Salvador, J. J. Dannenberg, S. Dapprich, A. D. Daniels, 
 O. Farkas, J. B. Foresman, J. V. Ortiz, J. Cioslowski, 
 and D. J. Fox, Gaussian, Inc., Wallingford CT, 2009.
 
 ******************************************
 Gaussian 09:  AM64L-G09RevA.02 11-Jun-2009
                 6-Mar-2012 
 ******************************************
 %NprocShared=8
 Will use up to    8 processors via shared memory.
 %mem=40050MB
 %chk=S9L-ne-d-02
 -----------------------
 # G4 scfcyc=500 scf=xqc
 -----------------------
 1/14=-1,18=20,19=15,26=3,38=1/1,3;
 2/9=110,12=2,17=6,18=5,40=1/2;
 3/5=35,7=104,11=2,16=1,25=1,30=1,71=1,74=-5/1,2,3;
 4//1;
 5/5=2,7=500,8=3,13=1,38=5/2,8;
 6/7=2,8=2,9=2,10=2,28=1/1;
 7//1,2,3,16;
 1/14=-1,18=20,19=15/3(2);
 2/9=110/2;
 99//99;
 2/9=110/2;
 3/5=35,7=104,11=2,16=1,25=1,30=1,71=1,74=-5/1,2,3;
 4/5=5,16=3/1;
 5/5=2,7=500,8=3,13=1,38=5/2,8;
 7//1,2,3,16;
 1/14=-1,18=20,19=15/3(-5);
 2/9=110/2;
 6/7=2,8=2,9=2,10=2,19=2,28=1/1;
 99/9=1/99;
 ------------
 si11-an-d-02
 ------------
 Symbolic Z-matrix:
 Charge = -1 Multiplicity = 2
 Si                   -3.13674  -0.82115   0. 
 Si                   -2.03356   1.36321   0. 
 Si                   -0.04007   1.71505   1.3547 
 Si                    2.62394  -0.98558   0. 
 Si                   -1.07395  -0.83815  -1.27133 
 Si                   -1.07395  -0.83815   1.27133 
 Si                   -0.04007   1.71505  -1.3547 
 Si                    1.16601  -0.30902   1.98361 
 Si                    1.95628   1.4807    0. 
 Si                    0.48615  -2.17275   0. 
 Si                    1.16601  -0.30902  -1.98361 
 

 GradGradGradGradGradGradGradGradGradGradGradGradGradGradGradGradGradGrad
 Berny optimization.
 Initialization pass.
                           ----------------------------
                           !    Initial Parameters    !
                           ! (Angstroms and Degrees)  !
 --------------------------                            --------------------------
 ! Name  Definition              Value          Derivative Info.                !
 --------------------------------------------------------------------------------
 ! R1    R(1,2)                  2.4471         estimate D2E/DX2                !
 ! R2    R(1,5)                  2.4232         estimate D2E/DX2                !
 ! R3    R(1,6)                  2.4232         estimate D2E/DX2                !
 ! R4    R(2,3)                  2.4358         estimate D2E/DX2                !
 ! R5    R(2,5)                  2.7172         estimate D2E/DX2                !
 ! R6    R(2,6)                  2.7172         estimate D2E/DX2                !
 ! R7    R(2,7)                  2.4358         estimate D2E/DX2                !
 ! R8    R(3,6)                  2.7559         estimate D2E/DX2                !
 ! R9    R(3,7)                  2.7094         estimate D2E/DX2                !
 ! R10   R(3,8)                  2.4386         estimate D2E/DX2                !
 ! R11   R(3,9)                  2.424          estimate D2E/DX2                !
 ! R12   R(4,8)                  2.553          estimate D2E/DX2                !
 ! R13   R(4,9)                  2.5551         estimate D2E/DX2                !
 ! R14   R(4,10)                 2.4453         estimate D2E/DX2                !
 ! R15   R(4,11)                 2.553          estimate D2E/DX2                !
 ! R16   R(5,6)                  2.5427         estimate D2E/DX2                !
 ! R17   R(5,7)                  2.7559         estimate D2E/DX2                !
 ! R18   R(5,10)                 2.4148         estimate D2E/DX2                !
 ! R19   R(5,11)                 2.4093         estimate D2E/DX2                !
 ! R20   R(6,8)                  2.4093         estimate D2E/DX2                !
 ! R21   R(6,10)                 2.4148         estimate D2E/DX2                !
 ! R22   R(7,9)                  2.424          estimate D2E/DX2                !
 ! R23   R(7,11)                 2.4386         estimate D2E/DX2                !
 ! R24   R(8,9)                  2.7861         estimate D2E/DX2                !
 ! R25   R(8,10)                 2.8054         estimate D2E/DX2                !
 ! R26   R(9,11)                 2.7861         estimate D2E/DX2                !
 ! R27   R(10,11)                2.8054         estimate D2E/DX2                !
 ! A1    A(1,2,3)              119.8603         estimate D2E/DX2                !
 ! A2    A(1,2,7)              119.8603         estimate D2E/DX2                !
 ! A3    A(3,2,5)               95.0608         estimate D2E/DX2                !
 ! A4    A(6,2,7)               95.0608         estimate D2E/DX2                !
 ! A5    A(2,3,8)              115.36           estimate D2E/DX2                !
 ! A6    A(2,3,9)              110.4414         estimate D2E/DX2                !
 ! A7    A(6,3,7)               88.2664         estimate D2E/DX2                !
 ! A8    A(6,3,9)              101.6831         estimate D2E/DX2                !
 ! A9    A(7,3,8)              104.9449         estimate D2E/DX2                !
 ! A10   A(8,4,11)             101.9663         estimate D2E/DX2                !
 ! A11   A(9,4,10)             103.897          estimate D2E/DX2                !
 ! A12   A(1,5,7)              109.1922         estimate D2E/DX2                !
 ! A13   A(1,5,10)             106.1191         estimate D2E/DX2                !
 ! A14   A(1,5,11)             160.9117         estimate D2E/DX2                !
 ! A15   A(2,5,10)             115.4413         estimate D2E/DX2                !
 ! A16   A(2,5,11)             106.7822         estimate D2E/DX2                !
 ! A17   A(6,5,7)               91.7336         estimate D2E/DX2                !
 ! A18   A(6,5,11)             107.1956         estimate D2E/DX2                !
 ! A19   A(7,5,10)             106.5938         estimate D2E/DX2                !
 ! A20   A(1,6,3)              109.1922         estimate D2E/DX2                !
 ! A21   A(1,6,8)              160.9117         estimate D2E/DX2                !
 ! A22   A(1,6,10)             106.1191         estimate D2E/DX2                !
 ! A23   A(2,6,8)              106.7822         estimate D2E/DX2                !
 ! A24   A(2,6,10)             115.4413         estimate D2E/DX2                !
 ! A25   A(3,6,5)               91.7336         estimate D2E/DX2                !
 ! A26   A(3,6,10)             106.5938         estimate D2E/DX2                !
 ! A27   A(5,6,8)              107.1956         estimate D2E/DX2                !
 ! A28   A(2,7,9)              110.4414         estimate D2E/DX2                !
 ! A29   A(2,7,11)             115.36           estimate D2E/DX2                !
 ! A30   A(3,7,5)               88.2664         estimate D2E/DX2                !
 ! A31   A(3,7,11)             104.9449         estimate D2E/DX2                !
 ! A32   A(5,7,9)              101.6831         estimate D2E/DX2                !
 ! A33   A(3,8,4)              107.5783         estimate D2E/DX2                !
 ! A34   A(3,8,10)             104.43           estimate D2E/DX2                !
 ! A35   A(4,8,6)              104.0649         estimate D2E/DX2                !
 ! A36   A(6,8,9)              101.2044         estimate D2E/DX2                !
 ! A37   A(9,8,10)              89.5465         estimate D2E/DX2                !
 ! A38   A(3,9,4)              107.9709         estimate D2E/DX2                !
 ! A39   A(3,9,11)             103.0852         estimate D2E/DX2                !
 ! A40   A(4,9,7)              107.9709         estimate D2E/DX2                !
 ! A41   A(7,9,8)              103.0852         estimate D2E/DX2                !
 ! A42   A(8,9,11)              90.7904         estimate D2E/DX2                !
 ! A43   A(4,10,5)             107.2469         estimate D2E/DX2                !
 ! A44   A(4,10,6)             107.2469         estimate D2E/DX2                !
 ! A45   A(5,10,8)              99.3028         estimate D2E/DX2                !
 ! A46   A(6,10,11)             99.3028         estimate D2E/DX2                !
 ! A47   A(8,10,11)             89.9925         estimate D2E/DX2                !
 ! A48   A(4,11,5)             104.0649         estimate D2E/DX2                !
 ! A49   A(4,11,7)             107.5783         estimate D2E/DX2                !
 ! A50   A(5,11,9)             101.2044         estimate D2E/DX2                !
 ! A51   A(7,11,10)            104.43           estimate D2E/DX2                !
 ! A52   A(9,11,10)             89.5465         estimate D2E/DX2                !
 ! D1    D(1,2,3,8)             21.0924         estimate D2E/DX2                !
 ! D2    D(1,2,3,9)             97.8575         estimate D2E/DX2                !
 ! D3    D(5,2,3,8)            -31.8948         estimate D2E/DX2                !
 ! D4    D(5,2,3,9)             44.8703         estimate D2E/DX2                !
 ! D5    D(3,2,5,10)            29.9213         estimate D2E/DX2                !
 ! D6    D(3,2,5,11)           -46.7314         estimate D2E/DX2                !
 ! D7    D(7,2,6,8)             46.7314         estimate D2E/DX2                !
 ! D8    D(7,2,6,10)           -29.9213         estimate D2E/DX2                !
 ! D9    D(1,2,7,9)            -97.8575         estimate D2E/DX2                !
 ! D10   D(1,2,7,11)           -21.0924         estimate D2E/DX2                !
 ! D11   D(6,2,7,9)            -44.8703         estimate D2E/DX2                !
 ! D12   D(6,2,7,11)            31.8948         estimate D2E/DX2                !
 ! D13   D(7,3,6,1)            -56.9579         estimate D2E/DX2                !
 ! D14   D(7,3,6,5)              0.0            estimate D2E/DX2                !
 ! D15   D(7,3,6,10)            57.2768         estimate D2E/DX2                !
 ! D16   D(9,3,6,1)           -111.7024         estimate D2E/DX2                !
 ! D17   D(9,3,6,5)            -54.7444         estimate D2E/DX2                !
 ! D18   D(9,3,6,10)             2.5324         estimate D2E/DX2                !
 ! D19   D(6,3,7,5)              0.0            estimate D2E/DX2                !
 ! D20   D(6,3,7,11)           -52.8342         estimate D2E/DX2                !
 ! D21   D(8,3,7,5)             52.8342         estimate D2E/DX2                !
 ! D22   D(8,3,7,11)             0.0            estimate D2E/DX2                !
 ! D23   D(2,3,8,4)             81.1597         estimate D2E/DX2                !
 ! D24   D(2,3,8,10)            24.8233         estimate D2E/DX2                !
 ! D25   D(7,3,8,4)             21.8576         estimate D2E/DX2                !
 ! D26   D(7,3,8,10)           -34.4788         estimate D2E/DX2                !
 ! D27   D(2,3,9,4)            -87.8573         estimate D2E/DX2                !
 ! D28   D(2,3,9,11)           -28.7776         estimate D2E/DX2                !
 ! D29   D(6,3,9,4)            -22.7999         estimate D2E/DX2                !
 ! D30   D(6,3,9,11)            36.2799         estimate D2E/DX2                !
 ! D31   D(11,4,8,3)           -34.8461         estimate D2E/DX2                !
 ! D32   D(11,4,8,6)            37.5044         estimate D2E/DX2                !
 ! D33   D(10,4,9,3)            35.983          estimate D2E/DX2                !
 ! D34   D(10,4,9,7)           -35.983          estimate D2E/DX2                !
 ! D35   D(9,4,10,5)            33.4533         estimate D2E/DX2                !
 ! D36   D(9,4,10,6)           -33.4533         estimate D2E/DX2                !
 ! D37   D(8,4,11,5)           -37.5044         estimate D2E/DX2                !
 ! D38   D(8,4,11,7)            34.8461         estimate D2E/DX2                !
 ! D39   D(7,5,6,3)              0.0            estimate D2E/DX2                !
 ! D40   D(7,5,6,8)            -54.6642         estimate D2E/DX2                !
 ! D41   D(11,5,6,3)            54.6642         estimate D2E/DX2                !
 ! D42   D(11,5,6,8)             0.0            estimate D2E/DX2                !
 ! D43   D(1,5,7,3)             56.9579         estimate D2E/DX2                !
 ! D44   D(1,5,7,9)            111.7024         estimate D2E/DX2                !
 ! D45   D(6,5,7,3)              0.0            estimate D2E/DX2                !
 ! D46   D(6,5,7,9)             54.7444         estimate D2E/DX2                !
 ! D47   D(10,5,7,3)           -57.2768         estimate D2E/DX2                !
 ! D48   D(10,5,7,9)            -2.5324         estimate D2E/DX2                !
 ! D49   D(1,5,10,4)          -135.8668         estimate D2E/DX2                !
 ! D50   D(1,5,10,8)           -76.9413         estimate D2E/DX2                !
 ! D51   D(2,5,10,4)           -75.7736         estimate D2E/DX2                !
 ! D52   D(2,5,10,8)           -16.8481         estimate D2E/DX2                !
 ! D53   D(7,5,10,4)           -19.5599         estimate D2E/DX2                !
 ! D54   D(7,5,10,8)            39.3656         estimate D2E/DX2                !
 ! D55   D(1,5,11,4)            61.9218         estimate D2E/DX2                !
 ! D56   D(1,5,11,9)             3.4587         estimate D2E/DX2                !
 ! D57   D(2,5,11,4)            88.9311         estimate D2E/DX2                !
 ! D58   D(2,5,11,9)            30.468          estimate D2E/DX2                !
 ! D59   D(6,5,11,4)            23.6543         estimate D2E/DX2                !
 ! D60   D(6,5,11,9)           -34.8087         estimate D2E/DX2                !
 ! D61   D(1,6,8,4)            -61.9218         estimate D2E/DX2                !
 ! D62   D(1,6,8,9)             -3.4587         estimate D2E/DX2                !
 ! D63   D(2,6,8,4)            -88.9311         estimate D2E/DX2                !
 ! D64   D(2,6,8,9)            -30.468          estimate D2E/DX2                !
 ! D65   D(5,6,8,4)            -23.6543         estimate D2E/DX2                !
 ! D66   D(5,6,8,9)             34.8087         estimate D2E/DX2                !
 ! D67   D(1,6,10,4)           135.8668         estimate D2E/DX2                !
 ! D68   D(1,6,10,11)           76.9413         estimate D2E/DX2                !
 ! D69   D(2,6,10,4)            75.7736         estimate D2E/DX2                !
 ! D70   D(2,6,10,11)           16.8481         estimate D2E/DX2                !
 ! D71   D(3,6,10,4)            19.5599         estimate D2E/DX2                !
 ! D72   D(3,6,10,11)          -39.3656         estimate D2E/DX2                !
 ! D73   D(2,7,9,4)             87.8573         estimate D2E/DX2                !
 ! D74   D(2,7,9,8)             28.7776         estimate D2E/DX2                !
 ! D75   D(5,7,9,4)             22.7999         estimate D2E/DX2                !
 ! D76   D(5,7,9,8)            -36.2799         estimate D2E/DX2                !
 ! D77   D(2,7,11,4)           -81.1597         estimate D2E/DX2                !
 ! D78   D(2,7,11,10)          -24.8233         estimate D2E/DX2                !
 ! D79   D(3,7,11,4)           -21.8576         estimate D2E/DX2                !
 ! D80   D(3,7,11,10)           34.4788         estimate D2E/DX2                !
 ! D81   D(6,8,9,7)              3.4999         estimate D2E/DX2                !
 ! D82   D(6,8,9,11)           -50.9483         estimate D2E/DX2                !
 ! D83   D(10,8,9,7)            57.1228         estimate D2E/DX2                !
 ! D84   D(10,8,9,11)            2.6745         estimate D2E/DX2                !
 ! D85   D(3,8,10,5)            -3.133          estimate D2E/DX2                !
 ! D86   D(3,8,10,11)           50.6654         estimate D2E/DX2                !
 ! D87   D(9,8,10,5)           -56.4542         estimate D2E/DX2                !
 ! D88   D(9,8,10,11)           -2.6558         estimate D2E/DX2                !
 ! D89   D(3,9,11,5)            -3.4999         estimate D2E/DX2                !
 ! D90   D(3,9,11,10)          -57.1228         estimate D2E/DX2                !
 ! D91   D(8,9,11,5)            50.9483         estimate D2E/DX2                !
 ! D92   D(8,9,11,10)           -2.6745         estimate D2E/DX2                !
 ! D93   D(6,10,11,7)            3.133          estimate D2E/DX2                !
 ! D94   D(6,10,11,9)           56.4542         estimate D2E/DX2                !
 ! D95   D(8,10,11,7)          -50.6654         estimate D2E/DX2                !
 ! D96   D(8,10,11,9)            2.6558         estimate D2E/DX2                !
 --------------------------------------------------------------------------------
 Trust Radius=3.00D-01 FncErr=1.00D-07 GrdErr=1.00D-06
 Number of steps in this run= 100 maximum allowed number of steps= 100.
 GradGradGradGradGradGradGradGradGradGradGradGradGradGradGradGradGradGrad

                          Input orientation:                          
 ---------------------------------------------------------------------
 Center     Atomic      Atomic             Coordinates (Angstroms)
 Number     Number       Type             X           Y           Z
 ---------------------------------------------------------------------
      1         14           0       -3.136742   -0.821147    0.000000
      2         14           0       -2.033563    1.363207    0.000000
      3         14           0       -0.040068    1.715051    1.354703
      4         14           0        2.623938   -0.985579    0.000000
      5         14           0       -1.073952   -0.838152   -1.271331
      6         14           0       -1.073952   -0.838152    1.271331
      7         14           0       -0.040068    1.715051   -1.354703
      8         14           0        1.166013   -0.309016    1.983606
      9         14           0        1.956284    1.480699    0.000000
     10         14           0        0.486154   -2.172752    0.000000
     11         14           0        1.166013   -0.309016   -1.983606
 ---------------------------------------------------------------------
                    Distance matrix (angstroms):
                    1          2          3          4          5
     1  Si   0.000000
     2  Si   2.447122   0.000000
     3  Si   4.225744   2.435782   0.000000
     4  Si   5.763026   5.216235   4.028095   0.000000
     5  Si   2.423154   2.717189   3.805761   3.913107   0.000000
     6  Si   2.423154   2.717189   2.755851   3.913107   2.542663
     7  Si   4.225744   2.435782   2.709405   4.028095   2.755851
     8  Si   4.765571   4.119261   2.438647   2.553033   3.986483
     9  Si   5.589044   3.991577   2.423956   2.555051   4.021900
    10  Si   3.866808   4.341886   4.150559   2.445302   2.414823
    11  Si   4.765571   4.119261   4.086048   2.553033   2.409307
                    6          7          8          9         10
     6  Si   0.000000
     7  Si   3.805761   0.000000
     8  Si   2.409307   4.086048   0.000000
     9  Si   4.021900   2.423956   2.786091   0.000000
    10  Si   2.414823   4.150559   2.805425   3.938145   0.000000
    11  Si   3.986483   2.438647   3.967212   2.786091   2.805425
                   11
    11  Si   0.000000
 Stoichiometry    Si11(1-,2)
 Framework group  CS[SG(Si5),X(Si6)]
 Deg. of freedom    16
 Full point group                 CS      NOp   2
 Largest Abelian subgroup         CS      NOp   2
 Largest concise Abelian subgroup CS      NOp   2
                         Standard orientation:                         
 ---------------------------------------------------------------------
 Center     Atomic      Atomic             Coordinates (Angstroms)
 Number     Number       Type             X           Y           Z
 ---------------------------------------------------------------------
      1         14           0        0.078039   -3.241513    0.000000
      2         14           0       -1.794189   -1.665704    0.000000
      3         14           0       -1.678309    0.355282    1.354703
      4         14           0        1.562433    2.327064    0.000000
      5         14           0        0.568819   -1.237884   -1.271331
      6         14           0        0.568819   -1.237884    1.271331
      7         14           0       -1.678309    0.355282   -1.354703
      8         14           0        0.568819    1.063730    1.983606
      9         14           0       -0.991277    2.244285    0.000000
     10         14           0        2.226336   -0.026388    0.000000
     11         14           0        0.568819    1.063730   -1.983606
 ---------------------------------------------------------------------
 Rotational constants (GHZ):      0.5529531      0.4038981      0.3775302
 Standard basis: GTBas3 (6D, 7F)
 There are   206 symmetry adapted basis functions of A'  symmetry.
 There are   146 symmetry adapted basis functions of A"  symmetry.
 Integral buffers will be    131072 words long.
 Raffenetti 2 integral format.
 Two-electron integral symmetry is turned on.
   352 basis functions,   748 primitive gaussians,   385 cartesian basis functions
    78 alpha electrons       77 beta electrons
       nuclear repulsion energy      1791.0994202558 Hartrees.
 NAtoms=   11 NActive=   11 NUniq=    8 SFac= 1.42D+00 NAtFMM=   80 NAOKFM=F Big=F
 One-electron integrals computed using PRISM.
 NBasis=   352 RedAO= T  NBF=   206   146
 NBsUse=   352 1.00D-06 NBFU=   206   146
 Harris functional with IExCor=  402 diagonalized for initial guess.
 ExpMin= 7.78D-02 ExpMax= 1.61D+04 ExpMxC= 2.43D+03 IAcc=2 IRadAn=         0 AccDes= 0.00D+00
 HarFok:  IExCor=  402 AccDes= 0.00D+00 IRadAn=         0 IDoV= 1
 ScaDFX=  1.000000  1.000000  1.000000  1.000000
 FoFCou: FMM=F IPFlag=           0 FMFlag=      100000 FMFlg1=           0
         NFxFlg=           0 DoJE=T BraDBF=F KetDBF=T FulRan=T
         Omega=  0.000000  0.000000  1.000000  0.000000  0.000000 ICntrl=     500 IOpCl=  0
         NMat0=    1 NMatS0=    1 NMatT0=    0 NMatD0=    1 NMtDS0=    0 NMtDT0=    0
         I1Cent=           4 NGrid=           0.
 Petite list used in FoFCou.
 Initial guess orbital symmetries:
 Alpha Orbitals:
       Occupied  (A") (A') (A") (A') (A') (A') (A') (A") (A') (A')
                 (A') (A') (A") (A") (A') (A') (A') (A') (A') (A")
                 (A') (A') (A') (A") (A') (A") (A') (A") (A') (A")
                 (A') (A") (A') (A') (A') (A") (A') (A") (A') (A")
                 (A') (A") (A') (A") (A') (A') (A") (A') (A") (A')
                 (A') (A') (A") (A') (A") (A') (A') (A') (A") (A')
                 (A') (A') (A") (A") (A') (A') (A') (A") (A') (A")
                 (A') (A") (A') (A') (A") (A') (A') (A')
       Virtual   (A") (A") (A') (A") (A') (A') (A") (A') (A") (A")
                 (A') (A') (A') (A') (A") (A") (A') (A') (A") (A")
                 (A') (A') (A') (A") (A') (A') (A") (A") (A') (A")
                 (A') (A') (A') (A") (A') (A') (A') (A") (A') (A")
                 (A') (A') (A") (A") (A') (A') (A") (A') (A") (A")
                 (A') (A') (A") (A') (A") (A') (A") (A') (A') (A')
                 (A") (A') (A") (A") (A") (A') (A") (A') (A') (A')
                 (A") (A') (A') (A") (A") (A') (A") (A') (A') (A")
                 (A') (A') (A") (A') (A") (A') (A') (A") (A') (A")
                 (A') (A') (A") (A") (A') (A") (A') (A") (A") (A')
                 (A') (A') (A') (A") (A') (A") (A') (A") (A') (A")
                 (A') (A') (A") (A") (A') (A") (A') (A') (A") (A')
                 (A') (A") (A') (A") (A') (A') (A") (A") (A') (A')
                 (A") (A') (A") (A') (A') (A') (A") (A") (A') (A')
                 (A") (A") (A') (A') (A') (A') (A") (A") (A') (A')
                 (A") (A') (A") (A') (A") (A') (A") (A') (A") (A')
                 (A") (A') (A") (A") (A') (A') (A") (A") (A') (A')
                 (A') (A") (A') (A') (A') (A") (A") (A') (A') (A")
                 (A') (A") (A') (A") (A") (A') (A') (A") (A') (A")
                 (A") (A') (A') (A') (A") (A") (A') (A") (A") (A')
                 (A") (A') (A') (A') (A') (A") (A') (A") (A") (A')
                 (A') (A') (A") (A") (A') (A") (A') (A') (A') (A")
                 (A") (A') (A') (A") (A') (A") (A') (A') (A") (A')
                 (A") (A') (A') (A") (A") (A") (A') (A") (A') (A")
                 (A') (A") (A') (A') (A') (A") (A') (A") (A') (A")
                 (A') (A') (A") (A') (A") (A') (A") (A') (A") (A')
                 (A") (A') (A') (A") (A') (A') (A") (A') (A') (A")
                 (A') (A') (A") (A')
 Beta  Orbitals:
       Occupied  (A") (A') (A") (A') (A') (A') (A') (A") (A') (A')
                 (A') (A') (A") (A") (A') (A') (A') (A') (A') (A")
                 (A') (A') (A') (A") (A') (A") (A') (A") (A') (A")
                 (A') (A") (A') (A') (A') (A") (A') (A") (A') (A")
                 (A') (A") (A') (A") (A') (A') (A") (A') (A") (A')
                 (A') (A') (A") (A') (A") (A') (A') (A') (A") (A')
                 (A') (A') (A") (A") (A') (A') (A') (A") (A') (A")
                 (A') (A") (A') (A') (A") (A') (A')
       Virtual   (A') (A") (A") (A') (A") (A') (A') (A") (A') (A")
                 (A") (A') (A') (A') (A') (A") (A") (A') (A') (A")
                 (A") (A') (A') (A') (A") (A') (A') (A") (A") (A')
                 (A") (A') (A') (A') (A") (A') (A') (A') (A") (A')
                 (A") (A') (A') (A") (A") (A') (A') (A") (A') (A")
                 (A") (A') (A') (A") (A') (A") (A') (A") (A') (A')
                 (A') (A") (A') (A") (A") (A") (A') (A") (A') (A')
                 (A') (A") (A') (A') (A") (A") (A') (A") (A') (A')
                 (A") (A') (A') (A") (A') (A") (A') (A') (A") (A')
                 (A") (A') (A') (A") (A") (A') (A") (A') (A") (A")
                 (A') (A') (A') (A') (A") (A') (A") (A') (A") (A')
                 (A") (A') (A') (A") (A") (A') (A") (A') (A') (A")
                 (A') (A') (A") (A') (A") (A') (A') (A") (A") (A')
                 (A') (A") (A') (A") (A') (A') (A') (A") (A") (A')
                 (A') (A") (A") (A') (A') (A') (A') (A") (A") (A')
                 (A') (A") (A') (A") (A') (A") (A') (A") (A') (A")
                 (A') (A") (A') (A") (A") (A') (A') (A") (A") (A')
                 (A') (A') (A") (A') (A') (A') (A") (A") (A') (A')
                 (A") (A') (A") (A') (A") (A") (A') (A') (A") (A')
                 (A") (A") (A') (A') (A') (A") (A") (A') (A") (A")
                 (A') (A") (A') (A') (A') (A') (A") (A') (A") (A")
                 (A') (A') (A') (A") (A") (A') (A") (A') (A') (A')
                 (A") (A") (A') (A') (A") (A') (A") (A') (A') (A")
                 (A') (A") (A') (A') (A") (A") (A") (A') (A") (A')
                 (A") (A') (A") (A') (A') (A') (A") (A') (A") (A')
                 (A") (A') (A') (A") (A') (A") (A') (A") (A') (A")
                 (A') (A") (A') (A') (A") (A') (A') (A") (A') (A')
                 (A") (A') (A') (A") (A')
 The electronic state of the initial guess is 2-A'.
 Initial guess <Sx>= 0.0000 <Sy>= 0.0000 <Sz>= 0.5000 <S**2>= 0.7500 S= 0.5000
 Requested convergence on RMS density matrix=1.00D-08 within 128 cycles.
 Requested convergence on MAX density matrix=1.00D-06.
 Requested convergence on             energy=1.00D-06.
 No special actions if energy rises.
 Integral accuracy reduced to 1.0D-05 until final iterations.
 EnCoef did     6 forward-backward iterations
 Initial convergence to 1.0D-05 achieved.  Increase integral accuracy.
 SCF Done:  E(UB3LYP) =  -3184.48993924     A.U. after   22 cycles
             Convg  =    0.9304D-08             -V/T =  2.0036
 <Sx>= 0.0000 <Sy>= 0.0000 <Sz>= 0.5000 <S**2>= 0.7619 S= 0.5059
 <L.S>= 0.000000000000E+00
 Annihilation of the first spin contaminant:
 S**2 before annihilation     0.7619,   after     0.7501
 QCSCF skips out because SCF is already converged.

 **********************************************************************

            Population analysis using the SCF density.

 **********************************************************************

 Orbital symmetries:
 Alpha Orbitals:
       Occupied  (A') (A') (A") (A') (A') (A") (A') (A') (A') (A")
                 (A') (A') (A') (A') (A") (A') (A") (A') (A') (A")
                 (A') (A') (A") (A') (A') (A") (A') (A') (A') (A")
                 (A') (A") (A') (A") (A") (A') (A') (A") (A') (A")
                 (A") (A') (A") (A') (A") (A") (A') (A') (A') (A")
                 (A') (A') (A") (A') (A') (A') (A') (A') (A") (A')
                 (A') (A') (A") (A") (A') (A') (A') (A") (A') (A")
                 (A') (A') (A") (A') (A") (A') (A') (A')
       Virtual   (A") (A") (A') (A") (A') (A') (A") (A') (A") (A")
                 (A') (A') (A') (A') (A") (A") (A') (A') (A") (A')
                 (A") (A') (A') (A") (A') (A') (A") (A') (A") (A')
                 (A") (A') (A') (A') (A") (A') (A') (A") (A') (A')
                 (A") (A') (A") (A") (A') (A') (A') (A") (A") (A")
                 (A') (A') (A") (A') (A") (A') (A') (A") (A') (A")
                 (A") (A') (A") (A') (A') (A") (A') (A") (A') (A')
                 (A") (A') (A") (A') (A") (A') (A') (A") (A') (A")
                 (A') (A') (A") (A') (A') (A") (A') (A") (A') (A')
                 (A") (A") (A') (A") (A') (A") (A') (A") (A") (A')
                 (A') (A') (A') (A') (A") (A") (A') (A') (A") (A')
                 (A") (A') (A") (A') (A") (A') (A") (A') (A") (A')
                 (A') (A") (A') (A") (A') (A') (A") (A') (A") (A')
                 (A') (A") (A') (A') (A") (A") (A') (A") (A') (A')
                 (A') (A") (A") (A') (A') (A') (A") (A') (A") (A')
                 (A") (A') (A") (A') (A") (A') (A") (A') (A") (A')
                 (A') (A") (A") (A") (A') (A') (A") (A") (A') (A')
                 (A') (A') (A") (A') (A') (A") (A") (A') (A') (A')
                 (A") (A') (A") (A") (A') (A") (A') (A') (A") (A")
                 (A') (A") (A') (A') (A") (A") (A') (A") (A") (A')
                 (A') (A") (A') (A') (A') (A") (A') (A") (A') (A")
                 (A') (A') (A") (A") (A') (A") (A') (A') (A") (A')
                 (A") (A') (A") (A') (A") (A') (A') (A') (A") (A")
                 (A') (A") (A') (A') (A") (A") (A") (A') (A') (A')
                 (A") (A") (A') (A') (A') (A") (A") (A') (A') (A")
                 (A') (A") (A') (A') (A") (A') (A") (A') (A') (A")
                 (A") (A') (A') (A") (A') (A') (A") (A') (A') (A')
                 (A") (A') (A") (A')
 Beta  Orbitals:
       Occupied  (A') (A') (A") (A') (A') (A") (A') (A') (A") (A')
                 (A') (A') (A') (A') (A") (A') (A") (A') (A') (A")
                 (A') (A') (A") (A') (A') (A") (A') (A") (A') (A')
                 (A") (A') (A') (A") (A") (A') (A') (A") (A') (A")
                 (A") (A') (A") (A') (A") (A") (A') (A') (A") (A')
                 (A') (A") (A') (A') (A') (A') (A') (A') (A") (A')
                 (A') (A') (A") (A") (A') (A') (A') (A") (A') (A")
                 (A') (A') (A") (A') (A") (A') (A')
       Virtual   (A') (A") (A") (A') (A") (A') (A') (A") (A') (A")
                 (A") (A') (A') (A') (A') (A") (A") (A') (A') (A")
                 (A') (A") (A') (A') (A") (A') (A') (A") (A') (A")
                 (A') (A") (A') (A') (A") (A') (A') (A') (A") (A')
                 (A') (A") (A') (A") (A") (A') (A') (A') (A") (A")
                 (A") (A') (A') (A") (A') (A") (A') (A") (A') (A")
                 (A') (A") (A') (A") (A') (A') (A") (A') (A") (A')
                 (A') (A") (A') (A") (A') (A") (A') (A") (A') (A")
                 (A') (A') (A') (A") (A') (A") (A') (A') (A") (A')
                 (A') (A") (A") (A') (A") (A') (A") (A') (A") (A")
                 (A') (A') (A') (A') (A") (A') (A") (A') (A') (A")
                 (A') (A") (A") (A') (A') (A") (A') (A") (A') (A")
                 (A') (A') (A") (A') (A") (A') (A') (A") (A') (A")
                 (A') (A') (A") (A') (A") (A') (A") (A') (A") (A')
                 (A') (A') (A") (A") (A') (A') (A') (A") (A') (A")
                 (A') (A") (A') (A") (A') (A") (A') (A") (A') (A")
                 (A') (A') (A") (A") (A") (A') (A') (A") (A") (A')
                 (A') (A') (A') (A") (A') (A') (A") (A") (A') (A')
                 (A") (A') (A') (A") (A") (A') (A") (A') (A') (A")
                 (A") (A') (A") (A') (A') (A") (A") (A') (A") (A")
                 (A') (A') (A") (A') (A') (A') (A") (A') (A") (A')
                 (A") (A') (A') (A") (A") (A') (A") (A') (A') (A")
                 (A') (A") (A') (A") (A') (A") (A') (A') (A') (A")
                 (A") (A') (A") (A') (A') (A") (A") (A') (A") (A')
                 (A') (A") (A") (A') (A') (A') (A") (A") (A') (A')
                 (A") (A') (A") (A') (A') (A") (A') (A") (A') (A")
                 (A') (A") (A') (A') (A") (A') (A') (A") (A') (A')
                 (A') (A") (A') (A") (A')
 The electronic state is 2-A'.
 Alpha  occ. eigenvalues --  -66.02906 -66.02519 -66.02135 -66.02135 -66.02008
 Alpha  occ. eigenvalues --  -66.02008 -66.01115 -66.01017 -66.01009 -66.01001
 Alpha  occ. eigenvalues --  -66.00999  -5.17286  -5.16948  -5.16660  -5.16657
 Alpha  occ. eigenvalues --   -5.16368  -5.16368  -5.15636  -5.15509  -5.15507
 Alpha  occ. eigenvalues --   -5.15457  -5.15433  -3.53213  -3.53126  -3.52966
 Alpha  occ. eigenvalues --   -3.52884  -3.52875  -3.52579  -3.52576  -3.52574
 Alpha  occ. eigenvalues --   -3.52552  -3.52541  -3.52350  -3.52349  -3.52297
 Alpha  occ. eigenvalues --   -3.52296  -3.52172  -3.52172  -3.52059  -3.52057
 Alpha  occ. eigenvalues --   -3.51572  -3.51443  -3.51441  -3.51394  -3.51394
 Alpha  occ. eigenvalues --   -3.51383  -3.51380  -3.51368  -3.51292  -3.51290
 Alpha  occ. eigenvalues --   -3.51258  -3.51237  -3.51236  -3.51070  -3.51049
 Alpha  occ. eigenvalues --   -0.53217  -0.45782  -0.43532  -0.42342  -0.35369
 Alpha  occ. eigenvalues --   -0.32884  -0.29109  -0.28764  -0.27809  -0.23420
 Alpha  occ. eigenvalues --   -0.20586  -0.17265  -0.15421  -0.14959  -0.13520
 Alpha  occ. eigenvalues --   -0.12961  -0.12100  -0.11965  -0.09873  -0.08468
 Alpha  occ. eigenvalues --   -0.08460  -0.07787  -0.05035
 Alpha virt. eigenvalues --    0.02764   0.03490   0.04672   0.06120   0.07470
 Alpha virt. eigenvalues --    0.08010   0.09062   0.09537   0.09596   0.10429
 Alpha virt. eigenvalues --    0.10628   0.11597   0.11956   0.13757   0.14720
 Alpha virt. eigenvalues --    0.17068   0.17460   0.19647   0.20127   0.20927
 Alpha virt. eigenvalues --    0.21774   0.22695   0.24612   0.25897   0.25968
 Alpha virt. eigenvalues --    0.26724   0.27059   0.27233   0.27602   0.27813
 Alpha virt. eigenvalues --    0.28356   0.28554   0.29074   0.29929   0.29981
 Alpha virt. eigenvalues --    0.30328   0.31436   0.32277   0.33350   0.34026
 Alpha virt. eigenvalues --    0.34490   0.35082   0.35405   0.36708   0.36915
 Alpha virt. eigenvalues --    0.38195   0.38677   0.38871   0.39776   0.39921
 Alpha virt. eigenvalues --    0.40496   0.40911   0.41227   0.42083   0.42726
 Alpha virt. eigenvalues --    0.43533   0.44538   0.44647   0.45790   0.45804
 Alpha virt. eigenvalues --    0.46205   0.46693   0.47309   0.47558   0.48319
 Alpha virt. eigenvalues --    0.49013   0.49311   0.49808   0.50691   0.52510
 Alpha virt. eigenvalues --    0.53236   0.54931   0.55148   0.56081   0.57505
 Alpha virt. eigenvalues --    0.58430   0.58927   0.59216   0.60999   0.61182
 Alpha virt. eigenvalues --    0.62366   0.63344   0.63975   0.64839   0.66012
 Alpha virt. eigenvalues --    0.66090   0.66234   0.66655   0.66966   0.69881
 Alpha virt. eigenvalues --    0.70134   0.70468   0.71179   0.71527   0.72878
 Alpha virt. eigenvalues --    0.74067   0.75290   0.76056   0.76963   0.77035
 Alpha virt. eigenvalues --    0.77514   0.78368   0.79609   0.80601   0.80873
 Alpha virt. eigenvalues --    0.81410   0.82030   0.82911   0.83053   0.83122
 Alpha virt. eigenvalues --    0.83295   0.83947   0.84079   0.86581   0.86851
 Alpha virt. eigenvalues --    0.88039   0.89214   0.90289   0.91260   0.92279
 Alpha virt. eigenvalues --    0.95316   0.97427   0.98585   1.00921   1.02218
 Alpha virt. eigenvalues --    1.04397   1.05973   1.06513   1.06686   1.07701
 Alpha virt. eigenvalues --    1.08281   1.08497   1.09628   1.10462   1.10486
 Alpha virt. eigenvalues --    1.11560   1.11806   1.12507   1.13523   1.14201
 Alpha virt. eigenvalues --    1.15309   1.15310   1.16264   1.17319   1.20003
 Alpha virt. eigenvalues --    1.21430   1.22866   1.23799   1.24040   1.24297
 Alpha virt. eigenvalues --    1.26477   1.26555   1.28666   1.29123   1.29774
 Alpha virt. eigenvalues --    1.30922   1.33604   1.33889   1.34798   1.35026
 Alpha virt. eigenvalues --    1.36483   1.36651   1.38085   1.39007   1.39572
 Alpha virt. eigenvalues --    1.41223   1.42061   1.42887   1.43215   1.44252
 Alpha virt. eigenvalues --    1.44979   1.45388   1.45759   1.47224   1.48522
 Alpha virt. eigenvalues --    1.49004   1.50595   1.50760   1.51026   1.52299
 Alpha virt. eigenvalues --    1.52434   1.53752   1.54628   1.55313   1.57114
 Alpha virt. eigenvalues --    1.57142   1.58364   1.58989   1.59894   1.60780
 Alpha virt. eigenvalues --    1.62391   1.62466   1.63792   1.64534   1.65688
 Alpha virt. eigenvalues --    1.66369   1.67083   1.68693   1.69254   1.69651
 Alpha virt. eigenvalues --    1.70348   1.71457   1.72014   1.74540   1.77607
 Alpha virt. eigenvalues --    1.77973   1.80670   1.85645   1.87096   1.88492
 Alpha virt. eigenvalues --    1.90477   1.90962   1.92491   1.93696   1.95046
 Alpha virt. eigenvalues --    1.96134   1.96662   1.97968   1.98299   1.98762
 Alpha virt. eigenvalues --    2.00041   2.00112   2.01197   2.01824   2.02343
 Alpha virt. eigenvalues --    2.02561   2.03480   2.05395   2.06184   2.07243
 Alpha virt. eigenvalues --    2.07247   2.08271   2.09003   2.09453   2.10715
 Alpha virt. eigenvalues --    2.12850   2.13029   2.13031   2.13568   2.15003
 Alpha virt. eigenvalues --    2.15638   2.16664   2.17334   2.18508   2.20466
 Alpha virt. eigenvalues --    2.22612   2.24906   2.25521   2.27892   2.29789
 Alpha virt. eigenvalues --    2.29809   2.30510   2.31863   2.32934   2.33761
 Alpha virt. eigenvalues --    2.38004   2.38624   2.39234   2.45984   2.45997
 Alpha virt. eigenvalues --    2.53313   2.54618   2.59437   2.72189   2.89947
 Alpha virt. eigenvalues --    3.01633   3.12522   3.13192   3.17871   3.18212
 Alpha virt. eigenvalues --    3.18422   3.30969   3.34723   3.40487
  Beta  occ. eigenvalues --  -66.02822 -66.02395 -66.02142 -66.02142 -66.01998
  Beta  occ. eigenvalues --  -66.01998 -66.01102 -66.00984 -66.00962 -66.00961
  Beta  occ. eigenvalues --  -66.00948  -5.17193  -5.16792  -5.16668  -5.16665
  Beta  occ. eigenvalues --   -5.16358  -5.16358  -5.15619  -5.15459  -5.15457
  Beta  occ. eigenvalues --   -5.15401  -5.15382  -3.53159  -3.52920  -3.52823
  Beta  occ. eigenvalues --   -3.52785  -3.52593  -3.52592  -3.52557  -3.52544
  Beta  occ. eigenvalues --   -3.52540  -3.52479  -3.52359  -3.52358  -3.52295
  Beta  occ. eigenvalues --   -3.52295  -3.52134  -3.52133  -3.52054  -3.52053
  Beta  occ. eigenvalues --   -3.51567  -3.51383  -3.51379  -3.51378  -3.51368
  Beta  occ. eigenvalues --   -3.51344  -3.51317  -3.51261  -3.51259  -3.51206
  Beta  occ. eigenvalues --   -3.51171  -3.51169  -3.51163  -3.51042  -3.50979
  Beta  occ. eigenvalues --   -0.53012  -0.45329  -0.43227  -0.42220  -0.34764
  Beta  occ. eigenvalues --   -0.32174  -0.28873  -0.28626  -0.27669  -0.22954
  Beta  occ. eigenvalues --   -0.19464  -0.16709  -0.15264  -0.14115  -0.13269
  Beta  occ. eigenvalues --   -0.12789  -0.11820  -0.11770  -0.09464  -0.08292
  Beta  occ. eigenvalues --   -0.08081  -0.07301
  Beta virt. eigenvalues --   -0.00062   0.02962   0.03755   0.04920   0.06292
  Beta virt. eigenvalues --    0.07973   0.08534   0.09183   0.09731   0.09789
  Beta virt. eigenvalues --    0.10508   0.11049   0.11958   0.12224   0.14182
  Beta virt. eigenvalues --    0.14792   0.17361   0.18318   0.19790   0.20328
  Beta virt. eigenvalues --    0.21186   0.21938   0.23013   0.24843   0.25991
  Beta virt. eigenvalues --    0.26314   0.26905   0.27123   0.27388   0.27794
  Beta virt. eigenvalues --    0.27920   0.28512   0.28787   0.29473   0.30046
  Beta virt. eigenvalues --    0.30075   0.30607   0.31825   0.32364   0.33648
  Beta virt. eigenvalues --    0.34212   0.34683   0.35515   0.35649   0.36812
  Beta virt. eigenvalues --    0.37344   0.38426   0.38878   0.38937   0.39866
  Beta virt. eigenvalues --    0.40097   0.40671   0.41192   0.41872   0.42664
  Beta virt. eigenvalues --    0.42806   0.43739   0.44749   0.44877   0.45940
  Beta virt. eigenvalues --    0.46048   0.46329   0.47015   0.47466   0.47969
  Beta virt. eigenvalues --    0.48401   0.49177   0.49722   0.50106   0.51001
  Beta virt. eigenvalues --    0.52908   0.53351   0.55157   0.55378   0.56254
  Beta virt. eigenvalues --    0.57860   0.58712   0.59473   0.59570   0.61397
  Beta virt. eigenvalues --    0.61412   0.62617   0.63639   0.64289   0.65050
  Beta virt. eigenvalues --    0.66281   0.66317   0.66516   0.66963   0.67141
  Beta virt. eigenvalues --    0.70061   0.70462   0.70711   0.71387   0.71689
  Beta virt. eigenvalues --    0.73283   0.74205   0.75477   0.76128   0.77050
  Beta virt. eigenvalues --    0.77230   0.77916   0.78634   0.79750   0.80948
  Beta virt. eigenvalues --    0.81019   0.81492   0.82175   0.83109   0.83117
  Beta virt. eigenvalues --    0.83405   0.83464   0.84158   0.84192   0.86838
  Beta virt. eigenvalues --    0.86986   0.88282   0.89374   0.90619   0.91397
  Beta virt. eigenvalues --    0.92523   0.95608   0.97760   0.98994   1.01129
  Beta virt. eigenvalues --    1.02377   1.04696   1.06207   1.06752   1.06978
  Beta virt. eigenvalues --    1.08019   1.08584   1.08778   1.09936   1.10631
  Beta virt. eigenvalues --    1.10684   1.11876   1.12111   1.12872   1.13695
  Beta virt. eigenvalues --    1.14546   1.15593   1.15676   1.16390   1.17545
  Beta virt. eigenvalues --    1.20359   1.21968   1.23195   1.24078   1.24189
  Beta virt. eigenvalues --    1.24519   1.26647   1.27031   1.28823   1.29554
  Beta virt. eigenvalues --    1.30167   1.31309   1.33754   1.34145   1.34992
  Beta virt. eigenvalues --    1.35282   1.36704   1.37005   1.38211   1.39217
  Beta virt. eigenvalues --    1.39906   1.41400   1.42204   1.43140   1.43492
  Beta virt. eigenvalues --    1.44455   1.45196   1.45602   1.45929   1.47547
  Beta virt. eigenvalues --    1.48782   1.49231   1.50769   1.50981   1.51307
  Beta virt. eigenvalues --    1.52530   1.52695   1.54039   1.54812   1.55490
  Beta virt. eigenvalues --    1.57269   1.57340   1.58565   1.59324   1.60147
  Beta virt. eigenvalues --    1.60913   1.62642   1.62710   1.64188   1.64761
  Beta virt. eigenvalues --    1.65769   1.66642   1.67239   1.68843   1.69357
  Beta virt. eigenvalues --    1.69787   1.70580   1.71556   1.72292   1.74700
  Beta virt. eigenvalues --    1.77788   1.78099   1.80819   1.85754   1.87299
  Beta virt. eigenvalues --    1.88578   1.90654   1.91079   1.92609   1.93898
  Beta virt. eigenvalues --    1.95183   1.96199   1.96831   1.98175   1.98391
  Beta virt. eigenvalues --    1.98877   2.00159   2.00244   2.01289   2.01919
  Beta virt. eigenvalues --    2.02441   2.02802   2.03671   2.05538   2.06303
  Beta virt. eigenvalues --    2.07350   2.07403   2.08468   2.09117   2.09623
  Beta virt. eigenvalues --    2.10872   2.12904   2.13140   2.13144   2.13743
  Beta virt. eigenvalues --    2.15256   2.15693   2.16797   2.17504   2.18754
  Beta virt. eigenvalues --    2.20642   2.22651   2.25037   2.25750   2.28003
  Beta virt. eigenvalues --    2.29849   2.29888   2.30609   2.32035   2.33109
  Beta virt. eigenvalues --    2.33824   2.38184   2.38714   2.39391   2.46048
  Beta virt. eigenvalues --    2.46052   2.53567   2.54791   2.59606   2.72258
  Beta virt. eigenvalues --    2.90259   3.01996   3.12603   3.13288   3.18129
  Beta virt. eigenvalues --    3.18401   3.18510   3.31047   3.34756   3.40591
          Condensed to atoms (all electrons):
              1          2          3          4          5          6
     1  Si  13.734251   0.141264  -0.009982   0.003840   0.188728   0.188728
     2  Si   0.141264  13.597896   0.155934  -0.007093   0.032278   0.032278
     3  Si  -0.009982   0.155934  13.655758  -0.014488  -0.011748   0.031461
     4  Si   0.003840  -0.007093  -0.014488  13.740688  -0.019371  -0.019371
     5  Si   0.188728   0.032278  -0.011748  -0.019371  13.425417   0.003514
     6  Si   0.188728   0.032278   0.031461  -0.019371   0.003514  13.425417
     7  Si  -0.009982   0.155934   0.024486  -0.014488   0.031461  -0.011748
     8  Si  -0.011876  -0.008083   0.134292   0.110172  -0.015337   0.205005
     9  Si   0.001574  -0.016499   0.152847   0.096457  -0.018929  -0.018929
    10  Si  -0.023413   0.000582  -0.009193   0.155573   0.151846   0.151846
    11  Si  -0.011876  -0.008083  -0.007508   0.110172   0.205005  -0.015337
              7          8          9         10         11
     1  Si  -0.009982  -0.011876   0.001574  -0.023413  -0.011876
     2  Si   0.155934  -0.008083  -0.016499   0.000582  -0.008083
     3  Si   0.024486   0.134292   0.152847  -0.009193  -0.007508
     4  Si  -0.014488   0.110172   0.096457   0.155573   0.110172
     5  Si   0.031461  -0.015337  -0.018929   0.151846   0.205005
     6  Si  -0.011748   0.205005  -0.018929   0.151846  -0.015337
     7  Si  13.655758  -0.007508   0.152847  -0.009193   0.134292
     8  Si  -0.007508  13.726318   0.018644  -0.016609  -0.004465
     9  Si   0.152847   0.018644  13.713426  -0.009788   0.018644
    10  Si  -0.009193  -0.016609  -0.009788  13.714358  -0.016609
    11  Si   0.134292  -0.004465   0.018644  -0.016609  13.726318
 Mulliken atomic charges:
              1
     1  Si  -0.191256
     2  Si  -0.076407
     3  Si  -0.101858
     4  Si  -0.142092
     5  Si   0.027136
     6  Si   0.027136
     7  Si  -0.101858
     8  Si  -0.130554
     9  Si  -0.090293
    10  Si  -0.089399
    11  Si  -0.130554
 Sum of Mulliken atomic charges =  -1.00000
 Mulliken charges with hydrogens summed into heavy atoms:
              1
     1  Si  -0.191256
     2  Si  -0.076407
     3  Si  -0.101858
     4  Si  -0.142092
     5  Si   0.027136
     6  Si   0.027136
     7  Si  -0.101858
     8  Si  -0.130554
     9  Si  -0.090293
    10  Si  -0.089399
    11  Si  -0.130554
 Sum of Mulliken charges with hydrogens summed into heavy atoms =  -1.00000
          Atomic-Atomic Spin Densities.
              1          2          3          4          5          6
     1  Si   0.260910  -0.033895   0.007211   0.000395  -0.000547  -0.000547
     2  Si  -0.033895   0.449052  -0.069734  -0.000282   0.000632   0.000632
     3  Si   0.007211  -0.069734   0.130802   0.000209  -0.002680  -0.000643
     4  Si   0.000395  -0.000282   0.000209   0.209382   0.000770   0.000770
     5  Si  -0.000547   0.000632  -0.002680   0.000770  -0.001671   0.012691
     6  Si  -0.000547   0.000632  -0.000643   0.000770   0.012691  -0.001671
     7  Si   0.007211  -0.069734   0.038199   0.000209  -0.000643  -0.002680
     8  Si  -0.001411   0.001534   0.002443  -0.009856   0.004323   0.000177
     9  Si  -0.000326   0.005153  -0.023115   0.003254   0.001813   0.001813
    10  Si  -0.008065   0.004562   0.000024   0.003710  -0.015747  -0.015747
    11  Si  -0.001411   0.001534  -0.002503  -0.009856   0.000177   0.004323
              7          8          9         10         11
     1  Si   0.007211  -0.001411  -0.000326  -0.008065  -0.001411
     2  Si  -0.069734   0.001534   0.005153   0.004562   0.001534
     3  Si   0.038199   0.002443  -0.023115   0.000024  -0.002503
     4  Si   0.000209  -0.009856   0.003254   0.003710  -0.009856
     5  Si  -0.000643   0.004323   0.001813  -0.015747   0.000177
     6  Si  -0.002680   0.000177   0.001813  -0.015747   0.004323
     7  Si   0.130802  -0.002503  -0.023115   0.000024   0.002443
     8  Si  -0.002503   0.021319   0.002669   0.001322   0.001491
     9  Si  -0.023115   0.002669   0.079838   0.000016   0.002669
    10  Si   0.000024   0.001322   0.000016   0.058543   0.001322
    11  Si   0.002443   0.001491   0.002669   0.001322   0.021319
 Mulliken atomic spin densities:
              1
     1  Si   0.229525
     2  Si   0.289453
     3  Si   0.080213
     4  Si   0.198705
     5  Si  -0.000881
     6  Si  -0.000881
     7  Si   0.080213
     8  Si   0.021510
     9  Si   0.050670
    10  Si   0.029962
    11  Si   0.021510
 Sum of Mulliken atomic spin densities =   1.00000
 Electronic spatial extent (au):  <R**2>=           3509.3294
 Charge=             -1.0000 electrons
 Dipole moment (field-independent basis, Debye):
    X=             -0.0763    Y=             -1.5181    Z=              0.0000  Tot=              1.5200
 Quadrupole moment (field-independent basis, Debye-Ang):
   XX=           -169.0864   YY=           -176.3276   ZZ=           -163.8421
   XY=             -1.5568   XZ=              0.0000   YZ=              0.0000
 Traceless Quadrupole moment (field-independent basis, Debye-Ang):
   XX=              0.6657   YY=             -6.5756   ZZ=              5.9099
   XY=             -1.5568   XZ=              0.0000   YZ=              0.0000
 Octapole moment (field-independent basis, Debye-Ang**2):
  XXX=              0.6502  YYY=             -1.2432  ZZZ=              0.0000  XYY=             -6.2191
  XXY=            -10.4336  XXZ=              0.0000  XZZ=              0.6732  YZZ=            -13.0586
  YYZ=              0.0000  XYZ=              0.0000
 Hexadecapole moment (field-independent basis, Debye-Ang**3):
 XXXX=          -1970.1529 YYYY=          -3076.4096 ZZZZ=          -1645.3668 XXXY=           -131.9024
 XXXZ=              0.0000 YYYX=           -135.5623 YYYZ=              0.0000 ZZZX=              0.0000
 ZZZY=              0.0000 XXYY=           -840.1411 XXZZ=           -598.0062 YYZZ=           -718.1312
 XXYZ=              0.0000 YYXZ=              0.0000 ZZXY=            -34.9463
 N-N= 1.791099420256D+03 E-N=-1.676149187370D+04  KE= 4.759099263916D+03
 Symmetry A'   KE= 3.276187719420D+03
 Symmetry A"   KE= 1.482911544496D+03
                          Isotropic Fermi Contact Couplings
        Atom                 a.u.       MegaHertz       Gauss      10(-4) cm-1
     1  Si(29)             0.00919      -8.16713      -2.91423      -2.72426
     2  Si(29)             0.28252    -251.08261     -89.59252     -83.75214
     3  Si(29)             0.09787     -86.98055     -31.03682     -29.01359
     4  Si(29)            -0.00145       1.29127       0.46076       0.43072
     5  Si(29)            -0.00979       8.70407       3.10583       2.90336
     6  Si(29)            -0.00979       8.70407       3.10583       2.90336
     7  Si(29)             0.09787     -86.98055     -31.03682     -29.01359
     8  Si(29)            -0.00194       1.72554       0.61572       0.57558
     9  Si(29)             0.07087     -62.98028     -22.47293     -21.00796
    10  Si(29)             0.02494     -22.16195      -7.90793      -7.39243
    11  Si(29)            -0.00194       1.72554       0.61572       0.57558
 --------------------------------------------------------
       Center         ----  Spin Dipole Couplings  ----
                      3XX-RR        3YY-RR        3ZZ-RR
 --------------------------------------------------------
     1   Atom        0.466550     -0.235954     -0.230596
     2   Atom        0.497310     -0.274569     -0.222741
     3   Atom        0.141607     -0.079329     -0.062279
     4   Atom        0.410272     -0.205384     -0.204889
     5   Atom       -0.041043     -0.004411      0.045455
     6   Atom       -0.041043     -0.004411      0.045455
     7   Atom        0.141607     -0.079329     -0.062279
     8   Atom        0.078023     -0.030003     -0.048020
     9   Atom        0.076919     -0.036389     -0.040529
    10   Atom       -0.049279      0.095610     -0.046331
    11   Atom        0.078023     -0.030003     -0.048020
 --------------------------------------------------------
                        XY            XZ            YZ
 --------------------------------------------------------
     1   Atom       -0.069172      0.000000      0.000000
     2   Atom        0.057414      0.000000      0.000000
     3   Atom        0.008906      0.021194      0.001876
     4   Atom       -0.086476      0.000000      0.000000
     5   Atom        0.019123      0.024173     -0.010392
     6   Atom        0.019123     -0.024173      0.010392
     7   Atom        0.008906     -0.021194     -0.001876
     8   Atom        0.046501     -0.008464      0.001681
     9   Atom       -0.063655      0.000000      0.000000
    10   Atom       -0.058904      0.000000      0.000000
    11   Atom        0.046501      0.008464     -0.001681
 --------------------------------------------------------


 ---------------------------------------------------------------------------------
              Anisotropic Spin Dipole Couplings in Principal Axis System
 ---------------------------------------------------------------------------------

       Atom             a.u.   MegaHertz   Gauss  10(-4) cm-1        Axes

              Baa    -0.2427    25.747     9.187     8.588  0.0971  0.9953  0.0000
     1 Si(29) Bbb    -0.2306    24.463     8.729     8.160  0.0000  0.0000  1.0000
              Bcc     0.4733   -50.209   -17.916   -16.748  0.9953 -0.0971  0.0000
 
              Baa    -0.2788    29.578    10.554     9.866 -0.0738  0.9973  0.0000
     2 Si(29) Bbb    -0.2227    23.629     8.432     7.882  0.0000  0.0000  1.0000
              Bcc     0.5016   -53.207   -18.986   -17.748  0.9973  0.0738  0.0000
 
              Baa    -0.0798     8.461     3.019     2.822 -0.0338  0.9972 -0.0661
     3 Si(29) Bbb    -0.0644     6.832     2.438     2.279 -0.1048  0.0622  0.9925
              Bcc     0.1442   -15.292    -5.457    -5.101  0.9939  0.0405  0.1024
 
              Baa    -0.2173    23.052     8.226     7.689  0.1365  0.9906  0.0000
     4 Si(29) Bbb    -0.2049    21.735     7.756     7.250  0.0000  0.0000  1.0000
              Bcc     0.4222   -44.787   -15.981   -14.939  0.9906 -0.1365  0.0000
 
              Baa    -0.0560     5.944     2.121     1.983  0.8902 -0.3803 -0.2510
     5 Si(29) Bbb     0.0038    -0.398    -0.142    -0.133  0.3932  0.9195  0.0012
              Bcc     0.0523    -5.546    -1.979    -1.850  0.2303 -0.0998  0.9680
 
              Baa    -0.0560     5.944     2.121     1.983  0.8902 -0.3803  0.2510
     6 Si(29) Bbb     0.0038    -0.398    -0.142    -0.133  0.3932  0.9195 -0.0012
              Bcc     0.0523    -5.546    -1.979    -1.850 -0.2303  0.0998  0.9680
 
              Baa    -0.0798     8.461     3.019     2.822 -0.0338  0.9972  0.0661
     7 Si(29) Bbb    -0.0644     6.832     2.438     2.279  0.1048 -0.0622  0.9925
              Bcc     0.1442   -15.292    -5.457    -5.101  0.9939  0.0405 -0.1024
 
              Baa    -0.0524     5.557     1.983     1.854  0.2652 -0.6073  0.7489
     8 Si(29) Bbb    -0.0433     4.591     1.638     1.531 -0.2281  0.7152  0.6607
              Bcc     0.0957   -10.148    -3.621    -3.385  0.9368  0.3460 -0.0511
 
              Baa    -0.0650     6.890     2.459     2.298  0.4094  0.9124  0.0000
     9 Si(29) Bbb    -0.0405     4.300     1.534     1.434  0.0000  0.0000  1.0000
              Bcc     0.1055   -11.190    -3.993    -3.733  0.9124 -0.4094  0.0000
 
              Baa    -0.0702     7.448     2.657     2.484  0.9423  0.3347  0.0000
    10 Si(29) Bbb    -0.0463     4.915     1.754     1.639  0.0000  0.0000  1.0000
              Bcc     0.1165   -12.363    -4.411    -4.124 -0.3347  0.9423  0.0000
 
              Baa    -0.0524     5.557     1.983     1.854 -0.2652  0.6073  0.7489
    11 Si(29) Bbb    -0.0433     4.591     1.638     1.531 -0.2281  0.7152 -0.6607
              Bcc     0.0957   -10.148    -3.621    -3.385  0.9368  0.3460  0.0511
 

 ---------------------------------------------------------------------------------

 Calling FoFJK, ICntrl=      2127 FMM=F ISym2X=1 I1Cent= 0 IOpClX= 1 NMat=1 NMatS=1 NMatT=0.
 ***** Axes restored to original set *****
 -------------------------------------------------------------------
 Center     Atomic                   Forces (Hartrees/Bohr)
 Number     Number              X              Y              Z
 -------------------------------------------------------------------
      1       14           0.001246112    0.001075498    0.000000000
      2       14           0.000648711   -0.002236553    0.000000000
      3       14           0.000185785   -0.001301121   -0.002602970
      4       14          -0.002316881    0.001743075    0.000000000
      5       14          -0.000947683    0.001240335    0.002028491
      6       14          -0.000947683    0.001240335   -0.002028491
      7       14           0.000185785   -0.001301121    0.002602970
      8       14           0.000462463   -0.000399053   -0.001956880
      9       14          -0.000758708   -0.002506689    0.000000000
     10       14           0.001779636    0.002844346    0.000000000
     11       14           0.000462463   -0.000399053    0.001956880
 -------------------------------------------------------------------
 Cartesian Forces:  Max     0.002844346 RMS     0.001489037

 GradGradGradGradGradGradGradGradGradGradGradGradGradGradGradGradGradGrad
 Berny optimization.
 Internal  Forces:  Max     0.001585295 RMS     0.000346201
 Search for a local minimum.
 Step number   1 out of a maximum of  100
 All quantities printed in internal units (Hartrees-Bohrs-Radians)
 Mixed Optimization -- En-DIIS/RFO-DIIS
 Second derivative matrix not updated -- first step.
     Eigenvalues ---    0.01774   0.02421   0.02919   0.03282   0.04426
     Eigenvalues ---    0.04983   0.05593   0.06848   0.06940   0.07625
     Eigenvalues ---    0.07689   0.07946   0.08150   0.08223   0.08436
     Eigenvalues ---    0.08732   0.09326   0.09587   0.09753   0.10198
     Eigenvalues ---    0.10804   0.11751   0.12415   0.13263   0.13624
     Eigenvalues ---    0.14575   0.149731000.000001000.000001000.00000
     Eigenvalues --- 1000.000001000.000001000.000001000.000001000.00000
     Eigenvalues --- 1000.000001000.000001000.000001000.000001000.00000
     Eigenvalues --- 1000.000001000.000001000.000001000.000001000.00000
     Eigenvalues --- 1000.000001000.000001000.000001000.000001000.00000
     Eigenvalues --- 1000.000001000.000001000.000001000.000001000.00000
     Eigenvalues --- 1000.000001000.000001000.000001000.000001000.00000
     Eigenvalues --- 1000.000001000.000001000.000001000.000001000.00000
     Eigenvalues --- 1000.000001000.000001000.000001000.000001000.00000
     Eigenvalues --- 1000.000001000.000001000.000001000.000001000.00000
     Eigenvalues --- 1000.000001000.000001000.000001000.000001000.00000
     Eigenvalues --- 1000.000001000.000001000.000001000.000001000.00000
     Eigenvalues --- 1000.000001000.000001000.000001000.000001000.00000
     Eigenvalues --- 1000.000001000.000001000.000001000.000001000.00000
     Eigenvalues --- 1000.000001000.000001000.000001000.000001000.00000
     Eigenvalues --- 1000.000001000.000001000.000001000.000001000.00000
     Eigenvalues --- 1000.000001000.000001000.000001000.000001000.00000
     Eigenvalues --- 1000.000001000.000001000.000001000.000001000.00000
     Eigenvalues --- 1000.000001000.000001000.000001000.000001000.00000
     Eigenvalues --- 1000.000001000.000001000.000001000.000001000.00000
     Eigenvalues --- 1000.000001000.000001000.000001000.000001000.00000
     Eigenvalues --- 1000.000001000.000001000.000001000.000001000.00000
     Eigenvalues --- 1000.000001000.000001000.000001000.000001000.00000
     Eigenvalues --- 1000.000001000.000001000.000001000.000001000.00000
     Eigenvalues --- 1000.000001000.000001000.000001000.000001000.00000
     Eigenvalues --- 1000.000001000.000001000.000001000.000001000.00000
     Eigenvalues --- 1000.000001000.000001000.000001000.000001000.00000
     Eigenvalues --- 1000.000001000.000001000.000001000.000001000.00000
     Eigenvalues --- 1000.000001000.000001000.000001000.000001000.00000
     Eigenvalues --- 1000.000001000.000001000.000001000.000001000.00000
 RFO step:  Lambda=-2.80829649D-04 EMin= 1.77354398D-02
 Linear search not attempted -- first point.
 Iteration  1 RMS(Cart)=  0.00259962 RMS(Int)=  0.00000475
 Iteration  2 RMS(Cart)=  0.00000232 RMS(Int)=  0.00000245
 Iteration  3 RMS(Cart)=  0.00000000 RMS(Int)=  0.00000245
 ClnCor:  largest displacement from symmetrization is 2.09D-09 for atom     7.
 Variable       Old X    -DE/DX   Delta X   Delta X   Delta X     New X
                                 (Linear)    (Quad)   (Total)
    R1        4.62439  -0.00104   0.00000  -0.01093  -0.01093   4.61347
    R2        4.57910  -0.00049   0.00000  -0.00568  -0.00567   4.57342
    R3        4.57910  -0.00049   0.00000  -0.00568  -0.00567   4.57342
    R4        4.60296  -0.00042   0.00000  -0.00592  -0.00592   4.59704
    R5        5.13474  -0.00092   0.00000  -0.01420  -0.01420   5.12055
    R6        5.13474  -0.00092   0.00000  -0.01420  -0.01420   5.12055
    R7        4.60296  -0.00042   0.00000  -0.00592  -0.00592   4.59704
    R8        5.20780  -0.00081   0.00000  -0.01119  -0.01119   5.19662
    R9        5.12003  -0.00159   0.00000  -0.02067  -0.02066   5.09937
   R10        4.60838  -0.00042   0.00000  -0.00396  -0.00397   4.60441
   R11        4.58061  -0.00056   0.00000  -0.00583  -0.00583   4.57478
   R12        4.82453  -0.00100   0.00000  -0.01328  -0.01328   4.81126
   R13        4.82835  -0.00140   0.00000  -0.02076  -0.02075   4.80760
   R14        4.62095  -0.00093   0.00000  -0.01059  -0.01059   4.61036
   R15        4.82453  -0.00100   0.00000  -0.01328  -0.01328   4.81126
   R16        4.80494  -0.00101   0.00000  -0.01324  -0.01324   4.79169
   R17        5.20780  -0.00081   0.00000  -0.01119  -0.01119   5.19662
   R18        4.56335  -0.00026   0.00000  -0.00113  -0.00113   4.56223
   R19        4.55293   0.00025   0.00000   0.00055   0.00055   4.55349
   R20        4.55293   0.00025   0.00000   0.00055   0.00055   4.55349
   R21        4.56335  -0.00026   0.00000  -0.00113  -0.00113   4.56223
   R22        4.58061  -0.00056   0.00000  -0.00583  -0.00583   4.57478
   R23        4.60838  -0.00042   0.00000  -0.00396  -0.00397   4.60441
   R24        5.26495  -0.00091   0.00000  -0.01371  -0.01371   5.25124
   R25        5.30149  -0.00117   0.00000  -0.01757  -0.01757   5.28392
   R26        5.26495  -0.00091   0.00000  -0.01371  -0.01371   5.25124
   R27        5.30149  -0.00117   0.00000  -0.01757  -0.01757   5.28392
    A1        2.09196   0.00009   0.00000   0.00155   0.00156   2.09351
    A2        2.09196   0.00009   0.00000   0.00155   0.00156   2.09351
    A3        1.65912  -0.00014   0.00000  -0.00141  -0.00141   1.65771
    A4        1.65912  -0.00014   0.00000  -0.00141  -0.00141   1.65771
    A5        2.01341   0.00016   0.00000   0.00087   0.00087   2.01428
    A6        1.92757   0.00027   0.00000   0.00336   0.00336   1.93093
    A7        1.54054   0.00005   0.00000   0.00065   0.00065   1.54119
    A8        1.77471   0.00014   0.00000   0.00090   0.00090   1.77561
    A9        1.83163   0.00007   0.00000   0.00033   0.00033   1.83197
   A10        1.77965   0.00012   0.00000   0.00029   0.00029   1.77994
   A11        1.81334   0.00002   0.00000   0.00007   0.00007   1.81342
   A12        1.90576   0.00000   0.00000   0.00103   0.00103   1.90679
   A13        1.85213   0.00030   0.00000   0.00335   0.00335   1.85548
   A14        2.80844   0.00002   0.00000   0.00120   0.00119   2.80963
   A15        2.01483   0.00002   0.00000   0.00060   0.00060   2.01543
   A16        1.86370   0.00009   0.00000   0.00178   0.00178   1.86549
   A17        1.60105  -0.00005   0.00000  -0.00065  -0.00065   1.60040
   A18        1.87092  -0.00004   0.00000  -0.00079  -0.00079   1.87013
   A19        1.86041  -0.00032   0.00000  -0.00361  -0.00361   1.85680
   A20        1.90576   0.00000   0.00000   0.00103   0.00103   1.90679
   A21        2.80844   0.00002   0.00000   0.00120   0.00119   2.80963
   A22        1.85213   0.00030   0.00000   0.00335   0.00335   1.85548
   A23        1.86370   0.00009   0.00000   0.00178   0.00178   1.86549
   A24        2.01483   0.00002   0.00000   0.00060   0.00060   2.01543
   A25        1.60105  -0.00005   0.00000  -0.00065  -0.00065   1.60040
   A26        1.86041  -0.00032   0.00000  -0.00361  -0.00361   1.85680
   A27        1.87092  -0.00004   0.00000  -0.00079  -0.00079   1.87013
   A28        1.92757   0.00027   0.00000   0.00336   0.00336   1.93093
   A29        2.01341   0.00016   0.00000   0.00087   0.00087   2.01428
   A30        1.54054   0.00005   0.00000   0.00065   0.00065   1.54119
   A31        1.83163   0.00007   0.00000   0.00033   0.00033   1.83197
   A32        1.77471   0.00014   0.00000   0.00090   0.00090   1.77561
   A33        1.87760  -0.00013   0.00000  -0.00107  -0.00107   1.87652
   A34        1.82265  -0.00017   0.00000  -0.00106  -0.00106   1.82159
   A35        1.81628   0.00007   0.00000   0.00231   0.00231   1.81858
   A36        1.76635  -0.00003   0.00000   0.00003   0.00003   1.76638
   A37        1.56288  -0.00008   0.00000  -0.00068  -0.00068   1.56220
   A38        1.88445   0.00003   0.00000   0.00170   0.00170   1.88615
   A39        1.79918  -0.00008   0.00000  -0.00112  -0.00112   1.79806
   A40        1.88445   0.00003   0.00000   0.00170   0.00170   1.88615
   A41        1.79918  -0.00008   0.00000  -0.00112  -0.00112   1.79806
   A42        1.58459   0.00003   0.00000  -0.00006  -0.00006   1.58453
   A43        1.87181   0.00020   0.00000   0.00216   0.00216   1.87397
   A44        1.87181   0.00020   0.00000   0.00216   0.00216   1.87397
   A45        1.73316   0.00013   0.00000   0.00074   0.00074   1.73390
   A46        1.73316   0.00013   0.00000   0.00074   0.00074   1.73390
   A47        1.57067   0.00013   0.00000   0.00136   0.00136   1.57203
   A48        1.81628   0.00007   0.00000   0.00231   0.00231   1.81858
   A49        1.87760  -0.00013   0.00000  -0.00107  -0.00107   1.87652
   A50        1.76635  -0.00003   0.00000   0.00003   0.00003   1.76638
   A51        1.82265  -0.00017   0.00000  -0.00106  -0.00106   1.82159
   A52        1.56288  -0.00008   0.00000  -0.00068  -0.00068   1.56220
    D1        0.36813  -0.00010   0.00000  -0.00086  -0.00086   0.36728
    D2        1.70794  -0.00005   0.00000  -0.00173  -0.00173   1.70620
    D3       -0.55667  -0.00009   0.00000  -0.00119  -0.00119  -0.55786
    D4        0.78313  -0.00005   0.00000  -0.00206  -0.00207   0.78107
    D5        0.52222  -0.00014   0.00000  -0.00129  -0.00129   0.52093
    D6       -0.81562   0.00017   0.00000   0.00307   0.00307  -0.81255
    D7        0.81562  -0.00017   0.00000  -0.00307  -0.00307   0.81255
    D8       -0.52222   0.00014   0.00000   0.00129   0.00129  -0.52093
    D9       -1.70794   0.00005   0.00000   0.00173   0.00173  -1.70620
   D10       -0.36813   0.00010   0.00000   0.00086   0.00086  -0.36728
   D11       -0.78313   0.00005   0.00000   0.00206   0.00207  -0.78107
   D12        0.55667   0.00009   0.00000   0.00119   0.00119   0.55786
   D13       -0.99410  -0.00005   0.00000  -0.00055  -0.00055  -0.99466
   D14        0.00000   0.00000   0.00000   0.00000   0.00000   0.00000
   D15        0.99967   0.00013   0.00000   0.00198   0.00198   1.00165
   D16       -1.94957  -0.00017   0.00000  -0.00250  -0.00250  -1.95207
   D17       -0.95547  -0.00012   0.00000  -0.00194  -0.00195  -0.95742
   D18        0.04420   0.00001   0.00000   0.00004   0.00003   0.04423
   D19        0.00000   0.00000   0.00000   0.00000   0.00000   0.00000
   D20       -0.92213  -0.00021   0.00000  -0.00218  -0.00218  -0.92432
   D21        0.92213   0.00021   0.00000   0.00218   0.00218   0.92432
   D22        0.00000   0.00000   0.00000   0.00000   0.00000   0.00000
   D23        1.41650   0.00016   0.00000   0.00303   0.00304   1.41954
   D24        0.43325   0.00020   0.00000   0.00249   0.00249   0.43573
   D25        0.38149  -0.00003   0.00000   0.00084   0.00084   0.38233
   D26       -0.60177   0.00000   0.00000   0.00029   0.00029  -0.60148
   D27       -1.53340   0.00005   0.00000   0.00117   0.00118  -1.53222
   D28       -0.50226   0.00004   0.00000   0.00165   0.00166  -0.50061
   D29       -0.39793   0.00004   0.00000   0.00038   0.00038  -0.39755
   D30        0.63320   0.00004   0.00000   0.00087   0.00087   0.63407
   D31       -0.60818   0.00001   0.00000  -0.00152  -0.00152  -0.60970
   D32        0.65458  -0.00019   0.00000  -0.00371  -0.00372   0.65086
   D33        0.62802  -0.00013   0.00000  -0.00161  -0.00161   0.62642
   D34       -0.62802   0.00013   0.00000   0.00161   0.00161  -0.62642
   D35        0.58387  -0.00006   0.00000  -0.00121  -0.00121   0.58266
   D36       -0.58387   0.00006   0.00000   0.00121   0.00121  -0.58266
   D37       -0.65458   0.00019   0.00000   0.00371   0.00372  -0.65086
   D38        0.60818  -0.00001   0.00000   0.00152   0.00152   0.60970
   D39        0.00000   0.00000   0.00000   0.00000   0.00000   0.00000
   D40       -0.95407   0.00002   0.00000  -0.00048  -0.00048  -0.95455
   D41        0.95407  -0.00002   0.00000   0.00048   0.00048   0.95455
   D42        0.00000   0.00000   0.00000   0.00000   0.00000   0.00000
   D43        0.99410   0.00005   0.00000   0.00055   0.00055   0.99466
   D44        1.94957   0.00017   0.00000   0.00250   0.00250   1.95207
   D45        0.00000   0.00000   0.00000   0.00000   0.00000   0.00000
   D46        0.95547   0.00012   0.00000   0.00194   0.00195   0.95742
   D47       -0.99967  -0.00013   0.00000  -0.00198  -0.00198  -1.00165
   D48       -0.04420  -0.00001   0.00000  -0.00004  -0.00003  -0.04423
   D49       -2.37132   0.00010   0.00000   0.00034   0.00034  -2.37098
   D50       -1.34288   0.00014   0.00000   0.00078   0.00078  -1.34210
   D51       -1.32250   0.00012   0.00000   0.00145   0.00145  -1.32104
   D52       -0.29405   0.00017   0.00000   0.00189   0.00189  -0.29216
   D53       -0.34138   0.00009   0.00000   0.00141   0.00141  -0.33998
   D54        0.68706   0.00013   0.00000   0.00185   0.00184   0.68890
   D55        1.08074  -0.00007   0.00000  -0.00534  -0.00534   1.07540
   D56        0.06037   0.00004   0.00000  -0.00367  -0.00367   0.05669
   D57        1.55214  -0.00012   0.00000  -0.00210  -0.00210   1.55004
   D58        0.53177   0.00000   0.00000  -0.00043  -0.00043   0.53133
   D59        0.41285  -0.00015   0.00000  -0.00230  -0.00231   0.41054
   D60       -0.60753  -0.00003   0.00000  -0.00064  -0.00064  -0.60816
   D61       -1.08074   0.00007   0.00000   0.00534   0.00534  -1.07540
   D62       -0.06037  -0.00004   0.00000   0.00367   0.00367  -0.05669
   D63       -1.55214   0.00012   0.00000   0.00210   0.00210  -1.55004
   D64       -0.53177   0.00000   0.00000   0.00043   0.00043  -0.53133
   D65       -0.41285   0.00015   0.00000   0.00230   0.00231  -0.41054
   D66        0.60753   0.00003   0.00000   0.00064   0.00064   0.60816
   D67        2.37132  -0.00010   0.00000  -0.00034  -0.00034   2.37098
   D68        1.34288  -0.00014   0.00000  -0.00078  -0.00078   1.34210
   D69        1.32250  -0.00012   0.00000  -0.00145  -0.00145   1.32104
   D70        0.29405  -0.00017   0.00000  -0.00189  -0.00189   0.29216
   D71        0.34138  -0.00009   0.00000  -0.00141  -0.00141   0.33998
   D72       -0.68706  -0.00013   0.00000  -0.00185  -0.00184  -0.68890
   D73        1.53340  -0.00005   0.00000  -0.00117  -0.00118   1.53222
   D74        0.50226  -0.00004   0.00000  -0.00165  -0.00166   0.50061
   D75        0.39793  -0.00004   0.00000  -0.00038  -0.00038   0.39755
   D76       -0.63320  -0.00004   0.00000  -0.00087  -0.00087  -0.63407
   D77       -1.41650  -0.00016   0.00000  -0.00303  -0.00304  -1.41954
   D78       -0.43325  -0.00020   0.00000  -0.00249  -0.00249  -0.43573
   D79       -0.38149   0.00003   0.00000  -0.00084  -0.00084  -0.38233
   D80        0.60177   0.00000   0.00000  -0.00029  -0.00029   0.60148
   D81        0.06109   0.00001   0.00000   0.00019   0.00019   0.06128
   D82       -0.88922  -0.00009   0.00000  -0.00139  -0.00139  -0.89061
   D83        0.99698   0.00007   0.00000   0.00215   0.00215   0.99913
   D84        0.04668  -0.00002   0.00000   0.00057   0.00057   0.04725
   D85       -0.05468  -0.00020   0.00000  -0.00261  -0.00261  -0.05729
   D86        0.88428   0.00005   0.00000   0.00020   0.00020   0.88448
   D87       -0.98531  -0.00023   0.00000  -0.00341  -0.00341  -0.98872
   D88       -0.04635   0.00002   0.00000  -0.00060  -0.00060  -0.04695
   D89       -0.06109  -0.00001   0.00000  -0.00019  -0.00019  -0.06128
   D90       -0.99698  -0.00007   0.00000  -0.00215  -0.00215  -0.99913
   D91        0.88922   0.00009   0.00000   0.00139   0.00139   0.89061
   D92       -0.04668   0.00002   0.00000  -0.00057  -0.00057  -0.04725
   D93        0.05468   0.00020   0.00000   0.00261   0.00261   0.05729
   D94        0.98531   0.00023   0.00000   0.00341   0.00341   0.98872
   D95       -0.88428  -0.00005   0.00000  -0.00020  -0.00020  -0.88448
   D96        0.04635  -0.00002   0.00000   0.00060   0.00060   0.04695
         Item               Value     Threshold  Converged?
 Maximum Force            0.001585     0.000450     NO 
 RMS     Force            0.000346     0.000300     NO 
 Maximum Displacement     0.011979     0.001800     NO 
 RMS     Displacement     0.002600     0.001200     NO 
 Predicted change in Energy=-1.409800D-04
 GradGradGradGradGradGradGradGradGradGradGradGradGradGradGradGradGradGrad

                          Input orientation:                          
 ---------------------------------------------------------------------
 Center     Atomic      Atomic             Coordinates (Angstroms)
 Number     Number       Type             X           Y           Z
 ---------------------------------------------------------------------
      1         14           0       -3.136613   -0.818495    0.000000
      2         14           0       -2.033511    1.359419    0.000000
      3         14           0       -0.040110    1.711136    1.349236
      4         14           0        2.621973   -0.980727    0.000000
      5         14           0       -1.075190   -0.835254   -1.267827
      6         14           0       -1.075190   -0.835254    1.267827
      7         14           0       -0.040110    1.711136   -1.349236
      8         14           0        1.166546   -0.309984    1.978380
      9         14           0        1.955943    1.474613    0.000000
     10         14           0        0.489776   -2.166413    0.000000
     11         14           0        1.166546   -0.309984   -1.978380
 ---------------------------------------------------------------------
                    Distance matrix (angstroms):
                    1          2          3          4          5
     1  Si   0.000000
     2  Si   2.441341   0.000000
     3  Si   4.219929   2.432651   0.000000
     4  Si   5.760871   5.210548   4.019111   0.000000
     5  Si   2.420151   2.709677   3.795327   3.911210   0.000000
     6  Si   2.420151   2.709677   2.749931   3.911210   2.535654
     7  Si   4.219929   2.432651   2.698472   4.019111   2.749931
     8  Si   4.763376   4.115976   2.436548   2.546007   3.979843
     9  Si   5.585023   3.991117   2.420870   2.544070   4.016297
    10  Si   3.868796   4.335720   4.139638   2.439696   2.414226
    11  Si   4.763376   4.115976   4.076024   2.546007   2.409601
                    6          7          8          9         10
     6  Si   0.000000
     7  Si   3.795327   0.000000
     8  Si   2.409601   4.076024   0.000000
     9  Si   4.016297   2.420870   2.778835   0.000000
    10  Si   2.414226   4.139638   2.796128   3.925140   0.000000
    11  Si   3.979843   2.436548   3.956760   2.778835   2.796128
                   11
    11  Si   0.000000
 Stoichiometry    Si11(1-,2)
 Framework group  CS[SG(Si5),X(Si6)]
 Deg. of freedom    16
 Full point group                 CS      NOp   2
 Largest Abelian subgroup         CS      NOp   2
 Largest concise Abelian subgroup CS      NOp   2
                         Standard orientation:                         
 ---------------------------------------------------------------------
 Center     Atomic      Atomic             Coordinates (Angstroms)
 Number     Number       Type             X           Y           Z
 ---------------------------------------------------------------------
      1         14           0        0.081357   -3.240636    0.000000
[...]
              1
     1  Si  -0.125204
     2  Si  -0.063338
     3  Si  -0.140729
     4  Si  -0.135385
     5  Si   0.038869
     6  Si   0.038869
     7  Si  -0.140729
     8  Si  -0.123891
     9  Si  -0.073845
    10  Si  -0.150724
    11  Si  -0.123891
 Sum of Mulliken atomic charges =  -1.00000
 Mulliken charges with hydrogens summed into heavy atoms:
              1
     1  Si  -0.125204
     2  Si  -0.063338
     3  Si  -0.140729
     4  Si  -0.135385
     5  Si   0.038869
     6  Si   0.038869
     7  Si  -0.140729
     8  Si  -0.123891
     9  Si  -0.073845
    10  Si  -0.150724
    11  Si  -0.123891
 Sum of Mulliken charges with hydrogens summed into heavy atoms =  -1.00000
          Atomic-Atomic Spin Densities.
              1          2          3          4          5          6
     1  Si   0.390508  -0.032688   0.012564   0.000203  -0.012430  -0.012430
     2  Si  -0.032688   0.574849  -0.100173  -0.005966   0.018767   0.018767
     3  Si   0.012564  -0.100173   0.163490   0.002181  -0.020683   0.007254
     4  Si   0.000203  -0.005966   0.002181   0.228977   0.005392   0.005392
     5  Si  -0.012430   0.018767  -0.020683   0.005392  -0.092095   0.029488
     6  Si  -0.012430   0.018767   0.007254   0.005392   0.029488  -0.092095
     7  Si   0.012564  -0.100173   0.073433   0.002181   0.007254  -0.020683
     8  Si   0.000805   0.002938   0.019214  -0.021788   0.008426  -0.004889
     9  Si  -0.002835   0.010353  -0.037660   0.031268   0.004752   0.004752
    10  Si  -0.012839   0.010132   0.001359  -0.002617  -0.036756  -0.036756
    11  Si   0.000805   0.002938  -0.007160  -0.021788  -0.004889   0.008426
              7          8          9         10         11
     1  Si   0.012564   0.000805  -0.002835  -0.012839   0.000805
     2  Si  -0.100173   0.002938   0.010353   0.010132   0.002938
     3  Si   0.073433   0.019214  -0.037660   0.001359  -0.007160
     4  Si   0.002181  -0.021788   0.031268  -0.002617  -0.021788
     5  Si   0.007254   0.008426   0.004752  -0.036756  -0.004889
     6  Si  -0.020683  -0.004889   0.004752  -0.036756   0.008426
     7  Si   0.163490  -0.007160  -0.037660   0.001359   0.019214
     8  Si  -0.007160   0.013749  -0.001470   0.005815   0.001185
     9  Si  -0.037660  -0.001470   0.023648  -0.001356  -0.001470
    10  Si   0.001359   0.005815  -0.001356   0.030379   0.005815
    11  Si   0.019214   0.001185  -0.001470   0.005815   0.013749
 Mulliken atomic spin densities:
              1
     1  Si   0.344228
     2  Si   0.399744
     3  Si   0.113817
     4  Si   0.223435
     5  Si  -0.092776
     6  Si  -0.092776
     7  Si   0.113817
     8  Si   0.016825
     9  Si  -0.007676
    10  Si  -0.035464
    11  Si   0.016825
 Sum of Mulliken atomic spin densities =   1.00000
 Electronic spatial extent (au):  <R**2>=           3502.6900
 Charge=             -1.0000 electrons
 Dipole moment (field-independent basis, Debye):
    X=             -0.2713    Y=             -2.4615    Z=              0.0000  Tot=              2.4764
 Quadrupole moment (field-independent basis, Debye-Ang):
   XX=           -177.1186   YY=           -183.2454   ZZ=           -171.4665
   XY=             -0.4166   XZ=              0.0000   YZ=              0.0000
 Traceless Quadrupole moment (field-independent basis, Debye-Ang):
   XX=              0.1583   YY=             -5.9686   ZZ=              5.8103
   XY=             -0.4166   XZ=              0.0000   YZ=              0.0000
 Octapole moment (field-independent basis, Debye-Ang**2):
  XXX=             -0.1392  YYY=            -10.8593  ZZZ=              0.0000  XYY=             -9.6238
  XXY=            -16.4042  XXZ=              0.0000  XZZ=              1.1014  YZZ=            -19.4172
  YYZ=              0.0000  XYZ=              0.0000
 Hexadecapole moment (field-independent basis, Debye-Ang**3):
 XXXX=          -2086.0846 YYYY=          -3268.9541 ZZZZ=          -1764.2584 XXXY=           -122.7939
 XXXZ=              0.0000 YYYX=           -124.8766 YYYZ=              0.0000 ZZZX=              0.0000
 ZZZY=              0.0000 XXYY=           -890.4357 XXZZ=           -635.1632 YYZZ=           -754.4206
 XXYZ=              0.0000 YYXZ=              0.0000 ZZXY=            -33.8301
 N-N= 1.799030680389D+03 E-N=-1.678928242198D+04  KE= 4.766772471838D+03
 Symmetry A'   KE= 3.281069235155D+03
 Symmetry A"   KE= 1.485703236682D+03
                          Isotropic Fermi Contact Couplings
        Atom                 a.u.       MegaHertz       Gauss      10(-4) cm-1
     1  Si(29)             0.04313     -38.32962     -13.67696     -12.78539
     2  Si(29)             0.34559    -307.13375    -109.59295    -102.44879
     3  Si(29)             0.10730     -95.35656     -34.02559     -31.80753
     4  Si(29)            -0.01989      17.67523       6.30696       5.89582
     5  Si(29)            -0.04890      43.46232      15.50844      14.49747
     6  Si(29)            -0.04890      43.46232      15.50844      14.49747
     7  Si(29)             0.10730     -95.35656     -34.02559     -31.80753
     8  Si(29)            -0.00676       6.01198       2.14522       2.00538
     9  Si(29)             0.03187     -28.32715     -10.10783      -9.44892
    10  Si(29)             0.02488     -22.11420      -7.89090      -7.37650
    11  Si(29)            -0.00676       6.01198       2.14522       2.00538
 --------------------------------------------------------
       Center         ----  Spin Dipole Couplings  ----
                      3XX-RR        3YY-RR        3ZZ-RR
 --------------------------------------------------------
     1   Atom        0.582050     -0.323078     -0.258971
     2   Atom        0.844588     -0.512192     -0.332396
     3   Atom        0.256265     -0.130108     -0.126157
     4   Atom        0.476591     -0.251676     -0.224915
     5   Atom       -0.136803      0.032396      0.104407
     6   Atom       -0.136803      0.032396      0.104407
     7   Atom        0.256265     -0.130108     -0.126157
     8   Atom        0.131546     -0.055546     -0.076001
     9   Atom        0.036153     -0.003402     -0.032750
    10   Atom       -0.098768      0.162734     -0.063966
    11   Atom        0.131546     -0.055546     -0.076001
 --------------------------------------------------------
                        XY            XZ            YZ
 --------------------------------------------------------
     1   Atom        0.031285      0.000000      0.000000
     2   Atom        0.268500      0.000000      0.000000
     3   Atom       -0.047866      0.006778      0.007024
     4   Atom       -0.100299      0.000000      0.000000
     5   Atom        0.079003      0.065073     -0.044390
     6   Atom        0.079003     -0.065073      0.044390
     7   Atom       -0.047866     -0.006778     -0.007024
     8   Atom        0.048917     -0.005637      0.017290
     9   Atom       -0.119850      0.000000      0.000000
    10   Atom       -0.157018      0.000000      0.000000
    11   Atom        0.048917      0.005637     -0.017290
 --------------------------------------------------------


 ---------------------------------------------------------------------------------
              Anisotropic Spin Dipole Couplings in Principal Axis System
 ---------------------------------------------------------------------------------

       Atom             a.u.   MegaHertz   Gauss  10(-4) cm-1        Axes

              Baa    -0.3242    34.388    12.271    11.471 -0.0345  0.9994  0.0000
     1 Si(29) Bbb    -0.2590    27.473     9.803     9.164  0.0000  0.0000  1.0000
              Bcc     0.5831   -61.861   -22.073   -20.635  0.9994  0.0345  0.0000
 
              Baa    -0.5634    59.767    21.326    19.936 -0.1873  0.9823  0.0000
     2 Si(29) Bbb    -0.3324    35.262    12.582    11.762  0.0000  0.0000  1.0000
              Bcc     0.8958   -95.029   -33.909   -31.698  0.9823  0.1873  0.0000
 
              Baa    -0.1403    14.881     5.310     4.964  0.1129  0.8669 -0.4855
     3 Si(29) Bbb    -0.1219    12.934     4.615     4.314  0.0455  0.4836  0.8741
              Bcc     0.2622   -27.815    -9.925    -9.278  0.9926 -0.1208  0.0151
 
              Baa    -0.2652    28.137    10.040     9.386  0.1340  0.9910  0.0000
     4 Si(29) Bbb    -0.2249    23.860     8.514     7.959  0.0000  0.0000  1.0000
              Bcc     0.4902   -51.997   -18.554   -17.344  0.9910 -0.1340  0.0000
 
              Baa    -0.1882    19.966     7.124     6.660  0.8929 -0.3711 -0.2549
     5 Si(29) Bbb     0.0593    -6.288    -2.244    -2.098  0.4298  0.8712  0.2373
              Bcc     0.1289   -13.677    -4.880    -4.562  0.1340 -0.3214  0.9374
 
              Baa    -0.1882    19.966     7.124     6.660  0.8929 -0.3711  0.2549
     6 Si(29) Bbb     0.0593    -6.288    -2.244    -2.098  0.4298  0.8712 -0.2373
              Bcc     0.1289   -13.677    -4.880    -4.562 -0.1340  0.3214  0.9374
 
              Baa    -0.1403    14.881     5.310     4.964  0.1129  0.8669  0.4855
     7 Si(29) Bbb    -0.1219    12.934     4.615     4.314 -0.0455 -0.4836  0.8741
              Bcc     0.2622   -27.815    -9.925    -9.278  0.9926 -0.1208 -0.0151
 
              Baa    -0.0904     9.591     3.422     3.199  0.1527 -0.6027  0.7832
     8 Si(29) Bbb    -0.0532     5.640     2.013     1.881 -0.1827  0.7616  0.6218
              Bcc     0.1436   -15.231    -5.435    -5.080  0.9712  0.2381 -0.0062
 
              Baa    -0.1051    11.149     3.978     3.719  0.6470  0.7625  0.0000
     9 Si(29) Bbb    -0.0328     3.474     1.240     1.159  0.0000  0.0000  1.0000
              Bcc     0.1378   -14.623    -5.218    -4.878  0.7625 -0.6470  0.0000
 
              Baa    -0.1723    18.283     6.524     6.099  0.9055  0.4243  0.0000
    10 Si(29) Bbb    -0.0640     6.786     2.421     2.263  0.0000  0.0000  1.0000
              Bcc     0.2363   -25.069    -8.945    -8.362 -0.4243  0.9055  0.0000
 
              Baa    -0.0904     9.591     3.422     3.199 -0.1527  0.6027  0.7832
    11 Si(29) Bbb    -0.0532     5.640     2.013     1.881 -0.1827  0.7616 -0.6218
              Bcc     0.1436   -15.231    -5.435    -5.080  0.9712  0.2381  0.0062
 

 ---------------------------------------------------------------------------------

 1\1\GINC-NODE64\SP\UHF\GFHFB2\Si11(1-,2)\TAM\07-Mar-2012\0\\#N Geom=Al
 lCheck Guess=TCheck SCRF=Check HF/GFHFB2 SCF=Tight\\si11-an-d-02\\-1,2
 \Si,0,-3.1390933033,-0.8321024255,0.\Si,0,-2.0353770068,1.345288869,0.
 \Si,0,-0.0366281429,1.7110361314,1.3374246547\Si,0,2.6210008073,-0.976
 1611187,0.\Si,0,-1.0780866812,-0.8178746437,-1.2616784984\Si,0,-1.0780
 866812,-0.8178746437,1.2616784984\Si,0,-0.0366281429,1.7110361314,-1.3
 374246547\Si,0,1.1652332241,-0.318125375,1.9739923357\Si,0,1.958256118
 7,1.4625177349,0.\Si,0,0.4942354063,-2.1494218347,0.\Si,0,1.1652332241
 ,-0.318125375,-1.9739923357\\Version=AM64L-G09RevA.02\State=2-A'\HF=-3
 178.2794526\S2=0.865885\S2-1=0.\S2A=0.761308\RMSD=5.471e-09\Dipole=-0.
 968455,-0.106398,0.\Quadrupole=-4.3536223,0.0337754,4.319847,-0.686313
 8,0.,0.\PG=CS [SG(Si5),X(Si6)]\\@


 PATIENCE IS THE ABILITY TO IDLE YOUR MOTOR WHEN
 YOU FEEL LIKE STRIPPING YOUR GEARS.
 Diagonal vibrational polarizability:
        0.0000000       0.0000000       0.0000000

 Temperature=              298.150000 Pressure=                      1.000000
 E(ZPE)=                     0.015637 E(Thermal)=                    0.031870
 E(CCSD(T))=             -3179.102749 E(Empiric)=                   -0.159257
 DE(Plus)=                  -0.029931 DE(2DF)=                      -0.402309
 E(Delta-G3XP)=             -3.452310 DE(HF)=                       -0.073595
 G4(0 K)=                -3183.204514 G4 Energy=                 -3183.188281
 G4 Enthalpy=            -3183.187337 G4 Free Energy=            -3183.248361
 1\1\GINC-NODE64\Mixed\G4\G4\Si11(1-,2)\TAM\07-Mar-2012\0\\# G4 scfcyc=
 500 scf=xqc\\si11-an-d-02\\-1,2\Si,0,-3.1390933033,-0.8321024255,0.\Si
 ,0,-2.0353770068,1.345288869,0.\Si,0,-0.0366281429,1.7110361314,1.3374
 246547\Si,0,2.6210008073,-0.9761611187,0.\Si,0,-1.0780866812,-0.817874
 6437,-1.2616784984\Si,0,-1.0780866812,-0.8178746437,1.2616784984\Si,0,
 -0.0366281429,1.7110361314,-1.3374246547\Si,0,1.1652332241,-0.31812537
 5,1.9739923357\Si,0,1.9582561187,1.4625177349,0.\Si,0,0.4942354063,-2.
 1494218347,0.\Si,0,1.1652332241,-0.318125375,-1.9739923357\\Version=AM
 64L-G09RevA.02\State=2-A'\MP2/GTBas1=-3179.0313796\MP4/GTBas1=-3179.18
 14353\CCSD(T)/G3Bas1=-3179.1027487\MP2/GTBas2=-3179.0578972\MP4/GTBas2
 =-3179.2113661\MP2/GTBas3=-3179.3936107\MP4/GTBas3=-3179.5837444\HF/GT
 LargeXP=-3178.2084975\MP2/GTLargeXP=-3182.8724384\HF/GFHFB1=-3178.2686
 184\HF/GFHFB2=-3178.2794526\G4=-3183.2045141\FreqCoord=-5.9320266488,-
 1.5724456986,0.,-3.8463051199,2.5422275321,0.,-0.0692171589,3.23338969
 19,2.5273663207,4.9529737199,-1.8446771759,0.,-2.037288575,-1.54555908
 76,-2.3842268298,-2.037288575,-1.5455590876,2.3842268298,-0.0692171589
 ,3.2333896919,-2.5273663207,2.2019716745,-0.6011698347,3.7303049028,3.
 7005677625,2.7637579835,0.,0.933969563,-4.0618186117,0.,2.2019716745,-
 0.6011698347,-3.7303049028\PG=CS [SG(Si5),X(Si6)]\NImag=0\\0.11019528,
 0.02290706,0.04555462,0.,0.,0.02609990,-0.01069488,-0.02634637,0.,0.10
 072682,-0.02418891,-0.03999309,0.,0.02429632,0.05816998,0.,0.,-0.00378
 125,0.,0.,0.03652140,-0.00053984,-0.00274133,-0.00170958,-0.03539466,-
 0.00893608,-0.02151088,0.09235139,0.00017852,-0.00064754,-0.00160524,-
 0.00459952,0.00501738,0.00005844,-0.01746478,0.05856829,0.00288949,-0.
 00013363,0.00052555,-0.01965618,0.00111339,-0.01011341,0.00124696,0.00
 642340,0.05830044,-0.00520122,0.00484027,0.,-0.00558520,-0.00301350,0.
 ,-0.00247095,0.00051026,-0.00505482,0.09171998,0.00247089,0.00027629,0
 .,0.00091191,-0.00646851,0.,0.00496575,-0.00169409,-0.00017386,-0.0083
 2710,0.05017030,0.,0.,-0.00161780,0.,0.,-0.00757620,0.00207255,-0.0012
 3498,0.00114917,0.,0.,0.03297286,-0.04513031,-0.00031817,0.02895395,-0
 .00206457,0.00472240,-0.00015125,0.00091679,0.00118176,0.00246151,-0.0
 0495575,-0.00302571,-0.00398319,0.13401403,0.00087779,0.00220566,0.003
 39357,0.00603418,-0.00873251,-0.00473634,-0.00709940,-0.00542333,-0.00
 644877,-0.00089819,0.00055594,-0.00237227,-0.00152874,0.03303343,0.024
 14089,0.00404457,-0.00514881,-0.00115483,-0.00508785,-0.00136677,-0.00
 499359,-0.00181239,-0.00711288,0.00350047,-0.00318909,0.00194477,-0.01
 656384,-0.01085552,0.06756944,-0.04513031,-0.00031817,-0.02895395,-0.0
 0206457,0.00472240,0.00015125,-0.00403104,0.00206258,0.00271494,-0.004
 95575,-0.00302571,0.00398319,-0.00549921,-0.00378267,-0.00156375,0.134
 01403,0.00087780,0.00220566,-0.00339357,0.00603418,-0.00873251,0.00473
 634,-0.00041614,-0.00990478,-0.00158353,-0.00089818,0.00055594,0.00237
 227,-0.00378267,0.00267249,-0.00123563,-0.00152874,0.03303343,-0.02414
 089,-0.00404457,-0.00514881,0.00115483,0.00508785,-0.00136677,0.001101
 55,-0.00219061,-0.00200109,-0.00350047,0.00318909,0.00194477,0.0015637
 5,0.00123563,-0.03521689,0.01656384,0.01085552,0.06756944,-0.00053984,
 -0.00274133,0.00170958,-0.03539466,-0.00893608,0.02151088,0.00396733,0
 .00405784,0.00038114,-0.00247096,0.00496575,-0.00207255,-0.00403104,-0
 .00041614,-0.00110155,0.00091679,-0.00709940,0.00499359,0.09235139,0.0
 0017852,-0.00064754,0.00160524,-0.00459952,0.00501738,-0.00005844,0.00
 405784,-0.00737438,-0.00303301,0.00051026,-0.00169408,0.00123498,0.002
 06258,-0.00990478,0.00219061,0.00118176,-0.00542333,0.00181239,-0.0174
 6478,0.05856829,-0.00288949,0.00013363,0.00052555,0.01965618,-0.001113
 39,-0.01011341,-0.00038114,0.00303301,-0.01418992,0.00505482,0.0001738
 6,0.00114917,-0.00271494,0.00158353,-0.00200109,-0.00246151,0.00644877
 ,-0.00711288,-0.00124696,-0.00642340,0.05830044,0.00309103,0.00265738,
 -0.00077507,-0.00100507,0.00208670,-0.00667356,-0.00998876,0.01578609,
 -0.00630049,-0.01112473,0.00580365,0.01330994,-0.00276364,0.00220008,-
 0.00590522,-0.04415285,-0.01087017,-0.01324965,-0.00685143,-0.00042136
 ,0.00073580,0.07515151,0.00022462,-0.00381526,0.00058878,0.00070845,0.
 00156961,0.00227571,0.01818909,-0.02933929,0.01082872,0.00318069,-0.00
 235865,-0.00742244,-0.00014582,-0.00061444,-0.00536417,-0.01126512,0.0
 0402271,-0.00507628,0.00306736,-0.00297513,0.00891027,-0.01358356,0.04
 525505,0.00290522,-0.00016566,-0.00371649,0.00202457,-0.00196452,-0.00
 305797,-0.00189503,0.00792453,-0.00196812,0.01064688,-0.00584931,-0.01
 403923,-0.00286420,0.00432159,-0.00936070,-0.01294714,-0.00479131,0.00
 085311,-0.00200737,-0.00090609,-0.00863600,0.01886867,-0.00421780,0.06
 160640,-0.00315246,-0.00350097,0.,-0.00780411,0.00089022,0.,-0.0340201
 9,-0.00054297,0.02190697,-0.00193696,0.00782783,0.,-0.00552811,-0.0005
 2455,0.00437789,-0.00552811,-0.00052455,-0.00437789,-0.03402019,-0.000
 54297,-0.02190697,-0.00269637,-0.00011914,-0.00484864,0.09538107,-0.00
 213590,-0.00407913,0.,-0.00151301,-0.00323219,0.,0.00721495,0.00175773
 ,-0.00061969,0.01522833,-0.02839089,0.,-0.00063934,-0.00137485,0.00243
 836,-0.00063934,-0.00137485,-0.00243836,0.00721495,0.00175773,0.000619
 69,-0.00459135,-0.00112867,0.00328180,-0.00419498,0.04604158,0.,0.,-0.
 00179921,0.,0.,0.00009175,0.02392523,-0.00394798,-0.01334046,0.,0.,0.0
 0003212,-0.00358592,-0.00345838,0.00096631,0.00358592,0.00345838,0.000
 96631,-0.02392523,0.00394798,-0.01334046,-0.00165579,0.00475965,-0.006
 49539,0.,0.,0.03974905,-0.00598849,0.00290424,0.,0.00028597,0.00626984
 ,0.,-0.00393864,-0.00074842,0.00014626,-0.04189372,-0.01837093,0.,-0.0
 2080534,0.01600780,-0.01398614,-0.02080534,0.01600780,0.01398614,-0.00
 393864,-0.00074842,-0.00014626,0.00165002,0.00227281,-0.00418970,0.002
 00179,-0.01135296,0.,0.09178235,-0.00161501,0.00275559,0.,-0.00163506,
 -0.00418515,0.,-0.00083726,-0.00798486,0.00253723,-0.01431352,-0.00859
 361,0.,0.01273883,-0.01644032,0.01379482,0.01273883,-0.01644032,-0.013
 79482,-0.00083726,-0.00798486,-0.00253723,0.00346189,-0.00749200,-0.00
 068257,0.00135124,-0.00884779,0.,-0.01451456,0.08270531,0.,0.,-0.00222
 215,0.,0.,0.00382058,0.00013657,-0.00755428,-0.00261328,0.,0.,-0.00192
 041,-0.01606299,0.01254565,-0.01112650,0.01606299,-0.01254565,-0.01112
 650,-0.00013657,0.00755428,-0.00261328,-0.00404790,-0.00223308,-0.0050
 0346,0.,0.,-0.00033463,0.,0.,0.03814308,0.00309103,0.00265739,0.000775
 07,-0.00100507,0.00208669,0.00667356,-0.00685143,-0.00042136,-0.000735
 80,-0.01112473,0.00580365,-0.01330995,-0.04415285,-0.01087017,0.013249
 65,-0.00276364,0.00220008,0.00590522,-0.00998876,0.01578609,0.00630049
 ,-0.00130972,-0.00252936,-0.00569327,-0.00269637,-0.00459135,0.0016557
 9,0.00165002,0.00346189,0.00404790,0.07515151,0.00022462,-0.00381526,-
 0.00058878,0.00070845,0.00156961,-0.00227571,0.00306736,-0.00297513,-0
 .00891027,0.00318069,-0.00235865,0.00742244,-0.01126512,0.00402271,0.0
 0507628,-0.00014582,-0.00061444,0.00536417,0.01818909,-0.02933929,-0.0
 1082872,-0.00252936,-0.00312393,0.00304935,-0.00011914,-0.00112867,-0.
 00475965,0.00227281,-0.00749201,0.00223308,-0.01358356,0.04525505,-0.0
 0290522,0.00016566,-0.00371649,-0.00202457,0.00196452,-0.00305797,0.00
 200737,0.00090609,-0.00863600,-0.01064688,0.00584931,-0.01403923,0.012
 94714,0.00479131,0.00085311,0.00286420,-0.00432159,-0.00936070,0.00189
 503,-0.00792453,-0.00196812,0.00569327,-0.00304935,-0.01018215,0.00484
 864,-0.00328180,-0.00649539,0.00418970,0.00068257,-0.00500346,-0.01886
 867,0.00421780,0.06160640\\-0.00002201,-0.00000302,0.,-0.00002967,-0.0
 0001974,0.,-0.00004514,-0.00001172,-0.00000175,-0.00003075,0.00003599,
 0.,0.00004822,-0.00001258,-0.00001764,0.00004822,-0.00001258,0.0000176
 4,-0.00004514,-0.00001172,0.00000175,-0.00002397,-0.00003092,0.0000056
 4,0.00008442,0.00005245,0.,0.00003978,0.00004478,0.,-0.00002397,-0.000
 03092,-0.00000564\\\@
 Job cpu time:  2 days 11 hours 29 minutes 23.1 seconds.
 File lengths (MBytes):  RWF= 290852 Int=      0 D2E=      0 Chk=     81 Scr=      1
 Normal termination of Gaussian 09 at Wed Mar  7 06:24:41 2012.
