 Entering Gaussian System, Link 0=g09
 Initial command:
 /usr/local/chem/g09A2/l1.exe /temp0/tam/Gau-22533.inp -scrdir=/temp0/tam/
 Entering Link 1 = /usr/local/chem/g09A2/l1.exe PID=     22534.
  
 Copyright (c) 1988,1990,1992,1993,1995,1998,2003,2009, Gaussian, Inc.
                  All Rights Reserved.
  
 This is part of the Gaussian(R) 09 program.  It is based on
 the Gaussian(R) 03 system (copyright 2003, Gaussian, Inc.),
 the Gaussian(R) 98 system (copyright 1998, Gaussian, Inc.),
 the Gaussian(R) 94 system (copyright 1995, Gaussian, Inc.),
 the Gaussian 92(TM) system (copyright 1992, Gaussian, Inc.),
 the Gaussian 90(TM) system (copyright 1990, Gaussian, Inc.),
 the Gaussian 88(TM) system (copyright 1988, Gaussian, Inc.),
 the Gaussian 86(TM) system (copyright 1986, Carnegie Mellon
 University), and the Gaussian 82(TM) system (copyright 1983,
 Carnegie Mellon University). Gaussian is a federally registered
 trademark of Gaussian, Inc.
  
 This software contains proprietary and confidential information,
 including trade secrets, belonging to Gaussian, Inc.
  
 This software is provided under written license and may be
 used, copied, transmitted, or stored only in accord with that
 written license.
  
 The following legend is applicable only to US Government
 contracts under FAR:
  
                    RESTRICTED RIGHTS LEGEND
  
 Use, reproduction and disclosure by the US Government is
 subject to restrictions as set forth in subparagraphs (a)
 and (c) of the Commercial Computer Software - Restricted
 Rights clause in FAR 52.227-19.
  
 Gaussian, Inc.
 340 Quinnipiac St., Bldg. 40, Wallingford CT 06492
  
  
 ---------------------------------------------------------------
 Warning -- This program may not be used in any manner that
 competes with the business of Gaussian, Inc. or will provide
 assistance to any competitor of Gaussian, Inc.  The licensee
 of this program is prohibited from giving any competitor of
 Gaussian, Inc. access to this program.  By using this program,
 the user acknowledges that Gaussian, Inc. is engaged in the
 business of creating and licensing software in the field of
 computational chemistry and represents and warrants to the
 licensee that it is not a competitor of Gaussian, Inc. and that
 it will not use this program in any manner prohibited above.
 ---------------------------------------------------------------
  

 Cite this work as:
 Gaussian 09, Revision A.02,
 M. J. Frisch, G. W. Trucks, H. B. Schlegel, G. E. Scuseria, 
 M. A. Robb, J. R. Cheeseman, G. Scalmani, V. Barone, B. Mennucci, 
 G. A. Petersson, H. Nakatsuji, M. Caricato, X. Li, H. P. Hratchian, 
 A. F. Izmaylov, J. Bloino, G. Zheng, J. L. Sonnenberg, M. Hada, 
 M. Ehara, K. Toyota, R. Fukuda, J. Hasegawa, M. Ishida, T. Nakajima, 
 Y. Honda, O. Kitao, H. Nakai, T. Vreven, J. A. Montgomery, Jr., 
 J. E. Peralta, F. Ogliaro, M. Bearpark, J. J. Heyd, E. Brothers, 
 K. N. Kudin, V. N. Staroverov, R. Kobayashi, J. Normand, 
 K. Raghavachari, A. Rendell, J. C. Burant, S. S. Iyengar, J. Tomasi, 
 M. Cossi, N. Rega, J. M. Millam, M. Klene, J. E. Knox, J. B. Cross, 
 V. Bakken, C. Adamo, J. Jaramillo, R. Gomperts, R. E. Stratmann, 
 O. Yazyev, A. J. Austin, R. Cammi, C. Pomelli, J. W. Ochterski, 
 R. L. Martin, K. Morokuma, V. G. Zakrzewski, G. A. Voth, 
 P. Salvador, J. J. Dannenberg, S. Dapprich, A. D. Daniels, 
 O. Farkas, J. B. Foresman, J. V. Ortiz, J. Cioslowski, 
 and D. J. Fox, Gaussian, Inc., Wallingford CT, 2009.
 
 ******************************************
 Gaussian 09:  AM64L-G09RevA.02 11-Jun-2009
                20-Dec-2011 
 ******************************************
 %NprocShared=12
 Will use up to   12 processors via shared memory.
 %mem=70050MB
 %chk=S9L-ne-d-01
 -----------------------
 # G4 scfcyc=500 scf=xqc
 -----------------------
 1/14=-1,18=20,19=15,26=3,38=1/1,3;
 2/9=110,12=2,17=6,18=5,40=1/2;
 3/5=35,7=104,11=2,16=1,25=1,30=1,71=1,74=-5/1,2,3;
 4//1;
 5/5=2,7=500,8=3,13=1,38=5/2,8;
 6/7=2,8=2,9=2,10=2,28=1/1;
 7//1,2,3,16;
 1/14=-1,18=20,19=15/3(2);
 2/9=110/2;
 99//99;
 2/9=110/2;
 3/5=35,7=104,11=2,16=1,25=1,30=1,71=1,74=-5/1,2,3;
 4/5=5,16=3/1;
 5/5=2,7=500,8=3,13=1,38=5/2,8;
 7//1,2,3,16;
 1/14=-1,18=20,19=15/3(-5);
 2/9=110/2;
 6/7=2,8=2,9=2,10=2,19=2,28=1/1;
 99/9=1/99;
 -----
 si9-n
 -----
 Symbolic Z-matrix:
 Charge =  0 Multiplicity = 1
 Si                    1.31654   0.05341   1.309 
 Si                    1.9179   -1.84597   0. 
 Si                    1.52969   2.03651   0. 
 Si                    1.31654   0.05341  -1.309 
 Si                   -1.13066   0.07796   2.00615 
 Si                   -0.4496   -1.50467   0. 
 Si                   -0.8493    1.45656   0. 
 Si                   -1.13066   0.07796  -2.00615 
 Si                   -2.52045  -0.40523   0. 
 

 GradGradGradGradGradGradGradGradGradGradGradGradGradGradGradGradGradGrad
 Berny optimization.
 Initialization pass.
                           ----------------------------
                           !    Initial Parameters    !
                           ! (Angstroms and Degrees)  !
 --------------------------                            --------------------------
 ! Name  Definition              Value          Derivative Info.                !
 --------------------------------------------------------------------------------
 ! R1    R(1,2)                  2.3839         estimate D2E/DX2                !
 ! R2    R(1,3)                  2.3857         estimate D2E/DX2                !
 ! R3    R(1,4)                  2.618          estimate D2E/DX2                !
 ! R4    R(1,5)                  2.5447         estimate D2E/DX2                !
 ! R5    R(1,6)                  2.6945         estimate D2E/DX2                !
 ! R6    R(1,7)                  2.8936         estimate D2E/DX2                !
 ! R7    R(2,4)                  2.3839         estimate D2E/DX2                !
 ! R8    R(2,6)                  2.392          estimate D2E/DX2                !
 ! R9    R(3,4)                  2.3857         estimate D2E/DX2                !
 ! R10   R(3,7)                  2.4487         estimate D2E/DX2                !
 ! R11   R(4,6)                  2.6945         estimate D2E/DX2                !
 ! R12   R(4,7)                  2.8936         estimate D2E/DX2                !
 ! R13   R(4,8)                  2.5447         estimate D2E/DX2                !
 ! R14   R(5,6)                  2.6445         estimate D2E/DX2                !
 ! R15   R(5,7)                  2.4504         estimate D2E/DX2                !
 ! R16   R(5,9)                  2.4879         estimate D2E/DX2                !
 ! R17   R(6,8)                  2.6445         estimate D2E/DX2                !
 ! R18   R(6,9)                  2.3446         estimate D2E/DX2                !
 ! R19   R(7,8)                  2.4504         estimate D2E/DX2                !
 ! R20   R(7,9)                  2.5018         estimate D2E/DX2                !
 ! R21   R(8,9)                  2.4879         estimate D2E/DX2                !
 ! A1    A(2,1,3)              109.7844         estimate D2E/DX2                !
 ! A2    A(2,1,5)              113.6232         estimate D2E/DX2                !
 ! A3    A(2,1,7)              109.0731         estimate D2E/DX2                !
 ! A4    A(3,1,5)              103.1927         estimate D2E/DX2                !
 ! A5    A(3,1,6)              105.8234         estimate D2E/DX2                !
 ! A6    A(4,1,5)              105.9004         estimate D2E/DX2                !
 ! A7    A(6,1,7)               64.5346         estimate D2E/DX2                !
 ! A8    A(1,4,8)              105.9004         estimate D2E/DX2                !
 ! A9    A(2,4,3)              109.7844         estimate D2E/DX2                !
 ! A10   A(2,4,7)              109.0731         estimate D2E/DX2                !
 ! A11   A(2,4,8)              113.6232         estimate D2E/DX2                !
 ! A12   A(3,4,6)              105.8234         estimate D2E/DX2                !
 ! A13   A(3,4,8)              103.1927         estimate D2E/DX2                !
 ! A14   A(6,4,7)               64.5346         estimate D2E/DX2                !
 ! A15   A(1,5,9)              108.3265         estimate D2E/DX2                !
 ! A16   A(6,5,7)               71.702          estimate D2E/DX2                !
 ! A17   A(1,6,8)              101.0279         estimate D2E/DX2                !
 ! A18   A(1,6,9)              107.9252         estimate D2E/DX2                !
 ! A19   A(2,6,5)              109.8951         estimate D2E/DX2                !
 ! A20   A(2,6,8)              109.8951         estimate D2E/DX2                !
 ! A21   A(2,6,9)              160.2389         estimate D2E/DX2                !
 ! A22   A(4,6,5)              101.0279         estimate D2E/DX2                !
 ! A23   A(4,6,9)              107.9252         estimate D2E/DX2                !
 ! A24   A(5,6,8)               98.6858         estimate D2E/DX2                !
 ! A25   A(1,7,8)              100.573          estimate D2E/DX2                !
 ! A26   A(1,7,9)               97.9963         estimate D2E/DX2                !
 ! A27   A(3,7,5)              104.1702         estimate D2E/DX2                !
 ! A28   A(3,7,8)              104.1702         estimate D2E/DX2                !
 ! A29   A(3,7,9)              145.6113         estimate D2E/DX2                !
 ! A30   A(4,7,5)              100.573          estimate D2E/DX2                !
 ! A31   A(4,7,9)               97.9963         estimate D2E/DX2                !
 ! A32   A(5,7,8)              109.9117         estimate D2E/DX2                !
 ! A33   A(4,8,9)              108.3265         estimate D2E/DX2                !
 ! A34   A(6,8,7)               71.702          estimate D2E/DX2                !
 ! A35   A(5,9,8)              107.4843         estimate D2E/DX2                !
 ! A36   A(6,9,7)               76.0532         estimate D2E/DX2                !
 ! D1    D(5,1,4,8)              0.0            estimate D2E/DX2                !
 ! D2    D(2,1,5,9)            -47.943          estimate D2E/DX2                !
 ! D3    D(3,1,5,9)             70.8719         estimate D2E/DX2                !
 ! D4    D(4,1,5,9)             12.1507         estimate D2E/DX2                !
 ! D5    D(3,1,6,8)             -3.2042         estimate D2E/DX2                !
 ! D6    D(3,1,6,9)            -64.4513         estimate D2E/DX2                !
 ! D7    D(7,1,6,8)             32.9179         estimate D2E/DX2                !
 ! D8    D(7,1,6,9)            -28.3292         estimate D2E/DX2                !
 ! D9    D(2,1,7,8)             -1.2774         estimate D2E/DX2                !
 ! D10   D(2,1,7,9)             59.863          estimate D2E/DX2                !
 ! D11   D(6,1,7,8)            -35.8448         estimate D2E/DX2                !
 ! D12   D(6,1,7,9)             25.2956         estimate D2E/DX2                !
 ! D13   D(3,4,6,5)              3.2042         estimate D2E/DX2                !
 ! D14   D(3,4,6,9)             64.4513         estimate D2E/DX2                !
 ! D15   D(7,4,6,5)            -32.9179         estimate D2E/DX2                !
 ! D16   D(7,4,6,9)             28.3292         estimate D2E/DX2                !
 ! D17   D(2,4,7,5)              1.2774         estimate D2E/DX2                !
 ! D18   D(2,4,7,9)            -59.863          estimate D2E/DX2                !
 ! D19   D(6,4,7,5)             35.8448         estimate D2E/DX2                !
 ! D20   D(6,4,7,9)            -25.2956         estimate D2E/DX2                !
 ! D21   D(1,4,8,9)            -12.1507         estimate D2E/DX2                !
 ! D22   D(2,4,8,9)             47.943          estimate D2E/DX2                !
 ! D23   D(3,4,8,9)            -70.8719         estimate D2E/DX2                !
 ! D24   D(7,5,6,2)             94.7204         estimate D2E/DX2                !
 ! D25   D(7,5,6,4)             37.6075         estimate D2E/DX2                !
 ! D26   D(7,5,6,8)            -20.2016         estimate D2E/DX2                !
 ! D27   D(6,5,7,3)            -88.0318         estimate D2E/DX2                !
 ! D28   D(6,5,7,4)            -34.5685         estimate D2E/DX2                !
 ! D29   D(6,5,7,8)             23.0681         estimate D2E/DX2                !
 ! D30   D(1,5,9,8)            -20.0157         estimate D2E/DX2                !
 ! D31   D(1,6,8,7)            -37.6075         estimate D2E/DX2                !
 ! D32   D(2,6,8,7)            -94.7204         estimate D2E/DX2                !
 ! D33   D(5,6,8,7)             20.2016         estimate D2E/DX2                !
 ! D34   D(1,6,9,7)             30.7029         estimate D2E/DX2                !
 ! D35   D(2,6,9,7)              0.0            estimate D2E/DX2                !
 ! D36   D(4,6,9,7)            -30.7029         estimate D2E/DX2                !
 ! D37   D(1,7,8,6)             34.5685         estimate D2E/DX2                !
 ! D38   D(3,7,8,6)             88.0318         estimate D2E/DX2                !
 ! D39   D(5,7,8,6)            -23.0681         estimate D2E/DX2                !
 ! D40   D(1,7,9,6)            -27.1815         estimate D2E/DX2                !
 ! D41   D(3,7,9,6)              0.0            estimate D2E/DX2                !
 ! D42   D(4,7,9,6)             27.1815         estimate D2E/DX2                !
 ! D43   D(4,8,9,5)             20.0157         estimate D2E/DX2                !
 --------------------------------------------------------------------------------
 Trust Radius=3.00D-01 FncErr=1.00D-07 GrdErr=1.00D-06
 Number of steps in this run= 100 maximum allowed number of steps= 100.
 GradGradGradGradGradGradGradGradGradGradGradGradGradGradGradGradGradGrad

                          Input orientation:                          
 ---------------------------------------------------------------------
 Center     Atomic      Atomic             Coordinates (Angstroms)
 Number     Number       Type             X           Y           Z
 ---------------------------------------------------------------------
      1         14           0        1.316537    0.053415    1.308996
      2         14           0        1.917897   -1.845968    0.000000
      3         14           0        1.529689    2.036506    0.000000
      4         14           0        1.316537    0.053415   -1.308996
      5         14           0       -1.130659    0.077956    2.006151
      6         14           0       -0.449597   -1.504672    0.000000
      7         14           0       -0.849304    1.456564    0.000000
      8         14           0       -1.130659    0.077956   -2.006151
      9         14           0       -2.520452   -0.405233    0.000000
 ---------------------------------------------------------------------
                    Distance matrix (angstroms):
                    1          2          3          4          5
     1  Si   0.000000
     2  Si   2.383854   0.000000
     3  Si   2.385698   3.901834   0.000000
     4  Si   2.617992   2.383854   2.385698   0.000000
     5  Si   2.544680   4.125508   3.864973   4.120627   0.000000
     6  Si   2.694501   2.391968   4.056786   2.694501   2.644465
     7  Si   2.893642   4.308610   2.448661   2.893642   2.450380
     8  Si   4.120627   4.125508   3.864973   2.544680   4.012302
     9  Si   4.079989   4.666333   4.729242   4.079989   2.487898
                    6          7          8          9
     6  Si   0.000000
     7  Si   2.988090   0.000000
     8  Si   2.644465   2.450380   0.000000
     9  Si   2.344612   2.501804   2.487898   0.000000
 Stoichiometry    Si9
 Framework group  CS[SG(Si5),X(Si4)]
 Deg. of freedom    13
 Full point group                 CS      NOp   2
 Largest Abelian subgroup         CS      NOp   2
 Largest concise Abelian subgroup CS      NOp   2
                         Standard orientation:                         
 ---------------------------------------------------------------------
 Center     Atomic      Atomic             Coordinates (Angstroms)
 Number     Number       Type             X           Y           Z
 ---------------------------------------------------------------------
      1         14           0        0.066621   -1.315936    1.308996
      2         14           0       -1.826637   -1.936312    0.000000
      3         14           0        2.051749   -1.509192    0.000000
      4         14           0        0.066621   -1.315936   -1.308996
      5         14           0        0.066621    1.131383    2.006151
      6         14           0       -1.509098    0.434485    0.000000
      7         14           0        1.447981    0.863866    0.000000
      8         14           0        0.066621    1.131383   -2.006151
      9         14           0       -0.430480    2.516261    0.000000
 ---------------------------------------------------------------------
 Rotational constants (GHZ):      0.7654661      0.5866130      0.5745521
 Standard basis: GTBas3 (6D, 7F)
 There are   174 symmetry adapted basis functions of A'  symmetry.
 There are   114 symmetry adapted basis functions of A"  symmetry.
 Integral buffers will be    131072 words long.
 Raffenetti 2 integral format.
 Two-electron integral symmetry is turned on.
   288 basis functions,   612 primitive gaussians,   315 cartesian basis functions
    63 alpha electrons       63 beta electrons
       nuclear repulsion energy      1247.7430367421 Hartrees.
 NAtoms=    9 NActive=    9 NUniq=    7 SFac= 1.24D+00 NAtFMM=   80 NAOKFM=F Big=F
 One-electron integrals computed using PRISM.
 NBasis=   288 RedAO= T  NBF=   174   114
 NBsUse=   288 1.00D-06 NBFU=   174   114
 Harris functional with IExCor=  402 diagonalized for initial guess.
 ExpMin= 7.78D-02 ExpMax= 1.61D+04 ExpMxC= 2.43D+03 IAcc=2 IRadAn=         0 AccDes= 0.00D+00
 HarFok:  IExCor=  402 AccDes= 0.00D+00 IRadAn=         0 IDoV= 1
 ScaDFX=  1.000000  1.000000  1.000000  1.000000
 FoFCou: FMM=F IPFlag=           0 FMFlag=      100000 FMFlg1=           0
         NFxFlg=           0 DoJE=T BraDBF=F KetDBF=T FulRan=T
         Omega=  0.000000  0.000000  1.000000  0.000000  0.000000 ICntrl=     500 IOpCl=  0
         NMat0=    1 NMatS0=    1 NMatT0=    0 NMatD0=    1 NMtDS0=    0 NMtDT0=    0
         I1Cent=           4 NGrid=           0.
 Petite list used in FoFCou.
 Initial guess orbital symmetries:
       Occupied  (A') (A') (A') (A") (A') (A') (A') (A") (A') (A')
                 (A') (A') (A") (A') (A') (A') (A") (A') (A') (A')
                 (A") (A') (A") (A") (A') (A') (A") (A') (A') (A")
                 (A') (A") (A') (A') (A') (A') (A") (A') (A") (A')
                 (A") (A') (A") (A') (A") (A') (A') (A') (A") (A')
                 (A') (A") (A') (A') (A") (A') (A') (A") (A') (A')
                 (A') (A") (A")
       Virtual   (A') (A") (A') (A') (A') (A') (A") (A") (A') (A')
                 (A") (A') (A') (A") (A") (A') (A') (A") (A") (A')
                 (A') (A") (A') (A") (A") (A') (A') (A") (A') (A')
                 (A') (A') (A") (A') (A") (A') (A') (A") (A') (A")
                 (A') (A") (A') (A') (A') (A') (A") (A") (A') (A')
                 (A") (A') (A") (A') (A") (A") (A') (A') (A") (A')
                 (A") (A') (A") (A") (A') (A') (A') (A') (A") (A")
                 (A') (A') (A") (A') (A") (A") (A') (A') (A") (A')
                 (A') (A") (A') (A') (A') (A") (A") (A') (A') (A')
                 (A") (A") (A') (A") (A") (A') (A') (A') (A') (A")
                 (A') (A') (A") (A") (A') (A") (A') (A') (A') (A")
                 (A") (A') (A') (A") (A') (A") (A') (A') (A') (A")
                 (A") (A") (A') (A") (A') (A') (A') (A') (A") (A")
                 (A') (A') (A") (A') (A") (A') (A") (A') (A") (A')
                 (A') (A') (A") (A') (A') (A') (A") (A") (A') (A')
                 (A") (A") (A") (A") (A') (A") (A') (A") (A') (A")
                 (A') (A') (A') (A") (A') (A") (A') (A") (A') (A')
                 (A") (A') (A') (A") (A") (A') (A") (A') (A") (A')
                 (A') (A") (A') (A") (A') (A") (A') (A") (A') (A')
                 (A") (A') (A') (A') (A') (A") (A') (A") (A') (A")
                 (A') (A") (A') (A") (A') (A") (A') (A") (A') (A')
                 (A") (A') (A") (A') (A") (A') (A') (A') (A') (A")
                 (A') (A') (A") (A') (A')
 The electronic state of the initial guess is 1-A'.
 Requested convergence on RMS density matrix=1.00D-08 within 128 cycles.
 Requested convergence on MAX density matrix=1.00D-06.
 Requested convergence on             energy=1.00D-06.
 No special actions if energy rises.
 Keep R1 ints in memory in canonical form, NReq=1254722014.
 Integral accuracy reduced to 1.0D-05 until final iterations.
 EnCoef did     2 forward-backward iterations
 Initial convergence to 1.0D-05 achieved.  Increase integral accuracy.
 SCF Done:  E(RB3LYP) =  -2605.42089817     A.U. after   18 cycles
             Convg  =    0.2977D-08             -V/T =  2.0035
 QCSCF skips out because SCF is already converged.

 **********************************************************************

            Population analysis using the SCF density.

 **********************************************************************

 Orbital symmetries:
       Occupied  (A') (A') (A') (A") (A') (A') (A") (A') (A') (A')
                 (A') (A') (A') (A") (A") (A') (A') (A') (A') (A')
                 (A") (A') (A") (A') (A') (A') (A") (A') (A") (A')
                 (A") (A') (A") (A') (A') (A") (A") (A') (A") (A')
                 (A") (A') (A') (A") (A') (A') (A') (A') (A") (A')
                 (A') (A") (A') (A') (A") (A') (A') (A") (A') (A')
                 (A') (A") (A")
       Virtual   (A') (A") (A') (A') (A') (A') (A") (A") (A') (A')
                 (A") (A') (A') (A") (A") (A') (A') (A") (A') (A")
                 (A') (A") (A") (A') (A') (A') (A") (A') (A') (A')
                 (A") (A') (A") (A') (A') (A") (A') (A') (A") (A")
                 (A') (A') (A") (A') (A") (A') (A') (A") (A") (A')
                 (A') (A') (A") (A") (A') (A") (A') (A') (A") (A')
                 (A") (A') (A") (A') (A") (A') (A') (A") (A') (A")
                 (A') (A') (A") (A') (A') (A") (A") (A') (A") (A')
                 (A") (A') (A') (A') (A') (A") (A") (A') (A') (A')
                 (A") (A') (A") (A") (A") (A') (A') (A') (A') (A')
                 (A") (A') (A") (A') (A") (A") (A') (A') (A') (A")
                 (A') (A") (A') (A') (A") (A') (A") (A') (A') (A")
                 (A') (A") (A") (A") (A') (A') (A') (A') (A") (A")
                 (A') (A') (A") (A') (A") (A') (A") (A') (A") (A')
                 (A') (A') (A") (A') (A') (A') (A") (A") (A') (A')
                 (A") (A") (A") (A') (A") (A') (A') (A") (A") (A")
                 (A') (A') (A") (A') (A') (A") (A') (A") (A') (A')
                 (A") (A') (A") (A') (A') (A") (A") (A') (A") (A')
                 (A") (A') (A') (A") (A') (A") (A') (A") (A') (A')
                 (A') (A") (A') (A') (A") (A') (A') (A") (A') (A")
                 (A') (A") (A') (A') (A") (A") (A') (A") (A') (A')
                 (A") (A') (A") (A') (A") (A') (A') (A') (A') (A")
                 (A') (A') (A") (A') (A')
 The electronic state is 1-A'.
 Alpha  occ. eigenvalues --  -66.16797 -66.16226 -66.15598 -66.15083 -66.15082
 Alpha  occ. eigenvalues --  -66.15066 -66.15065 -66.14948 -66.14605  -5.31114
 Alpha  occ. eigenvalues --   -5.30765  -5.30149  -5.29569  -5.29566  -5.29532
 Alpha  occ. eigenvalues --   -5.29531  -5.29422  -5.29091  -3.67024  -3.66894
 Alpha  occ. eigenvalues --   -3.66830  -3.66687  -3.66647  -3.66418  -3.66171
 Alpha  occ. eigenvalues --   -3.65894  -3.65840  -3.65557  -3.65549  -3.65442
 Alpha  occ. eigenvalues --   -3.65438  -3.65390  -3.65386  -3.65344  -3.65318
 Alpha  occ. eigenvalues --   -3.65317  -3.65261  -3.65238  -3.65231  -3.65215
 Alpha  occ. eigenvalues --   -3.65213  -3.65050  -3.65004  -3.64868  -3.64788
 Alpha  occ. eigenvalues --   -0.67403  -0.58665  -0.54064  -0.52676  -0.43001
 Alpha  occ. eigenvalues --   -0.41598  -0.41125  -0.39487  -0.34481  -0.30695
 Alpha  occ. eigenvalues --   -0.27565  -0.26768  -0.25376  -0.24728  -0.23841
 Alpha  occ. eigenvalues --   -0.23320  -0.23143  -0.22189
 Alpha virt. eigenvalues --   -0.11510  -0.10751  -0.10140  -0.07377  -0.05695
 Alpha virt. eigenvalues --   -0.04564  -0.03886  -0.02689  -0.02351  -0.01358
 Alpha virt. eigenvalues --   -0.00652   0.01744   0.02373   0.02465   0.03133
 Alpha virt. eigenvalues --    0.05664   0.06420   0.07120   0.12338   0.12558
 Alpha virt. eigenvalues --    0.13119   0.13588   0.14660   0.14794   0.15844
 Alpha virt. eigenvalues --    0.16544   0.16834   0.17015   0.17345   0.18472
 Alpha virt. eigenvalues --    0.18537   0.19009   0.19239   0.20587   0.21947
 Alpha virt. eigenvalues --    0.22578   0.24290   0.24597   0.24978   0.26283
 Alpha virt. eigenvalues --    0.26315   0.26659   0.28313   0.28429   0.29083
 Alpha virt. eigenvalues --    0.29480   0.29952   0.31178   0.31351   0.31740
 Alpha virt. eigenvalues --    0.32263   0.33821   0.34490   0.35440   0.35598
 Alpha virt. eigenvalues --    0.36231   0.38397   0.38864   0.39157   0.40357
 Alpha virt. eigenvalues --    0.41544   0.41965   0.43085   0.44467   0.45343
 Alpha virt. eigenvalues --    0.47275   0.47429   0.48961   0.49481   0.51543
 Alpha virt. eigenvalues --    0.51657   0.52890   0.54105   0.54574   0.54873
 Alpha virt. eigenvalues --    0.55270   0.55878   0.56901   0.57943   0.59500
 Alpha virt. eigenvalues --    0.62156   0.62381   0.63141   0.65178   0.65582
 Alpha virt. eigenvalues --    0.66460   0.67525   0.67587   0.68706   0.68993
 Alpha virt. eigenvalues --    0.70853   0.70993   0.71765   0.72179   0.73741
 Alpha virt. eigenvalues --    0.74250   0.75599   0.77686   0.80909   0.83384
 Alpha virt. eigenvalues --    0.83460   0.85071   0.87259   0.88815   0.89431
 Alpha virt. eigenvalues --    0.90387   0.91832   0.93090   0.94722   0.95795
 Alpha virt. eigenvalues --    0.96879   0.97238   0.98628   0.99137   0.99435
 Alpha virt. eigenvalues --    1.01361   1.02125   1.04363   1.05054   1.05774
 Alpha virt. eigenvalues --    1.06792   1.06994   1.07599   1.08639   1.09216
 Alpha virt. eigenvalues --    1.10142   1.12982   1.15282   1.15685   1.18023
 Alpha virt. eigenvalues --    1.18100   1.18932   1.19880   1.20920   1.20979
 Alpha virt. eigenvalues --    1.23194   1.23953   1.24210   1.26686   1.27144
 Alpha virt. eigenvalues --    1.28857   1.31276   1.31331   1.33072   1.33409
 Alpha virt. eigenvalues --    1.34239   1.35588   1.36652   1.36662   1.37706
 Alpha virt. eigenvalues --    1.40086   1.42001   1.42376   1.43122   1.43537
 Alpha virt. eigenvalues --    1.47021   1.47405   1.47459   1.48061   1.49038
 Alpha virt. eigenvalues --    1.49333   1.50281   1.51767   1.51982   1.53374
 Alpha virt. eigenvalues --    1.53697   1.54863   1.59478   1.62228   1.64809
 Alpha virt. eigenvalues --    1.70631   1.75075   1.76924   1.77325   1.77882
 Alpha virt. eigenvalues --    1.78303   1.80487   1.80927   1.81335   1.81498
 Alpha virt. eigenvalues --    1.83718   1.83854   1.85779   1.85930   1.86904
 Alpha virt. eigenvalues --    1.87160   1.88599   1.90415   1.91124   1.92942
 Alpha virt. eigenvalues --    1.94120   1.94792   1.97070   1.97239   1.98159
 Alpha virt. eigenvalues --    1.98954   1.99709   2.00516   2.02362   2.02907
 Alpha virt. eigenvalues --    2.04193   2.05117   2.07291   2.08779   2.09265
 Alpha virt. eigenvalues --    2.09811   2.14122   2.17170   2.18054   2.20167
 Alpha virt. eigenvalues --    2.20683   2.22421   2.24356   2.29490   2.31737
 Alpha virt. eigenvalues --    2.35482   2.48820   2.78295   2.85947   2.91810
 Alpha virt. eigenvalues --    2.94212   2.99948   3.05231   3.06829   3.20831
          Condensed to atoms (all electrons):
              1          2          3          4          5          6
     1  Si  13.477259   0.188073   0.188378   0.003137   0.105224   0.018030
     2  Si   0.188073  13.591082  -0.034025   0.188073  -0.012157   0.157243
     3  Si   0.188378  -0.034025  13.578389   0.188378  -0.014962   0.011363
     4  Si   0.003137   0.188073   0.188378  13.477259   0.005723   0.018030
     5  Si   0.105224  -0.012157  -0.014962   0.005723  13.656059   0.066824
     6  Si   0.018030   0.157243   0.011363   0.018030   0.066824  13.428532
     7  Si   0.002198   0.011195   0.121558   0.002198   0.131186  -0.011547
     8  Si   0.005723  -0.012157  -0.014962   0.105224  -0.005931   0.066824
     9  Si   0.003831  -0.011939  -0.004724   0.003831   0.097520   0.143149
              7          8          9
     1  Si   0.002198   0.005723   0.003831
     2  Si   0.011195  -0.012157  -0.011939
     3  Si   0.121558  -0.014962  -0.004724
     4  Si   0.002198   0.105224   0.003831
     5  Si   0.131186  -0.005931   0.097520
     6  Si  -0.011547   0.066824   0.143149
     7  Si  13.515879   0.131186   0.055288
     8  Si   0.131186  13.656059   0.097520
     9  Si   0.055288   0.097520  13.630473
 Mulliken atomic charges:
              1
     1  Si   0.008147
     2  Si  -0.065388
     3  Si  -0.019394
     4  Si   0.008147
     5  Si  -0.029485
     6  Si   0.101551
     7  Si   0.040859
     8  Si  -0.029485
     9  Si  -0.014949
 Sum of Mulliken atomic charges =   0.00000
 Mulliken charges with hydrogens summed into heavy atoms:
              1
     1  Si   0.008147
     2  Si  -0.065388
     3  Si  -0.019394
     4  Si   0.008147
     5  Si  -0.029485
     6  Si   0.101551
     7  Si   0.040859
     8  Si  -0.029485
     9  Si  -0.014949
 Sum of Mulliken charges with hydrogens summed into heavy atoms =   0.00000
 Electronic spatial extent (au):  <R**2>=           2408.2421
 Charge=              0.0000 electrons
 Dipole moment (field-independent basis, Debye):
    X=             -0.1485    Y=              0.2413    Z=              0.0000  Tot=              0.2833
 Quadrupole moment (field-independent basis, Debye-Ang):
   XX=           -117.9951   YY=           -115.4210   ZZ=           -119.8311
   XY=             -0.4736   XZ=              0.0000   YZ=              0.0000
 Traceless Quadrupole moment (field-independent basis, Debye-Ang):
   XX=             -0.2460   YY=              2.3281   ZZ=             -2.0821
   XY=             -0.4736   XZ=              0.0000   YZ=              0.0000
 Octapole moment (field-independent basis, Debye-Ang**2):
  XXX=             -2.9350  YYY=             -1.5957  ZZZ=              0.0000  XYY=              0.7540
  XXY=              9.4011  XXZ=              0.0000  XZZ=             -0.2097  YZZ=             -8.1632
  YYZ=              0.0000  XYZ=              0.0000
 Hexadecapole moment (field-independent basis, Debye-Ang**3):
 XXXX=          -1204.4479 YYYY=          -1690.3711 ZZZZ=          -1168.9353 XXXY=              3.2437
 XXXZ=              0.0000 YYYX=             -2.5855 YYYZ=              0.0000 ZZZX=              0.0000
 ZZZY=              0.0000 XXYY=           -484.9312 XXZZ=           -374.4512 YYZZ=           -489.0607
 XXYZ=              0.0000 YYXZ=              0.0000 ZZXY=              0.8346
 N-N= 1.247743036742D+03 E-N=-8.697775679831D+03  KE= 2.596229474422D+03
 Symmetry A'   KE= 1.893623296570D+03
 Symmetry A"   KE= 7.026061778522D+02
 Calling FoFJK, ICntrl=      2127 FMM=F ISym2X=1 I1Cent= 0 IOpClX= 0 NMat=1 NMatS=1 NMatT=0.
 ***** Axes restored to original set *****
 -------------------------------------------------------------------
 Center     Atomic                   Forces (Hartrees/Bohr)
 Number     Number              X              Y              Z
 -------------------------------------------------------------------
      1       14          -0.000673627    0.000275145   -0.001505631
      2       14          -0.001255251    0.000831084    0.000000000
      3       14          -0.000955814   -0.001312826    0.000000000
      4       14          -0.000673627    0.000275145    0.001505631
      5       14          -0.000151330   -0.000891837   -0.001961118
      6       14           0.000636158    0.000953400    0.000000000
      7       14           0.000525010   -0.000579674    0.000000000
      8       14          -0.000151330   -0.000891837    0.001961118
      9       14           0.002699812    0.001341400    0.000000000
 -------------------------------------------------------------------
 Cartesian Forces:  Max     0.002699812 RMS     0.001068721

 GradGradGradGradGradGradGradGradGradGradGradGradGradGradGradGradGradGrad
 Berny optimization.
 Internal  Forces:  Max     0.001184673 RMS     0.000318307
 Search for a local minimum.
 Step number   1 out of a maximum of  100
 All quantities printed in internal units (Hartrees-Bohrs-Radians)
 Mixed Optimization -- En-DIIS/RFO-DIIS
 Second derivative matrix not updated -- first step.
     Eigenvalues ---    0.03109   0.04382   0.04869   0.05786   0.07545
     Eigenvalues ---    0.07788   0.08242   0.08574   0.08807   0.09194
     Eigenvalues ---    0.10096   0.10339   0.10678   0.11478   0.11576
     Eigenvalues ---    0.11972   0.12195   0.12463   0.12778   0.14983
     Eigenvalues ---    0.164751000.000001000.000001000.000001000.00000
     Eigenvalues --- 1000.000001000.000001000.000001000.000001000.00000
     Eigenvalues --- 1000.000001000.000001000.000001000.000001000.00000
     Eigenvalues --- 1000.000001000.000001000.000001000.000001000.00000
     Eigenvalues --- 1000.000001000.000001000.000001000.000001000.00000
     Eigenvalues --- 1000.000001000.000001000.000001000.000001000.00000
     Eigenvalues --- 1000.000001000.000001000.000001000.000001000.00000
     Eigenvalues --- 1000.000001000.000001000.000001000.000001000.00000
     Eigenvalues --- 1000.000001000.000001000.000001000.000001000.00000
     Eigenvalues --- 1000.000001000.000001000.000001000.000001000.00000
     Eigenvalues --- 1000.000001000.000001000.000001000.000001000.00000
     Eigenvalues --- 1000.000001000.000001000.000001000.000001000.00000
     Eigenvalues --- 1000.000001000.000001000.000001000.000001000.00000
     Eigenvalues --- 1000.000001000.000001000.000001000.000001000.00000
     Eigenvalues --- 1000.000001000.000001000.000001000.000001000.00000
     Eigenvalues --- 1000.000001000.000001000.000001000.000001000.00000
 RFO step:  Lambda=-1.11079126D-04 EMin= 3.10874960D-02
 Linear search not attempted -- first point.
 Iteration  1 RMS(Cart)=  0.00212284 RMS(Int)=  0.00000441
 Iteration  2 RMS(Cart)=  0.00000237 RMS(Int)=  0.00000244
 Iteration  3 RMS(Cart)=  0.00000000 RMS(Int)=  0.00000244
 ClnCor:  largest displacement from symmetrization is 3.28D-09 for atom     8.
 Variable       Old X    -DE/DX   Delta X   Delta X   Delta X     New X
                                 (Linear)    (Quad)   (Total)
    R1        4.50483  -0.00047   0.00000  -0.00424  -0.00424   4.50059
    R2        4.50832  -0.00062   0.00000  -0.00602  -0.00602   4.50230
    R3        4.94729  -0.00059   0.00000  -0.00766  -0.00766   4.93963
    R4        4.80875  -0.00041   0.00000  -0.00499  -0.00499   4.80375
    R5        5.09187  -0.00038   0.00000  -0.00619  -0.00620   5.08567
    R6        5.46819  -0.00034   0.00000  -0.00663  -0.00663   5.46156
    R7        4.50483  -0.00047   0.00000  -0.00424  -0.00424   4.50059
    R8        4.52016  -0.00093   0.00000  -0.00710  -0.00710   4.51307
    R9        4.50832  -0.00062   0.00000  -0.00602  -0.00602   4.50230
   R10        4.62730  -0.00079   0.00000  -0.00841  -0.00841   4.61889
   R11        5.09187  -0.00038   0.00000  -0.00619  -0.00620   5.08567
   R12        5.46819  -0.00034   0.00000  -0.00663  -0.00663   5.46156
   R13        4.80875  -0.00041   0.00000  -0.00499  -0.00499   4.80375
   R14        4.99732  -0.00070   0.00000  -0.01028  -0.01028   4.98704
   R15        4.63055  -0.00032   0.00000  -0.00263  -0.00264   4.62791
   R16        4.70145  -0.00118   0.00000  -0.01201  -0.01200   4.68944
   R17        4.99732  -0.00070   0.00000  -0.01028  -0.01028   4.98704
   R18        4.43067  -0.00059   0.00000  -0.00346  -0.00347   4.42721
   R19        4.63055  -0.00032   0.00000  -0.00263  -0.00264   4.62791
   R20        4.72772  -0.00089   0.00000  -0.01114  -0.01114   4.71659
   R21        4.70145  -0.00118   0.00000  -0.01201  -0.01200   4.68944
    A1        1.91610   0.00006   0.00000   0.00084   0.00084   1.91694
    A2        1.98310  -0.00019   0.00000  -0.00180  -0.00180   1.98130
    A3        1.90368  -0.00001   0.00000   0.00033   0.00033   1.90402
    A4        1.80105  -0.00003   0.00000   0.00050   0.00050   1.80155
    A5        1.84697  -0.00001   0.00000   0.00011   0.00011   1.84707
    A6        1.84831  -0.00005   0.00000  -0.00030  -0.00031   1.84801
    A7        1.12634   0.00010   0.00000   0.00058   0.00059   1.12693
    A8        1.84831  -0.00005   0.00000  -0.00030  -0.00031   1.84801
    A9        1.91610   0.00006   0.00000   0.00084   0.00084   1.91694
   A10        1.90368  -0.00001   0.00000   0.00033   0.00033   1.90402
   A11        1.98310  -0.00019   0.00000  -0.00180  -0.00180   1.98130
   A12        1.84697  -0.00001   0.00000   0.00011   0.00011   1.84707
   A13        1.80105  -0.00003   0.00000   0.00050   0.00050   1.80155
   A14        1.12634   0.00010   0.00000   0.00058   0.00059   1.12693
   A15        1.89065   0.00000   0.00000   0.00036   0.00035   1.89101
   A16        1.25144   0.00017   0.00000   0.00093   0.00093   1.25237
   A17        1.76327  -0.00004   0.00000   0.00053   0.00053   1.76380
   A18        1.88365  -0.00019   0.00000  -0.00175  -0.00176   1.88189
   A19        1.91803   0.00004   0.00000   0.00072   0.00072   1.91875
   A20        1.91803   0.00004   0.00000   0.00072   0.00072   1.91875
   A21        2.79670  -0.00019   0.00000  -0.00146  -0.00146   2.79524
   A22        1.76327  -0.00004   0.00000   0.00053   0.00053   1.76380
   A23        1.88365  -0.00019   0.00000  -0.00175  -0.00176   1.88189
   A24        1.72239  -0.00008   0.00000   0.00074   0.00073   1.72312
   A25        1.75533  -0.00014   0.00000  -0.00116  -0.00116   1.75416
   A26        1.71036  -0.00012   0.00000   0.00013   0.00013   1.71049
   A27        1.81811  -0.00001   0.00000   0.00054   0.00054   1.81865
   A28        1.81811  -0.00001   0.00000   0.00054   0.00054   1.81865
   A29        2.54140  -0.00018   0.00000   0.00028   0.00028   2.54168
   A30        1.75533  -0.00014   0.00000  -0.00116  -0.00116   1.75416
   A31        1.71036  -0.00012   0.00000   0.00013   0.00013   1.71049
   A32        1.91832  -0.00030   0.00000  -0.00334  -0.00334   1.91498
   A33        1.89065   0.00000   0.00000   0.00036   0.00035   1.89101
   A34        1.25144   0.00017   0.00000   0.00093   0.00093   1.25237
   A35        1.87596   0.00022   0.00000   0.00222   0.00222   1.87817
   A36        1.32738   0.00027   0.00000   0.00138   0.00139   1.32877
    D1        0.00000   0.00000   0.00000   0.00000   0.00000   0.00000
    D2       -0.83676  -0.00014   0.00000  -0.00376  -0.00376  -0.84052
    D3        1.23695  -0.00019   0.00000  -0.00336  -0.00336   1.23359
    D4        0.21207  -0.00017   0.00000  -0.00357  -0.00357   0.20850
    D5       -0.05592  -0.00001   0.00000   0.00036   0.00036  -0.05556
    D6       -1.12489   0.00015   0.00000   0.00150   0.00150  -1.12339
    D7        0.57453  -0.00004   0.00000  -0.00007  -0.00007   0.57445
    D8       -0.49444   0.00011   0.00000   0.00107   0.00107  -0.49337
    D9       -0.02229   0.00003   0.00000   0.00087   0.00087  -0.02142
   D10        1.04481  -0.00014   0.00000  -0.00043  -0.00043   1.04438
   D11       -0.62561   0.00011   0.00000   0.00139   0.00139  -0.62422
   D12        0.44149  -0.00005   0.00000   0.00009   0.00009   0.44158
   D13        0.05592   0.00001   0.00000  -0.00036  -0.00036   0.05556
   D14        1.12489  -0.00015   0.00000  -0.00150  -0.00150   1.12339
   D15       -0.57453   0.00004   0.00000   0.00007   0.00007  -0.57445
   D16        0.49444  -0.00011   0.00000  -0.00107  -0.00107   0.49337
   D17        0.02229  -0.00003   0.00000  -0.00087  -0.00087   0.02142
   D18       -1.04481   0.00014   0.00000   0.00043   0.00043  -1.04438
   D19        0.62561  -0.00011   0.00000  -0.00139  -0.00139   0.62422
   D20       -0.44149   0.00005   0.00000  -0.00009  -0.00009  -0.44158
   D21       -0.21207   0.00017   0.00000   0.00357   0.00357  -0.20850
   D22        0.83676   0.00014   0.00000   0.00376   0.00376   0.84052
   D23       -1.23695   0.00019   0.00000   0.00336   0.00336  -1.23359
   D24        1.65318  -0.00005   0.00000   0.00001   0.00001   1.65320
   D25        0.65638  -0.00006   0.00000  -0.00060  -0.00061   0.65577
   D26       -0.35258  -0.00007   0.00000  -0.00138  -0.00138  -0.35396
   D27       -1.53645   0.00014   0.00000   0.00089   0.00089  -1.53556
   D28       -0.60333   0.00007   0.00000   0.00076   0.00076  -0.60257
   D29        0.40261   0.00001   0.00000   0.00039   0.00040   0.40301
   D30       -0.34934   0.00022   0.00000   0.00545   0.00546  -0.34388
   D31       -0.65638   0.00006   0.00000   0.00060   0.00061  -0.65577
   D32       -1.65318   0.00005   0.00000  -0.00001  -0.00001  -1.65320
   D33        0.35258   0.00007   0.00000   0.00138   0.00138   0.35396
   D34        0.53587  -0.00006   0.00000  -0.00053  -0.00053   0.53533
   D35        0.00000   0.00000   0.00000   0.00000   0.00000   0.00000
   D36       -0.53587   0.00006   0.00000   0.00053   0.00053  -0.53533
   D37        0.60333  -0.00007   0.00000  -0.00076  -0.00076   0.60257
   D38        1.53645  -0.00014   0.00000  -0.00089  -0.00089   1.53556
   D39       -0.40261  -0.00001   0.00000  -0.00039  -0.00040  -0.40301
   D40       -0.47441   0.00004   0.00000   0.00016   0.00016  -0.47424
   D41        0.00000   0.00000   0.00000   0.00000   0.00000   0.00000
   D42        0.47441  -0.00004   0.00000  -0.00016  -0.00016   0.47424
   D43        0.34934  -0.00022   0.00000  -0.00545  -0.00546   0.34388
         Item               Value     Threshold  Converged?
 Maximum Force            0.001185     0.000450     NO 
 RMS     Force            0.000318     0.000300     NO 
 Maximum Displacement     0.008672     0.001800     NO 
 RMS     Displacement     0.002123     0.001200     NO 
 Predicted change in Energy=-5.562542D-05
 GradGradGradGradGradGradGradGradGradGradGradGradGradGradGradGradGradGrad

                          Input orientation:                          
 ---------------------------------------------------------------------
 Center     Atomic      Atomic             Coordinates (Angstroms)
 Number     Number       Type             X           Y           Z
 ---------------------------------------------------------------------
      1         14           0        1.315089    0.053941    1.306970
      2         14           0        1.915151   -1.844430    0.000000
      3         14           0        1.526692    2.034706    0.000000
      4         14           0        1.315089    0.053941   -1.306970
      5         14           0       -1.129812    0.074852    2.002655
      6         14           0       -0.448533   -1.503025    0.000000
      7         14           0       -0.848014    1.455970    0.000000
      8         14           0       -1.129812    0.074852   -2.002655
      9         14           0       -2.515863   -0.400868    0.000000
 ---------------------------------------------------------------------
                    Distance matrix (angstroms):
                    1          2          3          4          5
     1  Si   0.000000
     2  Si   2.381609   0.000000
     3  Si   2.382514   3.898538   0.000000
     4  Si   2.613940   2.381609   2.382514   0.000000
     5  Si   2.542037   4.118989   3.861174   4.114802   0.000000
     6  Si   2.691222   2.388213   4.051797   2.691222   2.639027
     7  Si   2.890133   4.304384   2.444210   2.890133   2.448984
     8  Si   4.114802   4.118989   3.861174   2.542037   4.005309
     9  Si   4.073232   4.660232   4.719563   4.073232   2.481547
                    6          7          8          9
     6  Si   0.000000
     7  Si   2.985840   0.000000
     8  Si   2.639027   2.448984   0.000000
     9  Si   2.342777   2.495910   2.481547   0.000000
 Stoichiometry    Si9
 Framework group  CS[SG(Si5),X(Si4)]
 Deg. of freedom    13
 Full point group                 CS      NOp   2
 Largest Abelian subgroup         CS      NOp   2
 Largest concise Abelian subgroup CS      NOp   2
                         Standard orientation:                         
 ---------------------------------------------------------------------
 Center     Atomic      Atomic             Coordinates (Angstroms)
 Number     Number       Type             X           Y           Z
 ---------------------------------------------------------------------
      1         14           0        0.065193   -1.314581    1.306970
      2         14           0       -1.827977   -1.930857    0.000000
      3         14           0        2.047695   -1.509236    0.000000
      4         14           0        0.065193   -1.314581   -1.306970
      5         14           0        0.065193    1.130409    2.002655
      6         14           0       -1.506800    0.435661    0.000000
      7         14           0        1.448671    0.860433    0.000000
      8         14           0        0.065193    1.130409   -2.002655
      9         14           0       -0.422363    2.512342    0.000000
 ---------------------------------------------------------------------
 Rotational constants (GHZ):      0.7675045      0.5884479      0.5760441
 Standard basis: GTBas3 (6D, 7F)
 There are   174 symmetry adapted basis functions of A'  symmetry.
 There are   114 symmetry adapted basis functions of A"  symmetry.
 Integral buffers will be    131072 words long.
 Raffenetti 2 integral format.
 Two-electron integral symmetry is turned on.
   288 basis functions,   612 primitive gaussians,   315 cartesian basis functions
    63 alpha electrons       63 beta electrons
       nuclear repulsion energy      1249.4803602126 Hartrees.
 NAtoms=    9 NActive=    9 NUniq=    7 SFac= 1.24D+00 NAtFMM=   80 NAOKFM=F Big=F
 One-electron integrals computed using PRISM.
 NBasis=   288 RedAO= T  NBF=   174   114
 NBsUse=   288 1.00D-06 NBFU=   174   114
 Initial guess read from the read-write file.
 B after Tr=     0.000000    0.000000    0.000000
         Rot=    1.000000    0.000000    0.000000    0.000000 Ang=   0.00 deg.
 Initial guess orbital symmetries:
       Occupied  (A') (A') (A') (A") (A') (A') (A") (A') (A') (A')
                 (A') (A') (A') (A") (A") (A') (A') (A') (A') (A')
                 (A") (A') (A") (A') (A') (A') (A") (A') (A") (A')
                 (A") (A') (A") (A') (A') (A") (A") (A') (A") (A')
                 (A") (A') (A') (A") (A') (A') (A') (A') (A") (A')
                 (A') (A") (A') (A') (A") (A') (A') (A") (A') (A')
                 (A') (A") (A")
       Virtual   (A') (A") (A') (A') (A') (A') (A") (A") (A') (A')
                 (A") (A') (A') (A") (A") (A') (A') (A") (A') (A")
                 (A') (A") (A") (A') (A') (A') (A") (A') (A') (A')
                 (A") (A') (A") (A') (A') (A") (A') (A') (A") (A")
                 (A') (A') (A") (A') (A") (A') (A') (A") (A") (A')
                 (A') (A') (A") (A") (A') (A") (A') (A') (A") (A')
                 (A") (A') (A") (A') (A") (A') (A') (A") (A') (A")
                 (A') (A') (A") (A') (A') (A") (A") (A') (A") (A')
                 (A") (A') (A') (A') (A') (A") (A") (A') (A') (A')
                 (A") (A') (A") (A") (A") (A') (A') (A') (A') (A')
                 (A") (A') (A") (A') (A") (A") (A') (A') (A') (A")
                 (A') (A") (A') (A') (A") (A') (A") (A') (A') (A")
                 (A') (A") (A") (A") (A') (A') (A') (A') (A") (A")
                 (A') (A') (A") (A') (A") (A') (A") (A') (A") (A')
                 (A') (A') (A") (A') (A') (A') (A") (A") (A') (A')
                 (A") (A") (A") (A') (A") (A') (A') (A") (A") (A")
                 (A') (A') (A") (A') (A') (A") (A') (A") (A') (A')
                 (A") (A') (A") (A') (A') (A") (A") (A') (A") (A')
                 (A") (A') (A') (A") (A') (A") (A') (A") (A') (A')
                 (A') (A") (A') (A') (A") (A') (A') (A") (A') (A")
                 (A') (A") (A') (A') (A") (A") (A') (A") (A') (A')
                 (A") (A') (A") (A') (A") (A') (A') (A') (A') (A")
                 (A') (A') (A") (A') (A')
 Requested convergence on RMS density matrix=1.00D-08 within 128 cycles.
 Requested convergence on MAX density matrix=1.00D-06.
 Requested convergence on             energy=1.00D-06.
 No special actions if energy rises.
 Keep R1 ints in memory in canonical form, NReq=1254722014.
 SCF Done:  E(RB3LYP) =  -2605.42098672     A.U. after   11 cycles
             Convg  =    0.3568D-08             -V/T =  2.0035
 QCSCF skips out because SCF is already converged.
 Calling FoFJK, ICntrl=      2127 FMM=F ISym2X=1 I1Cent= 0 IOpClX= 0 NMat=1 NMatS=1 NMatT=0.
 ***** Axes restored to original set *****
 -------------------------------------------------------------------
 Center     Atomic                   Forces (Hartrees/Bohr)
 Number     Number              X              Y              Z
 -------------------------------------------------------------------
      1       14          -0.000428055    0.000224978   -0.000891637
      2       14          -0.000647543    0.000396175    0.000000000
      3       14          -0.000357226   -0.000525629    0.000000000
      4       14          -0.000428055    0.000224978    0.000891637
      5       14          -0.000231436   -0.000825576   -0.001097418
      6       14           0.000388044    0.000475508    0.000000000
      7       14           0.000425658   -0.000123160    0.000000000
      8       14          -0.000231436   -0.000825576    0.001097418
      9       14           0.001510048    0.000978301    0.000000000
 -------------------------------------------------------------------
 Cartesian Forces:  Max     0.001510048 RMS     0.000630320

 GradGradGradGradGradGradGradGradGradGradGradGradGradGradGradGradGradGrad
 Berny optimization.
 Using GEDIIS/GDIIS optimizer.
 Internal  Forces:  Max     0.000745917 RMS     0.000187677
 Search for a local minimum.
 Step number   2 out of a maximum of  100
 All quantities printed in internal units (Hartrees-Bohrs-Radians)
 Mixed Optimization -- En-DIIS/RFO-DIIS
 Swaping is turned off.
 Update second derivatives using D2CorX and points    1    2
 DE= -8.85D-05 DEPred=-5.56D-05 R= 1.59D+00
 SS=  1.41D+00  RLast= 3.68D-02 DXNew= 5.0454D-01 1.1032D-01
 Trust test= 1.59D+00 RLast= 3.68D-02 DXMaxT set to 3.00D-01
     Eigenvalues ---    0.02610   0.03116   0.04384   0.05011   0.07572
     Eigenvalues ---    0.07781   0.08063   0.08376   0.08573   0.09197
     Eigenvalues ---    0.09779   0.10339   0.10672   0.11363   0.11575
     Eigenvalues ---    0.11953   0.12208   0.12331   0.12850   0.14970
     Eigenvalues ---    0.162521000.000001000.000001000.000001000.00000
     Eigenvalues --- 1000.000001000.000001000.000001000.000001000.00000
     Eigenvalues --- 1000.000001000.000001000.000001000.000001000.00000
     Eigenvalues --- 1000.000001000.000001000.000001000.000001000.00000
     Eigenvalues --- 1000.000001000.000001000.000001000.000001000.00000
     Eigenvalues --- 1000.000001000.000001000.000001000.000001000.00000
     Eigenvalues --- 1000.000001000.000001000.000001000.000001000.00000
     Eigenvalues --- 1000.000001000.000001000.000001000.000001000.00000
     Eigenvalues --- 1000.000001000.000001000.000001000.000001000.00000
     Eigenvalues --- 1000.000001000.000001000.000001000.000001000.00000
     Eigenvalues --- 1000.000001000.000001000.000001000.000001000.00000
     Eigenvalues --- 1000.000001000.000001000.000001000.000001000.00000
     Eigenvalues --- 1000.000001000.000001000.000001000.000001000.00000
     Eigenvalues --- 1000.000001000.000001000.000001000.000001000.00000
     Eigenvalues --- 1000.000001000.000001000.000001000.000001000.00000
     Eigenvalues --- 1000.000001000.000001000.000001000.000001000.00000
 En-DIIS/RFO-DIIS IScMMF=        0 using points:     2    1
 RFO step:  Lambda=-1.96043254D-05.
 DIIS coeffs:      2.46413     -1.46413
 Iteration  1 RMS(Cart)=  0.00376405 RMS(Int)=  0.00002410
 Iteration  2 RMS(Cart)=  0.00001188 RMS(Int)=  0.00001540
 Iteration  3 RMS(Cart)=  0.00000000 RMS(Int)=  0.00001540
 ClnCor:  largest displacement from symmetrization is 3.76D-12 for atom     4.
 Variable       Old X    -DE/DX   Delta X   Delta X   Delta X     New X
                                  (DIIS)     (GDIIS)  (Total)
    R1        4.50059  -0.00023  -0.00621   0.00036  -0.00585   4.49474
    R2        4.50230  -0.00024  -0.00881   0.00120  -0.00760   4.49470
    R3        4.93963  -0.00040  -0.01121  -0.00179  -0.01300   4.92663
    R4        4.80375  -0.00018  -0.00731   0.00098  -0.00631   4.79744
    R5        5.08567  -0.00018  -0.00907   0.00007  -0.00901   5.07667
    R6        5.46156  -0.00024  -0.00971  -0.00263  -0.01233   5.44923
    R7        4.50059  -0.00023  -0.00621   0.00036  -0.00585   4.49474
    R8        4.51307  -0.00050  -0.01039   0.00082  -0.00957   4.50349
    R9        4.50230  -0.00024  -0.00881   0.00120  -0.00760   4.49470
   R10        4.61889  -0.00032  -0.01231   0.00093  -0.01139   4.60750
   R11        5.08567  -0.00018  -0.00907   0.00007  -0.00901   5.07667
   R12        5.46156  -0.00024  -0.00971  -0.00263  -0.01233   5.44923
   R13        4.80375  -0.00018  -0.00731   0.00098  -0.00631   4.79744
   R14        4.98704  -0.00046  -0.01505  -0.00387  -0.01891   4.96813
   R15        4.62791  -0.00004  -0.00386   0.00412   0.00022   4.62813
   R16        4.68944  -0.00075  -0.01757  -0.00348  -0.02102   4.66843
   R17        4.98704  -0.00046  -0.01505  -0.00387  -0.01891   4.96813
   R18        4.42721  -0.00026  -0.00508   0.00271  -0.00242   4.42479
   R19        4.62791  -0.00004  -0.00386   0.00412   0.00022   4.62813
   R20        4.71659  -0.00045  -0.01631  -0.00107  -0.01738   4.69921
   R21        4.68944  -0.00075  -0.01757  -0.00348  -0.02102   4.66843
    A1        1.91694   0.00006   0.00122   0.00030   0.00153   1.91847
    A2        1.98130  -0.00014  -0.00264  -0.00115  -0.00379   1.97751
    A3        1.90402   0.00002   0.00049   0.00050   0.00099   1.90500
    A4        1.80155   0.00005   0.00073   0.00198   0.00270   1.80425
    A5        1.84707   0.00005   0.00016   0.00110   0.00126   1.84833
    A6        1.84801  -0.00003  -0.00045  -0.00002  -0.00049   1.84752
    A7        1.12693   0.00008   0.00086   0.00056   0.00143   1.12836
    A8        1.84801  -0.00003  -0.00045  -0.00002  -0.00049   1.84752
    A9        1.91694   0.00006   0.00122   0.00030   0.00153   1.91847
   A10        1.90402   0.00002   0.00049   0.00050   0.00099   1.90500
   A11        1.98130  -0.00014  -0.00264  -0.00115  -0.00379   1.97751
   A12        1.84707   0.00005   0.00016   0.00110   0.00126   1.84833
   A13        1.80155   0.00005   0.00073   0.00198   0.00270   1.80425
   A14        1.12693   0.00008   0.00086   0.00056   0.00143   1.12836
   A15        1.89101   0.00000   0.00051   0.00039   0.00087   1.89188
   A16        1.25237   0.00012   0.00137   0.00031   0.00168   1.25405
   A17        1.76380  -0.00002   0.00077   0.00068   0.00145   1.76524
   A18        1.88189  -0.00014  -0.00257  -0.00110  -0.00368   1.87821
   A19        1.91875   0.00003   0.00105   0.00029   0.00136   1.92011
   A20        1.91875   0.00003   0.00105   0.00029   0.00136   1.92011
   A21        2.79524  -0.00014  -0.00213  -0.00122  -0.00336   2.79188
   A22        1.76380  -0.00002   0.00077   0.00068   0.00145   1.76524
   A23        1.88189  -0.00014  -0.00257  -0.00110  -0.00368   1.87821
   A24        1.72312  -0.00002   0.00107   0.00136   0.00240   1.72552
   A25        1.75416  -0.00010  -0.00171  -0.00049  -0.00220   1.75196
   A26        1.71049  -0.00007   0.00019   0.00058   0.00076   1.71124
   A27        1.81865   0.00003   0.00079   0.00121   0.00201   1.82066
   A28        1.81865   0.00003   0.00079   0.00121   0.00201   1.82066
   A29        2.54168  -0.00007   0.00041   0.00131   0.00171   2.54339
   A30        1.75416  -0.00010  -0.00171  -0.00049  -0.00220   1.75196
   A31        1.71049  -0.00007   0.00019   0.00058   0.00076   1.71124
   A32        1.91498  -0.00026  -0.00489  -0.00308  -0.00798   1.90700
   A33        1.89101   0.00000   0.00051   0.00039   0.00087   1.89188
   A34        1.25237   0.00012   0.00137   0.00031   0.00168   1.25405
   A35        1.87817   0.00016   0.00325   0.00150   0.00472   1.88289
   A36        1.32877   0.00016   0.00203   0.00004   0.00208   1.33085
    D1        0.00000   0.00000   0.00000   0.00000   0.00000   0.00000
    D2       -0.84052  -0.00017  -0.00551  -0.00365  -0.00916  -0.84968
    D3        1.23359  -0.00015  -0.00492  -0.00263  -0.00756   1.22603
    D4        0.20850  -0.00017  -0.00522  -0.00343  -0.00867   0.19984
    D5       -0.05556  -0.00002   0.00053  -0.00021   0.00030  -0.05526
    D6       -1.12339   0.00008   0.00219   0.00026   0.00245  -1.12093
    D7        0.57445  -0.00003  -0.00011  -0.00008  -0.00020   0.57425
    D8       -0.49337   0.00007   0.00156   0.00040   0.00195  -0.49142
    D9       -0.02142   0.00006   0.00127   0.00178   0.00306  -0.01837
   D10        1.04438  -0.00008  -0.00063   0.00059  -0.00005   1.04433
   D11       -0.62422   0.00011   0.00203   0.00145   0.00348  -0.62074
   D12        0.44158  -0.00003   0.00013   0.00026   0.00037   0.44195
   D13        0.05556   0.00002  -0.00053   0.00021  -0.00030   0.05526
   D14        1.12339  -0.00008  -0.00219  -0.00026  -0.00245   1.12093
   D15       -0.57445   0.00003   0.00011   0.00008   0.00020  -0.57425
   D16        0.49337  -0.00007  -0.00156  -0.00040  -0.00195   0.49142
   D17        0.02142  -0.00006  -0.00127  -0.00178  -0.00306   0.01837
   D18       -1.04438   0.00008   0.00063  -0.00059   0.00005  -1.04433
   D19        0.62422  -0.00011  -0.00203  -0.00145  -0.00348   0.62074
   D20       -0.44158   0.00003  -0.00013  -0.00026  -0.00037  -0.44195
   D21       -0.20850   0.00017   0.00522   0.00343   0.00867  -0.19984
   D22        0.84052   0.00017   0.00551   0.00365   0.00916   0.84968
   D23       -1.23359   0.00015   0.00492   0.00263   0.00756  -1.22603
   D24        1.65320  -0.00005   0.00002  -0.00081  -0.00079   1.65241
   D25        0.65577  -0.00006  -0.00089  -0.00102  -0.00192   0.65385
   D26       -0.35396  -0.00009  -0.00202  -0.00187  -0.00391  -0.35787
   D27       -1.53556   0.00008   0.00130   0.00019   0.00150  -1.53405
   D28       -0.60257   0.00006   0.00112   0.00073   0.00185  -0.60072
   D29        0.40301   0.00003   0.00058   0.00089   0.00148   0.40449
   D30       -0.34388   0.00025   0.00799   0.00544   0.01349  -0.33039
   D31       -0.65577   0.00006   0.00089   0.00102   0.00192  -0.65385
   D32       -1.65320   0.00005  -0.00002   0.00081   0.00079  -1.65241
   D33        0.35396   0.00009   0.00202   0.00187   0.00391   0.35787
   D34        0.53533  -0.00005  -0.00078  -0.00043  -0.00121   0.53413
   D35        0.00000   0.00000   0.00000   0.00000   0.00000   0.00000
   D36       -0.53533   0.00005   0.00078   0.00043   0.00121  -0.53413
   D37        0.60257  -0.00006  -0.00112  -0.00073  -0.00185   0.60072
   D38        1.53556  -0.00008  -0.00130  -0.00019  -0.00150   1.53405
   D39       -0.40301  -0.00003  -0.00058  -0.00089  -0.00148  -0.40449
   D40       -0.47424   0.00002   0.00024  -0.00010   0.00014  -0.47411
   D41        0.00000   0.00000   0.00000   0.00000   0.00000   0.00000
   D42        0.47424  -0.00002  -0.00024   0.00010  -0.00014   0.47411
   D43        0.34388  -0.00025  -0.00799  -0.00544  -0.01349   0.33039
         Item               Value     Threshold  Converged?
 Maximum Force            0.000746     0.000450     NO 
 RMS     Force            0.000188     0.000300     YES
 Maximum Displacement     0.017312     0.001800     NO 
 RMS     Displacement     0.003764     0.001200     NO 
 Predicted change in Energy=-5.729282D-05
 GradGradGradGradGradGradGradGradGradGradGradGradGradGradGradGradGradGrad

                          Input orientation:                          
 ---------------------------------------------------------------------
 Center     Atomic      Atomic             Coordinates (Angstroms)
 Number     Number       Type             X           Y           Z
 ---------------------------------------------------------------------
      1         14           0        1.312584    0.055358    1.303531
      2         14           0        1.911445   -1.841874    0.000000
      3         14           0        1.523825    2.033594    0.000000
      4         14           0        1.312584    0.055358   -1.303531
      5         14           0       -1.129502    0.067038    1.997114
      6         14           0       -0.447148   -1.500660    0.000000
      7         14           0       -0.844908    1.455793    0.000000
      8         14           0       -1.129502    0.067038   -1.997114
      9         14           0       -2.509390   -0.391706    0.000000
 ---------------------------------------------------------------------
                    Distance matrix (angstroms):
                    1          2          3          4          5
     1  Si   0.000000
     2  Si   2.378511   0.000000
     3  Si   2.378494   3.894805   0.000000
     4  Si   2.607062   2.378511   2.378494   0.000000
     5  Si   2.538696   4.108499   3.859527   4.105871   0.000000
     6  Si   2.686455   2.383147   4.046688   2.686455   2.629020
     7  Si   2.883606   4.297917   2.438185   2.883606   2.449102
     8  Si   4.105871   4.108499   3.859527   2.538696   3.994228
     9  Si   4.062825   4.652609   4.706262   4.062825   2.470425
                    6          7          8          9
     6  Si   0.000000
     7  Si   2.983091   0.000000
     8  Si   2.629020   2.449102   0.000000
     9  Si   2.341499   2.486716   2.470425   0.000000
 Stoichiometry    Si9
 Framework group  CS[SG(Si5),X(Si4)]
 Deg. of freedom    13
 Full point group                 CS      NOp   2
 Largest Abelian subgroup         CS      NOp   2
 Largest concise Abelian subgroup CS      NOp   2
                         Standard orientation:                         
 ---------------------------------------------------------------------
 Center     Atomic      Atomic             Coordinates (Angstroms)
 Number     Number       Type             X           Y           Z
 ---------------------------------------------------------------------
      1         14           0        0.061642   -1.312306    1.303531
      2         14           0       -1.832705   -1.920233    0.000000
      3         14           0        2.040865   -1.514083    0.000000
      4         14           0        0.061642   -1.312306   -1.303531
      5         14           0        0.061642    1.129808    1.997114
      6         14           0       -1.502775    0.439965    0.000000
      7         14           0        1.451743    0.851860    0.000000
      8         14           0        0.061642    1.129808   -1.997114
      9         14           0       -0.403696    2.507487    0.000000
 ---------------------------------------------------------------------
 Rotational constants (GHZ):      0.7705496      0.5911207      0.5780211
 Standard basis: GTBas3 (6D, 7F)
 There are   174 symmetry adapted basis functions of A'  symmetry.
 There are   114 symmetry adapted basis functions of A"  symmetry.
 Integral buffers will be    131072 words long.
 Raffenetti 2 integral format.
 Two-electron integral symmetry is turned on.
   288 basis functions,   612 primitive gaussians,   315 cartesian basis functions
    63 alpha electrons       63 beta electrons
       nuclear repulsion energy      1251.9867970857 Hartrees.
 NAtoms=    9 NActive=    9 NUniq=    7 SFac= 1.24D+00 NAtFMM=   80 NAOKFM=F Big=F
 One-electron integrals computed using PRISM.
 NBasis=   288 RedAO= T  NBF=   174   114
 NBsUse=   288 1.00D-06 NBFU=   174   114
 Initial guess read from the read-write file.
 B after Tr=     0.000000    0.000000    0.000000
         Rot=    1.000000    0.000000    0.000000    0.000000 Ang=   0.00 deg.
 Initial guess orbital symmetries:
       Occupied  (A') (A') (A') (A') (A") (A") (A') (A') (A') (A')
                 (A') (A') (A') (A") (A") (A') (A') (A') (A') (A')
                 (A") (A') (A") (A') (A') (A') (A") (A') (A") (A')
                 (A") (A') (A") (A') (A') (A") (A") (A') (A") (A')
                 (A") (A') (A') (A") (A') (A') (A') (A') (A") (A')
                 (A') (A") (A') (A') (A") (A') (A') (A") (A') (A')
                 (A') (A") (A")
       Virtual   (A') (A") (A') (A') (A') (A') (A") (A") (A') (A')
                 (A") (A') (A') (A") (A") (A') (A') (A") (A') (A")
                 (A') (A") (A") (A') (A') (A') (A") (A') (A') (A')
                 (A") (A') (A") (A') (A') (A") (A') (A') (A") (A")
                 (A') (A') (A") (A') (A") (A') (A') (A") (A") (A')
                 (A') (A') (A") (A") (A') (A") (A') (A') (A") (A')
                 (A") (A') (A") (A') (A") (A') (A') (A") (A') (A")
                 (A') (A') (A") (A') (A') (A") (A") (A') (A") (A')
                 (A") (A') (A') (A') (A') (A") (A") (A') (A') (A')
                 (A") (A') (A") (A") (A") (A') (A') (A') (A') (A')
                 (A") (A') (A") (A') (A") (A") (A') (A') (A') (A")
                 (A') (A") (A') (A') (A") (A') (A") (A') (A') (A")
                 (A') (A") (A") (A") (A') (A') (A') (A') (A") (A")
                 (A') (A') (A") (A') (A") (A') (A") (A') (A") (A')
                 (A') (A') (A") (A') (A') (A') (A") (A") (A') (A')
                 (A") (A") (A") (A') (A") (A') (A') (A") (A") (A")
                 (A') (A') (A") (A') (A') (A") (A') (A") (A') (A')
                 (A") (A') (A") (A') (A') (A") (A") (A') (A") (A')
                 (A") (A') (A') (A") (A') (A") (A') (A") (A') (A')
                 (A') (A") (A') (A') (A") (A') (A') (A") (A') (A")
                 (A') (A") (A') (A') (A") (A") (A') (A") (A') (A')
                 (A") (A') (A") (A') (A") (A') (A') (A') (A') (A")
                 (A') (A') (A") (A') (A')
 Requested convergence on RMS density matrix=1.00D-08 within 128 cycles.
 Requested convergence on MAX density matrix=1.00D-06.
 Requested convergence on             energy=1.00D-06.
 No special actions if energy rises.
 Keep R1 ints in memory in canonical form, NReq=1254722014.
 SCF Done:  E(RB3LYP) =  -2605.42105008     A.U. after   11 cycles
             Convg  =    0.8307D-08             -V/T =  2.0035
 QCSCF skips out because SCF is already converged.
 Calling FoFJK, ICntrl=      2127 FMM=F ISym2X=1 I1Cent= 0 IOpClX= 0 NMat=1 NMatS=1 NMatT=0.
 ***** Axes restored to original set *****
 -------------------------------------------------------------------
 Center     Atomic                   Forces (Hartrees/Bohr)
 Number     Number              X              Y              Z
 -------------------------------------------------------------------
      1       14          -0.000031481    0.000213866    0.000029887
      2       14           0.000203921   -0.000176152    0.000000000
      3       14           0.000427067    0.000451802    0.000000000
      4       14          -0.000031481    0.000213866   -0.000029887
      5       14          -0.000245589   -0.000628261    0.000251567
      6       14          -0.000071714   -0.000215209    0.000000000
      7       14           0.000282122    0.000371577    0.000000000
      8       14          -0.000245589   -0.000628261   -0.000251567
      9       14          -0.000287258    0.000396773    0.000000000
 -------------------------------------------------------------------
 Cartesian Forces:  Max     0.000628261 RMS     0.000278891

 GradGradGradGradGradGradGradGradGradGradGradGradGradGradGradGradGradGrad
 Berny optimization.
 Using GEDIIS/GDIIS optimizer.
 Internal  Forces:  Max     0.000325698 RMS     0.000102970
 Search for a local minimum.
 Step number   3 out of a maximum of  100
 All quantities printed in internal units (Hartrees-Bohrs-Radians)
 Mixed Optimization -- En-DIIS/RFO-DIIS
 Swaping is turned off.
 Update second derivatives using D2CorX and points    1    2    3
 DE= -6.34D-05 DEPred=-5.73D-05 R= 1.11D+00
 SS=  1.41D+00  RLast= 6.46D-02 DXNew= 5.0454D-01 1.9379D-01
 Trust test= 1.11D+00 RLast= 6.46D-02 DXMaxT set to 3.00D-01
     Eigenvalues ---    0.01950   0.03136   0.04386   0.05029   0.07761
     Eigenvalues ---    0.07765   0.08311   0.08572   0.08652   0.09202
     Eigenvalues ---    0.09956   0.10341   0.10673   0.11571   0.11693
     Eigenvalues ---    0.12229   0.12236   0.12321   0.13946   0.14996
     Eigenvalues ---    0.162291000.000001000.000001000.000001000.00000
     Eigenvalues --- 1000.000001000.000001000.000001000.000001000.00000
     Eigenvalues --- 1000.000001000.000001000.000001000.000001000.00000
     Eigenvalues --- 1000.000001000.000001000.000001000.000001000.00000
     Eigenvalues --- 1000.000001000.000001000.000001000.000001000.00000
     Eigenvalues --- 1000.000001000.000001000.000001000.000001000.00000
     Eigenvalues --- 1000.000001000.000001000.000001000.000001000.00000
     Eigenvalues --- 1000.000001000.000001000.000001000.000001000.00000
     Eigenvalues --- 1000.000001000.000001000.000001000.000001000.00000
     Eigenvalues --- 1000.000001000.000001000.000001000.000001000.00000
     Eigenvalues --- 1000.000001000.000001000.000001000.000001000.00000
     Eigenvalues --- 1000.000001000.000001000.000001000.000001000.00000
     Eigenvalues --- 1000.000001000.000001000.000001000.000001000.00000
     Eigenvalues --- 1000.000001000.000001000.000001000.000001000.00000
     Eigenvalues --- 1000.000001000.000001000.000001000.000001000.00000
     Eigenvalues --- 1000.000001000.000001000.000001000.000001000.00000
 En-DIIS/RFO-DIIS IScMMF=        0 using points:     3    2    1
 RFO step:  Lambda=-3.61185138D-06.
 DIIS coeffs:      3.88927     -7.18178      4.29251
 Iteration  1 RMS(Cart)=  0.00395319 RMS(Int)=  0.00003040
 Iteration  2 RMS(Cart)=  0.00001633 RMS(Int)=  0.00001502
 Iteration  3 RMS(Cart)=  0.00000000 RMS(Int)=  0.00001502
 ClnCor:  largest displacement from symmetrization is 7.11D-10 for atom     8.
 Variable       Old X    -DE/DX   Delta X   Delta X   Delta X     New X
                                  (DIIS)     (GDIIS)  (Total)
    R1        4.49474   0.00010   0.00130  -0.00026   0.00105   4.49579
    R2        4.49470   0.00021   0.00388  -0.00134   0.00254   4.49724
    R3        4.92663  -0.00005  -0.00468  -0.00032  -0.00501   4.92163
    R4        4.79744   0.00013   0.00319  -0.00020   0.00301   4.80045
    R5        5.07667   0.00012   0.00057   0.00165   0.00222   5.07888
    R6        5.44923  -0.00011  -0.00717  -0.00232  -0.00950   5.43972
    R7        4.49474   0.00010   0.00130  -0.00026   0.00105   4.49579
    R8        4.50349   0.00012   0.00280   0.00048   0.00327   4.50676
    R9        4.49470   0.00021   0.00388  -0.00134   0.00254   4.49724
   R10        4.60750   0.00031   0.00321  -0.00063   0.00256   4.61007
   R11        5.07667   0.00012   0.00057   0.00165   0.00222   5.07888
   R12        5.44923  -0.00011  -0.00717  -0.00232  -0.00950   5.43972
   R13        4.79744   0.00013   0.00319  -0.00020   0.00301   4.80045
   R14        4.96813  -0.00007  -0.01052  -0.00174  -0.01228   4.95585
   R15        4.62813   0.00033   0.01197   0.00247   0.01447   4.64260
   R16        4.66843  -0.00002  -0.00920   0.00052  -0.00871   4.65972
   R17        4.96813  -0.00007  -0.01052  -0.00174  -0.01228   4.95585
   R18        4.42479   0.00018   0.00790   0.00087   0.00880   4.43360
   R19        4.62813   0.00033   0.01197   0.00247   0.01447   4.64260
   R20        4.69921   0.00015  -0.00239  -0.00151  -0.00393   4.69528
   R21        4.66843  -0.00002  -0.00920   0.00052  -0.00871   4.65972
    A1        1.91847   0.00002   0.00083  -0.00014   0.00068   1.91915
    A2        1.97751  -0.00006  -0.00321  -0.00090  -0.00410   1.97341
    A3        1.90500   0.00003   0.00143  -0.00038   0.00106   1.90606
    A4        1.80425   0.00016   0.00567   0.00122   0.00689   1.81114
    A5        1.84833   0.00011   0.00318   0.00016   0.00335   1.85168
    A6        1.84752   0.00001  -0.00009   0.00030   0.00021   1.84773
    A7        1.12836   0.00004   0.00162  -0.00020   0.00142   1.12978
    A8        1.84752   0.00001  -0.00009   0.00030   0.00021   1.84773
    A9        1.91847   0.00002   0.00083  -0.00014   0.00068   1.91915
   A10        1.90500   0.00003   0.00143  -0.00038   0.00106   1.90606
   A11        1.97751  -0.00006  -0.00321  -0.00090  -0.00410   1.97341
   A12        1.84833   0.00011   0.00318   0.00016   0.00335   1.85168
   A13        1.80425   0.00016   0.00567   0.00122   0.00689   1.81114
   A14        1.12836   0.00004   0.00162  -0.00020   0.00142   1.12978
   A15        1.89188   0.00001   0.00101   0.00010   0.00110   1.89298
   A16        1.25405   0.00001   0.00086  -0.00044   0.00041   1.25446
   A17        1.76524   0.00002   0.00193   0.00016   0.00209   1.76733
   A18        1.87821  -0.00005  -0.00310  -0.00054  -0.00364   1.87457
   A19        1.92011   0.00000   0.00083  -0.00059   0.00023   1.92034
   A20        1.92011   0.00000   0.00083  -0.00059   0.00023   1.92034
   A21        2.79188  -0.00005  -0.00344  -0.00097  -0.00442   2.78746
   A22        1.76524   0.00002   0.00193   0.00016   0.00209   1.76733
   A23        1.87821  -0.00005  -0.00310  -0.00054  -0.00364   1.87457
   A24        1.72552   0.00008   0.00379   0.00155   0.00535   1.73087
   A25        1.75196  -0.00001  -0.00137   0.00018  -0.00119   1.75077
   A26        1.71124   0.00003   0.00163   0.00105   0.00269   1.71393
   A27        1.82066   0.00008   0.00347   0.00030   0.00377   1.82443
   A28        1.82066   0.00008   0.00347   0.00030   0.00377   1.82443
   A29        2.54339   0.00008   0.00374   0.00116   0.00490   2.54829
   A30        1.75196  -0.00001  -0.00137   0.00018  -0.00119   1.75077
   A31        1.71124   0.00003   0.00163   0.00105   0.00269   1.71393
   A32        1.90700  -0.00015  -0.00869  -0.00062  -0.00929   1.89771
   A33        1.89188   0.00001   0.00101   0.00010   0.00110   1.89298
   A34        1.25405   0.00001   0.00086  -0.00044   0.00041   1.25446
   A35        1.88289   0.00006   0.00411   0.00056   0.00461   1.88750
   A36        1.33085  -0.00001   0.00006  -0.00027  -0.00022   1.33063
    D1        0.00000   0.00000   0.00000   0.00000   0.00000   0.00000
    D2       -0.84968  -0.00018  -0.01032  -0.00219  -0.01249  -0.86218
    D3        1.22603  -0.00009  -0.00743  -0.00205  -0.00948   1.21655
    D4        0.19984  -0.00016  -0.00972  -0.00216  -0.01187   0.18797
    D5       -0.05526  -0.00003  -0.00067   0.00054  -0.00014  -0.05540
    D6       -1.12093  -0.00002   0.00066   0.00022   0.00087  -1.12006
    D7        0.57425   0.00000  -0.00027   0.00055   0.00028   0.57453
    D8       -0.49142   0.00001   0.00106   0.00023   0.00129  -0.49013
    D9       -0.01837   0.00008   0.00510   0.00012   0.00521  -0.01315
   D10        1.04433   0.00002   0.00171   0.00029   0.00201   1.04634
   D11       -0.62074   0.00007   0.00411   0.00003   0.00412  -0.61662
   D12        0.44195   0.00000   0.00071   0.00019   0.00092   0.44287
   D13        0.05526   0.00003   0.00067  -0.00054   0.00014   0.05540
   D14        1.12093   0.00002  -0.00066  -0.00022  -0.00087   1.12006
   D15       -0.57425   0.00000   0.00027  -0.00055  -0.00028  -0.57453
   D16        0.49142  -0.00001  -0.00106  -0.00023  -0.00129   0.49013
   D17        0.01837  -0.00008  -0.00510  -0.00012  -0.00521   0.01315
   D18       -1.04433  -0.00002  -0.00171  -0.00029  -0.00201  -1.04634
   D19        0.62074  -0.00007  -0.00411  -0.00003  -0.00412   0.61662
   D20       -0.44195   0.00000  -0.00071  -0.00019  -0.00092  -0.44287
   D21       -0.19984   0.00016   0.00972   0.00216   0.01187  -0.18797
   D22        0.84968   0.00018   0.01032   0.00219   0.01249   0.86218
   D23       -1.22603   0.00009   0.00743   0.00205   0.00948  -1.21655
   D24        1.65241  -0.00006  -0.00235  -0.00034  -0.00268   1.64972
   D25        0.65385  -0.00006  -0.00294  -0.00005  -0.00297   0.65088
   D26       -0.35787  -0.00009  -0.00537  -0.00022  -0.00557  -0.36344
   D27       -1.53405  -0.00002   0.00052  -0.00056  -0.00004  -1.53409
   D28       -0.60072   0.00003   0.00207  -0.00047   0.00160  -0.59912
   D29        0.40449   0.00004   0.00257  -0.00033   0.00220   0.40670
   D30       -0.33039   0.00026   0.01554   0.00355   0.01905  -0.31134
   D31       -0.65385   0.00006   0.00294   0.00005   0.00297  -0.65088
   D32       -1.65241   0.00006   0.00235   0.00034   0.00268  -1.64972
   D33        0.35787   0.00009   0.00537   0.00022   0.00557   0.36344
   D34        0.53413  -0.00003  -0.00120  -0.00033  -0.00154   0.53259
   D35        0.00000   0.00000   0.00000   0.00000   0.00000   0.00000
   D36       -0.53413   0.00003   0.00120   0.00033   0.00154  -0.53259
   D37        0.60072  -0.00003  -0.00207   0.00047  -0.00160   0.59912
   D38        1.53405   0.00002  -0.00052   0.00056   0.00004   1.53409
   D39       -0.40449  -0.00004  -0.00257   0.00033  -0.00220  -0.40670
   D40       -0.47411  -0.00001  -0.00030  -0.00026  -0.00057  -0.47468
   D41        0.00000   0.00000   0.00000   0.00000   0.00000   0.00000
   D42        0.47411   0.00001   0.00030   0.00026   0.00057   0.47468
   D43        0.33039  -0.00026  -0.01554  -0.00355  -0.01905   0.31134
         Item               Value     Threshold  Converged?
 Maximum Force            0.000326     0.000450     YES
 RMS     Force            0.000103     0.000300     YES
 Maximum Displacement     0.020950     0.001800     NO 
 RMS     Displacement     0.003952     0.001200     NO 
 Predicted change in Energy=-3.984426D-05
 GradGradGradGradGradGradGradGradGradGradGradGradGradGradGradGradGradGrad

                          Input orientation:                          
 ---------------------------------------------------------------------
 Center     Atomic      Atomic             Coordinates (Angstroms)
 Number     Number       Type             X           Y           Z
 ---------------------------------------------------------------------
      1         14           0        1.311550    0.057997    1.302206
      2         14           0        1.912116   -1.840305    0.000000
      3         14           0        1.528692    2.038081    0.000000
      4         14           0        1.311550    0.057997   -1.302206
      5         14           0       -1.131951    0.055951    1.996729
      6         14           0       -0.448474   -1.500824    0.000000
      7         14           0       -0.840721    1.457353    0.000000
      8         14           0       -1.131951    0.055951   -1.996729
      9         14           0       -2.510822   -0.382263    0.000000
 ---------------------------------------------------------------------
                    Distance matrix (angstroms):
                    1          2          3          4          5
     1  Si   0.000000
     2  Si   2.379069   0.000000
     3  Si   2.379837   3.897293   0.000000
     4  Si   2.604413   2.379069   2.379837   0.000000
     5  Si   2.540288   4.104761   3.872311   4.105323   0.000000
     6  Si   2.687629   2.384875   4.053768   2.687629   2.622522
     7  Si   2.878577   4.295655   2.439542   2.878577   2.456760
     8  Si   4.105323   4.104761   3.872311   2.540288   3.993459
     9  Si   4.062031   4.657066   4.709112   4.062031   2.465815
                    6          7          8          9
     6  Si   0.000000
     7  Si   2.984069   0.000000
[...]
 Alpha virt. eigenvalues --    1.35940   1.36373   1.37077   1.37823   1.37824
 Alpha virt. eigenvalues --    1.38556   1.39994   1.41218   1.42072   1.42606
 Alpha virt. eigenvalues --    1.42672   1.44221   1.44502   1.45985   1.46003
 Alpha virt. eigenvalues --    1.46519   1.47120   1.48540   1.48843   1.49449
 Alpha virt. eigenvalues --    1.50154   1.52472   1.52526   1.53086   1.54277
 Alpha virt. eigenvalues --    1.54793   1.54977   1.55239   1.55499   1.55978
 Alpha virt. eigenvalues --    1.57584   1.57666   1.58114   1.58876   1.60276
 Alpha virt. eigenvalues --    1.60446   1.60964   1.61620   1.62197   1.62773
 Alpha virt. eigenvalues --    1.62878   1.64836   1.65999   1.66670   1.67042
 Alpha virt. eigenvalues --    1.67719   1.68185   1.69313   1.69537   1.70062
 Alpha virt. eigenvalues --    1.70714   1.71316   1.71829   1.71938   1.72445
 Alpha virt. eigenvalues --    1.73208   1.74028   1.74253   1.74394   1.74839
 Alpha virt. eigenvalues --    1.75886   1.76003   1.77173   1.77585   1.79861
 Alpha virt. eigenvalues --    1.80643   1.80969   1.81105   1.83072   1.83343
 Alpha virt. eigenvalues --    1.83867   1.84183   1.84940   1.84987   1.85552
 Alpha virt. eigenvalues --    1.85751   1.86308   1.86596   1.86622   1.87466
 Alpha virt. eigenvalues --    1.89081   1.89904   1.90309   1.91775   1.91910
 Alpha virt. eigenvalues --    1.92401   1.92447   1.93254   1.94413   1.95014
 Alpha virt. eigenvalues --    1.95237   1.96208   1.96886   1.97069   1.97879
 Alpha virt. eigenvalues --    1.98802   1.99584   2.01982   2.02480   2.02512
 Alpha virt. eigenvalues --    2.03380   2.03488   2.03633   2.04003   2.05709
 Alpha virt. eigenvalues --    2.05872   2.06650   2.07240   2.07483   2.08352
 Alpha virt. eigenvalues --    2.09236   2.10000   2.10453   2.10466   2.10636
 Alpha virt. eigenvalues --    2.11125   2.12129   2.13205   2.13637   2.13937
 Alpha virt. eigenvalues --    2.15652   2.15917   2.16009   2.17706   2.18637
 Alpha virt. eigenvalues --    2.18829   2.19188   2.19839   2.20313   2.20945
 Alpha virt. eigenvalues --    2.21649   2.22972   2.23110   2.23381   2.24375
 Alpha virt. eigenvalues --    2.25292   2.25835   2.26749   2.27115   2.27605
 Alpha virt. eigenvalues --    2.28579   2.29059   2.29624   2.30630   2.31357
 Alpha virt. eigenvalues --    2.32753   2.33007   2.34024   2.34598   2.35265
 Alpha virt. eigenvalues --    2.35420   2.36705   2.36736   2.37137   2.37590
 Alpha virt. eigenvalues --    2.38886   2.39514   2.41604   2.41604   2.41981
 Alpha virt. eigenvalues --    2.43350   2.43928   2.44017   2.45333   2.47661
 Alpha virt. eigenvalues --    2.48143   2.49844   2.49876   2.52166   2.52270
 Alpha virt. eigenvalues --    2.53091   2.54173   2.55067   2.56514   2.58317
 Alpha virt. eigenvalues --    2.59151   2.59583   2.62411   2.64577   2.67545
 Alpha virt. eigenvalues --    2.68316   2.70109   2.70852   2.72017   2.74408
 Alpha virt. eigenvalues --    2.74606   2.77285   2.78589   2.78910   2.81771
 Alpha virt. eigenvalues --    2.84020   2.85441   2.86724   2.87905   2.89292
 Alpha virt. eigenvalues --    2.89682   2.91308   2.92660   2.93715   2.94242
 Alpha virt. eigenvalues --    2.94667   2.96754   3.00601   3.01809   3.03781
 Alpha virt. eigenvalues --    3.05300   3.07901   3.08485   3.09997   3.11097
 Alpha virt. eigenvalues --    3.15634   3.16609   3.17343   3.17938   3.19594
 Alpha virt. eigenvalues --    3.20801   3.20932   3.21837   3.22713   3.22924
 Alpha virt. eigenvalues --    3.24222   3.26284   3.26809   3.27209   3.27447
 Alpha virt. eigenvalues --    3.28062   3.29885   3.30193   3.31163   3.31266
 Alpha virt. eigenvalues --    3.33037   3.34123   3.34472   3.35140   3.37503
 Alpha virt. eigenvalues --    3.37713   3.38065   3.38837   3.40210   3.41083
 Alpha virt. eigenvalues --    3.42357   3.42831   3.43218   3.44096   3.44111
 Alpha virt. eigenvalues --    3.45168   3.45397   3.47116   3.47249   3.47934
 Alpha virt. eigenvalues --    3.48927   3.48988   3.49294   3.50216   3.51070
 Alpha virt. eigenvalues --    3.51736   3.52037   3.53062   3.53373   3.55561
 Alpha virt. eigenvalues --    3.55742   3.56566   3.56707   3.57062   3.58170
 Alpha virt. eigenvalues --    3.58250   3.58625   3.58979   3.59359   3.59688
 Alpha virt. eigenvalues --    3.61025   3.61096   3.61656   3.61841   3.62578
 Alpha virt. eigenvalues --    3.62668   3.63836   3.64442   3.64571   3.64682
 Alpha virt. eigenvalues --    3.65458   3.65746   3.66081   3.66193   3.66874
 Alpha virt. eigenvalues --    3.67141   3.67560   3.68274   3.69222   3.69572
 Alpha virt. eigenvalues --    3.69973   3.70832   3.70982   3.73070   3.73363
 Alpha virt. eigenvalues --    3.73999   3.74175   3.74505   3.74760   3.75694
 Alpha virt. eigenvalues --    3.75724   3.76728   3.78115   3.79051   3.79432
 Alpha virt. eigenvalues --    3.80946   3.81083   3.82037   3.82519   3.83278
 Alpha virt. eigenvalues --    3.84703   3.85278   3.86943   3.87146   3.87946
 Alpha virt. eigenvalues --    3.89338   3.90108   3.90594   3.92135   3.93659
 Alpha virt. eigenvalues --    3.94346   3.94586   3.95563   3.95753   3.95948
 Alpha virt. eigenvalues --    3.97624   3.98609   3.98709   3.99529   4.00861
 Alpha virt. eigenvalues --    4.00998   4.02847   4.02998   4.04710   4.06924
 Alpha virt. eigenvalues --    4.07036   4.08003   4.08366   4.09503   4.09511
 Alpha virt. eigenvalues --    4.09940   4.11235   4.11422   4.12610   4.13470
 Alpha virt. eigenvalues --    4.14216   4.15564   4.16109   4.16618   4.17522
 Alpha virt. eigenvalues --    4.18243   4.18285   4.19506   4.20329   4.20587
 Alpha virt. eigenvalues --    4.21682   4.21922   4.22249   4.24600   4.25443
 Alpha virt. eigenvalues --    4.25832   4.26880   4.27102   4.28194   4.28523
 Alpha virt. eigenvalues --    4.29548   4.30435   4.30634   4.30812   4.32607
 Alpha virt. eigenvalues --    4.33114   4.33683   4.34694   4.35731   4.35764
 Alpha virt. eigenvalues --    4.37628   4.37893   4.38262   4.39479   4.40477
 Alpha virt. eigenvalues --    4.40518   4.41619   4.41943   4.42576   4.43017
 Alpha virt. eigenvalues --    4.43545   4.44236   4.45908   4.46385   4.46879
 Alpha virt. eigenvalues --    4.47791   4.49192   4.50274   4.50294   4.51390
 Alpha virt. eigenvalues --    4.51863   4.52038   4.52587   4.53075   4.53080
 Alpha virt. eigenvalues --    4.54045   4.55088   4.56772   4.57203   4.58252
 Alpha virt. eigenvalues --    4.58482   4.59374   4.60254   4.62089   4.62137
 Alpha virt. eigenvalues --    4.63179   4.63499   4.63608   4.64747   4.65145
 Alpha virt. eigenvalues --    4.67530   4.68166   4.68432   4.69658   4.70478
 Alpha virt. eigenvalues --    4.71186   4.71861   4.72560   4.73819   4.74648
 Alpha virt. eigenvalues --    4.75279   4.76118   4.77585   4.78814   4.78935
 Alpha virt. eigenvalues --    4.79126   4.80412   4.80652   4.81513   4.81611
 Alpha virt. eigenvalues --    4.82640   4.82805   4.83085   4.83978   4.85306
 Alpha virt. eigenvalues --    4.85991   4.86677   4.87356   4.89342   4.90006
 Alpha virt. eigenvalues --    4.90626   4.90984   4.92260   4.93019   4.93657
 Alpha virt. eigenvalues --    4.95834   4.96167   4.96950   4.97904   4.98577
 Alpha virt. eigenvalues --    4.98951   4.99930   5.00617   5.01361   5.02413
 Alpha virt. eigenvalues --    5.04512   5.05468   5.06718   5.08281   5.10599
 Alpha virt. eigenvalues --    5.12171   5.13007   5.16709   5.17693   5.17886
 Alpha virt. eigenvalues --    5.19667   5.19834   5.21368   5.23741   5.26469
 Alpha virt. eigenvalues --    5.26948   5.27736   5.29364   5.31297   5.33137
 Alpha virt. eigenvalues --    5.34423   5.35244   5.38902   5.39942   5.40625
 Alpha virt. eigenvalues --    5.43888   5.44290   5.44385   5.45896   5.49355
 Alpha virt. eigenvalues --    5.50715   5.52521   5.53904   5.54472   5.62065
 Alpha virt. eigenvalues --    5.62730   5.67536   5.76794   5.85271   5.87395
 Alpha virt. eigenvalues --    5.91725   6.02309   6.40609   6.58825   6.62441
 Alpha virt. eigenvalues --    6.67880   6.71121   6.72087   6.80639   6.80882
 Alpha virt. eigenvalues --    6.85081   6.86045   6.86585   6.89192   6.90769
 Alpha virt. eigenvalues --    6.93873   6.95050   6.99989   7.00474   7.02833
 Alpha virt. eigenvalues --    7.02917   7.05837   7.06506   7.07004   7.08392
 Alpha virt. eigenvalues --    7.11036   7.12429   7.12730   7.14522   7.17528
 Alpha virt. eigenvalues --    7.18863   7.21165   7.23041   7.23604   7.25452
 Alpha virt. eigenvalues --    7.29047   7.31023   7.36355   7.36526   7.36703
 Alpha virt. eigenvalues --    7.44098   7.44738   7.53469   7.56350   7.59049
 Alpha virt. eigenvalues --    7.69560   7.82937  13.97846  14.02583  14.04071
 Alpha virt. eigenvalues --   14.06567  14.09521  14.10627  14.12434  14.17383
 Alpha virt. eigenvalues --   14.22930  14.25246  14.25401  14.32371  14.32522
 Alpha virt. eigenvalues --   14.35234  14.38926  14.44464  14.46394  14.47762
 Alpha virt. eigenvalues --   14.55781  14.59274  14.62646  14.73712  14.88873
 Alpha virt. eigenvalues --   14.92344  14.96137  15.06281  15.22396  41.54099
 Alpha virt. eigenvalues --   41.74127  41.87555  42.07671  43.09364  43.37562
 Alpha virt. eigenvalues --   45.01574  45.41291  45.81677
          Condensed to atoms (all electrons):
              1          2          3          4          5          6
     1  Si  12.871514   0.326580   0.333111   0.069396   0.215850   0.073363
     2  Si   0.326580  13.281001  -0.022653   0.326580  -0.010293   0.241844
     3  Si   0.333111  -0.022653  13.285663   0.333111  -0.009661   0.003170
     4  Si   0.069396   0.326580   0.333111  12.871514  -0.008573   0.073363
     5  Si   0.215850  -0.010293  -0.009661  -0.008573  13.316630   0.171234
     6  Si   0.073363   0.241844   0.003170   0.073363   0.171234  12.861668
     7  Si   0.040211   0.001674   0.213833   0.040211   0.246949   0.002276
     8  Si  -0.008573  -0.010293  -0.009661   0.215850   0.005072   0.171234
     9  Si  -0.003692  -0.002522   0.000580  -0.003692   0.188094   0.258996
              7          8          9
     1  Si   0.040211  -0.008573  -0.003692
     2  Si   0.001674  -0.010293  -0.002522
     3  Si   0.213833  -0.009661   0.000580
     4  Si   0.040211   0.215850  -0.003692
     5  Si   0.246949   0.005072   0.188094
     6  Si   0.002276   0.171234   0.258996
     7  Si  12.907522   0.246949   0.166534
     8  Si   0.246949  13.316630   0.188094
     9  Si   0.166534   0.188094  13.158764
 Mulliken atomic charges:
              1
     1  Si   0.082239
     2  Si  -0.131920
     3  Si  -0.127491
     4  Si   0.082239
     5  Si  -0.115302
     6  Si   0.142852
     7  Si   0.133840
     8  Si  -0.115302
     9  Si   0.048844
 Sum of Mulliken atomic charges =   0.00000
 Mulliken charges with hydrogens summed into heavy atoms:
              1
     1  Si   0.082239
     2  Si  -0.131920
     3  Si  -0.127491
     4  Si   0.082239
     5  Si  -0.115302
     6  Si   0.142852
     7  Si   0.133840
     8  Si  -0.115302
     9  Si   0.048844
 Sum of Mulliken charges with hydrogens summed into heavy atoms =   0.00000
 Electronic spatial extent (au):  <R**2>=           2404.3654
 Charge=              0.0000 electrons
 Dipole moment (field-independent basis, Debye):
    X=             -0.0892    Y=              0.3771    Z=              0.0000  Tot=              0.3875
 Quadrupole moment (field-independent basis, Debye-Ang):
   XX=           -122.1620   YY=           -120.3627   ZZ=           -124.2285
   XY=             -0.2264   XZ=              0.0000   YZ=              0.0000
 Traceless Quadrupole moment (field-independent basis, Debye-Ang):
   XX=              0.0891   YY=              1.8883   ZZ=             -1.9774
   XY=             -0.2264   XZ=              0.0000   YZ=              0.0000
 Octapole moment (field-independent basis, Debye-Ang**2):
  XXX=             -2.4213  YYY=             -5.0072  ZZZ=              0.0000  XYY=              1.9305
  XXY=             19.3972  XXZ=              0.0000  XZZ=             -0.5784  YZZ=            -13.7578
  YYZ=              0.0000  XYZ=              0.0000
 Hexadecapole moment (field-independent basis, Debye-Ang**3):
 XXXX=          -1262.6677 YYYY=          -1764.6407 ZZZZ=          -1225.0721 XXXY=              2.6921
 XXXZ=              0.0000 YYYX=             -2.7824 YYYZ=              0.0000 ZZZX=              0.0000
 ZZZY=              0.0000 XXYY=           -514.2096 XXZZ=           -384.8517 YYZZ=           -510.8349
 XXYZ=              0.0000 YYXZ=              0.0000 ZZXY=              0.2429
 N-N= 1.252192478259D+03 E-N=-8.709311302734D+03  KE= 2.600364865961D+03
 Symmetry A'   KE= 1.896467354971D+03
 Symmetry A"   KE= 7.038975109899D+02
 1\1\GINC-NODE79\SP\RHF\GFHFB2\Si9\TAM\20-Dec-2011\0\\#N Geom=AllCheck 
 Guess=TCheck SCRF=Check HF/GFHFB2 SCF=Tight\\si9-n\\0,1\Si,0,1.3132049
 951,0.0767360709,1.2970586242\Si,0,1.9036822084,-1.8288851906,0.\Si,0,
 1.5357699706,2.0600402914,0.\Si,0,1.3132049951,0.0767360709,-1.2970586
 242\Si,0,-1.1257858144,0.0049432108,1.9987942045\Si,0,-0.4721268269,-1
 .5063424577,0.\Si,0,-0.8184096928,1.4410791356,0.\Si,0,-1.1257858144,0
 .0049432108,-1.9987942045\Si,0,-2.5237667704,-0.3293122625,0.\\Version
 =AM64L-G09RevA.02\State=1-A'\HF=-2600.3557993\RMSD=5.673e-09\Dipole=-0
 .1472491,-0.0394306,0.\Quadrupole=1.3928604,0.0772913,-1.4701517,0.207
 399,0.,0.\PG=CS [SG(Si5),X(Si4)]\\@


 IT CANNOT BE MY BEAUTY, FOR I HAVE NONE; AND IT CANNOT BE MY WIT,
 FOR HE HAS NOT ENOUGH TO KNOW THAT I HAVE ANY.
 -- CATHARINE SEDLEY, PUZZLED ABOUT WHY SHE WAS MISTRESS TO JAMES II
 Diagonal vibrational polarizability:
        0.0000000       0.0000000       0.0000000

 Temperature=              298.150000 Pressure=                      1.000000
 E(ZPE)=                     0.012968 E(Thermal)=                    0.025822
 E(CCSD(T))=             -2601.010300 E(Empiric)=                   -0.125046
 DE(Plus)=                  -0.017634 DE(2DF)=                      -0.314848
 E(Delta-G3XP)=             -2.827236 DE(HF)=                       -0.059476
 G4(0 K)=                -2604.341571 G4 Energy=                 -2604.328718
 G4 Enthalpy=            -2604.327773 G4 Free Energy=            -2604.381465
 1\1\GINC-NODE79\Mixed\G4\G4\Si9\TAM\20-Dec-2011\0\\# G4 scfcyc=500 scf
 =xqc\\si9-n\\0,1\Si,0,1.3132049951,0.0767360709,1.2970586242\Si,0,1.90
 36822084,-1.8288851906,0.\Si,0,1.5357699706,2.0600402914,0.\Si,0,1.313
 2049951,0.0767360709,-1.2970586242\Si,0,-1.1257858144,0.0049432108,1.9
 987942045\Si,0,-0.4721268269,-1.5063424577,0.\Si,0,-0.8184096928,1.441
 0791356,0.\Si,0,-1.1257858144,0.0049432108,-1.9987942045\Si,0,-2.52376
 67704,-0.3293122625,0.\\Version=AM64L-G09RevA.02\State=1-A'\MP2/GTBas1
 =-2600.9474223\MP4/GTBas1=-2601.0604126\CCSD(T)/G3Bas1=-2601.0103001\M
 P2/GTBas2=-2600.963167\MP4/GTBas2=-2601.0780466\MP2/GTBas3=-2601.23475
 05\MP4/GTBas3=-2601.3752608\HF/GTLargeXP=-2600.2984847\MP2/GTLargeXP=-
 2604.077731\HF/GFHFB1=-2600.3469307\HF/GFHFB2=-2600.3557993\G4=-2604.3
 415714\FreqCoord=2.4815977971,0.1450101586,2.451085578,3.5974380178,-3
 .4560921386,0.,2.9021846475,3.8929119735,0.,2.4815977971,0.1450101586,
 -2.451085578,-2.1274268736,0.0093413146,3.7771736425,-0.8921904029,-2.
 8465747074,0.,-1.546570184,2.7232449022,0.,-2.1274268736,0.0093413146,
 -3.7771736425,-4.7692280194,-0.6223099883,0.\PG=CS [SG(Si5),X(Si4)]\NI
 mag=0\\0.06045390,-0.00303067,0.10175131,-0.00450456,0.00287201,0.0853
 8891,-0.00796982,0.00842269,0.00859984,0.08350216,0.01406971,-0.048106
 36,-0.01855297,-0.03866438,0.10601462,0.01267275,-0.02855438,-0.018385
 15,0.,0.,0.04542579,-0.00364674,-0.00263759,0.00561379,0.00036843,0.00
 461147,0.,0.06402742,-0.00622898,-0.05077273,0.01877973,-0.00342039,-0
 .00340365,0.,0.02775480,0.11684366,0.00651046,0.03061181,-0.01653656,0
 .,0.,-0.00409904,0.,0.,0.04276441,-0.01075033,-0.00072955,0.00131095,-
 0.00796982,0.01406971,-0.01267275,-0.00364674,-0.00622898,-0.00651046,
 0.06045390,-0.00072955,0.00707203,0.00014244,0.00842269,-0.04810636,0.
 02855438,-0.00263759,-0.05077273,-0.03061181,-0.00303067,0.10175131,-0
 .00131095,-0.00014244,-0.03368357,-0.00859984,0.01855297,-0.01838515,-
 0.00561379,-0.01877973,-0.01653656,0.00450456,-0.00287201,0.08538891,-
 0.02246716,0.00057921,0.00694597,-0.00161735,0.00013251,0.00408126,-0.
 00241684,-0.00013190,0.00424312,-0.00045086,-0.00212042,0.00941558,0.0
 5104408,-0.00000337,-0.00065462,-0.00103792,-0.00017834,-0.00081024,-0
 .00365396,0.00078674,0.00088393,0.00503251,-0.00065966,0.00513405,0.00
 144184,0.00280112,0.02495211,0.00608115,-0.00067459,-0.00428648,-0.002
 68312,0.00163673,0.00031499,-0.00252115,-0.00182415,-0.00016534,0.0044
 3071,-0.00011540,-0.01089683,-0.00697240,-0.00339675,0.10577783,-0.004
 35066,0.00004902,-0.00679519,-0.05860495,0.00519721,0.,-0.00277255,-0.
 00782878,0.,-0.00435066,0.00004902,0.00679519,-0.00210888,0.00446231,0
 .00696610,0.13450685,-0.00916452,-0.00783089,0.00016088,0.01890895,0.0
 0814650,0.,-0.00364504,-0.01180145,0.,-0.00916452,-0.00783089,-0.00016
 088,0.00313009,-0.00965380,-0.00502538,-0.04056354,0.06453286,-0.00541
 312,-0.00003886,-0.00126121,0.,0.,0.00046503,0.,0.,0.00037191,0.005413
 12,0.00003886,-0.00126121,0.00232433,-0.01328296,-0.02055309,0.,0.,0.0
 3001417,-0.00294230,0.00168802,-0.00531548,-0.00520392,0.00645563,0.,-
 0.04576248,-0.01210179,0.,-0.00294230,0.00168802,0.00531548,-0.0022989
 3,-0.00366224,0.00618402,-0.00310057,0.00434486,0.,0.08902272,0.007427
 74,-0.00417945,-0.00327954,0.00595462,-0.00868409,0.,-0.02188344,0.003
 68229,0.,0.00742774,-0.00417945,0.00327954,-0.00329590,-0.01486260,0.0
 1319983,-0.00482827,-0.01190947,0.,0.03800657,0.08027769,-0.00162477,-
 0.00293582,-0.00062771,0.,0.,0.00245284,0.,0.,0.00299414,0.00162477,0.
 00293582,-0.00062771,0.00185012,0.01824889,-0.03193985,0.,0.,-0.001917
 75,0.,0.,0.04596087,-0.00045086,-0.00212042,-0.00941558,-0.00161735,0.
 00013251,-0.00408126,-0.00241684,-0.00013190,-0.00424312,-0.02246716,0
 .00057921,-0.00694597,-0.00924988,0.00056422,0.00306326,-0.00210888,0.
 00313009,-0.00232433,-0.00229893,-0.00329590,-0.00185012,0.05104408,-0
 .00065966,0.00513405,-0.00144184,-0.00017834,-0.00081024,0.00365396,0.
 00078674,0.00088393,-0.00503251,-0.00000337,-0.00065462,0.00103792,0.0
 0056422,-0.01111902,-0.00030324,0.00446231,-0.00965380,0.01328296,-0.0
 0366224,-0.01486260,-0.01824889,0.00280112,0.02495211,-0.00443071,0.00
 011540,-0.01089683,0.00268312,-0.00163673,0.00031499,0.00252115,0.0018
 2415,-0.00016534,-0.00608115,0.00067459,-0.00428648,-0.00306326,0.0003
 0324,-0.00823150,-0.00696610,0.00502538,-0.02055309,-0.00618402,-0.013
 19983,-0.03193985,0.00697240,0.00339675,0.10577783,-0.00787602,-0.0022
 2071,0.00356026,-0.00088740,-0.00600438,0.,-0.00373366,0.00831792,0.,-
 0.00787602,-0.00222071,-0.00356026,-0.01043418,-0.00411077,-0.01454857
 ,-0.05710970,0.03302363,0.,-0.02447329,-0.02551317,0.,-0.01043418,-0.0
 0411077,0.01454857,0.12282446,-0.00168070,-0.00241332,0.00235722,0.000
 73250,-0.00424019,0.,-0.00313607,-0.00554326,0.,-0.00168070,-0.0024133
 3,-0.00235722,-0.00165894,0.00613021,-0.00349706,0.03900072,-0.0139990
 5,0.,-0.03275683,-0.02528230,0.,-0.00165894,0.00613021,0.00349706,0.00
 283895,0.04163102,-0.00798025,-0.00125313,0.00028860,0.,0.,-0.00810431
 ,0.,0.,-0.00862763,0.00798025,0.00125313,0.00028860,-0.01882472,-0.003
 65488,-0.03001973,0.,0.,0.01469522,0.,0.,0.01564501,0.01882472,0.00365
 488,-0.03001973,0.,0.,0.04585395\\-0.00005564,-0.00001638,-0.00005638,
 0.00001365,0.00000865,0.,0.00007687,0.00001474,0.,-0.00005564,-0.00001
 638,0.00005638,0.00011973,-0.00003838,0.00001065,-0.00006400,0.0000519
 4,0.,-0.00013479,0.00008163,0.,0.00011973,-0.00003838,-0.00001065,-0.0
 0001992,-0.00004743,0.\\\@
 Job cpu time:  0 days 18 hours 45 minutes 30.9 seconds.
 File lengths (MBytes):  RWF=   5860 Int=      0 D2E=      0 Chk=     70 Scr=      1
 Normal termination of Gaussian 09 at Tue Dec 20 19:50:36 2011.
