#INFO: **** input file is /home/ltkoanh/Al_B2LYP_6311_Gd_Cluster/Cluster/Al8-neutral-singlet-2/input.py ****
import numpy
from pyscf import gto, scf, dft, mp, cc
from pyscf.mp import uobmp2_mom_conv, dfuobmp2_mom_conv, uhf_mom
from pyscf.mp import  mp2, ump2
from pyscf.tools import molden
import os
from functools import reduce


mol = gto.Mole()
geom = os.environ.get('geom_txt')
mol.atom = geom
mol.basis = os.environ.get('basis', 'cc-pvdz')
mol.unit = 'A'
mol.charge = int(os.environ.get('charge', 0))
mol.spin = int(os.environ.get('spin', 0))
mol.verbose = 4
mol.build()

#################### Ground state using density fitting
### Hartree-Fock
a  = scf.UHF(mol).density_fit()
a.kernel()

### Ground state OBMP2 calculation
ob = dfuobmp2_mom_conv.DFUOBMP2(a)
ob.second_order = True
ob.thresh = 10e-6
ob.css = 1
ob.cos = 1
e_obmp2g = ob.kernel()

### Ground state O2BMP2 calculation
ob = dfuobmp2_mom_conv.DFUOBMP2(a)
ob.second_order = True
ob.thresh = 10e-6
ob.css = 0                             
ob.cos = 1.2                             
e_o2bmp2g = ob.kernel()  

#################### Ground state NOT using density fitting
### Hartree-Fock
a  = scf.UHF(mol)
a.kernel()

### Ground state OBMP2 calculation
ob = uobmp2_mom_conv.UOBMP2(a)
ob.second_order = True
ob.thresh = 10e-6
ob.css = 1
ob.cos = 1
#e_obmp2g = ob.kernel()

### Ground state O2BMP2 calculation
ob = uobmp2_mom_conv.UOBMP2(a)
ob.second_order = True
ob.thresh = 10e-6
ob.css = 0
ob.cos = 1.2   ## the cos can be vary ...                        	 
#e_o2bmp2g = ob.kernel()


## Results from density-fitting approximate with non-using density fitting 
## check results between df and non-df with small molecules before running the important molecules
#INFO: ******************** input file end ********************


System: uname_result(system='Linux', node='comphys', release='3.10.0-1160.119.1.el7.x86_64', version='#1 SMP Tue Jun 4 14:43:51 UTC 2024', machine='x86_64', processor='x86_64')  Threads 8
Python 3.7.9 (default, Dec  4 2023, 13:00:18) 
[GCC 4.8.5 20150623 (Red Hat 4.8.5-44)]
numpy 1.21.6  scipy 1.7.3
Date: Mon May 19 17:31:05 2025
PySCF version 1.7.0
PySCF path  /share/installs/pyscf/pyscf
GIT HEAD      ref: refs/heads/ob-mp2
GIT ob-mp2 branch  f0fc63383ab6c719c0c91f5e07a6895c637b700d

[CONFIG] conf_file None
[INPUT] verbose = 4
[INPUT] num. atoms = 8
[INPUT] num. electrons = 36
[INPUT] charge = 0
[INPUT] spin (= nelec alpha-beta = 2S) = 0
[INPUT] symmetry False subgroup None
[INPUT] Mole.unit = A
[INPUT]  1 H      1.890023000000  -0.416897000000   0.000000000000 AA    3.571625839129  -0.787821152153   0.000000000000 Bohr
[INPUT]  2 He    -1.756309000000   0.169955000000   0.000000000000 AA   -3.318943000109   0.321168403500   0.000000000000 Bohr
[INPUT]  3 Li     0.069019000000  -1.333894000000   1.667737000000 AA    0.130427007391  -2.520694339201   3.151566177804 Bohr
[INPUT]  4 Be     0.069019000000  -1.333894000000  -1.667737000000 AA    0.130427007391  -2.520694339201  -3.151566177804 Bohr
[INPUT]  5 B      0.069019000000   1.223399000000  -1.555433000000 AA    0.130427007391   2.311889051067  -2.939342375111 Bohr
[INPUT]  6 C      0.069019000000   1.223399000000   1.555433000000 AA    0.130427007391   2.311889051067   2.939342375111 Bohr
[INPUT]  7 N     -1.401620000000  -2.602786000000   0.000000000000 AA   -2.648677930713  -4.918552700852   0.000000000000 Bohr
[INPUT]  8 O      0.991830000000   3.070718000000   0.000000000000 AA    1.874287062127   5.802816025772   0.000000000000 Bohr

nuclear repulsion = 85.8856477555446
number of shells = 20
number of NR pGTOs = 192
number of NR cGTOs = 32
basis = sto-6g
ecp = {}
CPU time:         1.39


******** <class 'pyscf.df.df_jk.density_fit.<locals>.DFHF'> ********
method = DFHF-UHF
initial guess = minao
damping factor = 0
level_shift factor = 0
DIIS = <class 'pyscf.scf.diis.CDIIS'>
diis_start_cycle = 1
diis_space = 8
SCF conv_tol = 1e-09
SCF conv_tol_grad = None
SCF max_cycles = 50
direct_scf = True
direct_scf_tol = 1e-13
chkfile to save SCF result = /home/ltkoanh/Al_B2LYP_6311_Gd_Cluster/Cluster/Al8-neutral-singlet-2/tmpyyainsfb
max_memory 4000 MB (current use 60 MB)
number electrons alpha = 18  beta = 18
Set gradient conv threshold to 3.16228e-05
******** <class 'pyscf.df.df.DF'> ********
auxbasis = None
max_memory = 4000
_cderi_to_save = /home/ltkoanh/Al_B2LYP_6311_Gd_Cluster/Cluster/Al8-neutral-singlet-2/tmpngawcqhd
Even tempered Gaussians are generated as DF auxbasis for  Li N He B O Be C H
init E= -213.975524937718
  alpha nocc = 18  HOMO = -0.207462671384944  LUMO = -0.176142869669197
  beta  nocc = 18  HOMO = -0.201756163316713  LUMO = -0.172771536213953
cycle= 1 E= -213.592226902397  delta_E= 0.383  |g|= 0.79  |ddm|= 2.15
  alpha nocc = 18  HOMO = -0.035169097823671  LUMO = -0.0273479059217072
  beta  nocc = 18  HOMO = -0.0355525746351793  LUMO = -0.025801947167662
cycle= 2 E= -202.975519704459  delta_E= 10.6  |g|= 1.72  |ddm|= 4.66
  alpha nocc = 18  HOMO = -0.0556868659131228  LUMO = -0.0132661870614009
  beta  nocc = 18  HOMO = -0.0567340019696325  LUMO = -0.0140448946162455
cycle= 3 E= -215.002991475952  delta_E=  -12  |g|= 0.496  |ddm|=  4.3
  alpha nocc = 18  HOMO = -0.14581844810011  LUMO = 0.0387316054784208
  beta  nocc = 18  HOMO = -0.149895373385015  LUMO = 0.0505284210449835
cycle= 4 E= -214.493965372854  delta_E= 0.509  |g|= 0.732  |ddm|= 1.01
  alpha nocc = 18  HOMO = -0.114936026663095  LUMO = 0.0368610912569284
  beta  nocc = 18  HOMO = -0.117695548828328  LUMO = 0.0494659492376102
cycle= 5 E= -214.420261049068  delta_E= 0.0737  |g|= 0.723  |ddm|= 0.13
  alpha nocc = 18  HOMO = -0.169513992006377  LUMO = 0.0155386415410808
  beta  nocc = 18  HOMO = -0.174606659865253  LUMO = 0.0310068511536416
cycle= 6 E= -215.072972829885  delta_E= -0.653  |g|= 0.522  |ddm|= 0.749
  alpha nocc = 18  HOMO = -0.164522314508281  LUMO = 0.0332606696801032
  beta  nocc = 18  HOMO = -0.170044929608416  LUMO = 0.0552434826755868
cycle= 7 E= -215.103286492225  delta_E= -0.0303  |g|= 0.524  |ddm|= 0.379
  alpha nocc = 18  HOMO = -0.163961673331186  LUMO = 0.0459163592080237
  beta  nocc = 18  HOMO = -0.167536359112392  LUMO = 0.0560296104707914
cycle= 8 E= -214.996384394304  delta_E= 0.107  |g|= 0.585  |ddm|= 0.447
  alpha nocc = 18  HOMO = -0.164044112457175  LUMO = 0.0461273069783636
  beta  nocc = 18  HOMO = -0.167579619920726  LUMO = 0.0561309452171906
cycle= 9 E= -214.997302036253  delta_E= -0.000918  |g|= 0.584  |ddm|= 0.00944
  alpha nocc = 18  HOMO = -0.156719057895811  LUMO = 0.0570011818004762
  beta  nocc = 18  HOMO = -0.163337266005338  LUMO = 0.0617243742828673
cycle= 10 E= -215.152814818853  delta_E= -0.156  |g|= 0.477  |ddm|= 0.333
  alpha nocc = 18  HOMO = -0.167339932514472  LUMO = 0.0600309311764686
  beta  nocc = 18  HOMO = -0.165615670880845  LUMO = 0.0609171895979714
cycle= 11 E= -215.464846738495  delta_E= -0.312  |g|= 0.126  |ddm|= 0.912
  alpha nocc = 18  HOMO = -0.146796933059521  LUMO = 0.0780220151986068
  beta  nocc = 18  HOMO = -0.169681761509045  LUMO = 0.0799040858115234
cycle= 12 E= -215.504938895297  delta_E= -0.0401  |g|= 0.0964  |ddm|= 0.331
  alpha nocc = 18  HOMO = -0.134713360126452  LUMO = 0.081810684173752
  beta  nocc = 18  HOMO = -0.169275543715954  LUMO = 0.0804922555601176
cycle= 13 E= -215.539581317912  delta_E= -0.0346  |g|= 0.0656  |ddm|= 0.407
  alpha nocc = 18  HOMO = -0.152429037241943  LUMO = 0.0946542489221073
  beta  nocc = 18  HOMO = -0.162048092319688  LUMO = 0.097527624391449
cycle= 14 E= -215.558741897731  delta_E= -0.0192  |g|= 0.0586  |ddm|= 0.27
  alpha nocc = 18  HOMO = -0.163958898261083  LUMO = 0.103854548784948
  beta  nocc = 18  HOMO = -0.162741125068138  LUMO = 0.10977073333281
cycle= 15 E= -215.573009720172  delta_E= -0.0143  |g|= 0.0557  |ddm|= 0.189
  alpha nocc = 18  HOMO = -0.159042914196774  LUMO = 0.105168482261172
  beta  nocc = 18  HOMO = -0.16146401808302  LUMO = 0.111539291652317
cycle= 16 E= -215.582766516057  delta_E= -0.00976  |g|= 0.0568  |ddm|= 0.143
  alpha nocc = 18  HOMO = -0.163308076477442  LUMO = 0.107937231606006
  beta  nocc = 18  HOMO = -0.160236578159816  LUMO = 0.115144572827599
cycle= 17 E= -215.589107999186  delta_E= -0.00634  |g|= 0.0572  |ddm|= 0.0906
  alpha nocc = 18  HOMO = -0.163970002881674  LUMO = 0.107521381873028
  beta  nocc = 18  HOMO = -0.161316678547298  LUMO = 0.114349780763299
cycle= 18 E= -215.586481908073  delta_E= 0.00263  |g|= 0.0561  |ddm|= 0.0464
  alpha nocc = 18  HOMO = -0.162004220908316  LUMO = 0.124301865712845
  beta  nocc = 18  HOMO = -0.170762611899385  LUMO = 0.118058980609467
cycle= 19 E= -215.594486678159  delta_E= -0.008  |g|= 0.0419  |ddm|= 0.354
  alpha nocc = 18  HOMO = -0.154205577663394  LUMO = 0.119947232295953
  beta  nocc = 18  HOMO = -0.168568014866594  LUMO = 0.120763254049894
cycle= 20 E= -215.602006309057  delta_E= -0.00752  |g|= 0.0444  |ddm|= 0.173
  alpha nocc = 18  HOMO = -0.153891110383697  LUMO = 0.114798781410851
  beta  nocc = 18  HOMO = -0.164483980678248  LUMO = 0.116599206426073
cycle= 21 E= -215.591842578247  delta_E= 0.0102  |g|= 0.0429  |ddm|= 0.202
  alpha nocc = 18  HOMO = -0.172626839420195  LUMO = 0.121645480229317
  beta  nocc = 18  HOMO = -0.16951768510302  LUMO = 0.115123232646957
cycle= 22 E= -215.584877172247  delta_E= 0.00697  |g|= 0.0339  |ddm|= 0.238
  alpha nocc = 18  HOMO = -0.156016813775261  LUMO = 0.104457530719694
  beta  nocc = 18  HOMO = -0.160927543259357  LUMO = 0.101956879695103
cycle= 23 E= -215.578771372248  delta_E= 0.00611  |g|= 0.0281  |ddm|= 0.231
  alpha nocc = 18  HOMO = -0.166716892851058  LUMO = 0.106228134198516
  beta  nocc = 18  HOMO = -0.164912460593545  LUMO = 0.103205806997007
cycle= 24 E= -215.579569307233  delta_E= -0.000798  |g|= 0.0231  |ddm|= 0.114
  alpha nocc = 18  HOMO = -0.169357723536388  LUMO = 0.10838106150976
  beta  nocc = 18  HOMO = -0.166869152644058  LUMO = 0.104955843693771
cycle= 25 E= -215.580583870257  delta_E= -0.00101  |g|= 0.0221  |ddm|= 0.0637
  alpha nocc = 18  HOMO = -0.169333414350663  LUMO = 0.108807961497171
  beta  nocc = 18  HOMO = -0.168241334444545  LUMO = 0.105055989489169
cycle= 26 E= -215.57992910531  delta_E= 0.000655  |g|= 0.0211  |ddm|= 0.0415
  alpha nocc = 18  HOMO = -0.169742702478857  LUMO = 0.115073855606332
  beta  nocc = 18  HOMO = -0.173089061919798  LUMO = 0.108197796052902
cycle= 27 E= -215.579517877293  delta_E= 0.000411  |g|= 0.0197  |ddm|= 0.154
  alpha nocc = 18  HOMO = -0.168910105900715  LUMO = 0.113933463064369
  beta  nocc = 18  HOMO = -0.174415859890303  LUMO = 0.108184196200712
cycle= 28 E= -215.58010402368  delta_E= -0.000586  |g|= 0.0204  |ddm|= 0.0235
  alpha nocc = 18  HOMO = -0.170949174270717  LUMO = 0.114060704315964
  beta  nocc = 18  HOMO = -0.172308845467134  LUMO = 0.107581315209192
cycle= 29 E= -215.577319615417  delta_E= 0.00278  |g|= 0.0162  |ddm|= 0.128
  alpha nocc = 18  HOMO = -0.167481807432448  LUMO = 0.112273391882985
  beta  nocc = 18  HOMO = -0.167799005426126  LUMO = 0.104975510743834
cycle= 30 E= -215.576512057571  delta_E= 0.000808  |g|= 0.0136  |ddm|= 0.0957
  alpha nocc = 18  HOMO = -0.16983415390612  LUMO = 0.11111968083107
  beta  nocc = 18  HOMO = -0.16818186289535  LUMO = 0.105719877860192
cycle= 31 E= -215.577513146052  delta_E= -0.001  |g|= 0.0135  |ddm|= 0.0657
  alpha nocc = 18  HOMO = -0.169957834307489  LUMO = 0.111189450042648
  beta  nocc = 18  HOMO = -0.168515935321119  LUMO = 0.105950675489519
cycle= 32 E= -215.577574937276  delta_E= -6.18e-05  |g|= 0.0135  |ddm|= 0.00816
  alpha nocc = 18  HOMO = -0.169521964150109  LUMO = 0.111413541701251
  beta  nocc = 18  HOMO = -0.168150915788783  LUMO = 0.105579530913264
cycle= 33 E= -215.577204132664  delta_E= 0.000371  |g|= 0.0133  |ddm|= 0.0271
  alpha nocc = 18  HOMO = -0.169302634748617  LUMO = 0.111769268268319
  beta  nocc = 18  HOMO = -0.167310669088362  LUMO = 0.105136781135127
cycle= 34 E= -215.577014668575  delta_E= 0.000189  |g|= 0.0132  |ddm|= 0.0226
  alpha nocc = 18  HOMO = -0.169261482380936  LUMO = 0.111763728052343
  beta  nocc = 18  HOMO = -0.1673882798777  LUMO = 0.105118958013273
cycle= 35 E= -215.576992161705  delta_E= 2.25e-05  |g|= 0.0133  |ddm|= 0.00328
  alpha nocc = 18  HOMO = -0.169651280322277  LUMO = 0.111889639298214
  beta  nocc = 18  HOMO = -0.16725714089986  LUMO = 0.105246204120572
cycle= 36 E= -215.577116262356  delta_E= -0.000124  |g|= 0.0132  |ddm|= 0.0125
  alpha nocc = 18  HOMO = -0.169569445641458  LUMO = 0.111921696528405
  beta  nocc = 18  HOMO = -0.167239206067538  LUMO = 0.105348530874441
cycle= 37 E= -215.577167377504  delta_E= -5.11e-05  |g|= 0.0133  |ddm|= 0.00548
  alpha nocc = 18  HOMO = -0.168217194341546  LUMO = 0.112020462544972
  beta  nocc = 18  HOMO = -0.167440211157417  LUMO = 0.104223241412916
cycle= 38 E= -215.576438424239  delta_E= 0.000729  |g|= 0.0125  |ddm|= 0.0496
  alpha nocc = 18  HOMO = -0.168125576379104  LUMO = 0.112155852226861
  beta  nocc = 18  HOMO = -0.167486152280541  LUMO = 0.102882450198606
cycle= 39 E= -215.575557410319  delta_E= 0.000881  |g|= 0.0115  |ddm|= 0.0665
  alpha nocc = 18  HOMO = -0.166776067345855  LUMO = 0.111430240349595
  beta  nocc = 18  HOMO = -0.165224925765197  LUMO = 0.102065443073872
cycle= 40 E= -215.574763013418  delta_E= 0.000794  |g|= 0.00994  |ddm|= 0.114
  alpha nocc = 18  HOMO = -0.168764241039518  LUMO = 0.110790292864875
  beta  nocc = 18  HOMO = -0.16524836830327  LUMO = 0.103828569680807
cycle= 41 E= -215.575464268813  delta_E= -0.000701  |g|= 0.0101  |ddm|= 0.0625
  alpha nocc = 18  HOMO = -0.168191852394527  LUMO = 0.110925053319199
  beta  nocc = 18  HOMO = -0.165047716021229  LUMO = 0.102658137083365
cycle= 42 E= -215.575045843326  delta_E= 0.000418  |g|= 0.00995  |ddm|= 0.0375
  alpha nocc = 18  HOMO = -0.168021764887448  LUMO = 0.110861280701782
  beta  nocc = 18  HOMO = -0.165232194812689  LUMO = 0.102871080711515
cycle= 43 E= -215.57508847503  delta_E= -4.26e-05  |g|= 0.0101  |ddm|= 0.0122
  alpha nocc = 18  HOMO = -0.16821319903415  LUMO = 0.110899500302836
  beta  nocc = 18  HOMO = -0.164802547842534  LUMO = 0.102286413991155
cycle= 44 E= -215.574961710363  delta_E= 0.000127  |g|= 0.00968  |ddm|= 0.0349
  alpha nocc = 18  HOMO = -0.167739455683051  LUMO = 0.111257256470614
  beta  nocc = 18  HOMO = -0.164069259037127  LUMO = 0.101987410815879
cycle= 45 E= -215.574680328392  delta_E= 0.000281  |g|= 0.00951  |ddm|= 0.0422
  alpha nocc = 18  HOMO = -0.167770012470692  LUMO = 0.111245203625819
  beta  nocc = 18  HOMO = -0.164086307807737  LUMO = 0.101997870533497
cycle= 46 E= -215.574685229193  delta_E= -4.9e-06  |g|= 0.00953  |ddm|= 0.00155
  alpha nocc = 18  HOMO = -0.167976209533478  LUMO = 0.111363409772064
  beta  nocc = 18  HOMO = -0.163609074867515  LUMO = 0.101875078668463
cycle= 47 E= -215.574605172012  delta_E= 8.01e-05  |g|= 0.00896  |ddm|= 0.0296
  alpha nocc = 18  HOMO = -0.168507876185497  LUMO = 0.111451120625601
  beta  nocc = 18  HOMO = -0.163125789025431  LUMO = 0.1023950528282
cycle= 48 E= -215.574705094253  delta_E= -9.99e-05  |g|= 0.00881  |ddm|= 0.0319
  alpha nocc = 18  HOMO = -0.168512500049566  LUMO = 0.111432637459572
  beta  nocc = 18  HOMO = -0.163174510521414  LUMO = 0.102496795433516
cycle= 49 E= -215.57475428377  delta_E= -4.92e-05  |g|= 0.00887  |ddm|= 0.0109
  alpha nocc = 18  HOMO = -0.169588880369047  LUMO = 0.110944407118882
  beta  nocc = 18  HOMO = -0.163174341465413  LUMO = 0.103500885146494
cycle= 50 E= -215.575123911826  delta_E= -0.00037  |g|= 0.00903  |ddm|= 0.0414
SCF not converged.
SCF energy = -215.575123911826 after 50 cycles  <S^2> = 1.0218374  2S+1 = 2.2555154
shift = 0
thresh = 1e-05 
eri1 (528, 528)
eri1 (528, 528)
    CPU time for making amplitude: integral transform      0.04 sec, wall time      0.00 sec
shape (528, 448)
1st memory: 107.1 MiB
eri1 (528, 528)
eri1 (528, 528)
2nd memory: 107.9 MiB

========================
iter = 0  energy = -215.737805 energy diff = 215.737805
multiplicity <S^2> : Reference = 1.0218374 Response = 1.0213328 Projector = 1.0208282
eri1 (528, 528)
eri1 (528, 528)
    CPU time for making amplitude: integral transform      0.04 sec, wall time      0.00 sec
shape (528, 448)
1st memory: 109.4 MiB
eri1 (528, 528)
eri1 (528, 528)
2nd memory: 109.6 MiB

========================
iter = 1  energy = -215.748105 energy diff = 0.010300
multiplicity <S^2> : Reference = 1.0180145 Response = 1.0189107 Projector = 1.0198069
eri1 (528, 528)
eri1 (528, 528)
    CPU time for making amplitude: integral transform      0.03 sec, wall time      0.00 sec
shape (528, 448)
1st memory: 109.6 MiB
eri1 (528, 528)
eri1 (528, 528)
2nd memory: 109.6 MiB

========================
iter = 2  energy = -215.751775 energy diff = 0.003670
multiplicity <S^2> : Reference = 1.0157604 Response = 1.0152899 Projector = 1.0148194
eri1 (528, 528)
eri1 (528, 528)
    CPU time for making amplitude: integral transform      0.04 sec, wall time      0.00 sec
shape (528, 448)
1st memory: 109.6 MiB
eri1 (528, 528)
eri1 (528, 528)
2nd memory: 109.6 MiB

========================
iter = 3  energy = -215.758061 energy diff = 0.006286
multiplicity <S^2> : Reference = 1.0157155 Response = 1.0159748 Projector = 1.016234
eri1 (528, 528)
eri1 (528, 528)
    CPU time for making amplitude: integral transform      0.04 sec, wall time      0.00 sec
shape (528, 448)
1st memory: 109.6 MiB
eri1 (528, 528)
eri1 (528, 528)
2nd memory: 110.1 MiB

========================
iter = 4  energy = -215.760641 energy diff = 0.002580
multiplicity <S^2> : Reference = 1.0172154 Response = 1.0188916 Projector = 1.0205678
eri1 (528, 528)
eri1 (528, 528)
    CPU time for making amplitude: integral transform      0.04 sec, wall time      0.00 sec
shape (528, 448)
1st memory: 110.4 MiB
eri1 (528, 528)
eri1 (528, 528)
2nd memory: 110.4 MiB

========================
iter = 5  energy = -215.766402 energy diff = 0.005761
multiplicity <S^2> : Reference = 1.0281429 Response = 1.0287598 Projector = 1.0293766
eri1 (528, 528)
eri1 (528, 528)
    CPU time for making amplitude: integral transform      0.04 sec, wall time      0.00 sec
shape (528, 448)
1st memory: 112.1 MiB
eri1 (528, 528)
eri1 (528, 528)
2nd memory: 112.1 MiB

========================
iter = 6  energy = -215.772403 energy diff = 0.006001
multiplicity <S^2> : Reference = 1.0489442 Response = 1.0496505 Projector = 1.0503568
eri1 (528, 528)
eri1 (528, 528)
    CPU time for making amplitude: integral transform      0.03 sec, wall time      0.00 sec
shape (528, 448)
1st memory: 112.4 MiB
eri1 (528, 528)
eri1 (528, 528)
2nd memory: 112.9 MiB

========================
iter = 7  energy = -215.775131 energy diff = 0.002728
multiplicity <S^2> : Reference = 1.0635948 Response = 1.0633383 Projector = 1.0630817
