#INFO: **** input file is /home/ltkoanh/Al_B2LYP_6311_Gd_Cluster/Cluster/Al8-neutral-singlet-2/input.py ****
import numpy
from pyscf import gto, scf, dft, mp, cc
from pyscf.mp import uobmp2_mom_conv, dfuobmp2_mom_conv, uhf_mom
from pyscf.mp import  mp2, ump2
from pyscf.tools import molden
import os
from functools import reduce


mol = gto.Mole()
geom = os.environ.get('geom_txt')
mol.atom = geom
mol.basis = os.environ.get('basis', 'cc-pvdz')
mol.unit = 'A'
mol.charge = int(os.environ.get('charge', 0))
mol.spin = int(os.environ.get('spin', 0))
mol.verbose = 4
mol.build()

#################### Ground state using density fitting
### Hartree-Fock
a  = scf.UHF(mol).density_fit()
a.kernel()

### Ground state OBMP2 calculation
ob = dfuobmp2_mom_conv.DFUOBMP2(a)
ob.second_order = True
ob.thresh = 10e-6
ob.css = 1
ob.cos = 1
e_obmp2g = ob.kernel()

### Ground state O2BMP2 calculation
ob = dfuobmp2_mom_conv.DFUOBMP2(a)
ob.second_order = True
ob.thresh = 10e-6
ob.css = 0                             
ob.cos = 1.2                             
e_o2bmp2g = ob.kernel()  

#################### Ground state NOT using density fitting
### Hartree-Fock
a  = scf.UHF(mol)
a.kernel()

### Ground state OBMP2 calculation
ob = uobmp2_mom_conv.UOBMP2(a)
ob.second_order = True
ob.thresh = 10e-6
ob.css = 1
ob.cos = 1
#e_obmp2g = ob.kernel()

### Ground state O2BMP2 calculation
ob = uobmp2_mom_conv.UOBMP2(a)
ob.second_order = True
ob.thresh = 10e-6
ob.css = 0
ob.cos = 1.2   ## the cos can be vary ...                        	 
#e_o2bmp2g = ob.kernel()


## Results from density-fitting approximate with non-using density fitting 
## check results between df and non-df with small molecules before running the important molecules
#INFO: ******************** input file end ********************


System: uname_result(system='Linux', node='comphys', release='3.10.0-1160.119.1.el7.x86_64', version='#1 SMP Tue Jun 4 14:43:51 UTC 2024', machine='x86_64', processor='x86_64')  Threads 8
Python 3.7.9 (default, Dec  4 2023, 13:00:18) 
[GCC 4.8.5 20150623 (Red Hat 4.8.5-44)]
numpy 1.21.6  scipy 1.7.3
Date: Sun May 25 19:10:12 2025
PySCF version 1.7.0
PySCF path  /share/installs/pyscf/pyscf
GIT HEAD      ref: refs/heads/ob-mp2
GIT ob-mp2 branch  f0fc63383ab6c719c0c91f5e07a6895c637b700d

[CONFIG] conf_file None
[INPUT] verbose = 4
[INPUT] num. atoms = 8
[INPUT] num. electrons = 36
[INPUT] charge = 0
[INPUT] spin (= nelec alpha-beta = 2S) = 0
[INPUT] symmetry False subgroup None
[INPUT] Mole.unit = A
[INPUT]  1 H      1.890023000000  -0.416897000000   0.000000000000 AA    3.571625839129  -0.787821152153   0.000000000000 Bohr
[INPUT]  2 He    -1.756309000000   0.169955000000   0.000000000000 AA   -3.318943000109   0.321168403500   0.000000000000 Bohr
[INPUT]  3 Li     0.069019000000  -1.333894000000   1.667737000000 AA    0.130427007391  -2.520694339201   3.151566177804 Bohr
[INPUT]  4 Be     0.069019000000  -1.333894000000  -1.667737000000 AA    0.130427007391  -2.520694339201  -3.151566177804 Bohr
[INPUT]  5 B      0.069019000000   1.223399000000  -1.555433000000 AA    0.130427007391   2.311889051067  -2.939342375111 Bohr
[INPUT]  6 C      0.069019000000   1.223399000000   1.555433000000 AA    0.130427007391   2.311889051067   2.939342375111 Bohr
[INPUT]  7 N     -1.401620000000  -2.602786000000   0.000000000000 AA   -2.648677930713  -4.918552700852   0.000000000000 Bohr
[INPUT]  8 O      0.991830000000   3.070718000000   0.000000000000 AA    1.874287062127   5.802816025772   0.000000000000 Bohr

nuclear repulsion = 85.8856477555446
number of shells = 20
number of NR pGTOs = 192
number of NR cGTOs = 32
basis = sto-6g
ecp = {}
CPU time:         1.38


******** <class 'pyscf.df.df_jk.density_fit.<locals>.DFHF'> ********
method = DFHF-UHF
initial guess = minao
damping factor = 0
level_shift factor = 0
DIIS = <class 'pyscf.scf.diis.CDIIS'>
diis_start_cycle = 1
diis_space = 8
SCF conv_tol = 1e-09
SCF conv_tol_grad = None
SCF max_cycles = 50
direct_scf = True
direct_scf_tol = 1e-13
chkfile to save SCF result = /home/ltkoanh/Al_B2LYP_6311_Gd_Cluster/Cluster/Al8-neutral-singlet-2/tmp_hnm3gau
max_memory 4000 MB (current use 60 MB)
number electrons alpha = 18  beta = 18
Set gradient conv threshold to 3.16228e-05
******** <class 'pyscf.df.df.DF'> ********
auxbasis = None
max_memory = 4000
_cderi_to_save = /home/ltkoanh/Al_B2LYP_6311_Gd_Cluster/Cluster/Al8-neutral-singlet-2/tmpevxwhrni
Even tempered Gaussians are generated as DF auxbasis for  He Be N O B H Li C
init E= -213.975524937718
  alpha nocc = 18  HOMO = -0.207462671384944  LUMO = -0.176142869669197
  beta  nocc = 18  HOMO = -0.201756163316713  LUMO = -0.172771536213953
cycle= 1 E= -213.592226902397  delta_E= 0.383  |g|= 0.79  |ddm|= 2.15
  alpha nocc = 18  HOMO = -0.0351690978236713  LUMO = -0.0273479059217083
  beta  nocc = 18  HOMO = -0.0355525746351791  LUMO = -0.0258019471676615
cycle= 2 E= -202.975519704459  delta_E= 10.6  |g|= 1.72  |ddm|= 4.66
  alpha nocc = 18  HOMO = -0.0556868659131248  LUMO = -0.0132661870613996
  beta  nocc = 18  HOMO = -0.0567340019696349  LUMO = -0.0140448946162445
cycle= 3 E= -215.002991475952  delta_E=  -12  |g|= 0.496  |ddm|=  4.3
  alpha nocc = 18  HOMO = -0.145818448100125  LUMO = 0.0387316054784213
  beta  nocc = 18  HOMO = -0.149895373385032  LUMO = 0.0505284210449841
cycle= 4 E= -214.493965372854  delta_E= 0.509  |g|= 0.732  |ddm|= 1.01
  alpha nocc = 18  HOMO = -0.1149360266631  LUMO = 0.0368610912569282
  beta  nocc = 18  HOMO = -0.117695548828331  LUMO = 0.0494659492376102
cycle= 5 E= -214.420261049068  delta_E= 0.0737  |g|= 0.723  |ddm|= 0.13
  alpha nocc = 18  HOMO = -0.169513992006411  LUMO = 0.0155386415410417
  beta  nocc = 18  HOMO = -0.174606659865295  LUMO = 0.031006851153619
cycle= 6 E= -215.072972829885  delta_E= -0.653  |g|= 0.522  |ddm|= 0.749
  alpha nocc = 18  HOMO = -0.1645223145083  LUMO = 0.0332606696800992
  beta  nocc = 18  HOMO = -0.170044929608459  LUMO = 0.0552434826755785
cycle= 7 E= -215.103286492226  delta_E= -0.0303  |g|= 0.524  |ddm|= 0.379
  alpha nocc = 18  HOMO = -0.163961673331213  LUMO = 0.045916359207978
  beta  nocc = 18  HOMO = -0.167536359112445  LUMO = 0.0560296104707665
cycle= 8 E= -214.996384394304  delta_E= 0.107  |g|= 0.585  |ddm|= 0.447
  alpha nocc = 18  HOMO = -0.164044112457211  LUMO = 0.046127306978337
  beta  nocc = 18  HOMO = -0.167579619920785  LUMO = 0.0561309452171742
cycle= 9 E= -214.997302036254  delta_E= -0.000918  |g|= 0.584  |ddm|= 0.00944
  alpha nocc = 18  HOMO = -0.156719057895899  LUMO = 0.0570011818011599
  beta  nocc = 18  HOMO = -0.163337266005816  LUMO = 0.0617243742830244
cycle= 10 E= -215.152814818866  delta_E= -0.156  |g|= 0.477  |ddm|= 0.333
  alpha nocc = 18  HOMO = -0.167339932513153  LUMO = 0.0600309311772564
  beta  nocc = 18  HOMO = -0.165615670879546  LUMO = 0.060917189598927
cycle= 11 E= -215.464846738495  delta_E= -0.312  |g|= 0.126  |ddm|= 0.912
  alpha nocc = 18  HOMO = -0.146796933059722  LUMO = 0.0780220151984159
  beta  nocc = 18  HOMO = -0.169681761509412  LUMO = 0.0799040858118629
cycle= 12 E= -215.504938895298  delta_E= -0.0401  |g|= 0.0964  |ddm|= 0.331
  alpha nocc = 18  HOMO = -0.134713360125228  LUMO = 0.0818106841749935
  beta  nocc = 18  HOMO = -0.169275543716149  LUMO = 0.0804922555612818
cycle= 13 E= -215.539581317914  delta_E= -0.0346  |g|= 0.0656  |ddm|= 0.407
  alpha nocc = 18  HOMO = -0.152429037242477  LUMO = 0.0946542489228249
  beta  nocc = 18  HOMO = -0.162048092320139  LUMO = 0.0975276243925208
cycle= 14 E= -215.558741897732  delta_E= -0.0192  |g|= 0.0586  |ddm|= 0.27
  alpha nocc = 18  HOMO = -0.16395889826181  LUMO = 0.103854548787131
  beta  nocc = 18  HOMO = -0.162741125068832  LUMO = 0.109770733335196
cycle= 15 E= -215.573009720175  delta_E= -0.0143  |g|= 0.0557  |ddm|= 0.189
  alpha nocc = 18  HOMO = -0.159042914198057  LUMO = 0.105168482263116
  beta  nocc = 18  HOMO = -0.16146401808336  LUMO = 0.111539291655206
cycle= 16 E= -215.582766516062  delta_E= -0.00976  |g|= 0.0568  |ddm|= 0.143
  alpha nocc = 18  HOMO = -0.163308076480008  LUMO = 0.107937231609347
  beta  nocc = 18  HOMO = -0.160236578160058  LUMO = 0.115144572831915
cycle= 17 E= -215.589107999193  delta_E= -0.00634  |g|= 0.0572  |ddm|= 0.0906
  alpha nocc = 18  HOMO = -0.163970002880423  LUMO = 0.107521381876614
  beta  nocc = 18  HOMO = -0.161316678547711  LUMO = 0.114349780768666
cycle= 18 E= -215.586481908084  delta_E= 0.00263  |g|= 0.0561  |ddm|= 0.0464
  alpha nocc = 18  HOMO = -0.162004220928636  LUMO = 0.124301865726289
  beta  nocc = 18  HOMO = -0.170762611888464  LUMO = 0.118058980621729
cycle= 19 E= -215.594486678172  delta_E= -0.008  |g|= 0.0419  |ddm|= 0.354
  alpha nocc = 18  HOMO = -0.154205577653301  LUMO = 0.119947232296366
  beta  nocc = 18  HOMO = -0.168568014865474  LUMO = 0.120763254057594
cycle= 20 E= -215.602006309073  delta_E= -0.00752  |g|= 0.0444  |ddm|= 0.173
  alpha nocc = 18  HOMO = -0.15389111036213  LUMO = 0.114798781413727
  beta  nocc = 18  HOMO = -0.164483980679896  LUMO = 0.116599206441552
cycle= 21 E= -215.591842578274  delta_E= 0.0102  |g|= 0.0429  |ddm|= 0.202
  alpha nocc = 18  HOMO = -0.172626839373888  LUMO = 0.121645480231485
  beta  nocc = 18  HOMO = -0.169517685077965  LUMO = 0.115123232672054
cycle= 22 E= -215.58487717231  delta_E= 0.00697  |g|= 0.0339  |ddm|= 0.238
  alpha nocc = 18  HOMO = -0.156016813650412  LUMO = 0.104457530683698
  beta  nocc = 18  HOMO = -0.16092754325067  LUMO = 0.10195687969646
cycle= 23 E= -215.578771372243  delta_E= 0.00611  |g|= 0.0281  |ddm|= 0.231
  alpha nocc = 18  HOMO = -0.166716892752958  LUMO = 0.106228134149793
  beta  nocc = 18  HOMO = -0.164912460574105  LUMO = 0.103205806987359
cycle= 24 E= -215.579569307246  delta_E= -0.000798  |g|= 0.0231  |ddm|= 0.114
  alpha nocc = 18  HOMO = -0.169357723532032  LUMO = 0.108381061473109
  beta  nocc = 18  HOMO = -0.166869152627122  LUMO = 0.104955843681787
cycle= 25 E= -215.58058387027  delta_E= -0.00101  |g|= 0.0221  |ddm|= 0.0637
  alpha nocc = 18  HOMO = -0.169333414346827  LUMO = 0.108807961462477
  beta  nocc = 18  HOMO = -0.168241334435696  LUMO = 0.105055989482023
cycle= 26 E= -215.57992910533  delta_E= 0.000655  |g|= 0.0211  |ddm|= 0.0415
  alpha nocc = 18  HOMO = -0.169742702445644  LUMO = 0.115073855618433
  beta  nocc = 18  HOMO = -0.173089061911539  LUMO = 0.10819779608884
cycle= 27 E= -215.579517877311  delta_E= 0.000411  |g|= 0.0197  |ddm|= 0.154
  alpha nocc = 18  HOMO = -0.168910105859372  LUMO = 0.113933463010873
  beta  nocc = 18  HOMO = -0.1744158598912  LUMO = 0.108184196192771
cycle= 28 E= -215.580104023706  delta_E= -0.000586  |g|= 0.0204  |ddm|= 0.0235
  alpha nocc = 18  HOMO = -0.170949174192682  LUMO = 0.114060704284716
  beta  nocc = 18  HOMO = -0.172308845450507  LUMO = 0.107581315149595
cycle= 29 E= -215.577319615404  delta_E= 0.00278  |g|= 0.0162  |ddm|= 0.128
  alpha nocc = 18  HOMO = -0.167481807213207  LUMO = 0.112273391864446
  beta  nocc = 18  HOMO = -0.167799005381777  LUMO = 0.104975510619139
cycle= 30 E= -215.576512057507  delta_E= 0.000808  |g|= 0.0136  |ddm|= 0.0957
  alpha nocc = 18  HOMO = -0.169834153745013  LUMO = 0.111119680763049
  beta  nocc = 18  HOMO = -0.168181862929723  LUMO = 0.105719877705372
cycle= 31 E= -215.577513145984  delta_E= -0.001  |g|= 0.0135  |ddm|= 0.0657
  alpha nocc = 18  HOMO = -0.169957834227734  LUMO = 0.111189450005138
  beta  nocc = 18  HOMO = -0.168515935352729  LUMO = 0.105950675430226
cycle= 32 E= -215.577574937292  delta_E= -6.18e-05  |g|= 0.0135  |ddm|= 0.00816
  alpha nocc = 18  HOMO = -0.169521963315463  LUMO = 0.111413541789649
  beta  nocc = 18  HOMO = -0.168150915599128  LUMO = 0.105579530426467
cycle= 33 E= -215.577204132184  delta_E= 0.000371  |g|= 0.0133  |ddm|= 0.0271
  alpha nocc = 18  HOMO = -0.169302633280734  LUMO = 0.111769268601998
  beta  nocc = 18  HOMO = -0.167310667620182  LUMO = 0.105136780019363
cycle= 34 E= -215.577014667713  delta_E= 0.000189  |g|= 0.0132  |ddm|= 0.0226
  alpha nocc = 18  HOMO = -0.169261480600665  LUMO = 0.111763728263848
  beta  nocc = 18  HOMO = -0.167388278844728  LUMO = 0.105118956526179
cycle= 35 E= -215.576992160678  delta_E= 2.25e-05  |g|= 0.0133  |ddm|= 0.00328
  alpha nocc = 18  HOMO = -0.169651278168334  LUMO = 0.111889640561919
  beta  nocc = 18  HOMO = -0.167257138034867  LUMO = 0.105246199781063
cycle= 36 E= -215.577116260002  delta_E= -0.000124  |g|= 0.0132  |ddm|= 0.0125
  alpha nocc = 18  HOMO = -0.169569482473099  LUMO = 0.111921700736222
  beta  nocc = 18  HOMO = -0.167239195742757  LUMO = 0.105348540623017
cycle= 37 E= -215.577167387157  delta_E= -5.11e-05  |g|= 0.0133  |ddm|= 0.00548
  alpha nocc = 18  HOMO = -0.168217144107614  LUMO = 0.112020490015626
  beta  nocc = 18  HOMO = -0.167440241497879  LUMO = 0.104223203531754
cycle= 38 E= -215.576438389023  delta_E= 0.000729  |g|= 0.0125  |ddm|= 0.0496
  alpha nocc = 18  HOMO = -0.168125514024667  LUMO = 0.11215584538218
  beta  nocc = 18  HOMO = -0.167486251688423  LUMO = 0.102882451882383
cycle= 39 E= -215.575557415456  delta_E= 0.000881  |g|= 0.0115  |ddm|= 0.0665
  alpha nocc = 18  HOMO = -0.166776189182066  LUMO = 0.11143013047127
  beta  nocc = 18  HOMO = -0.165225284650213  LUMO = 0.102065637212472
cycle= 40 E= -215.574763144665  delta_E= 0.000794  |g|= 0.00994  |ddm|= 0.114
  alpha nocc = 18  HOMO = -0.168764125262497  LUMO = 0.110790277659932
  beta  nocc = 18  HOMO = -0.165248875403126  LUMO = 0.103828718934205
cycle= 41 E= -215.575464382875  delta_E= -0.000701  |g|= 0.0101  |ddm|= 0.0624
  alpha nocc = 18  HOMO = -0.168191531369059  LUMO = 0.110925102058121
  beta  nocc = 18  HOMO = -0.165048082339624  LUMO = 0.102657872765104
cycle= 42 E= -215.575045782779  delta_E= 0.000419  |g|= 0.00995  |ddm|= 0.0376
  alpha nocc = 18  HOMO = -0.168021281363143  LUMO = 0.110861405618887
  beta  nocc = 18  HOMO = -0.16523237875049  LUMO = 0.102870645272372
cycle= 43 E= -215.575088342234  delta_E= -4.26e-05  |g|= 0.0101  |ddm|= 0.0122
  alpha nocc = 18  HOMO = -0.168212784433594  LUMO = 0.110899739807925
  beta  nocc = 18  HOMO = -0.164802465925352  LUMO = 0.102285892180948
cycle= 44 E= -215.574961585998  delta_E= 0.000127  |g|= 0.00968  |ddm|= 0.0349
  alpha nocc = 18  HOMO = -0.167739689913023  LUMO = 0.111257083578189
  beta  nocc = 18  HOMO = -0.164069691118677  LUMO = 0.101987340916229
cycle= 45 E= -215.574680469779  delta_E= 0.000281  |g|= 0.00951  |ddm|= 0.0422
  alpha nocc = 18  HOMO = -0.167770826010505  LUMO = 0.111245079568378
  beta  nocc = 18  HOMO = -0.164087091779106  LUMO = 0.101997859881123
cycle= 46 E= -215.574685456088  delta_E= -4.99e-06  |g|= 0.00953  |ddm|= 0.00156
  alpha nocc = 18  HOMO = -0.167978944536131  LUMO = 0.111362158336397
  beta  nocc = 18  HOMO = -0.163610719356378  LUMO = 0.101878646918086
cycle= 47 E= -215.574606287055  delta_E= 7.92e-05  |g|= 0.00896  |ddm|= 0.0296
  alpha nocc = 18  HOMO = -0.168503809987661  LUMO = 0.111450287531719
  beta  nocc = 18  HOMO = -0.163128262953594  LUMO = 0.10239905832782
cycle= 48 E= -215.574706790963  delta_E= -0.000101  |g|= 0.00882  |ddm|= 0.0318
  alpha nocc = 18  HOMO = -0.168510677075108  LUMO = 0.111432056059381
  beta  nocc = 18  HOMO = -0.163177526125165  LUMO = 0.102499228623481
cycle= 49 E= -215.57475525444  delta_E= -4.85e-05  |g|= 0.00887  |ddm|= 0.0107
  alpha nocc = 18  HOMO = -0.169599304547083  LUMO = 0.110942440778155
  beta  nocc = 18  HOMO = -0.163176679220227  LUMO = 0.103510231379732
cycle= 50 E= -215.57512716789  delta_E= -0.000372  |g|= 0.00903  |ddm|= 0.0417
SCF not converged.
SCF energy = -215.57512716789 after 50 cycles  <S^2> = 1.0218198  2S+1 = 2.2554998
shift = 0
thresh = 1e-05 
eri1 (528, 528)
eri1 (528, 528)
    CPU time for making amplitude: integral transform      0.04 sec, wall time      0.00 sec
shape (528, 448)
1st memory: 121.0 MiB
eri1 (528, 528)
eri1 (528, 528)
2nd memory: 121.1 MiB

========================
iter = 0  energy = -215.737806 energy diff = 215.737806
multiplicity <S^2> : Reference = 1.0218198 Response = 1.0230591 Projector = 1.0242984
eri1 (528, 528)
eri1 (528, 528)
    CPU time for making amplitude: integral transform      0.05 sec, wall time      0.00 sec
shape (528, 448)
1st memory: 121.0 MiB
eri1 (528, 528)
eri1 (528, 528)
2nd memory: 121.2 MiB

========================
iter = 1  energy = -215.748105 energy diff = 0.010299
multiplicity <S^2> : Reference = 1.0180022 Response = 1.0188983 Projector = 1.0197944
eri1 (528, 528)
eri1 (528, 528)
    CPU time for making amplitude: integral transform      0.04 sec, wall time      0.00 sec
shape (528, 448)
1st memory: 121.0 MiB
eri1 (528, 528)
eri1 (528, 528)
2nd memory: 121.0 MiB

========================
iter = 2  energy = -215.751775 energy diff = 0.003670
multiplicity <S^2> : Reference = 1.0157583 Response = 1.0152846 Projector = 1.0148109
eri1 (528, 528)
eri1 (528, 528)
    CPU time for making amplitude: integral transform      0.04 sec, wall time      0.00 sec
shape (528, 448)
1st memory: 123.5 MiB
eri1 (528, 528)
eri1 (528, 528)
2nd memory: 123.5 MiB

========================
iter = 3  energy = -215.758062 energy diff = 0.006286
multiplicity <S^2> : Reference = 1.0157389 Response = 1.0161411 Projector = 1.0165433
eri1 (528, 528)
eri1 (528, 528)
    CPU time for making amplitude: integral transform      0.04 sec, wall time      0.00 sec
shape (528, 448)
1st memory: 123.6 MiB
eri1 (528, 528)
eri1 (528, 528)
2nd memory: 123.7 MiB

========================
iter = 4  energy = -215.760659 energy diff = 0.002598
multiplicity <S^2> : Reference = 1.0172703 Response = 1.0189461 Projector = 1.0206219
eri1 (528, 528)
eri1 (528, 528)
    CPU time for making amplitude: integral transform      0.04 sec, wall time      0.00 sec
shape (528, 448)
1st memory: 124.0 MiB
eri1 (528, 528)
eri1 (528, 528)
2nd memory: 119.4 MiB

========================
iter = 5  energy = -215.766323 energy diff = 0.005663
multiplicity <S^2> : Reference = 1.0279985 Response = 1.0286169 Projector = 1.0292352
eri1 (528, 528)
eri1 (528, 528)
    CPU time for making amplitude: integral transform      0.03 sec, wall time      0.00 sec
shape (528, 448)
1st memory: 122.4 MiB
eri1 (528, 528)
eri1 (528, 528)
2nd memory: 122.4 MiB

========================
iter = 6  energy = -215.772433 energy diff = 0.006111
multiplicity <S^2> : Reference = 1.0492649 Response = 1.0499706 Projector = 1.0506762
eri1 (528, 528)
eri1 (528, 528)
    CPU time for making amplitude: integral transform      0.04 sec, wall time      0.00 sec
shape (528, 448)
1st memory: 121.5 MiB
eri1 (528, 528)
eri1 (528, 528)
2nd memory: 119.2 MiB

========================
iter = 7  energy = -215.775247 energy diff = 0.002814
multiplicity <S^2> : Reference = 1.0644078 Response = 1.0640479 Projector = 1.0636881
eri1 (528, 528)
eri1 (528, 528)
    CPU time for making amplitude: integral transform      0.04 sec, wall time      0.00 sec
shape (528, 448)
1st memory: 122.0 MiB
eri1 (528, 528)
eri1 (528, 528)
2nd memory: 122.7 MiB

========================
iter = 8  energy = -215.773616 energy diff = 0.001631
multiplicity <S^2> : Reference = 1.0522427 Response = 1.0528962 Projector = 1.0535496
eri1 (528, 528)
eri1 (528, 528)
    CPU time for making amplitude: integral transform      0.04 sec, wall time      0.00 sec
shape (528, 448)
1st memory: 121.4 MiB
eri1 (528, 528)
eri1 (528, 528)
2nd memory: 119.3 MiB

========================
iter = 9  energy = -215.773610 energy diff = 0.000006
multiplicity <S^2> : Reference = 1.0521778 Response = 1.0528314 Projector = 1.053485

UOB-MP2 has converged
UOB-MP2 energy =  -215.77360966581875
shift = 0
thresh = 1e-05 
eri1 (528, 528)
eri1 (528, 528)
    CPU time for making amplitude: integral transform      0.04 sec, wall time      0.00 sec
shape (528, 448)
1st memory: 122.5 MiB
eri1 (528, 528)
eri1 (528, 528)
2nd memory: 122.5 MiB

========================
iter = 0  energy = -215.717353 energy diff = 215.717353
multiplicity <S^2> : Reference = 1.0218198 Response = 1.0230591 Projector = 1.0242984
eri1 (528, 528)
eri1 (528, 528)
    CPU time for making amplitude: integral transform      0.04 sec, wall time      0.00 sec
shape (528, 448)
1st memory: 122.5 MiB
eri1 (528, 528)
eri1 (528, 528)
2nd memory: 118.8 MiB

========================
iter = 1  energy = -215.725687 energy diff = 0.008334
multiplicity <S^2> : Reference = 1.0177188 Response = 1.0165838 Projector = 1.0154488
eri1 (528, 528)
eri1 (528, 528)
    CPU time for making amplitude: integral transform      0.04 sec, wall time      0.00 sec
shape (528, 448)
1st memory: 121.9 MiB
eri1 (528, 528)
eri1 (528, 528)
2nd memory: 121.9 MiB

========================
iter = 2  energy = -215.727948 energy diff = 0.002261
multiplicity <S^2> : Reference = 1.0154157 Response = 1.0154352 Projector = 1.0154547
eri1 (528, 528)
eri1 (528, 528)
    CPU time for making amplitude: integral transform      0.03 sec, wall time      0.00 sec
shape (528, 448)
1st memory: 121.9 MiB
eri1 (528, 528)
eri1 (528, 528)
2nd memory: 122.0 MiB

========================
iter = 3  energy = -215.730482 energy diff = 0.002534
multiplicity <S^2> : Reference = 1.0144069 Response = 1.0143653 Projector = 1.0143237
eri1 (528, 528)
eri1 (528, 528)
    CPU time for making amplitude: integral transform      0.04 sec, wall time      0.00 sec
shape (528, 448)
1st memory: 122.8 MiB
eri1 (528, 528)
eri1 (528, 528)
2nd memory: 122.8 MiB

========================
iter = 4  energy = -215.730878 energy diff = 0.000396
multiplicity <S^2> : Reference = 1.0148614 Response = 1.0144223 Projector = 1.0139832
eri1 (528, 528)
eri1 (528, 528)
    CPU time for making amplitude: integral transform      0.04 sec, wall time      0.00 sec
shape (528, 448)
1st memory: 121.2 MiB
eri1 (528, 528)
eri1 (528, 528)
2nd memory: 121.2 MiB

========================
iter = 5  energy = -215.731897 energy diff = 0.001019
multiplicity <S^2> : Reference = 1.0184995 Response = 1.0179475 Projector = 1.0173955
eri1 (528, 528)
eri1 (528, 528)
    CPU time for making amplitude: integral transform      0.04 sec, wall time      0.00 sec
shape (528, 448)
1st memory: 121.4 MiB
eri1 (528, 528)
eri1 (528, 528)
2nd memory: 121.4 MiB

========================
iter = 6  energy = -215.732162 energy diff = 0.000265
multiplicity <S^2> : Reference = 1.019665 Response = 1.0191614 Projector = 1.0186579
eri1 (528, 528)
eri1 (528, 528)
    CPU time for making amplitude: integral transform      0.03 sec, wall time      0.00 sec
shape (528, 448)
1st memory: 121.7 MiB
eri1 (528, 528)
eri1 (528, 528)
2nd memory: 121.7 MiB

========================
iter = 7  energy = -215.730736 energy diff = 0.001426
multiplicity <S^2> : Reference = 1.0125417 Response = 1.0134054 Projector = 1.0142691
eri1 (528, 528)
eri1 (528, 528)
    CPU time for making amplitude: integral transform      0.04 sec, wall time      0.00 sec
shape (528, 448)
1st memory: 121.7 MiB
eri1 (528, 528)
eri1 (528, 528)
2nd memory: 121.7 MiB

========================
iter = 8  energy = -215.730766 energy diff = 0.000030
multiplicity <S^2> : Reference = 1.0133697 Response = 1.0142464 Projector = 1.0151231
eri1 (528, 528)
eri1 (528, 528)
    CPU time for making amplitude: integral transform      0.04 sec, wall time      0.00 sec
shape (528, 448)
1st memory: 122.7 MiB
eri1 (528, 528)
eri1 (528, 528)
2nd memory: 122.7 MiB

========================
iter = 9  energy = -215.731013 energy diff = 0.000247
multiplicity <S^2> : Reference = 1.0194704 Response = 1.0192858 Projector = 1.0191011
eri1 (528, 528)
eri1 (528, 528)
    CPU time for making amplitude: integral transform      0.04 sec, wall time      0.00 sec
shape (528, 448)
1st memory: 123.5 MiB
eri1 (528, 528)
eri1 (528, 528)
2nd memory: 120.2 MiB

========================
iter = 10  energy = -215.731490 energy diff = 0.000477
multiplicity <S^2> : Reference = 1.0329046 Response = 1.0325777 Projector = 1.0322509
eri1 (528, 528)
eri1 (528, 528)
    CPU time for making amplitude: integral transform      0.03 sec, wall time      0.00 sec
shape (528, 448)
1st memory: 122.3 MiB
eri1 (528, 528)
eri1 (528, 528)
2nd memory: 122.5 MiB

========================
iter = 11  energy = -215.731482 energy diff = 0.000008
multiplicity <S^2> : Reference = 1.0326971 Response = 1.0323686 Projector = 1.0320401

UOB-MP2 has converged
UOB-MP2 energy =  -215.73148217265594


******** <class 'pyscf.scf.uhf.UHF'> ********
method = UHF
initial guess = minao
damping factor = 0
level_shift factor = 0
DIIS = <class 'pyscf.scf.diis.CDIIS'>
diis_start_cycle = 1
diis_space = 8
SCF conv_tol = 1e-09
SCF conv_tol_grad = None
SCF max_cycles = 50
direct_scf = True
direct_scf_tol = 1e-13
chkfile to save SCF result = /home/ltkoanh/Al_B2LYP_6311_Gd_Cluster/Cluster/Al8-neutral-singlet-2/tmpozklqmve
max_memory 4000 MB (current use 114 MB)
number electrons alpha = 18  beta = 18
Set gradient conv threshold to 3.16228e-05
init E= -213.976102618811
  alpha nocc = 18  HOMO = -0.207491972741238  LUMO = -0.176203252714256
  beta  nocc = 18  HOMO = -0.201783896901483  LUMO = -0.172830389931789
cycle= 1 E= -213.593467694378  delta_E= 0.383  |g|= 0.79  |ddm|= 2.15
  alpha nocc = 18  HOMO = -0.0351843962978353  LUMO = -0.0274118038419738
  beta  nocc = 18  HOMO = -0.0355634412342205  LUMO = -0.0258629543511907
cycle= 2 E= -202.979769151209  delta_E= 10.6  |g|= 1.72  |ddm|= 4.66
  alpha nocc = 18  HOMO = -0.0556456965603776  LUMO = -0.0133122830447426
  beta  nocc = 18  HOMO = -0.056691290305276  LUMO = -0.0140918893865479
cycle= 3 E= -215.003840326607  delta_E=  -12  |g|= 0.495  |ddm|=  4.3
  alpha nocc = 18  HOMO = -0.145543897317084  LUMO = 0.0386185065954117
  beta  nocc = 18  HOMO = -0.149569879883842  LUMO = 0.0504637704147572
cycle= 4 E= -214.493671096441  delta_E= 0.51  |g|= 0.732  |ddm|= 1.01
  alpha nocc = 18  HOMO = -0.114976318368202  LUMO = 0.0367658614930652
  beta  nocc = 18  HOMO = -0.117725770867121  LUMO = 0.0494055813763488
cycle= 5 E= -214.420904105729  delta_E= 0.0728  |g|= 0.723  |ddm|= 0.128
  alpha nocc = 18  HOMO = -0.169506504289647  LUMO = 0.0154531334567655
  beta  nocc = 18  HOMO = -0.174618452023868  LUMO = 0.0309012206688431
cycle= 6 E= -215.074150901582  delta_E= -0.653  |g|= 0.521  |ddm|= 0.75
  alpha nocc = 18  HOMO = -0.164535476053277  LUMO = 0.0332060545879107
  beta  nocc = 18  HOMO = -0.170087541268646  LUMO = 0.0553242741499664
cycle= 7 E= -215.104648076971  delta_E= -0.0305  |g|= 0.524  |ddm|= 0.379
  alpha nocc = 18  HOMO = -0.164022111999835  LUMO = 0.0458581062508435
  beta  nocc = 18  HOMO = -0.167608386281292  LUMO = 0.0560739030334896
cycle= 8 E= -214.998368839042  delta_E= 0.106  |g|= 0.584  |ddm|= 0.446
  alpha nocc = 18  HOMO = -0.164092217401968  LUMO = 0.0460319854440197
  beta  nocc = 18  HOMO = -0.167646305069335  LUMO = 0.0561586054986891
cycle= 9 E= -214.999125131507  delta_E= -0.000756  |g|= 0.583  |ddm|= 0.00794
  alpha nocc = 18  HOMO = -0.156820568219211  LUMO = 0.0571667620995527
  beta  nocc = 18  HOMO = -0.163605911220075  LUMO = 0.0617285095474929
cycle= 10 E= -215.158547814056  delta_E= -0.159  |g|= 0.472  |ddm|= 0.34
  alpha nocc = 18  HOMO = -0.167005797512325  LUMO = 0.060618193553007
  beta  nocc = 18  HOMO = -0.165516006592171  LUMO = 0.0615011455975993
cycle= 11 E= -215.466516462587  delta_E= -0.308  |g|= 0.125  |ddm|= 0.907
  alpha nocc = 18  HOMO = -0.146993592716976  LUMO = 0.0780982303282201
  beta  nocc = 18  HOMO = -0.169715495322657  LUMO = 0.0799379962839874
cycle= 12 E= -215.506048673846  delta_E= -0.0395  |g|= 0.0955  |ddm|= 0.329
  alpha nocc = 18  HOMO = -0.135175087485308  LUMO = 0.0820573603773219
  beta  nocc = 18  HOMO = -0.169201686949157  LUMO = 0.080600774182034
cycle= 13 E= -215.540381426309  delta_E= -0.0343  |g|= 0.0651  |ddm|= 0.407
  alpha nocc = 18  HOMO = -0.152538486352325  LUMO = 0.0945906639002393
  beta  nocc = 18  HOMO = -0.161834866210524  LUMO = 0.0975270312900276
cycle= 14 E= -215.559185807277  delta_E= -0.0188  |g|= 0.0585  |ddm|= 0.266
  alpha nocc = 18  HOMO = -0.164029778354489  LUMO = 0.103519752975088
  beta  nocc = 18  HOMO = -0.162441161823593  LUMO = 0.109336073198169
cycle= 15 E= -215.57292360589  delta_E= -0.0137  |g|= 0.0556  |ddm|= 0.183
  alpha nocc = 18  HOMO = -0.158722664654815  LUMO = 0.10436099135999
  beta  nocc = 18  HOMO = -0.161174337131495  LUMO = 0.110715339273683
cycle= 16 E= -215.582021674094  delta_E= -0.0091  |g|= 0.0568  |ddm|= 0.135
  alpha nocc = 18  HOMO = -0.162751676678914  LUMO = 0.106819108889389
  beta  nocc = 18  HOMO = -0.159917528348841  LUMO = 0.114022207965848
cycle= 17 E= -215.587925398639  delta_E= -0.0059  |g|= 0.0572  |ddm|= 0.0848
  alpha nocc = 18  HOMO = -0.165039325209386  LUMO = 0.106145821796538
  beta  nocc = 18  HOMO = -0.161171978592082  LUMO = 0.11253736206466
cycle= 18 E= -215.583272354499  delta_E= 0.00465  |g|= 0.055  |ddm|= 0.086
  alpha nocc = 18  HOMO = -0.15985602987262  LUMO = 0.118608016814888
  beta  nocc = 18  HOMO = -0.172147980213359  LUMO = 0.114623501251026
cycle= 19 E= -215.590697347238  delta_E= -0.00742  |g|= 0.0414  |ddm|= 0.348
  alpha nocc = 18  HOMO = -0.156256597919324  LUMO = 0.11736814948603
  beta  nocc = 18  HOMO = -0.168213439703439  LUMO = 0.1184806003165
cycle= 20 E= -215.59887401274  delta_E= -0.00818  |g|= 0.0442  |ddm|= 0.178
  alpha nocc = 18  HOMO = -0.157512889666848  LUMO = 0.11214236159783
  beta  nocc = 18  HOMO = -0.16389802136724  LUMO = 0.113570615901519
cycle= 21 E= -215.587411808663  delta_E= 0.0115  |g|= 0.04  |ddm|= 0.233
  alpha nocc = 18  HOMO = -0.172714653596684  LUMO = 0.119915800828945
  beta  nocc = 18  HOMO = -0.17236336744762  LUMO = 0.114407495984829
cycle= 22 E= -215.580015834472  delta_E= 0.0074  |g|= 0.028  |ddm|= 0.314
  alpha nocc = 18  HOMO = -0.164116070573589  LUMO = 0.108567602207919
  beta  nocc = 18  HOMO = -0.163912557807159  LUMO = 0.103319199924375
cycle= 23 E= -215.578827153712  delta_E= 0.00119  |g|= 0.0225  |ddm|= 0.158
  alpha nocc = 18  HOMO = -0.170022728032955  LUMO = 0.109955209729407
  beta  nocc = 18  HOMO = -0.167725283330266  LUMO = 0.106854697974594
cycle= 24 E= -215.580300464732  delta_E= -0.00147  |g|= 0.0195  |ddm|= 0.113
  alpha nocc = 18  HOMO = -0.1702260624061  LUMO = 0.111396121061241
  beta  nocc = 18  HOMO = -0.169191429535154  LUMO = 0.108570853739667
cycle= 25 E= -215.58121971965  delta_E= -0.000919  |g|= 0.02  |ddm|= 0.04
  alpha nocc = 18  HOMO = -0.170221474129175  LUMO = 0.111776683868004
  beta  nocc = 18  HOMO = -0.170383708228146  LUMO = 0.107905173726375
cycle= 26 E= -215.579495974753  delta_E= 0.00172  |g|= 0.0178  |ddm|= 0.0769
  alpha nocc = 18  HOMO = -0.169685750574808  LUMO = 0.113903596372758
  beta  nocc = 18  HOMO = -0.169832011161466  LUMO = 0.106362766932646
cycle= 27 E= -215.578265429944  delta_E= 0.00123  |g|= 0.0157  |ddm|= 0.137
  alpha nocc = 18  HOMO = -0.170434691832929  LUMO = 0.111407910495131
  beta  nocc = 18  HOMO = -0.167902201211431  LUMO = 0.106776010272793
cycle= 28 E= -215.57941594818  delta_E= -0.00115  |g|= 0.0157  |ddm|= 0.0681
  alpha nocc = 18  HOMO = -0.17046305390028  LUMO = 0.111253119577381
  beta  nocc = 18  HOMO = -0.167730517141597  LUMO = 0.106877824824673
cycle= 29 E= -215.579538646648  delta_E= -0.000123  |g|= 0.0157  |ddm|= 0.00944
  alpha nocc = 18  HOMO = -0.170959653731912  LUMO = 0.112625874698569
  beta  nocc = 18  HOMO = -0.169469842657013  LUMO = 0.108143793602244
cycle= 30 E= -215.579703095012  delta_E= -0.000164  |g|= 0.0162  |ddm|= 0.0252
  alpha nocc = 18  HOMO = -0.1687610174487  LUMO = 0.112102610236331
  beta  nocc = 18  HOMO = -0.169322625709734  LUMO = 0.106093309011223
cycle= 31 E= -215.577544588533  delta_E= 0.00216  |g|= 0.0139  |ddm|= 0.12
  alpha nocc = 18  HOMO = -0.166461037275433  LUMO = 0.111554887245174
  beta  nocc = 18  HOMO = -0.167858398797992  LUMO = 0.105029538987564
cycle= 32 E= -215.576755201186  delta_E= 0.000789  |g|= 0.0129  |ddm|= 0.07
  alpha nocc = 18  HOMO = -0.165386465166075  LUMO = 0.111559921600901
  beta  nocc = 18  HOMO = -0.166973421044296  LUMO = 0.106215953018048
cycle= 33 E= -215.576879335396  delta_E= -0.000124  |g|= 0.0124  |ddm|= 0.0387
  alpha nocc = 18  HOMO = -0.165295047652274  LUMO = 0.111273403236406
  beta  nocc = 18  HOMO = -0.167048105546355  LUMO = 0.107016620415703
cycle= 34 E= -215.577262424356  delta_E= -0.000383  |g|= 0.0124  |ddm|= 0.0273
  alpha nocc = 18  HOMO = -0.165266049477309  LUMO = 0.111262920988135
  beta  nocc = 18  HOMO = -0.167031668576774  LUMO = 0.106966650799755
cycle= 35 E= -215.577237319598  delta_E= 2.51e-05  |g|= 0.0124  |ddm|= 0.0017
  alpha nocc = 18  HOMO = -0.165942402323882  LUMO = 0.111146523431079
  beta  nocc = 18  HOMO = -0.166486074454334  LUMO = 0.105998840451803
cycle= 36 E= -215.576744676637  delta_E= 0.000493  |g|= 0.0121  |ddm|= 0.046
  alpha nocc = 18  HOMO = -0.167199281257647  LUMO = 0.111308004232955
  beta  nocc = 18  HOMO = -0.165797654884119  LUMO = 0.106207832006571
cycle= 37 E= -215.576949355689  delta_E= -0.000205  |g|= 0.0121  |ddm|= 0.0352
  alpha nocc = 18  HOMO = -0.167217861577946  LUMO = 0.111278369885867
  beta  nocc = 18  HOMO = -0.165827942120762  LUMO = 0.106337063866018
cycle= 38 E= -215.576974901705  delta_E= -2.55e-05  |g|= 0.0121  |ddm|= 0.0106
  alpha nocc = 18  HOMO = -0.1669437395374  LUMO = 0.111256152916216
  beta  nocc = 18  HOMO = -0.16579575582766  LUMO = 0.106118808265732
cycle= 39 E= -215.576858031304  delta_E= 0.000117  |g|= 0.0121  |ddm|= 0.0111
  alpha nocc = 18  HOMO = -0.167053335896846  LUMO = 0.111231623902902
  beta  nocc = 18  HOMO = -0.165794595651536  LUMO = 0.106172338368247
cycle= 40 E= -215.576904312632  delta_E= -4.63e-05  |g|= 0.0121  |ddm|= 0.00395
  alpha nocc = 18  HOMO = -0.166884176418878  LUMO = 0.111224474196273
  beta  nocc = 18  HOMO = -0.165883824106605  LUMO = 0.106051649548688
cycle= 41 E= -215.5768501946  delta_E= 5.41e-05  |g|= 0.0121  |ddm|= 0.00515
  alpha nocc = 18  HOMO = -0.166838200045141  LUMO = 0.111179237193008
  beta  nocc = 18  HOMO = -0.16567199185066  LUMO = 0.10624154169591
cycle= 42 E= -215.576917039414  delta_E= -6.68e-05  |g|= 0.0122  |ddm|= 0.0109
  alpha nocc = 18  HOMO = -0.166430475834396  LUMO = 0.111073197480188
  beta  nocc = 18  HOMO = -0.166186755878332  LUMO = 0.105610845677608
cycle= 43 E= -215.576562862216  delta_E= 0.000354  |g|= 0.0116  |ddm|= 0.0381
  alpha nocc = 18  HOMO = -0.168011266670788  LUMO = 0.110629601661137
  beta  nocc = 18  HOMO = -0.165040643545635  LUMO = 0.106254803633859
cycle= 44 E= -215.576415169077  delta_E= 0.000148  |g|= 0.0105  |ddm|= 0.0715
  alpha nocc = 18  HOMO = -0.167673643660901  LUMO = 0.110544494643452
  beta  nocc = 18  HOMO = -0.163661705585261  LUMO = 0.107666920447435
cycle= 45 E= -215.576751564517  delta_E= -0.000336  |g|= 0.0104  |ddm|= 0.0533
  alpha nocc = 18  HOMO = -0.167728200675239  LUMO = 0.110609890494713
  beta  nocc = 18  HOMO = -0.16367617860905  LUMO = 0.107658462624279
cycle= 46 E= -215.57676239115  delta_E= -1.08e-05  |g|= 0.0104  |ddm|= 0.00766
  alpha nocc = 18  HOMO = -0.167754083152861  LUMO = 0.110583692793489
  beta  nocc = 18  HOMO = -0.163714022710691  LUMO = 0.107651172362984
cycle= 47 E= -215.576750828278  delta_E= 1.16e-05  |g|= 0.0104  |ddm|= 0.00392
  alpha nocc = 18  HOMO = -0.167941276904303  LUMO = 0.110590232765202
  beta  nocc = 18  HOMO = -0.163929448606702  LUMO = 0.107568076723239
cycle= 48 E= -215.576735256486  delta_E= 1.56e-05  |g|= 0.0103  |ddm|= 0.00986
  alpha nocc = 18  HOMO = -0.168381661513555  LUMO = 0.110754341567983
  beta  nocc = 18  HOMO = -0.163610857409449  LUMO = 0.10816479693883
cycle= 49 E= -215.576961201325  delta_E= -0.000226  |g|= 0.0104  |ddm|= 0.0186
  alpha nocc = 18  HOMO = -0.168167614685599  LUMO = 0.110792086075925
  beta  nocc = 18  HOMO = -0.163949657971215  LUMO = 0.108152092838326
cycle= 50 E= -215.576944922063  delta_E= 1.63e-05  |g|= 0.0104  |ddm|= 0.0118
SCF not converged.
SCF energy = -215.576944922063 after 50 cycles  <S^2> = 1.0267161  2S+1 = 2.2598373
