 Entering Gaussian System, Link 0=g03
 Initial command:
 /usr/local/chem/g03E01/l1.exe /temp0/tam/Gau-27127.inp -scrdir=/temp0/tam/
 Entering Link 1 = /usr/local/chem/g03E01/l1.exe PID=     27128.
  
 Copyright (c) 1988,1990,1992,1993,1995,1998,2003,2004,2007, Gaussian, Inc.
                  All Rights Reserved.
  
 This is the Gaussian(R) 03 program.  It is based on the
 the Gaussian(R) 98 system (copyright 1998, Gaussian, Inc.),
 the Gaussian(R) 94 system (copyright 1995, Gaussian, Inc.),
 the Gaussian 92(TM) system (copyright 1992, Gaussian, Inc.),
 the Gaussian 90(TM) system (copyright 1990, Gaussian, Inc.),
 the Gaussian 88(TM) system (copyright 1988, Gaussian, Inc.),
 the Gaussian 86(TM) system (copyright 1986, Carnegie Mellon
 University), and the Gaussian 82(TM) system (copyright 1983,
 Carnegie Mellon University). Gaussian is a federally registered
 trademark of Gaussian, Inc.
  
 This software contains proprietary and confidential information,
 including trade secrets, belonging to Gaussian, Inc.
  
 This software is provided under written license and may be
 used, copied, transmitted, or stored only in accord with that
 written license.
  
 The following legend is applicable only to US Government
 contracts under FAR:
  
                    RESTRICTED RIGHTS LEGEND
  
 Use, reproduction and disclosure by the US Government is
 subject to restrictions as set forth in subparagraphs (a)
 and (c) of the Commercial Computer Software - Restricted
 Rights clause in FAR 52.227-19.
  
 Gaussian, Inc.
 340 Quinnipiac St., Bldg. 40, Wallingford CT 06492
  
  
 ---------------------------------------------------------------
 Warning -- This program may not be used in any manner that
 competes with the business of Gaussian, Inc. or will provide
 assistance to any competitor of Gaussian, Inc.  The licensee
 of this program is prohibited from giving any competitor of
 Gaussian, Inc. access to this program.  By using this program,
 the user acknowledges that Gaussian, Inc. is engaged in the
 business of creating and licensing software in the field of
 computational chemistry and represents and warrants to the
 licensee that it is not a competitor of Gaussian, Inc. and that
 it will not use this program in any manner prohibited above.
 ---------------------------------------------------------------
  

 Cite this work as:
 Gaussian 03, Revision E.01,
 M. J. Frisch, G. W. Trucks, H. B. Schlegel, G. E. Scuseria, 
 M. A. Robb, J. R. Cheeseman, J. A. Montgomery, Jr., T. Vreven, 
 K. N. Kudin, J. C. Burant, J. M. Millam, S. S. Iyengar, J. Tomasi, 
 V. Barone, B. Mennucci, M. Cossi, G. Scalmani, N. Rega, 
 G. A. Petersson, H. Nakatsuji, M. Hada, M. Ehara, K. Toyota, 
 R. Fukuda, J. Hasegawa, M. Ishida, T. Nakajima, Y. Honda, O. Kitao, 
 H. Nakai, M. Klene, X. Li, J. E. Knox, H. P. Hratchian, J. B. Cross, 
 V. Bakken, C. Adamo, J. Jaramillo, R. Gomperts, R. E. Stratmann, 
 O. Yazyev, A. J. Austin, R. Cammi, C. Pomelli, J. W. Ochterski, 
 P. Y. Ayala, K. Morokuma, G. A. Voth, P. Salvador, J. J. Dannenberg, 
 V. G. Zakrzewski, S. Dapprich, A. D. Daniels, M. C. Strain, 
 O. Farkas, D. K. Malick, A. D. Rabuck, K. Raghavachari, 
 J. B. Foresman, J. V. Ortiz, Q. Cui, A. G. Baboul, S. Clifford, 
 J. Cioslowski, B. B. Stefanov, G. Liu, A. Liashenko, P. Piskorz, 
 I. Komaromi, R. L. Martin, D. J. Fox, T. Keith, M. A. Al-Laham, 
 C. Y. Peng, A. Nanayakkara, M. Challacombe, P. M. W. Gill, 
 B. Johnson, W. Chen, M. W. Wong, C. Gonzalez, and J. A. Pople, 
 Gaussian, Inc., Wallingford CT, 2004.
 
 ******************************************
 Gaussian 03:  AM64L-G03RevE.01 11-Sep-2007
                10-Nov-2010 
 ******************************************
 %NprocShared=4
 Will use up to    4 processors via shared memory.
 %mem=3750MB
 %chk=S10L-an-d-01
 ----------------------------------------------------------------------
 # b3lyp/LANL2DZ opt=(calcall,noeigentest,maxcycle=500) scfcyc=500 scf=
 xqc
 ----------------------------------------------------------------------
 1/6=500,10=4,11=1,14=-1,18=20,26=3,38=1/1,3;
 2/9=110,17=6,18=5,40=1/2;
 3/5=6,6=3,11=2,16=1,25=1,30=1,74=-5/1,2,3;
 4//1;
 5/5=2,7=500,8=3,13=1,38=5/2,8;
 8/6=4,10=90,11=11/1;
 11/6=1,8=1,9=11,15=111,16=1/1,2,10;
 10/6=1/2;
 6/7=2,8=2,9=2,10=2,18=1,28=1/1;
 7/10=1,25=1/1,2,3,16;
 1/6=500,10=4,11=1,14=-1,18=20/3(3);
 2/9=110/2;
 7/8=1,9=1,25=1,44=-1/16;
 99//99;
 2/9=110/2;
 3/5=6,6=3,11=2,16=1,25=1,30=1,74=-5/1,2,3;
 4/5=5,16=3/1;
 5/5=2,7=500,8=3,13=1,38=5/2,8;
 8/6=4,10=90,11=11/1;
 11/6=1,8=1,9=11,15=111,16=1/1,2,10;
 10/6=1/2;
 7/10=1,25=1/1,2,3,16;
 1/6=500,10=4,11=1,14=-1,18=20/3(-8);
 2/9=110/2;
 6/7=2,8=2,9=2,10=2,18=1,19=2,28=1/1;
 7/8=1,9=1,25=1,44=-1/16;
 99//99;
 ------------------
 si10-an-doublet-01
 ------------------
 Symbolic Z-matrix:
 Charge = -1 Multiplicity = 2
 Si                    0.        0.        2.79146 
 Si                   -1.32414  -0.76449   1.0158 
 Si                    0.        1.52898   1.0158 
 Si                    1.32414  -0.76449   1.0158 
 Si                    2.07913   1.20038  -0.29328 
 Si                   -2.07913   1.20038  -0.29328 
 Si                    0.       -2.40077  -0.29328 
 Si                   -1.25106  -0.7223   -1.65301 
 Si                    0.        1.4446   -1.65301 
 Si                    1.25106  -0.7223   -1.65301 
 

 GradGradGradGradGradGradGradGradGradGradGradGradGradGradGradGradGradGrad
 Berny optimization.
 Initialization pass.
                           ----------------------------
                           !    Initial Parameters    !
                           ! (Angstroms and Degrees)  !
 --------------------------                            --------------------------
 ! Name  Definition              Value          Derivative Info.                !
 --------------------------------------------------------------------------------
 ! R1    R(1,2)                  2.3432         calculate D2E/DX2 analytically  !
 ! R2    R(1,3)                  2.3432         calculate D2E/DX2 analytically  !
 ! R3    R(1,4)                  2.3432         calculate D2E/DX2 analytically  !
 ! R4    R(2,3)                  2.6483         calculate D2E/DX2 analytically  !
 ! R5    R(2,4)                  2.6483         calculate D2E/DX2 analytically  !
 ! R6    R(2,6)                  2.4788         calculate D2E/DX2 analytically  !
 ! R7    R(2,7)                  2.4788         calculate D2E/DX2 analytically  !
 ! R8    R(2,8)                  2.6701         calculate D2E/DX2 analytically  !
 ! R9    R(3,4)                  2.6483         calculate D2E/DX2 analytically  !
 ! R10   R(3,5)                  2.4788         calculate D2E/DX2 analytically  !
 ! R11   R(3,6)                  2.4788         calculate D2E/DX2 analytically  !
 ! R12   R(3,9)                  2.6701         calculate D2E/DX2 analytically  !
 ! R13   R(4,5)                  2.4788         calculate D2E/DX2 analytically  !
 ! R14   R(4,7)                  2.4788         calculate D2E/DX2 analytically  !
 ! R15   R(4,10)                 2.6701         calculate D2E/DX2 analytically  !
 ! R16   R(5,9)                  2.4963         calculate D2E/DX2 analytically  !
 ! R17   R(5,10)                 2.4963         calculate D2E/DX2 analytically  !
 ! R18   R(6,8)                  2.4963         calculate D2E/DX2 analytically  !
 ! R19   R(6,9)                  2.4963         calculate D2E/DX2 analytically  !
 ! R20   R(7,8)                  2.4963         calculate D2E/DX2 analytically  !
 ! R21   R(7,10)                 2.4963         calculate D2E/DX2 analytically  !
 ! R22   R(8,9)                  2.5021         calculate D2E/DX2 analytically  !
 ! R23   R(8,10)                 2.5021         calculate D2E/DX2 analytically  !
 ! R24   R(9,10)                 2.5021         calculate D2E/DX2 analytically  !
 ! A1    A(1,2,6)              108.2819         calculate D2E/DX2 analytically  !
 ! A2    A(1,2,7)              108.2819         calculate D2E/DX2 analytically  !
 ! A3    A(1,2,8)              137.4581         calculate D2E/DX2 analytically  !
 ! A4    A(3,2,7)              107.7328         calculate D2E/DX2 analytically  !
 ! A5    A(3,2,8)               88.4318         calculate D2E/DX2 analytically  !
 ! A6    A(4,2,6)              107.7328         calculate D2E/DX2 analytically  !
 ! A7    A(4,2,8)               88.4318         calculate D2E/DX2 analytically  !
 ! A8    A(6,2,7)              114.02           calculate D2E/DX2 analytically  !
 ! A9    A(1,3,5)              108.2819         calculate D2E/DX2 analytically  !
 ! A10   A(1,3,6)              108.2819         calculate D2E/DX2 analytically  !
 ! A11   A(1,3,9)              137.4581         calculate D2E/DX2 analytically  !
 ! A12   A(2,3,5)              107.7328         calculate D2E/DX2 analytically  !
 ! A13   A(2,3,9)               88.4318         calculate D2E/DX2 analytically  !
 ! A14   A(4,3,6)              107.7328         calculate D2E/DX2 analytically  !
 ! A15   A(4,3,9)               88.4318         calculate D2E/DX2 analytically  !
 ! A16   A(5,3,6)              114.02           calculate D2E/DX2 analytically  !
 ! A17   A(1,4,5)              108.2819         calculate D2E/DX2 analytically  !
 ! A18   A(1,4,7)              108.2819         calculate D2E/DX2 analytically  !
 ! A19   A(1,4,10)             137.4581         calculate D2E/DX2 analytically  !
 ! A20   A(2,4,5)              107.7328         calculate D2E/DX2 analytically  !
 ! A21   A(2,4,10)              88.4318         calculate D2E/DX2 analytically  !
 ! A22   A(3,4,7)              107.7328         calculate D2E/DX2 analytically  !
 ! A23   A(3,4,10)              88.4318         calculate D2E/DX2 analytically  !
 ! A24   A(5,4,7)              114.02           calculate D2E/DX2 analytically  !
 ! A25   A(3,5,10)              96.4037         calculate D2E/DX2 analytically  !
 ! A26   A(4,5,9)               96.4037         calculate D2E/DX2 analytically  !
 ! A27   A(2,6,9)               96.4037         calculate D2E/DX2 analytically  !
 ! A28   A(3,6,8)               96.4037         calculate D2E/DX2 analytically  !
 ! A29   A(2,7,10)              96.4037         calculate D2E/DX2 analytically  !
 ! A30   A(4,7,8)               96.4037         calculate D2E/DX2 analytically  !
 ! A31   A(2,8,9)               91.5682         calculate D2E/DX2 analytically  !
 ! A32   A(2,8,10)              91.5682         calculate D2E/DX2 analytically  !
 ! A33   A(6,8,7)              112.7954         calculate D2E/DX2 analytically  !
 ! A34   A(6,8,10)             109.3734         calculate D2E/DX2 analytically  !
 ! A35   A(7,8,9)              109.3734         calculate D2E/DX2 analytically  !
 ! A36   A(3,9,8)               91.5682         calculate D2E/DX2 analytically  !
 ! A37   A(3,9,10)              91.5682         calculate D2E/DX2 analytically  !
 ! A38   A(5,9,6)              112.7954         calculate D2E/DX2 analytically  !
 ! A39   A(5,9,8)              109.3734         calculate D2E/DX2 analytically  !
 ! A40   A(6,9,10)             109.3734         calculate D2E/DX2 analytically  !
 ! A41   A(4,10,8)              91.5682         calculate D2E/DX2 analytically  !
 ! A42   A(4,10,9)              91.5682         calculate D2E/DX2 analytically  !
 ! A43   A(5,10,7)             112.7954         calculate D2E/DX2 analytically  !
 ! A44   A(5,10,8)             109.3734         calculate D2E/DX2 analytically  !
 ! A45   A(7,10,9)             109.3734         calculate D2E/DX2 analytically  !
 ! D1    D(7,2,3,5)              0.0            calculate D2E/DX2 analytically  !
 ! D2    D(7,2,3,9)             55.4213         calculate D2E/DX2 analytically  !
 ! D3    D(8,2,3,5)            -55.4213         calculate D2E/DX2 analytically  !
 ! D4    D(8,2,3,9)              0.0            calculate D2E/DX2 analytically  !
 ! D5    D(6,2,4,5)              0.0            calculate D2E/DX2 analytically  !
 ! D6    D(6,2,4,10)           -55.4213         calculate D2E/DX2 analytically  !
 ! D7    D(8,2,4,5)             55.4213         calculate D2E/DX2 analytically  !
 ! D8    D(8,2,4,10)             0.0            calculate D2E/DX2 analytically  !
 ! D9    D(1,2,6,9)             82.4            calculate D2E/DX2 analytically  !
 ! D10   D(4,2,6,9)             23.6768         calculate D2E/DX2 analytically  !
 ! D11   D(7,2,6,9)            -38.1916         calculate D2E/DX2 analytically  !
 ! D12   D(1,2,7,10)           -82.4            calculate D2E/DX2 analytically  !
 ! D13   D(3,2,7,10)           -23.6768         calculate D2E/DX2 analytically  !
 ! D14   D(6,2,7,10)            38.1916         calculate D2E/DX2 analytically  !
 ! D15   D(1,2,8,9)            -30.0124         calculate D2E/DX2 analytically  !
 ! D16   D(1,2,8,10)            30.0124         calculate D2E/DX2 analytically  !
 ! D17   D(3,2,8,9)              0.0            calculate D2E/DX2 analytically  !
 ! D18   D(3,2,8,10)            60.0248         calculate D2E/DX2 analytically  !
 ! D19   D(4,2,8,9)            -60.0248         calculate D2E/DX2 analytically  !
 ! D20   D(4,2,8,10)             0.0            calculate D2E/DX2 analytically  !
 ! D21   D(6,3,4,7)              0.0            calculate D2E/DX2 analytically  !
 ! D22   D(6,3,4,10)            55.4213         calculate D2E/DX2 analytically  !
 ! D23   D(9,3,4,7)            -55.4213         calculate D2E/DX2 analytically  !
 ! D24   D(9,3,4,10)             0.0            calculate D2E/DX2 analytically  !
 ! D25   D(1,3,5,10)            82.4            calculate D2E/DX2 analytically  !
 ! D26   D(2,3,5,10)            23.6768         calculate D2E/DX2 analytically  !
 ! D27   D(6,3,5,10)           -38.1916         calculate D2E/DX2 analytically  !
 ! D28   D(1,3,6,8)            -82.4            calculate D2E/DX2 analytically  !
 ! D29   D(4,3,6,8)            -23.6768         calculate D2E/DX2 analytically  !
 ! D30   D(5,3,6,8)             38.1916         calculate D2E/DX2 analytically  !
 ! D31   D(1,3,9,8)             30.0124         calculate D2E/DX2 analytically  !
 ! D32   D(1,3,9,10)           -30.0124         calculate D2E/DX2 analytically  !
 ! D33   D(2,3,9,8)              0.0            calculate D2E/DX2 analytically  !
 ! D34   D(2,3,9,10)           -60.0248         calculate D2E/DX2 analytically  !
 ! D35   D(4,3,9,8)             60.0248         calculate D2E/DX2 analytically  !
 ! D36   D(4,3,9,10)             0.0            calculate D2E/DX2 analytically  !
 ! D37   D(1,4,5,9)            -82.4            calculate D2E/DX2 analytically  !
 ! D38   D(2,4,5,9)            -23.6768         calculate D2E/DX2 analytically  !
 ! D39   D(7,4,5,9)             38.1916         calculate D2E/DX2 analytically  !
 ! D40   D(1,4,7,8)             82.4            calculate D2E/DX2 analytically  !
 ! D41   D(3,4,7,8)             23.6768         calculate D2E/DX2 analytically  !
 ! D42   D(5,4,7,8)            -38.1916         calculate D2E/DX2 analytically  !
 ! D43   D(1,4,10,8)           -30.0124         calculate D2E/DX2 analytically  !
 ! D44   D(1,4,10,9)            30.0124         calculate D2E/DX2 analytically  !
 ! D45   D(2,4,10,8)             0.0            calculate D2E/DX2 analytically  !
 ! D46   D(2,4,10,9)            60.0248         calculate D2E/DX2 analytically  !
 ! D47   D(3,4,10,8)           -60.0248         calculate D2E/DX2 analytically  !
 ! D48   D(3,4,10,9)             0.0            calculate D2E/DX2 analytically  !
 ! D49   D(4,5,9,6)             43.7207         calculate D2E/DX2 analytically  !
 ! D50   D(4,5,9,8)            -20.9077         calculate D2E/DX2 analytically  !
 ! D51   D(3,5,10,7)           -43.7207         calculate D2E/DX2 analytically  !
 ! D52   D(3,5,10,8)            20.9077         calculate D2E/DX2 analytically  !
 ! D53   D(3,6,8,7)             43.7207         calculate D2E/DX2 analytically  !
 ! D54   D(3,6,8,10)           -20.9077         calculate D2E/DX2 analytically  !
 ! D55   D(2,6,9,5)            -43.7207         calculate D2E/DX2 analytically  !
 ! D56   D(2,6,9,10)            20.9077         calculate D2E/DX2 analytically  !
 ! D57   D(4,7,8,6)            -43.7207         calculate D2E/DX2 analytically  !
 ! D58   D(4,7,8,9)             20.9077         calculate D2E/DX2 analytically  !
 ! D59   D(2,7,10,5)            43.7207         calculate D2E/DX2 analytically  !
 ! D60   D(2,7,10,9)           -20.9077         calculate D2E/DX2 analytically  !
 ! D61   D(2,8,9,3)              0.0            calculate D2E/DX2 analytically  !
 ! D62   D(2,8,9,5)             55.6376         calculate D2E/DX2 analytically  !
 ! D63   D(7,8,9,3)            -55.6376         calculate D2E/DX2 analytically  !
 ! D64   D(7,8,9,5)              0.0            calculate D2E/DX2 analytically  !
 ! D65   D(2,8,10,4)             0.0            calculate D2E/DX2 analytically  !
 ! D66   D(2,8,10,5)           -55.6376         calculate D2E/DX2 analytically  !
 ! D67   D(6,8,10,4)            55.6376         calculate D2E/DX2 analytically  !
 ! D68   D(6,8,10,5)             0.0            calculate D2E/DX2 analytically  !
 ! D69   D(3,9,10,4)             0.0            calculate D2E/DX2 analytically  !
 ! D70   D(3,9,10,7)            55.6376         calculate D2E/DX2 analytically  !
 ! D71   D(6,9,10,4)           -55.6376         calculate D2E/DX2 analytically  !
 ! D72   D(6,9,10,7)             0.0            calculate D2E/DX2 analytically  !
 --------------------------------------------------------------------------------
 Trust Radius=3.00D-01 FncErr=1.00D-07 GrdErr=1.00D-06
 Number of steps in this run= 100 maximum allowed number of steps= 100.
 GradGradGradGradGradGradGradGradGradGradGradGradGradGradGradGradGradGrad

                          Input orientation:                          
 ---------------------------------------------------------------------
 Center     Atomic     Atomic              Coordinates (Angstroms)
 Number     Number      Type              X           Y           Z
 ---------------------------------------------------------------------
    1         14             0        0.000000    0.000000    2.791461
    2         14             0       -1.324139   -0.764492    1.015796
    3         14             0        0.000000    1.528984    1.015796
    4         14             0        1.324139   -0.764492    1.015796
    5         14             0        2.079128    1.200385   -0.293276
    6         14             0       -2.079128    1.200385   -0.293276
    7         14             0        0.000000   -2.400770   -0.293276
    8         14             0       -1.251064   -0.722302   -1.653008
    9         14             0        0.000000    1.444604   -1.653008
   10         14             0        1.251064   -0.722302   -1.653008
 ---------------------------------------------------------------------
                    Distance matrix (angstroms):
                    1          2          3          4          5
     1  Si   0.000000
     2  Si   2.343240   0.000000
     3  Si   2.343240   2.648277   0.000000
     4  Si   2.343240   2.648277   2.648277   0.000000
     5  Si   3.908874   4.142056   2.478794   2.478794   0.000000
     6  Si   3.908874   2.478794   2.478794   4.142056   4.158255
     7  Si   3.908874   2.478794   4.142056   2.478794   4.158255
     8  Si   4.673348   2.670138   3.708903   3.708903   4.078697
     9  Si   4.673348   3.708903   2.670138   3.708903   2.496254
    10  Si   4.673348   3.708903   3.708903   2.670138   2.496254
                    6          7          8          9         10
     6  Si   0.000000
     7  Si   4.158255   0.000000
     8  Si   2.496254   2.496254   0.000000
     9  Si   2.496254   4.078697   2.502128   0.000000
    10  Si   4.078697   2.496254   2.502128   2.502128   0.000000
 Stoichiometry    Si10(1-,2)
 Framework group  C3V[C3(Si),3SGV(Si3)]
 Deg. of freedom     6
 Full point group                 C3V
 Largest Abelian subgroup         CS      NOp   2
 Largest concise Abelian subgroup CS      NOp   2
                         Standard orientation:                         
 ---------------------------------------------------------------------
 Center     Atomic     Atomic              Coordinates (Angstroms)
 Number     Number      Type              X           Y           Z
 ---------------------------------------------------------------------
    1         14             0        0.000000    0.000000    2.791461
    2         14             0        0.000000   -1.528984    1.015796
    3         14             0       -1.324139    0.764492    1.015796
    4         14             0        1.324139    0.764492    1.015796
    5         14             0        0.000000    2.400770   -0.293276
    6         14             0       -2.079127   -1.200385   -0.293276
    7         14             0        2.079127   -1.200385   -0.293276
    8         14             0        0.000000   -1.444604   -1.653008
    9         14             0       -1.251064    0.722302   -1.653008
   10         14             0        1.251064    0.722302   -1.653008
 ---------------------------------------------------------------------
 Rotational constants (GHZ):      0.5910052      0.5216978      0.5216978
 Standard basis: LANL2DZ (5D, 7F)
 There are    48 symmetry adapted basis functions of A'  symmetry.
 There are    32 symmetry adapted basis functions of A"  symmetry.
 Integral buffers will be    131072 words long.
 Raffenetti 2 integral format.
 Two-electron integral symmetry is turned on.
    80 basis functions,   120 primitive gaussians,    80 cartesian basis functions
    21 alpha electrons       20 beta electrons
       nuclear repulsion energy       125.0395406068 Hartrees.
 NAtoms=   10 NActive=   10 NUniq=    4 SFac= 3.00D+00 NAtFMM=   80 NAOKFM=F Big=F
 One-electron integrals computed using PRISM.
   6 Symmetry operations used in ECPInt.
 ECPInt:  NShTT=     820 NPrTT=    1850 LenC2=     821 LenP2D=    1805.
 LDataN:  DoStor=F MaxTD1= 3 Len=   28
 LDataN:  DoStor=T MaxTD1= 3 Len=   28
 NBasis=    80 RedAO= T  NBF=    48    32
 NBsUse=    80 1.00D-06 NBFU=    48    32
 Harris functional with IExCor=  402 diagonalized for initial guess.
 ExpMin= 8.85D-02 ExpMax= 2.58D+00 ExpMxC= 2.58D+00 IAcc=2 IRadAn=         4 AccDes= 0.00D+00
 HarFok:  IExCor= 402 AccDes= 0.00D+00 IRadAn=         4 IDoV=1
 ScaDFX=  1.000000  1.000000  1.000000  1.000000
 Initial guess orbital symmetries:
 Alpha Orbitals:
       Occupied  (A1) (A1) (E) (E) (A1) (E) (E) (E) (E) (A1) (E)
                 (E) (A1) (E) (E) (A1) (A2) (A1) (E) (E) (A1)
       Virtual   (E) (E) (A1) (A2) (E) (E) (E) (E) (A1) (E) (E)
                 (E) (E) (A1) (E) (E) (E) (E) (A2) (A1) (E) (E)
                 (E) (E) (A1) (E) (E) (A1) (E) (E) (E) (E) (A1)
                 (A2) (A1) (A2) (E) (E) (E) (E) (A1) (A1) (E) (E)
                 (E) (E) (E) (E) (A2) (A1) (A1) (A1) (E) (E) (E)
                 (E) (E) (E) (A1)
 Beta  Orbitals:
       Occupied  (A1) (A1) (E) (E) (A1) (E) (E) (E) (E) (A1) (E)
                 (E) (A1) (E) (E) (A1) (A2) (A1) (E) (E)
       Virtual   (A1) (E) (E) (A1) (A2) (E) (E) (E) (E) (A1) (E)
                 (E) (E) (E) (A1) (E) (E) (E) (E) (A2) (A1) (E)
                 (E) (E) (E) (A1) (E) (E) (A1) (E) (E) (E) (E)
                 (A1) (A2) (A1) (A2) (E) (E) (E) (E) (A1) (A1)
                 (E) (E) (E) (E) (E) (E) (A2) (A1) (A1) (A1) (E)
                 (E) (E) (E) (E) (E) (A1)
 The electronic state of the initial guess is 2-A1.
 <S**2> of initial guess= 0.7500
 Requested convergence on RMS density matrix=1.00D-08 within 128 cycles.
 Requested convergence on MAX density matrix=1.00D-06.
 Requested convergence on             energy=1.00D-06.
 No special actions if energy rises.
 Keep R1 and R2 integrals in memory in canonical form, NReq=    12322338.
 Integral accuracy reduced to 1.0D-05 until final iterations.
 Initial convergence to 1.0D-05 achieved.  Increase integral accuracy.
 SCF Done:  E(UB+HF-LYP) =  -38.6659004520     A.U. after   17 cycles
             Convg  =    0.7227D-08             -V/T =  3.5108
             S**2   =   0.7548
 Annihilation of the first spin contaminant:
 S**2 before annihilation     0.7548,   after     0.7500
 QCSCF skips out because SCF is already converged.
 Range of M.O.s used for correlation:     1    80
 NBasis=    80 NAE=    21 NBE=    20 NFC=     0 NFV=     0
 NROrb=     80 NOA=    21 NOB=    20 NVA=    59 NVB=    60

 **** Warning!!: The smallest alpha delta epsilon is  0.73465815D-01


 **** Warning!!: The smallest beta delta epsilon is  0.98781690D-01

   6 Symmetry operations used in ECPInt.
 ECPInt:  NShTT=     820 NPrTT=    1850 LenC2=     821 LenP2D=    1805.
 LDataN:  DoStor=F MaxTD1= 4 Len=   56
 LDataN:  DoStor=T MaxTD1= 4 Len=   56
 Symmetrizing basis deriv contribution to polar:
 IMax=3 JMax=2 DiffMx= 0.00D+00
 G2DrvN: will do   11 centers at a time, making    1 passes doing MaxLOS=1.
 FoFDir/FoFCou used for L=0 through L=1.
 DoAtom=TTTTTTTTTT
          Differentiating once with respect to electric field.
                with respect to dipole field.
          Differentiating once with respect to nuclear coordinates.
          Store integrals in memory, NReq=    11303964.
          There are  15 degrees of freedom in the 1st order CPHF.
    15 vectors were produced by pass  0.
 AX will form  15 AO Fock derivatives at one time.
    15 vectors were produced by pass  1.
    15 vectors were produced by pass  2.
    15 vectors were produced by pass  3.
    15 vectors were produced by pass  4.
    15 vectors were produced by pass  5.
    15 vectors were produced by pass  6.
    15 vectors were produced by pass  7.
    14 vectors were produced by pass  8.
     8 vectors were produced by pass  9.
     3 vectors were produced by pass 10.
     1 vectors were produced by pass 11.
 Inv2:  IOpt= 1 Iter= 1 AM= 1.65D-15 Conv= 1.00D-12.
 Inverted reduced A of dimension  146 with in-core refinement.
 Isotropic polarizability for W=    0.000000      293.25 Bohr**3.
 End of Minotr Frequency-dependent properties file   721 does not exist.

 **********************************************************************

            Population analysis using the SCF density.

 **********************************************************************

 Orbital symmetries:
 Alpha Orbitals:
       Occupied  (A1) (A1) (E) (E) (A1) (E) (E) (E) (E) (A1) (E)
                 (E) (A1) (A1) (E) (E) (A2) (A1) (E) (E) (A1)
       Virtual   (E) (E) (E) (E) (A2) (A1) (E) (E) (A1) (E) (E)
                 (E) (E) (A1) (E) (E) (E) (E) (A2) (A1) (E) (E)
                 (E) (E) (A1) (A1) (E) (E) (E) (E) (A1) (A2) (E)
                 (E) (A1) (A2) (E) (E) (E) (E) (A1) (A1) (E) (E)
                 (E) (E) (E) (E) (A2) (A1) (A1) (A1) (E) (E) (E)
                 (E) (E) (E) (A1)
 Beta  Orbitals:
       Occupied  (A1) (A1) (E) (E) (A1) (E) (E) (E) (E) (A1) (E)
                 (E) (A1) (A1) (E) (E) (A2) (A1) (E) (E)
       Virtual   (A1) (E) (E) (E) (E) (A2) (A1) (E) (E) (A1) (E)
                 (E) (E) (E) (A1) (E) (E) (E) (E) (A2) (A1) (E)
                 (E) (E) (E) (A1) (E) (E) (A1) (E) (E) (A1) (A2)
                 (E) (E) (A1) (A2) (E) (E) (E) (E) (A1) (A1) (E)
                 (E) (E) (E) (E) (E) (A2) (A1) (A1) (A1) (E) (E)
                 (E) (E) (E) (E) (A1)
 The electronic state is 2-A1.
 Alpha  occ. eigenvalues --   -0.60659  -0.50742  -0.47040  -0.47040  -0.35743
 Alpha  occ. eigenvalues --   -0.31245  -0.31245  -0.29710  -0.29710  -0.24277
 Alpha  occ. eigenvalues --   -0.16550  -0.16550  -0.16474  -0.13401  -0.13204
 Alpha  occ. eigenvalues --   -0.13204  -0.12856  -0.11537  -0.11439  -0.11439
 Alpha  occ. eigenvalues --   -0.06133
 Alpha virt. eigenvalues --    0.01213   0.01213   0.07711   0.07711   0.08105
 Alpha virt. eigenvalues --    0.08674   0.09718   0.09718   0.10436   0.10622
 Alpha virt. eigenvalues --    0.10622   0.13108   0.13108   0.16226   0.17842
 Alpha virt. eigenvalues --    0.17842   0.21357   0.21357   0.22387   0.40044
 Alpha virt. eigenvalues --    0.41226   0.41226   0.41449   0.41449   0.41536
 Alpha virt. eigenvalues --    0.43303   0.43468   0.43468   0.44356   0.44356
 Alpha virt. eigenvalues --    0.44436   0.44962   0.44996   0.44996   0.47798
 Alpha virt. eigenvalues --    0.48707   0.48963   0.48963   0.50781   0.50781
 Alpha virt. eigenvalues --    0.52203   0.53463   0.54119   0.54119   0.55805
 Alpha virt. eigenvalues --    0.55805   0.56976   0.56976   0.57709   8.76748
 Alpha virt. eigenvalues --   11.45631  12.13052  12.38582  12.38582  12.93884
 Alpha virt. eigenvalues --   12.93884  13.36072  13.36072  13.81781
  Beta  occ. eigenvalues --   -0.60286  -0.50270  -0.46810  -0.46810  -0.35082
  Beta  occ. eigenvalues --   -0.30904  -0.30904  -0.29498  -0.29498  -0.23559
  Beta  occ. eigenvalues --   -0.16106  -0.16106  -0.14450  -0.12854  -0.12838
  Beta  occ. eigenvalues --   -0.12838  -0.12799  -0.11273  -0.11194  -0.11194
  Beta virt. eigenvalues --   -0.01315   0.01800   0.01800   0.08058   0.08058
  Beta virt. eigenvalues --    0.08219   0.09104   0.09961   0.09961   0.10647
  Beta virt. eigenvalues --    0.10767   0.10767   0.13318   0.13318   0.16738
  Beta virt. eigenvalues --    0.18519   0.18519   0.21613   0.21613   0.22500
  Beta virt. eigenvalues --    0.41091   0.41497   0.41497   0.41672   0.41672
  Beta virt. eigenvalues --    0.41942   0.43726   0.43726   0.44030   0.44642
  Beta virt. eigenvalues --    0.44642   0.44734   0.44988   0.45035   0.45035
  Beta virt. eigenvalues --    0.48241   0.48763   0.49059   0.49059   0.50879
  Beta virt. eigenvalues --    0.50879   0.52684   0.53679   0.54266   0.54266
  Beta virt. eigenvalues --    0.56065   0.56065   0.57126   0.57126   0.57774
  Beta virt. eigenvalues --    8.76813  11.45787  12.13086  12.38622  12.38622
  Beta virt. eigenvalues --   12.93889  12.93889  13.36108  13.36108  13.81843
          Condensed to atoms (all electrons):
              1          2          3          4          5          6
     1  Si   3.850558   0.068575   0.068575   0.068575  -0.057687  -0.057687
     2  Si   0.068575   4.418866  -0.072724  -0.072724  -0.029083   0.077768
     3  Si   0.068575  -0.072724   4.418866  -0.072724   0.077768   0.077768
     4  Si   0.068575  -0.072724  -0.072724   4.418866   0.077768  -0.029083
     5  Si  -0.057687  -0.029083   0.077768   0.077768   3.927443  -0.036107
     6  Si  -0.057687   0.077768   0.077768  -0.029083  -0.036107   3.927443
     7  Si  -0.057687   0.077768  -0.029083   0.077768  -0.036107  -0.036107
     8  Si   0.016140  -0.052787  -0.091347  -0.091347  -0.041529   0.064326
     9  Si   0.016140  -0.091347  -0.052787  -0.091347   0.064326   0.064326
    10  Si   0.016140  -0.091347  -0.091347  -0.052787   0.064326  -0.041529
              7          8          9         10
     1  Si  -0.057687   0.016140   0.016140   0.016140
     2  Si   0.077768  -0.052787  -0.091347  -0.091347
     3  Si  -0.029083  -0.091347  -0.052787  -0.091347
     4  Si   0.077768  -0.091347  -0.091347  -0.052787
     5  Si  -0.036107  -0.041529   0.064326   0.064326
     6  Si  -0.036107   0.064326   0.064326  -0.041529
     7  Si   3.927443   0.064326  -0.041529   0.064326
     8  Si   0.064326   4.187578   0.028338   0.028338
     9  Si  -0.041529   0.028338   4.187578   0.028338
    10  Si   0.064326   0.028338   0.028338   4.187578
 Mulliken atomic charges:
              1
     1  Si   0.068357
     2  Si  -0.232964
     3  Si  -0.232964
     4  Si  -0.232964
     5  Si  -0.011118
     6  Si  -0.011118
     7  Si  -0.011118
     8  Si  -0.112037
     9  Si  -0.112037
    10  Si  -0.112037
 Sum of Mulliken charges=  -1.00000
 Atomic charges with hydrogens summed into heavy atoms:
              1
     1  Si   0.068357
     2  Si  -0.232964
     3  Si  -0.232964
     4  Si  -0.232964
     5  Si  -0.011118
     6  Si  -0.011118
     7  Si  -0.011118
     8  Si  -0.112037
     9  Si  -0.112037
    10  Si  -0.112037
 Sum of Mulliken charges=  -1.00000
          Atomic-Atomic Spin Densities.
              1          2          3          4          5          6
     1  Si   0.481984  -0.046416  -0.046416  -0.046416  -0.014744  -0.014744
     2  Si  -0.046416   0.107175   0.041152   0.041152   0.005707   0.010966
     3  Si  -0.046416   0.041152   0.107175   0.041152   0.010966   0.010966
     4  Si  -0.046416   0.041152   0.041152   0.107175   0.010966   0.005707
     5  Si  -0.014744   0.005707   0.010966   0.010966   0.021911   0.001665
     6  Si  -0.014744   0.010966   0.010966   0.005707   0.001665   0.021911
     7  Si  -0.014744   0.010966   0.005707   0.010966   0.001665   0.001665
     8  Si   0.021465  -0.035594  -0.030210  -0.030210  -0.002029  -0.009567
     9  Si   0.021465  -0.030210  -0.035594  -0.030210  -0.009567  -0.009567
    10  Si   0.021465  -0.030210  -0.030210  -0.035594  -0.009567  -0.002029
              7          8          9         10
     1  Si  -0.014744   0.021465   0.021465   0.021465
     2  Si   0.010966  -0.035594  -0.030210  -0.030210
     3  Si   0.005707  -0.030210  -0.035594  -0.030210
     4  Si   0.010966  -0.030210  -0.030210  -0.035594
     5  Si   0.001665  -0.002029  -0.009567  -0.009567
     6  Si   0.001665  -0.009567  -0.009567  -0.002029
     7  Si   0.021911  -0.009567  -0.002029  -0.009567
     8  Si  -0.009567   0.149106   0.033659   0.033659
     9  Si  -0.002029   0.033659   0.149106   0.033659
    10  Si  -0.009567   0.033659   0.033659   0.149106
 Mulliken atomic spin densities:
              1
     1  Si   0.362896
     2  Si   0.074686
     3  Si   0.074686
     4  Si   0.074686
     5  Si   0.016972
     6  Si   0.016972
     7  Si   0.016972
     8  Si   0.120710
     9  Si   0.120710
    10  Si   0.120710
 Sum of Mulliken spin densities=   1.00000
 APT atomic charges:
              1
     1  Si   0.033513
     2  Si  -0.200236
     3  Si  -0.200243
     4  Si  -0.200243
     5  Si  -0.017349
     6  Si  -0.017369
     7  Si  -0.017369
     8  Si  -0.126896
     9  Si  -0.126886
    10  Si  -0.126886
 Sum of APT charges=  -0.99996
 APT Atomic charges with hydrogens summed into heavy atoms:
              1
     1  Si   0.033513
     2  Si  -0.200236
     3  Si  -0.200243
     4  Si  -0.200243
     5  Si  -0.017349
     6  Si  -0.017369
     7  Si  -0.017369
     8  Si  -0.126896
     9  Si  -0.126886
    10  Si  -0.126886
 Sum of APT charges=  -0.99996
 Electronic spatial extent (au):  <R**2>=  1045.6918
 Charge=    -1.0000 electrons
 Dipole moment (field-independent basis, Debye):
    X=     0.0000    Y=     0.0000    Z=     1.1518  Tot=     1.1518
 Quadrupole moment (field-independent basis, Debye-Ang):
   XX=  -149.6408   YY=  -149.6408   ZZ=  -148.3321
   XY=     0.0000   XZ=     0.0000   YZ=     0.0000
 Traceless Quadrupole moment (field-independent basis, Debye-Ang):
   XX=    -0.4362   YY=    -0.4362   ZZ=     0.8725
   XY=     0.0000   XZ=     0.0000   YZ=     0.0000
 Octapole moment (field-independent basis, Debye-Ang**2):
  XXX=     0.0000  YYY=   -11.3461  ZZZ=    -5.7417  XYY=     0.0000
  XXY=    11.3461  XXZ=    12.2721  XZZ=     0.0000  YZZ=     0.0000
  YYZ=    12.2721  XYZ=     0.0000
 Hexadecapole moment (field-independent basis, Debye-Ang**3):
 XXXX= -1613.7707 YYYY= -1613.7707 ZZZZ= -1955.1286 XXXY=     0.0000
 XXXZ=     0.0000 YYYX=     0.0000 YYYZ=    -2.9975 ZZZX=     0.0000
 ZZZY=     0.0000 XXYY=  -537.9236 XXZZ=  -574.6661 YYZZ=  -574.6661
 XXYZ=     2.9975 YYXZ=     0.0000 ZZXY=     0.0000
 N-N= 1.250395406068D+02 E-N=-3.255957245634D+02  KE= 1.540003321464D+01
 Symmetry A'   KE= 9.842817907623D+00
 Symmetry A"   KE= 5.557215307017D+00
  Exact polarizability: 284.194   0.000 284.195   0.000  -0.001 311.370
 Approx polarizability: 994.791   0.000 994.791   0.000   0.0001057.347
                          Isotropic Fermi Contact Couplings
        Atom                 a.u.       MegaHertz       Gauss      10(-4) cm-1
     1  Si(29)             0.00000      -0.00083      -0.00030      -0.00028
     2  Si(29)             0.00000      -0.00071      -0.00025      -0.00024
     3  Si(29)             0.00000      -0.00071      -0.00025      -0.00024
     4  Si(29)             0.00000      -0.00071      -0.00025      -0.00024
     5  Si(29)             0.00000       0.00000       0.00000       0.00000
     6  Si(29)             0.00000       0.00000       0.00000       0.00000
     7  Si(29)             0.00000       0.00000       0.00000       0.00000
     8  Si(29)             0.00000      -0.00005      -0.00002      -0.00002
     9  Si(29)             0.00000      -0.00005      -0.00002      -0.00002
    10  Si(29)             0.00000      -0.00005      -0.00002      -0.00002
 --------------------------------------------------------
       Center         ----  Spin Dipole Couplings  ----
                      3XX-RR        3YY-RR        3ZZ-RR
 --------------------------------------------------------
     1   Atom       -0.023535     -0.023535      0.047071
     2   Atom       -0.009315      0.001090      0.008225
     3   Atom       -0.001511     -0.006714      0.008225
     4   Atom       -0.001511     -0.006714      0.008225
     5   Atom       -0.005000     -0.001774      0.006774
     6   Atom       -0.002580     -0.004194      0.006774
     7   Atom       -0.002580     -0.004194      0.006774
     8   Atom       -0.008394     -0.004189      0.012583
     9   Atom       -0.005240     -0.007343      0.012583
    10   Atom       -0.005240     -0.007343      0.012583
 --------------------------------------------------------
                        XY            XZ            YZ
 --------------------------------------------------------
     1   Atom        0.000000      0.000000      0.000000
     2   Atom        0.000000      0.000000     -0.009150
     3   Atom       -0.004506     -0.007924      0.004575
     4   Atom        0.004506      0.007924      0.004575
     5   Atom        0.000000      0.000000     -0.000967
     6   Atom        0.001397      0.000838      0.000484
     7   Atom       -0.001397     -0.000838      0.000484
     8   Atom        0.000000      0.000000      0.006658
     9   Atom       -0.001821      0.005766     -0.003329
    10   Atom        0.001821     -0.005766     -0.003329
 --------------------------------------------------------


 ---------------------------------------------------------------------------------
              Anisotropic Spin Dipole Couplings in Principal Axis System
 ---------------------------------------------------------------------------------

       Atom             a.u.   MegaHertz   Gauss  10(-4) cm-1        Axes

              Baa    -0.0235     2.497     0.891     0.833  0.7682  0.6402  0.0000
     1 Si(29) Bbb    -0.0235     2.497     0.891     0.833 -0.6402  0.7682  0.0000
              Bcc     0.0471    -4.993    -1.782    -1.666  0.0000  0.0000  1.0000
 
              Baa    -0.0093     0.988     0.353     0.330  1.0000  0.0000  0.0000
     2 Si(29) Bbb    -0.0052     0.548     0.195     0.183  0.0000  0.8256  0.5643
              Bcc     0.0145    -1.536    -0.548    -0.512  0.0000 -0.5643  0.8256
 
              Baa    -0.0093     0.988     0.353     0.330  0.5000  0.8660  0.0000
     3 Si(29) Bbb    -0.0052     0.548     0.195     0.183  0.7150 -0.4128  0.5643
              Bcc     0.0145    -1.536    -0.548    -0.512 -0.4887  0.2821  0.8256
 
              Baa    -0.0093     0.988     0.353     0.330 -0.5000  0.8660  0.0000
     4 Si(29) Bbb    -0.0052     0.548     0.195     0.183  0.7150  0.4128 -0.5643
              Bcc     0.0145    -1.536    -0.548    -0.512  0.4887  0.2821  0.8256
 
              Baa    -0.0050     0.530     0.189     0.177  1.0000  0.0000  0.0000
     5 Si(29) Bbb    -0.0019     0.200     0.071     0.067  0.0000  0.9938  0.1110
              Bcc     0.0069    -0.730    -0.261    -0.244  0.0000 -0.1110  0.9938
 
              Baa    -0.0050     0.530     0.189     0.177 -0.5000  0.8660  0.0000
     6 Si(29) Bbb    -0.0019     0.200     0.071     0.067  0.8607  0.4969 -0.1110
              Bcc     0.0069    -0.730    -0.261    -0.244  0.0962  0.0555  0.9938
 
              Baa    -0.0050     0.530     0.189     0.177  0.5000  0.8660  0.0000
     7 Si(29) Bbb    -0.0019     0.200     0.071     0.067  0.8607 -0.4969  0.1110
              Bcc     0.0069    -0.730    -0.261    -0.244 -0.0962  0.0555  0.9938
 
              Baa    -0.0084     0.891     0.318     0.297  1.0000  0.0000  0.0000
     8 Si(29) Bbb    -0.0065     0.691     0.246     0.230  0.0000  0.9442 -0.3293
              Bcc     0.0149    -1.581    -0.564    -0.527  0.0000  0.3293  0.9442
 
              Baa    -0.0084     0.891     0.318     0.297  0.5000  0.8660  0.0000
     9 Si(29) Bbb    -0.0065     0.691     0.246     0.230  0.8177 -0.4721 -0.3293
              Bcc     0.0149    -1.581    -0.564    -0.527  0.2851 -0.1646  0.9442
 
              Baa    -0.0084     0.891     0.318     0.297 -0.5000  0.8660  0.0000
    10 Si(29) Bbb    -0.0065     0.691     0.246     0.230  0.8177  0.4721  0.3293
              Bcc     0.0149    -1.581    -0.564    -0.527 -0.2851 -0.1646  0.9442
 

 ---------------------------------------------------------------------------------

   6 Symmetry operations used in ECPInt.
 ECPInt:  NShTT=     820 NPrTT=    1850 LenC2=     821 LenP2D=    1850.
 LDataN:  DoStor=F MaxTD1= 5 Len=  102
 LDataN:  DoStor=T MaxTD1= 5 Len=  102
 ***** Axes restored to original set *****
 -------------------------------------------------------------------
 Center     Atomic                   Forces (Hartrees/Bohr)
 Number     Number              X              Y              Z
 -------------------------------------------------------------------
    1         14           0.000000000    0.000000000    0.037214323
    2         14          -0.026641738   -0.015381614    0.004940131
    3         14           0.000000000    0.030763229    0.004940131
    4         14           0.026641738   -0.015381614    0.004940131
    5         14           0.016254174    0.009384352    0.007347254
    6         14          -0.016254174    0.009384352    0.007347254
    7         14           0.000000000   -0.018768704    0.007347254
    8         14          -0.021521861   -0.012425652   -0.024692160
    9         14           0.000000000    0.024851304   -0.024692160
   10         14           0.021521861   -0.012425652   -0.024692160
 -------------------------------------------------------------------
 Cartesian Forces:  Max     0.037214323 RMS     0.017509863

 GradGradGradGradGradGradGradGradGradGradGradGradGradGradGradGradGradGrad
 Berny optimization.
 Internal  Forces:  Max     0.015547379 RMS     0.004480798
 Search for a local minimum.
 Step number   1 out of a maximum of 100
 All quantities printed in internal units (Hartrees-Bohrs-Radians)
 Second derivative matrix not updated -- analytic derivatives used.
     Eigenvalues ---    0.00130   0.00130   0.00909   0.00909   0.01324
     Eigenvalues ---    0.01496   0.02048   0.02048   0.02285   0.02309
     Eigenvalues ---    0.02353   0.02353   0.03315   0.03315   0.03817
     Eigenvalues ---    0.04331   0.04331   0.04379   0.05174   0.05908
     Eigenvalues ---    0.05908   0.06600   0.06600   0.082491000.00000
     Eigenvalues --- 1000.000001000.000001000.000001000.000001000.00000
     Eigenvalues --- 1000.000001000.000001000.000001000.000001000.00000
     Eigenvalues --- 1000.000001000.000001000.000001000.000001000.00000
     Eigenvalues --- 1000.000001000.000001000.000001000.000001000.00000
     Eigenvalues --- 1000.000001000.000001000.000001000.000001000.00000
     Eigenvalues --- 1000.000001000.000001000.000001000.000001000.00000
     Eigenvalues --- 1000.000001000.000001000.000001000.000001000.00000
     Eigenvalues --- 1000.000001000.000001000.000001000.000001000.00000
     Eigenvalues --- 1000.000001000.000001000.000001000.000001000.00000
     Eigenvalues --- 1000.000001000.000001000.000001000.000001000.00000
     Eigenvalues --- 1000.000001000.000001000.000001000.000001000.00000
     Eigenvalues --- 1000.000001000.000001000.000001000.000001000.00000
     Eigenvalues --- 1000.000001000.000001000.000001000.000001000.00000
     Eigenvalues --- 1000.000001000.000001000.000001000.000001000.00000
     Eigenvalues --- 1000.000001000.000001000.000001000.000001000.00000
     Eigenvalues --- 1000.000001000.000001000.000001000.000001000.00000
     Eigenvalues --- 1000.000001000.000001000.000001000.000001000.00000
     Eigenvalues --- 1000.000001000.000001000.000001000.000001000.00000
     Eigenvalues --- 1000.000001000.000001000.000001000.000001000.00000
     Eigenvalues --- 1000.000001000.000001000.000001000.000001000.00000
     Eigenvalues --- 1000.000001000.000001000.000001000.000001000.00000
     Eigenvalues --- 1000.000001000.000001000.000001000.000001000.00000
     Eigenvalues --- 1000.000001000.000001000.000001000.000001000.00000
     Eigenvalues --- 1000.00000
 RFO step:  Lambda=-3.44453561D-02.
 Linear search not attempted -- first point.
 Maximum step size (   0.300) exceeded in Quadratic search.
    -- Step size scaled by   0.453
 Iteration  1 RMS(Cart)=  0.01388391 RMS(Int)=  0.00007391
 Iteration  2 RMS(Cart)=  0.00003815 RMS(Int)=  0.00004908
 Iteration  3 RMS(Cart)=  0.00000000 RMS(Int)=  0.00004908
 Variable       Old X    -DE/DX   Delta X   Delta X   Delta X     New X
                                 (Linear)    (Quad)   (Total)
    R1        4.42808   0.01555   0.00000   0.06393   0.06392   4.49201
    R2        4.42808   0.01555   0.00000   0.06393   0.06392   4.49201
    R3        4.42808   0.01555   0.00000   0.06393   0.06392   4.49201
    R4        5.00452   0.01072   0.00000   0.07418   0.07418   5.07870
    R5        5.00452   0.01072   0.00000   0.07418   0.07418   5.07870
    R6        4.68424   0.00601   0.00000   0.02796   0.02786   4.71210
    R7        4.68424   0.00601   0.00000   0.02796   0.02786   4.71210
    R8        5.04583   0.01146   0.00000   0.06800   0.06805   5.11387
    R9        5.00452   0.01072   0.00000   0.07418   0.07418   5.07870
   R10        4.68424   0.00601   0.00000   0.02796   0.02786   4.71210
   R11        4.68424   0.00601   0.00000   0.02796   0.02786   4.71210
   R12        5.04583   0.01146   0.00000   0.06800   0.06805   5.11387
   R13        4.68424   0.00601   0.00000   0.02796   0.02786   4.71210
   R14        4.68424   0.00601   0.00000   0.02796   0.02786   4.71210
   R15        5.04583   0.01146   0.00000   0.06800   0.06805   5.11387
   R16        4.71724   0.00980   0.00000   0.06273   0.06279   4.78002
   R17        4.71724   0.00980   0.00000   0.06273   0.06279   4.78002
   R18        4.71724   0.00980   0.00000   0.06273   0.06279   4.78002
   R19        4.71724   0.00980   0.00000   0.06273   0.06279   4.78002
   R20        4.71724   0.00980   0.00000   0.06273   0.06279   4.78002
   R21        4.71724   0.00980   0.00000   0.06273   0.06279   4.78002
   R22        4.72834   0.01285   0.00000   0.06958   0.06962   4.79795
   R23        4.72834   0.01285   0.00000   0.06958   0.06962   4.79795
   R24        4.72834   0.01285   0.00000   0.06958   0.06962   4.79795
    A1        1.88988   0.00005   0.00000  -0.00584  -0.00581   1.88406
    A2        1.88988   0.00005   0.00000  -0.00584  -0.00581   1.88406
    A3        2.39910   0.00149   0.00000  -0.00043  -0.00042   2.39867
    A4        1.88029  -0.00044   0.00000  -0.00380  -0.00382   1.87647
    A5        1.54343   0.00027   0.00000  -0.00009  -0.00008   1.54334
    A6        1.88029  -0.00044   0.00000  -0.00380  -0.00382   1.87647
    A7        1.54343   0.00027   0.00000  -0.00009  -0.00008   1.54334
    A8        1.99003   0.00014   0.00000   0.00408   0.00394   1.99397
    A9        1.88988   0.00005   0.00000  -0.00584  -0.00581   1.88406
   A10        1.88988   0.00005   0.00000  -0.00584  -0.00581   1.88406
   A11        2.39910   0.00149   0.00000  -0.00043  -0.00042   2.39867
   A12        1.88029  -0.00044   0.00000  -0.00380  -0.00382   1.87647
   A13        1.54343   0.00027   0.00000  -0.00009  -0.00008   1.54334
   A14        1.88029  -0.00044   0.00000  -0.00380  -0.00382   1.87647
   A15        1.54343   0.00027   0.00000  -0.00009  -0.00008   1.54334
   A16        1.99003   0.00014   0.00000   0.00408   0.00394   1.99397
   A17        1.88988   0.00005   0.00000  -0.00584  -0.00581   1.88406
   A18        1.88988   0.00005   0.00000  -0.00584  -0.00581   1.88406
   A19        2.39910   0.00149   0.00000  -0.00043  -0.00042   2.39867
   A20        1.88029  -0.00044   0.00000  -0.00380  -0.00382   1.87647
   A21        1.54343   0.00027   0.00000  -0.00009  -0.00008   1.54334
   A22        1.88029  -0.00044   0.00000  -0.00380  -0.00382   1.87647
   A23        1.54343   0.00027   0.00000  -0.00009  -0.00008   1.54334
   A24        1.99003   0.00014   0.00000   0.00408   0.00394   1.99397
   A25        1.68256   0.00149   0.00000   0.00994   0.00988   1.69245
   A26        1.68256   0.00149   0.00000   0.00994   0.00988   1.69245
   A27        1.68256   0.00149   0.00000   0.00994   0.00988   1.69245
   A28        1.68256   0.00149   0.00000   0.00994   0.00988   1.69245
   A29        1.68256   0.00149   0.00000   0.00994   0.00988   1.69245
   A30        1.68256   0.00149   0.00000   0.00994   0.00988   1.69245
   A31        1.59817  -0.00027   0.00000   0.00009   0.00008   1.59825
   A32        1.59817  -0.00027   0.00000   0.00009   0.00008   1.59825
   A33        1.96865  -0.00225   0.00000  -0.01808  -0.01793   1.95072
   A34        1.90893  -0.00100   0.00000  -0.00606  -0.00603   1.90290
   A35        1.90893  -0.00100   0.00000  -0.00606  -0.00603   1.90290
   A36        1.59817  -0.00027   0.00000   0.00009   0.00008   1.59825
   A37        1.59817  -0.00027   0.00000   0.00009   0.00008   1.59825
   A38        1.96865  -0.00225   0.00000  -0.01808  -0.01793   1.95072
   A39        1.90893  -0.00100   0.00000  -0.00606  -0.00603   1.90290
   A40        1.90893  -0.00100   0.00000  -0.00606  -0.00603   1.90290
   A41        1.59817  -0.00027   0.00000   0.00009   0.00008   1.59825
   A42        1.59817  -0.00027   0.00000   0.00009   0.00008   1.59825
   A43        1.96865  -0.00225   0.00000  -0.01808  -0.01793   1.95072
   A44        1.90893  -0.00100   0.00000  -0.00606  -0.00603   1.90290
   A45        1.90893  -0.00100   0.00000  -0.00606  -0.00603   1.90290
    D1        0.00000   0.00000   0.00000   0.00000   0.00000   0.00000
    D2        0.96728   0.00049   0.00000   0.00451   0.00446   0.97175
    D3       -0.96728  -0.00049   0.00000  -0.00451  -0.00446  -0.97175
    D4        0.00000   0.00000   0.00000   0.00000   0.00000   0.00000
    D5        0.00000   0.00000   0.00000   0.00000   0.00000   0.00000
    D6       -0.96728  -0.00049   0.00000  -0.00451  -0.00446  -0.97175
    D7        0.96728   0.00049   0.00000   0.00451   0.00446   0.97175
    D8        0.00000   0.00000   0.00000   0.00000   0.00000   0.00000
    D9        1.43815   0.00144   0.00000   0.00451   0.00450   1.44266
   D10        0.41324   0.00052   0.00000   0.00654   0.00651   0.41975
   D11       -0.66657   0.00125   0.00000   0.01346   0.01349  -0.65308
   D12       -1.43815  -0.00144   0.00000  -0.00451  -0.00450  -1.44266
   D13       -0.41324  -0.00052   0.00000  -0.00654  -0.00651  -0.41975
   D14        0.66657  -0.00125   0.00000  -0.01346  -0.01349   0.65308
   D15       -0.52382   0.00000   0.00000   0.00000   0.00000  -0.52382
   D16        0.52382   0.00000   0.00000   0.00000   0.00000   0.52382
   D17        0.00000   0.00000   0.00000   0.00000   0.00000   0.00000
   D18        1.04763  -0.00001   0.00000   0.00000   0.00000   1.04763
   D19       -1.04763   0.00001   0.00000   0.00000   0.00000  -1.04763
   D20        0.00000   0.00000   0.00000   0.00000   0.00000   0.00000
   D21        0.00000   0.00000   0.00000   0.00000   0.00000   0.00000
   D22        0.96728   0.00049   0.00000   0.00451   0.00446   0.97175
   D23       -0.96728  -0.00049   0.00000  -0.00451  -0.00446  -0.97175
   D24        0.00000   0.00000   0.00000   0.00000   0.00000   0.00000
   D25        1.43815   0.00144   0.00000   0.00451   0.00450   1.44266
   D26        0.41324   0.00052   0.00000   0.00654   0.00651   0.41975
   D27       -0.66657   0.00125   0.00000   0.01346   0.01349  -0.65308
   D28       -1.43815  -0.00144   0.00000  -0.00451  -0.00450  -1.44266
   D29       -0.41324  -0.00052   0.00000  -0.00654  -0.00651  -0.41975
   D30        0.66657  -0.00125   0.00000  -0.01346  -0.01349   0.65308
   D31        0.52382   0.00000   0.00000   0.00000   0.00000   0.52382
   D32       -0.52382   0.00000   0.00000   0.00000   0.00000  -0.52382
   D33        0.00000   0.00000   0.00000   0.00000   0.00000   0.00000
   D34       -1.04763   0.00001   0.00000   0.00000   0.00000  -1.04763
   D35        1.04763  -0.00001   0.00000   0.00000   0.00000   1.04763
   D36        0.00000   0.00000   0.00000   0.00000   0.00000   0.00000
   D37       -1.43815  -0.00144   0.00000  -0.00451  -0.00450  -1.44266
   D38       -0.41324  -0.00052   0.00000  -0.00654  -0.00651  -0.41975
   D39        0.66657  -0.00125   0.00000  -0.01346  -0.01349   0.65308
   D40        1.43815   0.00144   0.00000   0.00451   0.00450   1.44266
   D41        0.41324   0.00052   0.00000   0.00654   0.00651   0.41975
   D42       -0.66657   0.00125   0.00000   0.01346   0.01349  -0.65308
   D43       -0.52382   0.00000   0.00000   0.00000   0.00000  -0.52382
   D44        0.52382   0.00000   0.00000   0.00000   0.00000   0.52382
   D45        0.00000   0.00000   0.00000   0.00000   0.00000   0.00000
   D46        1.04763  -0.00001   0.00000   0.00000   0.00000   1.04763
   D47       -1.04763   0.00001   0.00000   0.00000   0.00000  -1.04763
   D48        0.00000   0.00000   0.00000   0.00000   0.00000   0.00000
   D49        0.76307  -0.00035   0.00000   0.00241   0.00247   0.76554
   D50       -0.36491   0.00078   0.00000   0.00855   0.00850  -0.35641
   D51       -0.76307   0.00035   0.00000  -0.00241  -0.00247  -0.76554
   D52        0.36491  -0.00078   0.00000  -0.00855  -0.00850   0.35641
   D53        0.76307  -0.00035   0.00000   0.00241   0.00247   0.76554
   D54       -0.36491   0.00078   0.00000   0.00855   0.00850  -0.35641
   D55       -0.76307   0.00035   0.00000  -0.00241  -0.00247  -0.76554
   D56        0.36491  -0.00078   0.00000  -0.00855  -0.00850   0.35641
   D57       -0.76307   0.00035   0.00000  -0.00241  -0.00247  -0.76554
   D58        0.36491  -0.00078   0.00000  -0.00855  -0.00850   0.35641
   D59        0.76307  -0.00035   0.00000   0.00241   0.00247   0.76554
   D60       -0.36491   0.00078   0.00000   0.00855   0.00850  -0.35641
   D61        0.00000   0.00000   0.00000   0.00000   0.00000   0.00000
   D62        0.97106  -0.00098   0.00000  -0.00751  -0.00742   0.96364
   D63       -0.97106   0.00098   0.00000   0.00751   0.00742  -0.96364
   D64        0.00000   0.00000   0.00000   0.00000   0.00000   0.00000
   D65        0.00000   0.00000   0.00000   0.00000   0.00000   0.00000
   D66       -0.97106   0.00098   0.00000   0.00751   0.00742  -0.96364
   D67        0.97106  -0.00098   0.00000  -0.00751  -0.00742   0.96364
   D68        0.00000   0.00000   0.00000   0.00000   0.00000   0.00000
   D69        0.00000   0.00000   0.00000   0.00000   0.00000   0.00000
   D70        0.97106  -0.00098   0.00000  -0.00751  -0.00742   0.96364
   D71       -0.97106   0.00098   0.00000   0.00751   0.00742  -0.96364
   D72        0.00000   0.00000   0.00000   0.00000   0.00000   0.00000
         Item               Value     Threshold  Converged?
 Maximum Force            0.015547     0.000450     NO 
 RMS     Force            0.004481     0.000300     NO 
 Maximum Displacement     0.063380     0.001800     NO 
 RMS     Displacement     0.013883     0.001200     NO 
 Predicted change in Energy=-1.361322D-02
 GradGradGradGradGradGradGradGradGradGradGradGradGradGradGradGradGradGrad

                          Input orientation:                          
 ---------------------------------------------------------------------
 Center     Atomic     Atomic              Coordinates (Angstroms)
 Number     Number      Type              X           Y           Z
 ---------------------------------------------------------------------
    1         14             0        0.000000    0.000000    2.825000
    2         14             0       -1.343766   -0.775823    1.024212
    3         14             0        0.000000    1.551647    1.024212
    4         14             0        1.343766   -0.775823    1.024212
    5         14             0        2.094167    1.209068   -0.285305
    6         14             0       -2.094167    1.209068   -0.285305
    7         14             0        0.000000   -2.418136   -0.285305
    8         14             0       -1.269484   -0.732937   -1.680574
    9         14             0        0.000000    1.465874   -1.680574
   10         14             0        1.269484   -0.732937   -1.680574
 ---------------------------------------------------------------------
                    Distance matrix (angstroms):
                    1          2          3          4          5
     1  Si   0.000000
     2  Si   2.377067   0.000000
     3  Si   2.377067   2.687531   0.000000
     4  Si   2.377067   2.687531   2.687531   0.000000
     5  Si   3.939718   4.180193   2.493538   2.493538   0.000000
     6  Si   3.939718   2.493538   2.493538   4.180193   4.188335
     7  Si   3.939718   2.493538   4.180193   2.493538   4.188335
     8  Si   4.738036   2.706146   3.761221   3.761221   4.127022
     9  Si   4.738036   3.761221   2.706146   3.761221   2.529479
    10  Si   4.738036   3.761221   3.761221   2.706146   2.529479
                    6          7          8          9         10
     6  Si   0.000000
     7  Si   4.188335   0.000000
     8  Si   2.529479   2.529479   0.000000
     9  Si   2.529479   4.127022   2.538968   0.000000
    10  Si   4.127022   2.529479   2.538968   2.538968   0.000000
 Stoichiometry    Si10(1-,2)
 Framework group  C3V[C3(Si),3SGV(Si3)]
 Deg. of freedom     6
 Full point group                 C3V
 Largest Abelian subgroup         CS      NOp   2
 Largest concise Abelian subgroup CS      NOp   2
                         Standard orientation:                         
 ---------------------------------------------------------------------
 Center     Atomic     Atomic              Coordinates (Angstroms)
 Number     Number      Type              X           Y           Z
 ---------------------------------------------------------------------
    1         14             0        0.000000    0.000000    2.825000
    2         14             0        0.000000   -1.551647    1.024212
    3         14             0       -1.343766    0.775823    1.024212
    4         14             0        1.343766    0.775823    1.024212
    5         14             0        0.000000    2.418136   -0.285305
    6         14             0       -2.094167   -1.209068   -0.285305
    7         14             0        2.094167   -1.209068   -0.285305
    8         14             0        0.000000   -1.465874   -1.680574
    9         14             0       -1.269484    0.732937   -1.680574
   10         14             0        1.269484    0.732937   -1.680574
 ---------------------------------------------------------------------
 Rotational constants (GHZ):      0.5787685      0.5095593      0.5095593
 Standard basis: LANL2DZ (5D, 7F)
 There are    48 symmetry adapted basis functions of A'  symmetry.
 There are    32 symmetry adapted basis functions of A"  symmetry.
 Integral buffers will be    131072 words long.
 Raffenetti 2 integral format.
 Two-electron integral symmetry is turned on.
    80 basis functions,   120 primitive gaussians,    80 cartesian basis functions
    21 alpha electrons       20 beta electrons
       nuclear repulsion energy       123.5944940547 Hartrees.
 NAtoms=   10 NActive=   10 NUniq=    4 SFac= 3.00D+00 NAtFMM=   80 NAOKFM=F Big=F
 One-electron integrals computed using PRISM.
   6 Symmetry operations used in ECPInt.
 ECPInt:  NShTT=     820 NPrTT=    1850 LenC2=     821 LenP2D=    1805.
 LDataN:  DoStor=F MaxTD1= 3 Len=   28
 LDataN:  DoStor=T MaxTD1= 3 Len=   28
 NBasis=    80 RedAO= T  NBF=    48    32
 NBsUse=    80 1.00D-06 NBFU=    48    32
 Initial guess read from the read-write file:
 Initial guess orbital symmetries:
 Alpha Orbitals:
       Occupied  (A1) (A1) (E) (E) (A1) (E) (E) (E) (E) (A1) (E)
                 (E) (A1) (A1) (E) (E) (A2) (A1) (E) (E) (A1)
       Virtual   (E) (E) (E) (E) (A2) (A1) (E) (E) (A1) (E) (E)
                 (E) (E) (A1) (E) (E) (E) (E) (A2) (A1) (E) (E)
                 (E) (E) (A1) (A1) (E) (E) (E) (E) (A1) (A2) (E)
                 (E) (A1) (A2) (E) (E) (E) (E) (A1) (A1) (E) (E)
                 (E) (E) (E) (E) (A2) (A1) (A1) (A1) (E) (E) (E)
                 (E) (E) (E) (A1)
 Beta  Orbitals:
       Occupied  (A1) (A1) (E) (E) (A1) (E) (E) (E) (E) (A1) (E)
                 (E) (A1) (A1) (E) (E) (A2) (A1) (E) (E)
       Virtual   (A1) (E) (E) (E) (E) (A2) (A1) (E) (E) (A1) (E)
                 (E) (E) (E) (A1) (E) (E) (E) (E) (A2) (A1) (E)
                 (E) (E) (E) (A1) (E) (E) (A1) (E) (E) (A1) (A2)
                 (E) (E) (A1) (A2) (E) (E) (E) (E) (A1) (A1) (E)
                 (E) (E) (E) (E) (E) (A2) (A1) (A1) (A1) (E) (E)
                 (E) (E) (E) (E) (A1)
 <S**2> of initial guess= 0.7549
 Harris functional with IExCor=  402 diagonalized for initial guess.
 ExpMin= 8.85D-02 ExpMax= 2.58D+00 ExpMxC= 2.58D+00 IAcc=2 IRadAn=         4 AccDes= 0.00D+00
 HarFok:  IExCor= 402 AccDes= 0.00D+00 IRadAn=         4 IDoV=1
 ScaDFX=  1.000000  1.000000  1.000000  1.000000
 Requested convergence on RMS density matrix=1.00D-08 within 128 cycles.
 Requested convergence on MAX density matrix=1.00D-06.
 Requested convergence on             energy=1.00D-06.
 No special actions if energy rises.
 Keep R1 and R2 integrals in memory in canonical form, NReq=    12322338.
 Integral accuracy reduced to 1.0D-05 until final iterations.
 Initial convergence to 1.0D-05 achieved.  Increase integral accuracy.
 SCF Done:  E(UB+HF-LYP) =  -38.6795842629     A.U. after   16 cycles
             Convg  =    0.6937D-08             -V/T =  3.5386
             S**2   =   0.7551
 Annihilation of the first spin contaminant:
 S**2 before annihilation     0.7551,   after     0.7500
 QCSCF skips out because SCF is already converged.
 Range of M.O.s used for correlation:     1    80
 NBasis=    80 NAE=    21 NBE=    20 NFC=     0 NFV=     0
 NROrb=     80 NOA=    21 NOB=    20 NVA=    59 NVB=    60

 **** Warning!!: The smallest alpha delta epsilon is  0.71482316D-01


 **** Warning!!: The smallest beta delta epsilon is  0.95971318D-01

   6 Symmetry operations used in ECPInt.
 ECPInt:  NShTT=     820 NPrTT=    1850 LenC2=     821 LenP2D=    1805.
 LDataN:  DoStor=F MaxTD1= 4 Len=   56
 LDataN:  DoStor=T MaxTD1= 4 Len=   56
 Symmetrizing basis deriv contribution to polar:
 IMax=3 JMax=2 DiffMx= 0.00D+00
 G2DrvN: will do   11 centers at a time, making    1 passes doing MaxLOS=1.
 FoFDir/FoFCou used for L=0 through L=1.
 DoAtom=TTTTTTTTTT
          Differentiating once with respect to electric field.
                with respect to dipole field.
          Differentiating once with respect to nuclear coordinates.
          Store integrals in memory, NReq=    11303964.
          There are  15 degrees of freedom in the 1st order CPHF.
    15 vectors were produced by pass  0.
 AX will form  15 AO Fock derivatives at one time.
    15 vectors were produced by pass  1.
    15 vectors were produced by pass  2.
    15 vectors were produced by pass  3.
    15 vectors were produced by pass  4.
    15 vectors were produced by pass  5.
    15 vectors were produced by pass  6.
    15 vectors were produced by pass  7.
    14 vectors were produced by pass  8.
     8 vectors were produced by pass  9.
     3 vectors were produced by pass 10.
     1 vectors were produced by pass 11.
 Inv2:  IOpt= 1 Iter= 1 AM= 1.31D-15 Conv= 1.00D-12.
 Inverted reduced A of dimension  146 with in-core refinement.
 Isotropic polarizability for W=    0.000000      298.05 Bohr**3.
 End of Minotr Frequency-dependent properties file   721 does not exist.
   6 Symmetry operations used in ECPInt.
 ECPInt:  NShTT=     820 NPrTT=    1850 LenC2=     821 LenP2D=    1850.
 LDataN:  DoStor=F MaxTD1= 5 Len=  102
 LDataN:  DoStor=T MaxTD1= 5 Len=  102
 ***** Axes restored to original set *****
 -------------------------------------------------------------------
 Center     Atomic                   Forces (Hartrees/Bohr)
 Number     Number              X              Y              Z
 -------------------------------------------------------------------
    1         14           0.000000000    0.000000000    0.026112987
    2         14          -0.020824348   -0.012022943    0.003973938
    3         14           0.000000000    0.024045886    0.003973938
    4         14           0.020824348   -0.012022943    0.003973938
    5         14           0.012126228    0.007001081    0.006595119
    6         14          -0.012126228    0.007001081    0.006595119
    7         14           0.000000000   -0.014002162    0.006595119
    8         14          -0.016004480   -0.009240191   -0.019273386
    9         14           0.000000000    0.018480382   -0.019273386
   10         14           0.016004480   -0.009240191   -0.019273386
 -------------------------------------------------------------------
 Cartesian Forces:  Max     0.026112987 RMS     0.013318547

 GradGradGradGradGradGradGradGradGradGradGradGradGradGradGradGradGradGrad
 Berny optimization.
 Internal  Forces:  Max     0.011011153 RMS     0.003369940
 Search for a local minimum.
 Step number   2 out of a maximum of 100
 All quantities printed in internal units (Hartrees-Bohrs-Radians)
 Second derivative matrix not updated -- analytic derivatives used.
 Trust test= 1.01D+00 RLast= 3.00D-01 DXMaxT set to 4.24D-01
 Maximum step size (   0.424) exceeded in linear search.
    -- Step size scaled by   0.707
 Quintic linear search produced a step of  1.41422.
 Iteration  1 RMS(Cart)=  0.01960577 RMS(Int)=  0.00019528
 Iteration  2 RMS(Cart)=  0.00007436 RMS(Int)=  0.00016351
 Iteration  3 RMS(Cart)=  0.00000001 RMS(Int)=  0.00016351
 Variable       Old X    -DE/DX   Delta X   Delta X   Delta X     New X
                                 (Linear)    (Quad)   (Total)
    R1        4.49201   0.01101   0.09040   0.00000   0.09039   4.58239
    R2        4.49201   0.01101   0.09040   0.00000   0.09039   4.58239
    R3        4.49201   0.01101   0.09040   0.00000   0.09039   4.58239
    R4        5.07870   0.00854   0.10491   0.00000   0.10492   5.18362
    R5        5.07870   0.00854   0.10491   0.00000   0.10492   5.18362
    R6        4.71210   0.00430   0.03940   0.00000   0.03908   4.75119
    R7        4.71210   0.00430   0.03940   0.00000   0.03908   4.75119
    R8        5.11387   0.00875   0.09623   0.00000   0.09636   5.21024
    R9        5.07870   0.00854   0.10491   0.00000   0.10492   5.18362
   R10        4.71210   0.00430   0.03940   0.00000   0.03908   4.75119
   R11        4.71210   0.00430   0.03940   0.00000   0.03908   4.75119
   R12        5.11387   0.00875   0.09623   0.00000   0.09636   5.21024
   R13        4.71210   0.00430   0.03940   0.00000   0.03908   4.75119
   R14        4.71210   0.00430   0.03940   0.00000   0.03908   4.75119
   R15        5.11387   0.00875   0.09623   0.00000   0.09636   5.21024
   R16        4.78002   0.00766   0.08879   0.00000   0.08897   4.86899
   R17        4.78002   0.00766   0.08879   0.00000   0.08897   4.86899
   R18        4.78002   0.00766   0.08879   0.00000   0.08897   4.86899
   R19        4.78002   0.00766   0.08879   0.00000   0.08897   4.86899
   R20        4.78002   0.00766   0.08879   0.00000   0.08897   4.86899
   R21        4.78002   0.00766   0.08879   0.00000   0.08897   4.86899
   R22        4.79795   0.00962   0.09845   0.00000   0.09858   4.89653
   R23        4.79795   0.00962   0.09845   0.00000   0.09858   4.89653
   R24        4.79795   0.00962   0.09845   0.00000   0.09858   4.89653
    A1        1.88406  -0.00016  -0.00822   0.00000  -0.00813   1.87593
    A2        1.88406  -0.00016  -0.00822   0.00000  -0.00813   1.87593
    A3        2.39867   0.00084  -0.00060   0.00000  -0.00057   2.39810
    A4        1.87647  -0.00038  -0.00540   0.00000  -0.00547   1.87100
    A5        1.54334   0.00015  -0.00012   0.00000  -0.00010   1.54324
    A6        1.87647  -0.00038  -0.00540   0.00000  -0.00547   1.87100
    A7        1.54334   0.00015  -0.00012   0.00000  -0.00010   1.54324
    A8        1.99397   0.00020   0.00558   0.00000   0.00513   1.99909
    A9        1.88406  -0.00016  -0.00822   0.00000  -0.00813   1.87593
   A10        1.88406  -0.00016  -0.00822   0.00000  -0.00813   1.87593
   A11        2.39867   0.00084  -0.00060   0.00000  -0.00057   2.39810
   A12        1.87647  -0.00038  -0.00540   0.00000  -0.00547   1.87100
   A13        1.54334   0.00015  -0.00012   0.00000  -0.00010   1.54324
   A14        1.87647  -0.00038  -0.00540   0.00000  -0.00547   1.87100
   A15        1.54334   0.00015  -0.00012   0.00000  -0.00010   1.54324
   A16        1.99397   0.00020   0.00558   0.00000   0.00513   1.99909
   A17        1.88406  -0.00016  -0.00822   0.00000  -0.00813   1.87593
   A18        1.88406  -0.00016  -0.00822   0.00000  -0.00813   1.87593
   A19        2.39867   0.00084  -0.00060   0.00000  -0.00057   2.39810
   A20        1.87647  -0.00038  -0.00540   0.00000  -0.00547   1.87100
   A21        1.54334   0.00015  -0.00012   0.00000  -0.00010   1.54324
   A22        1.87647  -0.00038  -0.00540   0.00000  -0.00547   1.87100
   A23        1.54334   0.00015  -0.00012   0.00000  -0.00010   1.54324
   A24        1.99397   0.00020   0.00558   0.00000   0.00513   1.99909
   A25        1.69245   0.00116   0.01398   0.00000   0.01380   1.70624
   A26        1.69245   0.00116   0.01398   0.00000   0.01380   1.70624
   A27        1.69245   0.00116   0.01398   0.00000   0.01380   1.70624
   A28        1.69245   0.00116   0.01398   0.00000   0.01380   1.70624
   A29        1.69245   0.00116   0.01398   0.00000   0.01380   1.70624
   A30        1.69245   0.00116   0.01398   0.00000   0.01380   1.70624
   A31        1.59825  -0.00015   0.00012   0.00000   0.00010   1.59835
   A32        1.59825  -0.00015   0.00012   0.00000   0.00010   1.59835
   A33        1.95072  -0.00185  -0.02535   0.00000  -0.02484   1.92588
   A34        1.90290  -0.00076  -0.00853   0.00000  -0.00843   1.89446
   A35        1.90290  -0.00076  -0.00853   0.00000  -0.00843   1.89446
   A36        1.59825  -0.00015   0.00012   0.00000   0.00010   1.59835
   A37        1.59825  -0.00015   0.00012   0.00000   0.00010   1.59835
   A38        1.95072  -0.00185  -0.02535   0.00000  -0.02484   1.92588
   A39        1.90290  -0.00076  -0.00853   0.00000  -0.00843   1.89446
   A40        1.90290  -0.00076  -0.00853   0.00000  -0.00843   1.89446
   A41        1.59825  -0.00015   0.00012   0.00000   0.00010   1.59835
   A42        1.59825  -0.00015   0.00012   0.00000   0.00010   1.59835
   A43        1.95072  -0.00185  -0.02535   0.00000  -0.02484   1.92588
   A44        1.90290  -0.00076  -0.00853   0.00000  -0.00843   1.89446
   A45        1.90290  -0.00076  -0.00853   0.00000  -0.00843   1.89446
    D1        0.00000   0.00000   0.00000   0.00000   0.00000   0.00000
    D2        0.97175   0.00042   0.00631   0.00000   0.00616   0.97791
    D3       -0.97175  -0.00042  -0.00631   0.00000  -0.00616  -0.97791
    D4        0.00000   0.00000   0.00000   0.00000   0.00000   0.00000
    D5        0.00000   0.00000   0.00000   0.00000   0.00000   0.00000
    D6       -0.97175  -0.00042  -0.00631   0.00000  -0.00616  -0.97791
    D7        0.97175   0.00042   0.00631   0.00000   0.00616   0.97791
    D8        0.00000   0.00000   0.00000   0.00000   0.00000   0.00000
    D9        1.44266   0.00097   0.00637   0.00000   0.00635   1.44900
   D10        0.41975   0.00051   0.00921   0.00000   0.00912   0.42887
   D11       -0.65308   0.00116   0.01907   0.00000   0.01914  -0.63394
   D12       -1.44266  -0.00097  -0.00637   0.00000  -0.00635  -1.44900
   D13       -0.41975  -0.00051  -0.00921   0.00000  -0.00912  -0.42887
   D14        0.65308  -0.00116  -0.01907   0.00000  -0.01914   0.63394
   D15       -0.52382   0.00000   0.00000   0.00000   0.00000  -0.52382
   D16        0.52382   0.00000   0.00000   0.00000   0.00000   0.52382
   D17        0.00000   0.00000   0.00000   0.00000   0.00000   0.00000
   D18        1.04763   0.00000   0.00000   0.00000   0.00000   1.04764
   D19       -1.04763   0.00000   0.00000   0.00000   0.00000  -1.04764
   D20        0.00000   0.00000   0.00000   0.00000   0.00000   0.00000
   D21        0.00000   0.00000   0.00000   0.00000   0.00000   0.00000
   D22        0.97175   0.00042   0.00631   0.00000   0.00616   0.97791
   D23       -0.97175  -0.00042  -0.00631   0.00000  -0.00616  -0.97791
   D24        0.00000   0.00000   0.00000   0.00000   0.00000   0.00000
   D25        1.44266   0.00097   0.00637   0.00000   0.00635   1.44900
   D26        0.41975   0.00051   0.00921   0.00000   0.00912   0.42887
   D27       -0.65308   0.00116   0.01907   0.00000   0.01914  -0.63394
   D28       -1.44266  -0.00097  -0.00637   0.00000  -0.00635  -1.44900
   D29       -0.41975  -0.00051  -0.00921   0.00000  -0.00912  -0.42887
   D30        0.65308  -0.00116  -0.01907   0.00000  -0.01914   0.63394
   D31        0.52382   0.00000   0.00000   0.00000   0.00000   0.52382
   D32       -0.52382   0.00000   0.00000   0.00000   0.00000  -0.52382
   D33        0.00000   0.00000   0.00000   0.00000   0.00000   0.00000
   D34       -1.04763   0.00000   0.00000   0.00000   0.00000  -1.04764
   D35        1.04763   0.00000   0.00000   0.00000   0.00000   1.04764
   D36        0.00000   0.00000   0.00000   0.00000   0.00000   0.00000
   D37       -1.44266  -0.00097  -0.00637   0.00000  -0.00635  -1.44900
   D38       -0.41975  -0.00051  -0.00921   0.00000  -0.00912  -0.42887
   D39        0.65308  -0.00116  -0.01907   0.00000  -0.01914   0.63394
   D40        1.44266   0.00097   0.00637   0.00000   0.00635   1.44900
   D41        0.41975   0.00051   0.00921   0.00000   0.00912   0.42887
   D42       -0.65308   0.00116   0.01907   0.00000   0.01914  -0.63394
   D43       -0.52382   0.00000   0.00000   0.00000   0.00000  -0.52382
   D44        0.52382   0.00000   0.00000   0.00000   0.00000   0.52382
   D45        0.00000   0.00000   0.00000   0.00000   0.00000   0.00000
   D46        1.04763   0.00000   0.00000   0.00000   0.00000   1.04764
   D47       -1.04763   0.00000   0.00000   0.00000   0.00000  -1.04764
   D48        0.00000   0.00000   0.00000   0.00000   0.00000   0.00000
   D49        0.76554  -0.00010   0.00349   0.00000   0.00367   0.76921
   D50       -0.35641   0.00072   0.01201   0.00000   0.01183  -0.34458
   D51       -0.76554   0.00010  -0.00349   0.00000  -0.00367  -0.76921
   D52        0.35641  -0.00072  -0.01201   0.00000  -0.01183   0.34458
   D53        0.76554  -0.00010   0.00349   0.00000   0.00367   0.76921
   D54       -0.35641   0.00072   0.01201   0.00000   0.01183  -0.34458
   D55       -0.76554   0.00010  -0.00349   0.00000  -0.00367  -0.76921
   D56        0.35641  -0.00072  -0.01201   0.00000  -0.01183   0.34458
   D57       -0.76554   0.00010  -0.00349   0.00000  -0.00367  -0.76921
   D58        0.35641  -0.00072  -0.01201   0.00000  -0.01183   0.34458
   D59        0.76554  -0.00010   0.00349   0.00000   0.00367   0.76921
   D60       -0.35641   0.00072   0.01201   0.00000   0.01183  -0.34458
   D61        0.00000   0.00000   0.00000   0.00000   0.00000   0.00000
   D62        0.96364  -0.00078  -0.01050   0.00000  -0.01020   0.95344
   D63       -0.96364   0.00078   0.01050   0.00000   0.01020  -0.95344
   D64        0.00000   0.00000   0.00000   0.00000   0.00000   0.00000
   D65        0.00000   0.00000   0.00000   0.00000   0.00000   0.00000
   D66       -0.96364   0.00078   0.01050   0.00000   0.01020  -0.95344
   D67        0.96364  -0.00078  -0.01050   0.00000  -0.01020   0.95344
   D68        0.00000   0.00000   0.00000   0.00000   0.00000   0.00000
   D69        0.00000   0.00000   0.00000   0.00000   0.00000   0.00000
   D70        0.96364  -0.00078  -0.01050   0.00000  -0.01020   0.95344
   D71       -0.96364   0.00078   0.01050   0.00000   0.01020  -0.95344
   D72        0.00000   0.00000   0.00000   0.00000   0.00000   0.00000
         Item               Value     Threshold  Converged?
 Maximum Force            0.011011     0.000450     NO 
 RMS     Force            0.003370     0.000300     NO 
 Maximum Displacement     0.089652     0.001800     NO 
 RMS     Displacement     0.019605     0.001200     NO 
 Predicted change in Energy=-1.320138D-02
 GradGradGradGradGradGradGradGradGradGradGradGradGradGradGradGradGradGrad

                          Input orientation:                          
 ---------------------------------------------------------------------
 Center     Atomic     Atomic              Coordinates (Angstroms)
 Number     Number      Type              X           Y           Z
 ---------------------------------------------------------------------
    1         14             0        0.000000    0.000000    2.872442
    2         14             0       -1.371527   -0.791852    1.036137
    3         14             0        0.000000    1.583703    1.036137
    4         14             0        1.371527   -0.791852    1.036137
    5         14             0        2.115028    1.221112   -0.274011
    6         14             0       -2.115028    1.221112   -0.274011
    7         14             0        0.000000   -2.442224   -0.274011
    8         14             0       -1.295567   -0.747996   -1.719607
    9         14             0        0.000000    1.495992   -1.719607
   10         14             0        1.295567   -0.747996   -1.719607
 ---------------------------------------------------------------------
                    Distance matrix (angstroms):
                    1          2          3          4          5
     1  Si   0.000000
     2  Si   2.424899   0.000000
     3  Si   2.424899   2.743055   0.000000
     4  Si   2.424899   2.743055   2.743055   0.000000
     5  Si   3.983043   4.233743   2.514220   2.514220   0.000000
     6  Si   3.983043   2.514220   2.514220   4.233743   4.230056
     7  Si   3.983043   2.514220   4.233743   2.514220   4.230056
     8  Si   4.829586   2.757139   3.835288   3.835288   4.195151
     9  Si   4.829586   3.835288   2.757139   3.835288   2.576558
    10  Si   4.829586   3.835288   3.835288   2.757139   2.576558
                    6          7          8          9         10
     6  Si   0.000000
     7  Si   4.230056   0.000000
     8  Si   2.576558   2.576558   0.000000
     9  Si   2.576558   4.195151   2.591134   0.000000
    10  Si   4.195151   2.576558   2.591134   2.591134   0.000000
 Stoichiometry    Si10(1-,2)
 Framework group  C3V[C3(Si),3SGV(Si3)]
 Deg. of freedom     6
 Full point group                 C3V
 Largest Abelian subgroup         CS      NOp   2
 Largest concise Abelian subgroup CS      NOp   2
                         Standard orientation:                         
 ---------------------------------------------------------------------
 Center     Atomic     Atomic              Coordinates (Angstroms)
 Number     Number      Type              X           Y           Z
 ---------------------------------------------------------------------
    1         14             0        0.000000    0.000000    2.872442
    2         14             0        0.000000   -1.583703    1.036137
    3         14             0       -1.371527    0.791852    1.036137
[...]
    -- Stationary point found.
                           ----------------------------
                           !   Optimized Parameters   !
                           ! (Angstroms and Degrees)  !
 --------------------------                            --------------------------
 ! Name  Definition              Value          Derivative Info.                !
 --------------------------------------------------------------------------------
 ! R1    R(1,2)                  2.4056         -DE/DX =    0.0                 !
 ! R2    R(1,3)                  2.4056         -DE/DX =    0.0                 !
 ! R3    R(1,4)                  2.4056         -DE/DX =    0.0                 !
 ! R4    R(2,3)                  2.6554         -DE/DX =    0.0                 !
 ! R5    R(2,4)                  2.6554         -DE/DX =    0.0                 !
 ! R6    R(2,6)                  2.4415         -DE/DX =    0.0                 !
 ! R7    R(2,7)                  2.4415         -DE/DX =    0.0                 !
 ! R8    R(2,8)                  2.6742         -DE/DX =    0.0                 !
 ! R9    R(3,4)                  2.6554         -DE/DX =    0.0                 !
 ! R10   R(3,5)                  2.4415         -DE/DX =    0.0                 !
 ! R11   R(3,6)                  2.4415         -DE/DX =    0.0                 !
 ! R12   R(3,9)                  2.6742         -DE/DX =    0.0                 !
 ! R13   R(4,5)                  2.4415         -DE/DX =    0.0                 !
 ! R14   R(4,7)                  2.4415         -DE/DX =    0.0                 !
 ! R15   R(4,10)                 2.6742         -DE/DX =    0.0                 !
 ! R16   R(5,9)                  2.5292         -DE/DX =    0.0                 !
 ! R17   R(5,10)                 2.5292         -DE/DX =    0.0                 !
 ! R18   R(6,8)                  2.5292         -DE/DX =    0.0                 !
 ! R19   R(6,9)                  2.5292         -DE/DX =    0.0                 !
 ! R20   R(7,8)                  2.5292         -DE/DX =    0.0                 !
 ! R21   R(7,10)                 2.5292         -DE/DX =    0.0                 !
 ! R22   R(8,9)                  2.532          -DE/DX =    0.0                 !
 ! R23   R(8,10)                 2.532          -DE/DX =    0.0                 !
 ! R24   R(9,10)                 2.532          -DE/DX =    0.0                 !
 ! A1    A(1,2,6)              107.7977         -DE/DX =    0.0                 !
 ! A2    A(1,2,7)              107.7977         -DE/DX =    0.0                 !
 ! A3    A(1,2,8)              138.8815         -DE/DX =    0.0                 !
 ! A4    A(3,2,7)              107.7439         -DE/DX =    0.0                 !
 ! A5    A(3,2,8)               88.6776         -DE/DX =    0.0                 !
 ! A6    A(4,2,6)              107.7439         -DE/DX =    0.0                 !
 ! A7    A(4,2,8)               88.6776         -DE/DX =    0.0                 !
 ! A8    A(6,2,7)              116.1114         -DE/DX =    0.0                 !
 ! A9    A(1,3,5)              107.7977         -DE/DX =    0.0                 !
 ! A10   A(1,3,6)              107.7977         -DE/DX =    0.0                 !
 ! A11   A(1,3,9)              138.8815         -DE/DX =    0.0                 !
 ! A12   A(2,3,5)              107.7439         -DE/DX =    0.0                 !
 ! A13   A(2,3,9)               88.6776         -DE/DX =    0.0                 !
 ! A14   A(4,3,6)              107.7439         -DE/DX =    0.0                 !
 ! A15   A(4,3,9)               88.6776         -DE/DX =    0.0                 !
 ! A16   A(5,3,6)              116.1114         -DE/DX =    0.0                 !
 ! A17   A(1,4,5)              107.7977         -DE/DX =    0.0                 !
 ! A18   A(1,4,7)              107.7977         -DE/DX =    0.0                 !
 ! A19   A(1,4,10)             138.8815         -DE/DX =    0.0                 !
 ! A20   A(2,4,5)              107.7439         -DE/DX =    0.0                 !
 ! A21   A(2,4,10)              88.6776         -DE/DX =    0.0                 !
 ! A22   A(3,4,7)              107.7439         -DE/DX =    0.0                 !
 ! A23   A(3,4,10)              88.6776         -DE/DX =    0.0                 !
 ! A24   A(5,4,7)              116.1114         -DE/DX =    0.0                 !
 ! A25   A(3,5,10)              97.0545         -DE/DX =    0.0                 !
 ! A26   A(4,5,9)               97.0545         -DE/DX =    0.0                 !
 ! A27   A(2,6,9)               97.0545         -DE/DX =    0.0                 !
 ! A28   A(3,6,8)               97.0545         -DE/DX =    0.0                 !
 ! A29   A(2,7,10)              97.0545         -DE/DX =    0.0                 !
 ! A30   A(4,7,8)               97.0545         -DE/DX =    0.0                 !
 ! A31   A(2,8,9)               91.3224         -DE/DX =    0.0                 !
 ! A32   A(2,8,10)              91.3224         -DE/DX =    0.0                 !
 ! A33   A(6,8,7)              110.0005         -DE/DX =    0.0                 !
 ! A34   A(6,8,10)             108.5784         -DE/DX =    0.0                 !
 ! A35   A(7,8,9)              108.5784         -DE/DX =    0.0                 !
 ! A36   A(3,9,8)               91.3224         -DE/DX =    0.0                 !
 ! A37   A(3,9,10)              91.3224         -DE/DX =    0.0                 !
 ! A38   A(5,9,6)              110.0005         -DE/DX =    0.0                 !
 ! A39   A(5,9,8)              108.5784         -DE/DX =    0.0                 !
 ! A40   A(6,9,10)             108.5784         -DE/DX =    0.0                 !
 ! A41   A(4,10,8)              91.3224         -DE/DX =    0.0                 !
 ! A42   A(4,10,9)              91.3224         -DE/DX =    0.0                 !
 ! A43   A(5,10,7)             110.0005         -DE/DX =    0.0                 !
 ! A44   A(5,10,8)             108.5784         -DE/DX =    0.0                 !
 ! A45   A(7,10,9)             108.5784         -DE/DX =    0.0                 !
 ! D1    D(7,2,3,5)              0.0            -DE/DX =    0.0                 !
 ! D2    D(7,2,3,9)             56.8048         -DE/DX =    0.0                 !
 ! D3    D(8,2,3,5)            -56.8048         -DE/DX =    0.0                 !
 ! D4    D(8,2,3,9)              0.0            -DE/DX =    0.0                 !
 ! D5    D(6,2,4,5)              0.0            -DE/DX =    0.0                 !
 ! D6    D(6,2,4,10)           -56.8048         -DE/DX =    0.0                 !
 ! D7    D(8,2,4,5)             56.8048         -DE/DX =    0.0                 !
 ! D8    D(8,2,4,10)             0.0            -DE/DX =    0.0                 !
 ! D9    D(1,2,6,9)             84.6197         -DE/DX =    0.0                 !
 ! D10   D(4,2,6,9)             25.0108         -DE/DX =    0.0                 !
 ! D11   D(7,2,6,9)            -36.3679         -DE/DX =    0.0                 !
 ! D12   D(1,2,7,10)           -84.6197         -DE/DX =    0.0                 !
 ! D13   D(3,2,7,10)           -25.0108         -DE/DX =    0.0                 !
 ! D14   D(6,2,7,10)            36.3679         -DE/DX =    0.0                 !
 ! D15   D(1,2,8,9)            -30.0088         -DE/DX =    0.0                 !
 ! D16   D(1,2,8,10)            30.0088         -DE/DX =    0.0                 !
 ! D17   D(3,2,8,9)              0.0            -DE/DX =    0.0                 !
 ! D18   D(3,2,8,10)            60.0176         -DE/DX =    0.0                 !
 ! D19   D(4,2,8,9)            -60.0176         -DE/DX =    0.0                 !
 ! D20   D(4,2,8,10)             0.0            -DE/DX =    0.0                 !
 ! D21   D(6,3,4,7)              0.0            -DE/DX =    0.0                 !
 ! D22   D(6,3,4,10)            56.8048         -DE/DX =    0.0                 !
 ! D23   D(9,3,4,7)            -56.8048         -DE/DX =    0.0                 !
 ! D24   D(9,3,4,10)             0.0            -DE/DX =    0.0                 !
 ! D25   D(1,3,5,10)            84.6197         -DE/DX =    0.0                 !
 ! D26   D(2,3,5,10)            25.0108         -DE/DX =    0.0                 !
 ! D27   D(6,3,5,10)           -36.3679         -DE/DX =    0.0                 !
 ! D28   D(1,3,6,8)            -84.6197         -DE/DX =    0.0                 !
 ! D29   D(4,3,6,8)            -25.0108         -DE/DX =    0.0                 !
 ! D30   D(5,3,6,8)             36.3679         -DE/DX =    0.0                 !
 ! D31   D(1,3,9,8)             30.0088         -DE/DX =    0.0                 !
 ! D32   D(1,3,9,10)           -30.0088         -DE/DX =    0.0                 !
 ! D33   D(2,3,9,8)              0.0            -DE/DX =    0.0                 !
 ! D34   D(2,3,9,10)           -60.0176         -DE/DX =    0.0                 !
 ! D35   D(4,3,9,8)             60.0176         -DE/DX =    0.0                 !
 ! D36   D(4,3,9,10)             0.0            -DE/DX =    0.0                 !
 ! D37   D(1,4,5,9)            -84.6197         -DE/DX =    0.0                 !
 ! D38   D(2,4,5,9)            -25.0108         -DE/DX =    0.0                 !
 ! D39   D(7,4,5,9)             36.3679         -DE/DX =    0.0                 !
 ! D40   D(1,4,7,8)             84.6197         -DE/DX =    0.0                 !
 ! D41   D(3,4,7,8)             25.0108         -DE/DX =    0.0                 !
 ! D42   D(5,4,7,8)            -36.3679         -DE/DX =    0.0                 !
 ! D43   D(1,4,10,8)           -30.0088         -DE/DX =    0.0                 !
 ! D44   D(1,4,10,9)            30.0088         -DE/DX =    0.0                 !
 ! D45   D(2,4,10,8)             0.0            -DE/DX =    0.0                 !
 ! D46   D(2,4,10,9)            60.0176         -DE/DX =    0.0                 !
 ! D47   D(3,4,10,8)           -60.0176         -DE/DX =    0.0                 !
 ! D48   D(3,4,10,9)             0.0            -DE/DX =    0.0                 !
 ! D49   D(4,5,9,6)             44.5916         -DE/DX =    0.0                 !
 ! D50   D(4,5,9,8)            -19.3285         -DE/DX =    0.0                 !
 ! D51   D(3,5,10,7)           -44.5916         -DE/DX =    0.0                 !
 ! D52   D(3,5,10,8)            19.3285         -DE/DX =    0.0                 !
 ! D53   D(3,6,8,7)             44.5916         -DE/DX =    0.0                 !
 ! D54   D(3,6,8,10)           -19.3285         -DE/DX =    0.0                 !
 ! D55   D(2,6,9,5)            -44.5916         -DE/DX =    0.0                 !
 ! D56   D(2,6,9,10)            19.3285         -DE/DX =    0.0                 !
 ! D57   D(4,7,8,6)            -44.5916         -DE/DX =    0.0                 !
 ! D58   D(4,7,8,9)             19.3285         -DE/DX =    0.0                 !
 ! D59   D(2,7,10,5)            44.5916         -DE/DX =    0.0                 !
 ! D60   D(2,7,10,9)           -19.3285         -DE/DX =    0.0                 !
 ! D61   D(2,8,9,3)              0.0            -DE/DX =    0.0                 !
 ! D62   D(2,8,9,5)             54.2602         -DE/DX =    0.0                 !
 ! D63   D(7,8,9,3)            -54.2602         -DE/DX =    0.0                 !
 ! D64   D(7,8,9,5)              0.0            -DE/DX =    0.0                 !
 ! D65   D(2,8,10,4)             0.0            -DE/DX =    0.0                 !
 ! D66   D(2,8,10,5)           -54.2602         -DE/DX =    0.0                 !
 ! D67   D(6,8,10,4)            54.2602         -DE/DX =    0.0                 !
 ! D68   D(6,8,10,5)             0.0            -DE/DX =    0.0                 !
 ! D69   D(3,9,10,4)             0.0            -DE/DX =    0.0                 !
 ! D70   D(3,9,10,7)            54.2602         -DE/DX =    0.0                 !
 ! D71   D(6,9,10,4)           -54.2602         -DE/DX =    0.0                 !
 ! D72   D(6,9,10,7)             0.0            -DE/DX =    0.0                 !
 --------------------------------------------------------------------------------
 GradGradGradGradGradGradGradGradGradGradGradGradGradGradGradGradGradGrad

 1\1\GINC-NODE24\Freq\UB3LYP\6-311+G(d)\Si10(1-,2)\TAM\10-Nov-2010\0\\#
 N Geom=AllCheck Guess=Read SCRF=Check GenChk UB3LYP/6-311+G(d) Freq\\s
 i10-an-doublet-01\\-1,2\Si,0.,0.,2.8592353343\Si,-1.3277049575,-0.7665
 508146,1.0054762112\Si,0.,1.5331016292,1.0054762112\Si,1.3277049575,-0
 .7665508146,1.0054762112\Si,2.071794556,1.1961511446,-0.241607586\Si,-
 2.071794556,1.1961511446,-0.241607586\Si,0.,-2.3923022892,-0.241607586
 \Si,-1.2659914284,-0.730920492,-1.6677433642\Si,0.,1.4618409839,-1.667
 7433642\Si,1.2659914284,-0.730920492,-1.6677433642\\Version=AM64L-G03R
 evE.01\State=2-A1\HF=-2895.1947773\S2=0.757185\S2-1=0.\S2A=0.750045\RM
 SD=1.703e-09\RMSF=2.664e-06\ZeroPoint=0.0146277\Thermal=0.0288567\Dipo
 le=0.,0.,0.3435387\DipoleDeriv=0.0529455,-0.0000046,0.0000937,-0.00000
 46,0.0529509,0.0000541,-0.0002556,-0.0001475,-0.0051864,-0.2394784,-0.
 0875452,0.0199013,-0.0875452,-0.13839,0.01149,-0.0295169,-0.0170416,-0
 .1524191,-0.0878459,-0.0000237,-0.0000659,0.0000582,-0.2898862,-0.0229
 773,0.0000668,0.0340908,-0.15245,-0.2393612,0.0875356,-0.0199319,0.087
 4537,-0.1383709,0.0114316,0.0295569,-0.0169875,-0.15245,-0.0162882,0.0
 746954,-0.0262716,0.0746954,-0.1025391,-0.0151679,-0.032052,-0.0185052
 ,-0.0988315,-0.0160008,-0.0746624,0.0263777,-0.0747732,-0.1024102,-0.0
 152306,0.0320905,-0.0185017,-0.0987416,-0.1455154,0.000002,-0.0000012,
 0.0001128,0.0271044,0.0304591,0.0000223,0.037042,-0.0987416,-0.101639,
 0.0024717,0.0824356,0.0024717,-0.1044931,0.0475942,-0.0106537,-0.00615
 09,-0.080572,-0.1058997,-0.0000102,-0.0000206,0.0000417,-0.1001382,-0.
 0952167,-0.0000414,0.0123277,-0.0804674,-0.101565,-0.002461,-0.0824704
 ,-0.0025129,-0.104473,0.0475905,0.0106554,-0.0061997,-0.0804674\Polar=
 331.0976964,0.0111904,331.0847749,-0.0034101,-0.0019687,378.2783541\PG
 =C03V [C3(Si1),3SGV(Si3)]\NImag=0\\0.03675182,0.00000232,0.03674915,0.
 00000740,0.00000427,0.12632927,-0.00937688,-0.00319223,-0.02246124,0.0
 6384682,-0.00319224,-0.00569080,-0.01296800,-0.00829453,0.07342452,-0.
 02772151,-0.01600502,-0.03766543,0.00593818,0.00342841,0.09255194,-0.0
 0384967,-0.00000098,-0.00000528,-0.00510448,-0.00865349,0.00877753,0.0
 7821337,-0.00000133,-0.01122170,0.02593596,-0.01131895,-0.01663557,-0.
 00583709,0.,0.05905797,-0.00000160,0.03200797,-0.03766068,0.00944383,-
 0.00468302,0.00408067,0.,-0.00685682,0.09255194,-0.00937970,0.00319143
 ,0.02245856,-0.02240112,-0.00133273,-0.00066631,-0.00510448,0.01131895
 ,-0.00944383,0.06384682,0.00319178,-0.00569168,-0.01297255,0.00133273,
 0.00066107,0.01052011,0.00865349,-0.01663557,-0.00468302,0.00829453,0.
 07342452,0.02771892,-0.01600537,-0.03766068,0.00066631,0.01052011,0.00
 408067,-0.00877753,-0.00583709,0.00408067,-0.00593818,0.00342841,0.092
 55194,-0.00110524,-0.00091058,-0.00247761,-0.00959794,-0.00176587,-0.0
 0116862,-0.03460604,-0.00250297,0.01502912,-0.00741620,-0.01036008,0.0
 0392123,0.09368057,-0.00091058,-0.00005379,-0.00143045,-0.00176587,-0.
 00755889,-0.00067471,0.00533799,0.00001029,-0.00414922,-0.01820103,-0.
 02717956,0.01509021,0.02871191,0.06052691,0.00411270,0.00237447,-0.002
 05517,0.00663534,0.00383091,-0.00003268,0.01567434,-0.00036945,-0.0124
 6597,0.00751722,0.01375910,-0.01246597,-0.00787247,-0.00454517,0.04790
 662,-0.00111031,0.00091090,0.00248010,-0.00741619,0.01036008,-0.003921
 23,-0.03460604,0.00250297,-0.01502912,-0.00959794,0.00176587,0.0011686
 2,-0.00418562,0.00273198,-0.00127633,0.09368057,0.00091404,-0.00005472
 ,-0.00142690,0.01820103,-0.02717956,0.01509021,-0.00533799,0.00001029,
 -0.00414922,0.00176587,-0.00755889,-0.00067471,-0.00273198,-0.00037886
 ,0.00007638,-0.02871191,0.06052691,-0.00411225,0.00237374,-0.00205401,
 -0.00751722,0.01375910,-0.01246597,-0.01567434,-0.00036945,-0.01246597
 ,-0.00663534,0.00383091,-0.00003268,0.00127633,0.00007638,-0.00263647,
 0.00787247,-0.00454517,0.04790662,0.00047160,0.00000072,0.00000432,-0.
 00987140,0.01961854,0.01110789,-0.00653937,0.,0.,-0.00987140,-0.019618
 54,-0.01110789,-0.00133055,-0.00438036,-0.00057202,-0.00133055,0.00438
 036,0.00057202,0.04395008,-0.00000242,-0.00163663,0.00286127,0.0117775
 9,-0.02472436,-0.01094099,0.,-0.01061746,0.00134941,-0.01177759,-0.024
 72436,-0.01094099,0.00108361,-0.00323393,-0.00114352,-0.00108361,-0.00
 323393,-0.00114352,0.,0.11025740,-0.00000041,-0.00474818,-0.00205401,0
 .00815712,-0.01338965,-0.01246597,0.,-0.00766183,-0.00003268,-0.008157
 12,-0.01338965,-0.01246597,0.00070431,0.00106714,-0.00263647,-0.000704
 31,0.00106714,-0.00263647,0.,0.00909035,0.04790662,-0.00400041,0.00022
 346,0.00213842,0.00508060,-0.00170774,-0.00248782,0.00177390,-0.001061
 75,0.00067857,-0.00719848,-0.00441290,-0.00472782,-0.00605768,-0.00118
 571,-0.00440335,-0.00629061,0.01257474,0.00637035,-0.00572936,0.007134
 94,-0.00707618,0.06655509,0.00022346,-0.00425844,0.00123462,-0.0017077
 4,0.00705253,-0.00143634,-0.00959310,-0.00403768,-0.00585098,0.0041184
 5,0.00493469,0.00351315,-0.00118571,-0.00468854,-0.00254227,0.00745897
 ,-0.01710875,-0.01184879,0.01225070,-0.01767000,0.01144128,0.00223090,
 0.06397906,-0.00504078,-0.00291030,-0.00239555,0.00495337,0.00285983,-
 0.01902415,-0.00562013,0.00335910,-0.00953098,0.00009900,-0.00654673,-
 0.00953098,0.00256621,0.00148160,-0.00326694,0.00152931,-0.01118951,-0
 .00617057,-0.00892574,0.00691918,-0.00617057,0.01473900,0.00850957,0.0
 4523740,-0.00438787,-0.00000023,-0.00000219,0.00202890,-0.00944588,0.0
 0540638,0.00803850,0.,0.,0.00202890,0.00944588,-0.00540638,-0.02307906
 ,0.00223385,-0.01344653,-0.02307906,-0.00223385,0.01344653,-0.00400397
 ,0.,0.,-0.01012118,-0.01378334,-0.00460804,0.06269105,-0.00000064,-0.0
 0387236,-0.00246837,-0.00091453,-0.00429268,0.00233783,0.,0.00409464,0
 .00287269,0.00091453,-0.00429268,0.00233783,-0.00288192,-0.00032029,0.
 00040751,0.00288192,-0.00032029,0.00040751,0.,-0.00674224,0.00508455,-
 0.01380667,-0.02605028,0.00302000,0.,0.06784310,0.00000024,0.00582071,
 -0.00239667,-0.00571913,0.00318763,-0.00953098,0.,-0.00571966,-0.01902
 415,0.00571913,0.00318763,-0.00953098,-0.01045505,0.00427033,-0.006170
 57,0.01045505,0.00427033,-0.00617057,0.,-0.00296321,-0.00326694,-0.004
 91942,0.00248068,0.00542470,0.,-0.01701914,0.04523740,-0.00400161,-0.0
 0022365,-0.00213877,-0.00719848,0.00441290,0.00472782,0.00177390,0.001
 06175,-0.00067857,0.00508060,0.00170774,0.00248782,-0.00629061,-0.0125
 7474,-0.00637034,-0.00605768,0.00118571,0.00440335,-0.00572936,-0.0071
 3494,0.00707618,-0.03401483,-0.00001166,0.00031138,-0.01012118,0.01380
 667,0.00491942,0.06655509,-0.00022323,-0.00425861,0.00123229,-0.004118
 45,0.00493469,0.00351315,0.00959310,-0.00403768,-0.00585098,0.00170774
 ,0.00705253,-0.00143634,-0.00745897,-0.01710875,-0.01184879,0.00118571
 ,-0.00468854,-0.00254227,-0.01225070,-0.01767000,0.01144128,0.00001166
 ,-0.00215663,-0.00550069,0.01378334,-0.02605028,0.00248068,-0.00223090
 ,0.06397906,0.00504100,-0.00291015,-0.00239667,-0.00009900,-0.00654673
 ,-0.00953098,0.00562013,0.00335910,-0.00953098,-0.00495337,0.00285983,
 -0.01902415,-0.00152931,-0.01118951,-0.00617057,-0.00256621,0.00148160
 ,-0.00326694,0.00892574,0.00691918,-0.00617057,-0.00031138,-0.00550069
 ,0.00542470,0.00460804,0.00302000,0.00542470,-0.01473900,0.00850957,0.
 04523740\\0.,0.,0.00000668,0.00000481,0.00000278,-0.00000447,0.,-0.000
 00555,-0.00000447,-0.00000481,0.00000278,-0.00000447,-0.00000128,-0.00
 000074,0.00000159,0.00000128,-0.00000074,0.00000159,0.,0.00000147,0.00
 000159,0.00000034,0.00000019,0.00000066,0.,-0.00000039,0.00000066,-0.0
 0000034,0.00000019,0.00000066\\\@


 CONFIDENCE: THAT QUIET ASSURED FEELING YOU HAVE
 JUST BEFORE YOU FALL FLAT ON YOUR FACE.
 Job cpu time:  0 days  1 hours 35 minutes 24.9 seconds.
 File lengths (MBytes):  RWF=    217 Int=      0 D2E=      0 Chk=     12 Scr=      1
 Normal termination of Gaussian 03 at Wed Nov 10 16:16:16 2010.
