 Entering Gaussian System, Link 0=g03
 Initial command:
 /usr/local/chem/g03E01/l1.exe /temp0/tam/Gau-18349.inp -scrdir=/temp0/tam/
 Entering Link 1 = /usr/local/chem/g03E01/l1.exe PID=     18350.
  
 Copyright (c) 1988,1990,1992,1993,1995,1998,2003,2004,2007, Gaussian, Inc.
                  All Rights Reserved.
  
 This is the Gaussian(R) 03 program.  It is based on the
 the Gaussian(R) 98 system (copyright 1998, Gaussian, Inc.),
 the Gaussian(R) 94 system (copyright 1995, Gaussian, Inc.),
 the Gaussian 92(TM) system (copyright 1992, Gaussian, Inc.),
 the Gaussian 90(TM) system (copyright 1990, Gaussian, Inc.),
 the Gaussian 88(TM) system (copyright 1988, Gaussian, Inc.),
 the Gaussian 86(TM) system (copyright 1986, Carnegie Mellon
 University), and the Gaussian 82(TM) system (copyright 1983,
 Carnegie Mellon University). Gaussian is a federally registered
 trademark of Gaussian, Inc.
  
 This software contains proprietary and confidential information,
 including trade secrets, belonging to Gaussian, Inc.
  
 This software is provided under written license and may be
 used, copied, transmitted, or stored only in accord with that
 written license.
  
 The following legend is applicable only to US Government
 contracts under FAR:
  
                    RESTRICTED RIGHTS LEGEND
  
 Use, reproduction and disclosure by the US Government is
 subject to restrictions as set forth in subparagraphs (a)
 and (c) of the Commercial Computer Software - Restricted
 Rights clause in FAR 52.227-19.
  
 Gaussian, Inc.
 340 Quinnipiac St., Bldg. 40, Wallingford CT 06492
  
  
 ---------------------------------------------------------------
 Warning -- This program may not be used in any manner that
 competes with the business of Gaussian, Inc. or will provide
 assistance to any competitor of Gaussian, Inc.  The licensee
 of this program is prohibited from giving any competitor of
 Gaussian, Inc. access to this program.  By using this program,
 the user acknowledges that Gaussian, Inc. is engaged in the
 business of creating and licensing software in the field of
 computational chemistry and represents and warrants to the
 licensee that it is not a competitor of Gaussian, Inc. and that
 it will not use this program in any manner prohibited above.
 ---------------------------------------------------------------
  

 Cite this work as:
 Gaussian 03, Revision E.01,
 M. J. Frisch, G. W. Trucks, H. B. Schlegel, G. E. Scuseria, 
 M. A. Robb, J. R. Cheeseman, J. A. Montgomery, Jr., T. Vreven, 
 K. N. Kudin, J. C. Burant, J. M. Millam, S. S. Iyengar, J. Tomasi, 
 V. Barone, B. Mennucci, M. Cossi, G. Scalmani, N. Rega, 
 G. A. Petersson, H. Nakatsuji, M. Hada, M. Ehara, K. Toyota, 
 R. Fukuda, J. Hasegawa, M. Ishida, T. Nakajima, Y. Honda, O. Kitao, 
 H. Nakai, M. Klene, X. Li, J. E. Knox, H. P. Hratchian, J. B. Cross, 
 V. Bakken, C. Adamo, J. Jaramillo, R. Gomperts, R. E. Stratmann, 
 O. Yazyev, A. J. Austin, R. Cammi, C. Pomelli, J. W. Ochterski, 
 P. Y. Ayala, K. Morokuma, G. A. Voth, P. Salvador, J. J. Dannenberg, 
 V. G. Zakrzewski, S. Dapprich, A. D. Daniels, M. C. Strain, 
 O. Farkas, D. K. Malick, A. D. Rabuck, K. Raghavachari, 
 J. B. Foresman, J. V. Ortiz, Q. Cui, A. G. Baboul, S. Clifford, 
 J. Cioslowski, B. B. Stefanov, G. Liu, A. Liashenko, P. Piskorz, 
 I. Komaromi, R. L. Martin, D. J. Fox, T. Keith, M. A. Al-Laham, 
 C. Y. Peng, A. Nanayakkara, M. Challacombe, P. M. W. Gill, 
 B. Johnson, W. Chen, M. W. Wong, C. Gonzalez, and J. A. Pople, 
 Gaussian, Inc., Wallingford CT, 2004.
 
 ******************************************
 Gaussian 03:  AM64L-G03RevE.01 11-Sep-2007
                 2-Dec-2011 
 ******************************************
 %NprocShared=8
 Will use up to    8 processors via shared memory.
 %mem=17750MB
 %chk=S9L-ne-d-01
 ----------------------------------------------------------------------
 # b3lyp/LANL2DZ opt=(calcall,noeigentest,maxcycle=500) scfcyc=500 scf=
 xqc
 ----------------------------------------------------------------------
 1/6=500,10=4,11=1,14=-1,18=20,26=3,38=1/1,3;
 2/9=110,17=6,18=5,40=1/2;
 3/5=6,6=3,11=2,16=1,25=1,30=1,74=-5/1,2,3;
 4//1;
 5/5=2,7=500,8=3,13=1,38=5/2,8;
 8/6=4,10=90,11=11/1;
 11/6=1,8=1,9=11,15=111,16=1/1,2,10;
 10/6=1/2;
 6/7=2,8=2,9=2,10=2,18=1,28=1/1;
 7/10=1,25=1/1,2,3,16;
 1/6=500,10=4,11=1,14=-1,18=20/3(3);
 2/9=110/2;
 7/8=1,9=1,25=1,44=-1/16;
 99//99;
 2/9=110/2;
 3/5=6,6=3,11=2,16=1,25=1,30=1,74=-5/1,2,3;
 4/5=5,16=3/1;
 5/5=2,7=500,8=3,13=1,38=5/2,8;
 8/6=4,10=90,11=11/1;
 11/6=1,8=1,9=11,15=111,16=1/1,2,10;
 10/6=1/2;
 7/10=1,25=1/1,2,3,16;
 1/6=500,10=4,11=1,14=-1,18=20/3(-8);
 2/9=110/2;
 6/7=2,8=2,9=2,10=2,18=1,19=2,28=1/1;
 7/8=1,9=1,25=1,44=-1/16;
 99//99;
 ------
 si10-n
 ------
 Symbolic Z-matrix:
 Charge = -2 Multiplicity = 1
 Si                    0.        0.        2.71536 
 Si                    0.        1.88906   0.95876 
 Si                    1.88906   0.        0.95876 
 Si                   -1.88906   0.        0.95876 
 Si                    0.       -1.88906   0.95876 
 Si                    1.33577   1.33577  -0.95876 
 Si                   -1.33577   1.33577  -0.95876 
 Si                    0.        0.       -2.71536 
 Si                    1.33577  -1.33577  -0.95876 
 Si                   -1.33577  -1.33577  -0.95876 
 

 GradGradGradGradGradGradGradGradGradGradGradGradGradGradGradGradGradGrad
 Berny optimization.
 Initialization pass.
                           ----------------------------
                           !    Initial Parameters    !
                           ! (Angstroms and Degrees)  !
 --------------------------                            --------------------------
 ! Name  Definition              Value          Derivative Info.                !
 --------------------------------------------------------------------------------
 ! R1    R(1,2)                  2.5796         calculate D2E/DX2 analytically  !
 ! R2    R(1,3)                  2.5796         calculate D2E/DX2 analytically  !
 ! R3    R(1,4)                  2.5796         calculate D2E/DX2 analytically  !
 ! R4    R(1,5)                  2.5796         calculate D2E/DX2 analytically  !
 ! R5    R(2,3)                  2.6715         calculate D2E/DX2 analytically  !
 ! R6    R(2,4)                  2.6715         calculate D2E/DX2 analytically  !
 ! R7    R(2,6)                  2.4015         calculate D2E/DX2 analytically  !
 ! R8    R(2,7)                  2.4015         calculate D2E/DX2 analytically  !
 ! R9    R(3,5)                  2.6715         calculate D2E/DX2 analytically  !
 ! R10   R(3,6)                  2.4015         calculate D2E/DX2 analytically  !
 ! R11   R(3,9)                  2.4015         calculate D2E/DX2 analytically  !
 ! R12   R(4,5)                  2.6715         calculate D2E/DX2 analytically  !
 ! R13   R(4,7)                  2.4015         calculate D2E/DX2 analytically  !
 ! R14   R(4,10)                 2.4015         calculate D2E/DX2 analytically  !
 ! R15   R(5,9)                  2.4015         calculate D2E/DX2 analytically  !
 ! R16   R(5,10)                 2.4015         calculate D2E/DX2 analytically  !
 ! R17   R(6,7)                  2.6715         calculate D2E/DX2 analytically  !
 ! R18   R(6,8)                  2.5796         calculate D2E/DX2 analytically  !
 ! R19   R(6,9)                  2.6715         calculate D2E/DX2 analytically  !
 ! R20   R(7,8)                  2.5796         calculate D2E/DX2 analytically  !
 ! R21   R(7,10)                 2.6715         calculate D2E/DX2 analytically  !
 ! R22   R(8,9)                  2.5796         calculate D2E/DX2 analytically  !
 ! R23   R(8,10)                 2.5796         calculate D2E/DX2 analytically  !
 ! R24   R(9,10)                 2.6715         calculate D2E/DX2 analytically  !
 ! A1    A(2,1,5)               94.1617         calculate D2E/DX2 analytically  !
 ! A2    A(3,1,4)               94.1617         calculate D2E/DX2 analytically  !
 ! A3    A(1,2,6)              112.0247         calculate D2E/DX2 analytically  !
 ! A4    A(1,2,7)              112.0247         calculate D2E/DX2 analytically  !
 ! A5    A(3,2,4)               90.0            calculate D2E/DX2 analytically  !
 ! A6    A(3,2,7)              103.3202         calculate D2E/DX2 analytically  !
 ! A7    A(4,2,6)              103.3202         calculate D2E/DX2 analytically  !
 ! A8    A(1,3,6)              112.0247         calculate D2E/DX2 analytically  !
 ! A9    A(1,3,9)              112.0247         calculate D2E/DX2 analytically  !
 ! A10   A(2,3,5)               90.0            calculate D2E/DX2 analytically  !
 ! A11   A(2,3,9)              103.3202         calculate D2E/DX2 analytically  !
 ! A12   A(5,3,6)              103.3202         calculate D2E/DX2 analytically  !
 ! A13   A(1,4,7)              112.0247         calculate D2E/DX2 analytically  !
 ! A14   A(1,4,10)             112.0247         calculate D2E/DX2 analytically  !
 ! A15   A(2,4,5)               90.0            calculate D2E/DX2 analytically  !
 ! A16   A(2,4,10)             103.3202         calculate D2E/DX2 analytically  !
 ! A17   A(5,4,7)              103.3202         calculate D2E/DX2 analytically  !
 ! A18   A(1,5,9)              112.0247         calculate D2E/DX2 analytically  !
 ! A19   A(1,5,10)             112.0247         calculate D2E/DX2 analytically  !
 ! A20   A(3,5,4)               90.0            calculate D2E/DX2 analytically  !
 ! A21   A(3,5,10)             103.3202         calculate D2E/DX2 analytically  !
 ! A22   A(4,5,9)              103.3202         calculate D2E/DX2 analytically  !
 ! A23   A(2,6,8)              112.0247         calculate D2E/DX2 analytically  !
 ! A24   A(2,6,9)              103.3202         calculate D2E/DX2 analytically  !
 ! A25   A(3,6,7)              103.3202         calculate D2E/DX2 analytically  !
 ! A26   A(3,6,8)              112.0247         calculate D2E/DX2 analytically  !
 ! A27   A(7,6,9)               90.0            calculate D2E/DX2 analytically  !
 ! A28   A(2,7,8)              112.0247         calculate D2E/DX2 analytically  !
 ! A29   A(2,7,10)             103.3202         calculate D2E/DX2 analytically  !
 ! A30   A(4,7,6)              103.3202         calculate D2E/DX2 analytically  !
 ! A31   A(4,7,8)              112.0247         calculate D2E/DX2 analytically  !
 ! A32   A(6,7,10)              90.0            calculate D2E/DX2 analytically  !
 ! A33   A(6,8,10)              94.1617         calculate D2E/DX2 analytically  !
 ! A34   A(7,8,9)               94.1617         calculate D2E/DX2 analytically  !
 ! A35   A(3,9,8)              112.0247         calculate D2E/DX2 analytically  !
 ! A36   A(3,9,10)             103.3202         calculate D2E/DX2 analytically  !
 ! A37   A(5,9,6)              103.3202         calculate D2E/DX2 analytically  !
 ! A38   A(5,9,8)              112.0247         calculate D2E/DX2 analytically  !
 ! A39   A(6,9,10)              90.0            calculate D2E/DX2 analytically  !
 ! A40   A(4,10,8)             112.0247         calculate D2E/DX2 analytically  !
 ! A41   A(4,10,9)             103.3202         calculate D2E/DX2 analytically  !
 ! A42   A(5,10,7)             103.3202         calculate D2E/DX2 analytically  !
 ! A43   A(5,10,8)             112.0247         calculate D2E/DX2 analytically  !
 ! A44   A(7,10,9)              90.0            calculate D2E/DX2 analytically  !
 ! D1    D(5,1,2,6)            -36.8701         calculate D2E/DX2 analytically  !
 ! D2    D(5,1,2,7)             36.8701         calculate D2E/DX2 analytically  !
 ! D3    D(4,1,3,6)             36.8701         calculate D2E/DX2 analytically  !
 ! D4    D(4,1,3,9)            -36.8701         calculate D2E/DX2 analytically  !
 ! D5    D(3,1,4,7)            -36.8701         calculate D2E/DX2 analytically  !
 ! D6    D(3,1,4,10)            36.8701         calculate D2E/DX2 analytically  !
 ! D7    D(2,1,5,9)             36.8701         calculate D2E/DX2 analytically  !
 ! D8    D(2,1,5,10)           -36.8701         calculate D2E/DX2 analytically  !
 ! D9    D(4,2,3,5)              0.0            calculate D2E/DX2 analytically  !
 ! D10   D(4,2,3,9)             55.1386         calculate D2E/DX2 analytically  !
 ! D11   D(7,2,3,5)            -55.1386         calculate D2E/DX2 analytically  !
 ! D12   D(7,2,3,9)              0.0            calculate D2E/DX2 analytically  !
 ! D13   D(3,2,4,5)              0.0            calculate D2E/DX2 analytically  !
 ! D14   D(3,2,4,10)           -55.1386         calculate D2E/DX2 analytically  !
 ! D15   D(6,2,4,5)             55.1386         calculate D2E/DX2 analytically  !
 ! D16   D(6,2,4,10)             0.0            calculate D2E/DX2 analytically  !
 ! D17   D(1,2,6,8)             86.2553         calculate D2E/DX2 analytically  !
 ! D18   D(1,2,6,9)             24.8268         calculate D2E/DX2 analytically  !
 ! D19   D(4,2,6,8)             24.8268         calculate D2E/DX2 analytically  !
 ! D20   D(4,2,6,9)            -36.6016         calculate D2E/DX2 analytically  !
 ! D21   D(1,2,7,8)            -86.2553         calculate D2E/DX2 analytically  !
 ! D22   D(1,2,7,10)           -24.8268         calculate D2E/DX2 analytically  !
 ! D23   D(3,2,7,8)            -24.8268         calculate D2E/DX2 analytically  !
 ! D24   D(3,2,7,10)            36.6016         calculate D2E/DX2 analytically  !
 ! D25   D(2,3,5,4)              0.0            calculate D2E/DX2 analytically  !
 ! D26   D(2,3,5,10)            55.1386         calculate D2E/DX2 analytically  !
 ! D27   D(6,3,5,4)            -55.1386         calculate D2E/DX2 analytically  !
 ! D28   D(6,3,5,10)             0.0            calculate D2E/DX2 analytically  !
 ! D29   D(1,3,6,7)            -24.8268         calculate D2E/DX2 analytically  !
 ! D30   D(1,3,6,8)            -86.2553         calculate D2E/DX2 analytically  !
 ! D31   D(5,3,6,7)             36.6016         calculate D2E/DX2 analytically  !
 ! D32   D(5,3,6,8)            -24.8268         calculate D2E/DX2 analytically  !
 ! D33   D(1,3,9,8)             86.2553         calculate D2E/DX2 analytically  !
 ! D34   D(1,3,9,10)            24.8268         calculate D2E/DX2 analytically  !
 ! D35   D(2,3,9,8)             24.8268         calculate D2E/DX2 analytically  !
 ! D36   D(2,3,9,10)           -36.6016         calculate D2E/DX2 analytically  !
 ! D37   D(2,4,5,3)              0.0            calculate D2E/DX2 analytically  !
 ! D38   D(2,4,5,9)            -55.1386         calculate D2E/DX2 analytically  !
 ! D39   D(7,4,5,3)             55.1386         calculate D2E/DX2 analytically  !
 ! D40   D(7,4,5,9)              0.0            calculate D2E/DX2 analytically  !
 ! D41   D(1,4,7,6)             24.8268         calculate D2E/DX2 analytically  !
 ! D42   D(1,4,7,8)             86.2553         calculate D2E/DX2 analytically  !
 ! D43   D(5,4,7,6)            -36.6016         calculate D2E/DX2 analytically  !
 ! D44   D(5,4,7,8)             24.8268         calculate D2E/DX2 analytically  !
 ! D45   D(1,4,10,8)           -86.2553         calculate D2E/DX2 analytically  !
 ! D46   D(1,4,10,9)           -24.8268         calculate D2E/DX2 analytically  !
 ! D47   D(2,4,10,8)           -24.8268         calculate D2E/DX2 analytically  !
 ! D48   D(2,4,10,9)            36.6016         calculate D2E/DX2 analytically  !
 ! D49   D(1,5,9,6)            -24.8268         calculate D2E/DX2 analytically  !
 ! D50   D(1,5,9,8)            -86.2553         calculate D2E/DX2 analytically  !
 ! D51   D(4,5,9,6)             36.6016         calculate D2E/DX2 analytically  !
 ! D52   D(4,5,9,8)            -24.8268         calculate D2E/DX2 analytically  !
 ! D53   D(1,5,10,7)            24.8268         calculate D2E/DX2 analytically  !
 ! D54   D(1,5,10,8)            86.2553         calculate D2E/DX2 analytically  !
 ! D55   D(3,5,10,7)           -36.6016         calculate D2E/DX2 analytically  !
 ! D56   D(3,5,10,8)            24.8268         calculate D2E/DX2 analytically  !
 ! D57   D(3,6,7,4)              0.0            calculate D2E/DX2 analytically  !
 ! D58   D(3,6,7,10)           -55.1386         calculate D2E/DX2 analytically  !
 ! D59   D(9,6,7,4)             55.1386         calculate D2E/DX2 analytically  !
 ! D60   D(9,6,7,10)             0.0            calculate D2E/DX2 analytically  !
 ! D61   D(2,6,8,10)           -36.8701         calculate D2E/DX2 analytically  !
 ! D62   D(3,6,8,10)            36.8701         calculate D2E/DX2 analytically  !
 ! D63   D(2,6,9,5)              0.0            calculate D2E/DX2 analytically  !
 ! D64   D(2,6,9,10)            55.1386         calculate D2E/DX2 analytically  !
 ! D65   D(7,6,9,5)            -55.1386         calculate D2E/DX2 analytically  !
 ! D66   D(7,6,9,10)             0.0            calculate D2E/DX2 analytically  !
 ! D67   D(2,7,8,9)             36.8701         calculate D2E/DX2 analytically  !
 ! D68   D(4,7,8,9)            -36.8701         calculate D2E/DX2 analytically  !
 ! D69   D(2,7,10,5)             0.0            calculate D2E/DX2 analytically  !
 ! D70   D(2,7,10,9)           -55.1386         calculate D2E/DX2 analytically  !
 ! D71   D(6,7,10,5)            55.1386         calculate D2E/DX2 analytically  !
 ! D72   D(6,7,10,9)             0.0            calculate D2E/DX2 analytically  !
 ! D73   D(7,8,9,3)            -36.8701         calculate D2E/DX2 analytically  !
 ! D74   D(7,8,9,5)             36.8701         calculate D2E/DX2 analytically  !
 ! D75   D(6,8,10,4)            36.8701         calculate D2E/DX2 analytically  !
 ! D76   D(6,8,10,5)           -36.8701         calculate D2E/DX2 analytically  !
 ! D77   D(3,9,10,4)             0.0            calculate D2E/DX2 analytically  !
 ! D78   D(3,9,10,7)            55.1386         calculate D2E/DX2 analytically  !
 ! D79   D(6,9,10,4)           -55.1386         calculate D2E/DX2 analytically  !
 ! D80   D(6,9,10,7)             0.0            calculate D2E/DX2 analytically  !
 --------------------------------------------------------------------------------
 Trust Radius=3.00D-01 FncErr=1.00D-07 GrdErr=1.00D-06
 Number of steps in this run= 100 maximum allowed number of steps= 100.
 GradGradGradGradGradGradGradGradGradGradGradGradGradGradGradGradGradGrad

                          Input orientation:                          
 ---------------------------------------------------------------------
 Center     Atomic     Atomic              Coordinates (Angstroms)
 Number     Number      Type              X           Y           Z
 ---------------------------------------------------------------------
    1         14             0        0.000000    0.000000    2.715362
    2         14             0        0.000000    1.889059    0.958763
    3         14             0        1.889059    0.000000    0.958763
    4         14             0       -1.889059    0.000000    0.958763
    5         14             0        0.000000   -1.889059    0.958763
    6         14             0        1.335766    1.335766   -0.958763
    7         14             0       -1.335766    1.335766   -0.958763
    8         14             0        0.000000    0.000000   -2.715362
    9         14             0        1.335766   -1.335766   -0.958763
   10         14             0       -1.335766   -1.335766   -0.958763
 ---------------------------------------------------------------------
                    Distance matrix (angstroms):
                    1          2          3          4          5
     1  Si   0.000000
     2  Si   2.579570   0.000000
     3  Si   2.579570   2.671533   0.000000
     4  Si   2.579570   2.671533   3.778118   0.000000
     5  Si   2.579570   3.778118   2.671533   2.671533   0.000000
     6  Si   4.131312   2.401523   2.401523   3.982547   3.982547
     7  Si   4.131312   2.401523   3.982547   2.401523   3.982547
     8  Si   5.430724   4.131312   4.131312   4.131312   4.131312
     9  Si   4.131312   3.982547   2.401523   3.982547   2.401523
    10  Si   4.131312   3.982547   3.982547   2.401523   2.401523
                    6          7          8          9         10
     6  Si   0.000000
     7  Si   2.671533   0.000000
     8  Si   2.579570   2.579570   0.000000
     9  Si   2.671533   3.778118   2.579570   0.000000
    10  Si   3.778118   2.671533   2.579570   2.671533   0.000000
 Stoichiometry    Si10(2-)
 Framework group  D4D[C4(Si.Si),4SGD(Si2)]
 Deg. of freedom     3
 Full point group                 D4D
 Largest Abelian subgroup         C2V     NOp   4
 Largest concise Abelian subgroup C2V     NOp   4
                         Standard orientation:                         
 ---------------------------------------------------------------------
 Center     Atomic     Atomic              Coordinates (Angstroms)
 Number     Number      Type              X           Y           Z
 ---------------------------------------------------------------------
    1         14             0        0.000000    0.000000    2.715362
    2         14             0        0.000000    1.889059    0.958763
    3         14             0        1.889059    0.000000    0.958763
    4         14             0       -1.889059    0.000000    0.958763
    5         14             0        0.000000   -1.889059    0.958763
    6         14             0        1.335766    1.335766   -0.958763
    7         14             0       -1.335766    1.335766   -0.958763
    8         14             0        0.000000    0.000000   -2.715362
    9         14             0        1.335766   -1.335766   -0.958763
   10         14             0       -1.335766   -1.335766   -0.958763
 ---------------------------------------------------------------------
 Rotational constants (GHZ):      0.6327558      0.4966171      0.4966171
 Standard basis: LANL2DZ (5D, 7F)
 There are    28 symmetry adapted basis functions of A1  symmetry.
 There are    12 symmetry adapted basis functions of A2  symmetry.
 There are    20 symmetry adapted basis functions of B1  symmetry.
 There are    20 symmetry adapted basis functions of B2  symmetry.
 Integral buffers will be    131072 words long.
 Raffenetti 2 integral format.
 Two-electron integral symmetry is turned on.
    80 basis functions,   120 primitive gaussians,    80 cartesian basis functions
    21 alpha electrons       21 beta electrons
       nuclear repulsion energy       123.7437112490 Hartrees.
 NAtoms=   10 NActive=   10 NUniq=    2 SFac= 3.00D+00 NAtFMM=   80 NAOKFM=F Big=F
 One-electron integrals computed using PRISM.
  16 Symmetry operations used in ECPInt.
 ECPInt:  NShTT=     820 NPrTT=    1850 LenC2=     821 LenP2D=    1810.
 LDataN:  DoStor=F MaxTD1= 3 Len=   28
 LDataN:  DoStor=T MaxTD1= 3 Len=   28
 NBasis=    80 RedAO= T  NBF=    28    12    20    20
 NBsUse=    80 1.00D-06 NBFU=    28    12    20    20
 Harris functional with IExCor=  402 diagonalized for initial guess.
 ExpMin= 8.85D-02 ExpMax= 2.58D+00 ExpMxC= 2.58D+00 IAcc=2 IRadAn=         4 AccDes= 0.00D+00
 HarFok:  IExCor= 402 AccDes= 0.00D+00 IRadAn=         4 IDoV=1
 ScaDFX=  1.000000  1.000000  1.000000  1.000000
 Initial guess orbital symmetries:
       Occupied  (A1) (E1) (E1) (B2) (A1) (E2) (E2) (E3) (E3) (B2)
                 (A1) (E1) (E1) (E3) (E3) (E2) (E2) (A1) (B2) (E1)
                 (E1)
       Virtual   (E3) (E3) (B1) (E1) (E1) (E3) (E3) (E2) (E2) (E2)
                 (E2) (A1) (B2) (E1) (E1) (B2) (A2) (E3) (E3) (A1)
                 (E3) (E3) (E1) (E1) (E2) (E2) (B2) (E1) (E1) (E3)
                 (E3) (E2) (E2) (B2) (A1) (B1) (E2) (E2) (E3) (E3)
                 (A1) (E1) (E1) (E1) (E1) (A2) (E3) (E3) (B2) (A1)
                 (B2) (B2) (A1) (E3) (E3) (E1) (E1) (E2) (E2)
 The electronic state of the initial guess is 1-A1.
 Requested convergence on RMS density matrix=1.00D-08 within 128 cycles.
 Requested convergence on MAX density matrix=1.00D-06.
 Requested convergence on             energy=1.00D-06.
 No special actions if energy rises.
 Keep R1 integrals in memory in canonical form, NReq=     7072718.
 Integral accuracy reduced to 1.0D-05 until final iterations.
 Initial convergence to 1.0D-05 achieved.  Increase integral accuracy.
 SCF Done:  E(RB+HF-LYP) =  -38.6653195003     A.U. after   12 cycles
             Convg  =    0.4997D-08             -V/T =  3.5191
             S**2   =   0.0000
 QCSCF skips out because SCF is already converged.
 Range of M.O.s used for correlation:     1    80
 NBasis=    80 NAE=    21 NBE=    21 NFC=     0 NFV=     0
 NROrb=     80 NOA=    21 NOB=    21 NVA=    59 NVB=    59
  16 Symmetry operations used in ECPInt.
 ECPInt:  NShTT=     820 NPrTT=    1850 LenC2=     821 LenP2D=    1810.
 LDataN:  DoStor=F MaxTD1= 4 Len=   56
 LDataN:  DoStor=T MaxTD1= 4 Len=   56
 Symmetrizing basis deriv contribution to polar:
 IMax=3 JMax=2 DiffMx= 0.00D+00
 G2DrvN: will do   11 centers at a time, making    1 passes doing MaxLOS=1.
 FoFDir/FoFCou used for L=0 through L=1.
 DoAtom=TTTTTTTTTT
          Differentiating once with respect to electric field.
                with respect to dipole field.
          Differentiating once with respect to nuclear coordinates.
          Store integrals in memory, NReq=     6054183.
          There are   9 degrees of freedom in the 1st order CPHF.
     9 vectors were produced by pass  0.
 AX will form   9 AO Fock derivatives at one time.
     9 vectors were produced by pass  1.
     9 vectors were produced by pass  2.
     9 vectors were produced by pass  3.
     9 vectors were produced by pass  4.
     9 vectors were produced by pass  5.
     9 vectors were produced by pass  6.
     9 vectors were produced by pass  7.
     7 vectors were produced by pass  8.
     3 vectors were produced by pass  9.
     3 vectors were produced by pass 10.
 Inv2:  IOpt= 1 Iter= 1 AM= 6.99D-16 Conv= 1.00D-12.
 Inverted reduced A of dimension   85 with in-core refinement.
 Isotropic polarizability for W=    0.000000      298.45 Bohr**3.
 End of Minotr Frequency-dependent properties file   721 does not exist.

 **********************************************************************

            Population analysis using the SCF density.

 **********************************************************************

 Orbital symmetries:
       Occupied  (A1) (B2) (E1) (E1) (A1) (E2) (E2) (E3) (E3) (B2)
                 (A1) (E1) (E1) (E3) (E3) (E2) (E2) (A1) (B2) (E1)
                 (E1)
       Virtual   (E3) (E3) (B1) (E3) (E3) (E2) (E2) (E1) (E1) (B2)
                 (A1) (E2) (E2) (E1) (E1) (B2) (A2) (E3) (E3) (A1)
                 (E3) (E3) (B2) (E1) (E1) (E2) (E2) (E1) (E1) (E2)
                 (E2) (E3) (E3) (A1) (B1) (B2) (E3) (E3) (A1) (E2)
                 (E2) (E1) (E1) (E1) (E1) (A2) (B2) (E3) (E3) (A1)
                 (B2) (B2) (A1) (E3) (E3) (E1) (E1) (E2) (E2)
 The electronic state is 1-A1.
 Alpha  occ. eigenvalues --   -0.44457  -0.33134  -0.32948  -0.32948  -0.22042
 Alpha  occ. eigenvalues --   -0.16355  -0.16355  -0.15593  -0.15593  -0.06749
 Alpha  occ. eigenvalues --   -0.05174  -0.02202  -0.02202   0.01118   0.01118
 Alpha  occ. eigenvalues --    0.01517   0.01517   0.03234   0.03766   0.04112
 Alpha  occ. eigenvalues --    0.04112
 Alpha virt. eigenvalues --    0.16148   0.16148   0.20022   0.22507   0.22507
 Alpha virt. eigenvalues --    0.23465   0.23465   0.23784   0.23784   0.23897
 Alpha virt. eigenvalues --    0.24074   0.24219   0.24219   0.28457   0.28457
 Alpha virt. eigenvalues --    0.29505   0.35294   0.37712   0.37712   0.53492
 Alpha virt. eigenvalues --    0.53960   0.53960   0.55444   0.55547   0.55547
 Alpha virt. eigenvalues --    0.55890   0.55890   0.57042   0.57042   0.58013
 Alpha virt. eigenvalues --    0.58013   0.58324   0.58324   0.60553   0.60618
 Alpha virt. eigenvalues --    0.62239   0.62818   0.62818   0.63939   0.64351
 Alpha virt. eigenvalues --    0.64351   0.66117   0.66117   0.67503   0.67503
 Alpha virt. eigenvalues --    0.70245   0.71801   0.72344   0.72344   7.70635
 Alpha virt. eigenvalues --   10.78998  11.74551  12.07074  12.45364  12.45364
 Alpha virt. eigenvalues --   13.53892  13.53892  13.86550  13.86550
          Condensed to atoms (all electrons):
              1          2          3          4          5          6
     1  Si   3.935515   0.097963   0.097963   0.097963   0.097963  -0.062626
     2  Si   0.097963   4.144545  -0.011215  -0.011215  -0.084534   0.141480
     3  Si   0.097963  -0.011215   4.144545  -0.084534  -0.011215   0.141480
     4  Si   0.097963  -0.011215  -0.084534   4.144545  -0.011215  -0.063171
     5  Si   0.097963  -0.084534  -0.011215  -0.011215   4.144545  -0.063171
     6  Si  -0.062626   0.141480   0.141480  -0.063171  -0.063171   4.144545
     7  Si  -0.062626   0.141480  -0.063171   0.141480  -0.063171  -0.011215
     8  Si   0.004999  -0.062626  -0.062626  -0.062626  -0.062626   0.097963
     9  Si  -0.062626  -0.063171   0.141480  -0.063171   0.141480  -0.011215
    10  Si  -0.062626  -0.063171  -0.063171   0.141480   0.141480  -0.084534
              7          8          9         10
     1  Si  -0.062626   0.004999  -0.062626  -0.062626
     2  Si   0.141480  -0.062626  -0.063171  -0.063171
     3  Si  -0.063171  -0.062626   0.141480  -0.063171
     4  Si   0.141480  -0.062626  -0.063171   0.141480
     5  Si  -0.063171  -0.062626   0.141480   0.141480
     6  Si  -0.011215   0.097963  -0.011215  -0.084534
     7  Si   4.144545   0.097963  -0.084534  -0.011215
     8  Si   0.097963   3.935515   0.097963   0.097963
     9  Si  -0.084534   0.097963   4.144545  -0.011215
    10  Si  -0.011215   0.097963  -0.011215   4.144545
 Mulliken atomic charges:
              1
     1  Si  -0.081861
     2  Si  -0.229535
     3  Si  -0.229535
     4  Si  -0.229535
     5  Si  -0.229535
     6  Si  -0.229535
     7  Si  -0.229535
     8  Si  -0.081861
     9  Si  -0.229535
    10  Si  -0.229535
 Sum of Mulliken charges=  -2.00000
 Atomic charges with hydrogens summed into heavy atoms:
              1
     1  Si  -0.081861
     2  Si  -0.229535
     3  Si  -0.229535
     4  Si  -0.229535
     5  Si  -0.229535
     6  Si  -0.229535
     7  Si  -0.229535
     8  Si  -0.081861
     9  Si  -0.229535
    10  Si  -0.229535
 Sum of Mulliken charges=  -2.00000
 APT atomic charges:
              1
     1  Si   0.055546
     2  Si  -0.263895
     3  Si  -0.263895
     4  Si  -0.263895
     5  Si  -0.263895
     6  Si  -0.263891
     7  Si  -0.263891
     8  Si   0.055563
     9  Si  -0.263891
    10  Si  -0.263891
 Sum of APT charges=  -2.00003
 APT Atomic charges with hydrogens summed into heavy atoms:
              1
     1  Si   0.055546
     2  Si  -0.263895
     3  Si  -0.263895
     4  Si  -0.263895
     5  Si  -0.263895
     6  Si  -0.263891
     7  Si  -0.263891
     8  Si   0.055563
     9  Si  -0.263891
    10  Si  -0.263891
 Sum of APT charges=  -2.00003
 Electronic spatial extent (au):  <R**2>=  1109.3258
 Charge=    -2.0000 electrons
 Dipole moment (field-independent basis, Debye):
    X=     0.0000    Y=     0.0000    Z=     0.0000  Tot=     0.0000
 Quadrupole moment (field-independent basis, Debye-Ang):
   XX=  -171.3747   YY=  -171.3747   ZZ=  -176.2303
   XY=     0.0000   XZ=     0.0000   YZ=     0.0000
 Traceless Quadrupole moment (field-independent basis, Debye-Ang):
   XX=     1.6186   YY=     1.6186   ZZ=    -3.2371
   XY=     0.0000   XZ=     0.0000   YZ=     0.0000
 Octapole moment (field-independent basis, Debye-Ang**2):
  XXX=     0.0000  YYY=     0.0000  ZZZ=     0.0000  XYY=     0.0000
  XXY=     0.0000  XXZ=     0.0000  XZZ=     0.0000  YZZ=     0.0000
  YYZ=     0.0000  XYZ=     0.0000
 Hexadecapole moment (field-independent basis, Debye-Ang**3):
 XXXX= -1729.4770 YYYY= -1729.4770 ZZZZ= -2552.4984 XXXY=     0.0000
 XXXZ=     0.0000 YYYX=     0.0000 YYYZ=     0.0000 ZZZX=     0.0000
 ZZZY=     0.0000 XXYY=  -576.4923 XXZZ=  -660.0561 YYZZ=  -660.0561
 XXYZ=     0.0000 YYXZ=     0.0000 ZZXY=     0.0000
 N-N= 1.237437112490D+02 E-N=-3.288065921509D+02  KE= 1.534895803114D+01
 Symmetry A1   KE= 6.130375034496D+00
 Symmetry A2   KE= 1.625051898893D+00
 Symmetry B1   KE= 3.796765548875D+00
 Symmetry B2   KE= 3.796765548875D+00
  Exact polarizability: 278.404   0.000 278.404   0.000   0.000 338.554
 Approx polarizability: 939.113   0.000 939.113   0.000   0.0001128.965
  16 Symmetry operations used in ECPInt.
 ECPInt:  NShTT=     820 NPrTT=    1850 LenC2=     821 LenP2D=    1850.
 LDataN:  DoStor=F MaxTD1= 5 Len=  102
 LDataN:  DoStor=T MaxTD1= 5 Len=  102
 ***** Axes restored to original set *****
 -------------------------------------------------------------------
 Center     Atomic                   Forces (Hartrees/Bohr)
 Number     Number              X              Y              Z
 -------------------------------------------------------------------
    1         14           0.000000000    0.000000000   -0.007110231
    2         14           0.000000000    0.029780219    0.015430599
    3         14           0.029780219    0.000000000    0.015430599
    4         14          -0.029780219    0.000000000    0.015430599
    5         14           0.000000000   -0.029780219    0.015430599
    6         14           0.021057795    0.021057795   -0.015430599
    7         14          -0.021057795    0.021057795   -0.015430599
    8         14           0.000000000    0.000000000    0.007110231
    9         14           0.021057795   -0.021057795   -0.015430599
   10         14          -0.021057795   -0.021057795   -0.015430599
 -------------------------------------------------------------------
 Cartesian Forces:  Max     0.029780219 RMS     0.017417261

 GradGradGradGradGradGradGradGradGradGradGradGradGradGradGradGradGradGrad
 Berny optimization.
 Internal  Forces:  Max     0.015573336 RMS     0.004524858
 Search for a local minimum.
 Step number   1 out of a maximum of 100
 All quantities printed in internal units (Hartrees-Bohrs-Radians)
 Second derivative matrix not updated -- analytic derivatives used.
     Eigenvalues ---   -0.00193  -0.00193   0.00871   0.00871   0.01314
     Eigenvalues ---    0.01314   0.01583   0.01583   0.01681   0.01681
     Eigenvalues ---    0.01875   0.02273   0.03557   0.03753   0.03753
     Eigenvalues ---    0.03872   0.04763   0.04763   0.04919   0.05325
     Eigenvalues ---    0.05325   0.06445   0.06445   0.067741000.00000
     Eigenvalues --- 1000.000001000.000001000.000001000.000001000.00000
     Eigenvalues --- 1000.000001000.000001000.000001000.000001000.00000
     Eigenvalues --- 1000.000001000.000001000.000001000.000001000.00000
     Eigenvalues --- 1000.000001000.000001000.000001000.000001000.00000
     Eigenvalues --- 1000.000001000.000001000.000001000.000001000.00000
     Eigenvalues --- 1000.000001000.000001000.000001000.000001000.00000
     Eigenvalues --- 1000.000001000.000001000.000001000.000001000.00000
     Eigenvalues --- 1000.000001000.000001000.000001000.000001000.00000
     Eigenvalues --- 1000.000001000.000001000.000001000.000001000.00000
     Eigenvalues --- 1000.000001000.000001000.000001000.000001000.00000
     Eigenvalues --- 1000.000001000.000001000.000001000.000001000.00000
     Eigenvalues --- 1000.000001000.000001000.000001000.000001000.00000
     Eigenvalues --- 1000.000001000.000001000.000001000.000001000.00000
     Eigenvalues --- 1000.000001000.000001000.000001000.000001000.00000
     Eigenvalues --- 1000.000001000.000001000.000001000.000001000.00000
     Eigenvalues --- 1000.000001000.000001000.000001000.000001000.00000
     Eigenvalues --- 1000.000001000.000001000.000001000.000001000.00000
     Eigenvalues --- 1000.000001000.000001000.000001000.000001000.00000
     Eigenvalues --- 1000.000001000.000001000.000001000.000001000.00000
     Eigenvalues --- 1000.000001000.000001000.000001000.000001000.00000
     Eigenvalues --- 1000.000001000.000001000.000001000.000001000.00000
     Eigenvalues --- 1000.000001000.000001000.000001000.000001000.00000
     Eigenvalues --- 1000.000001000.000001000.000001000.000001000.00000
     Eigenvalues --- 1000.000001000.000001000.000001000.000001000.00000
     Eigenvalues --- 1000.000001000.000001000.00000
 RFO step:  Lambda=-3.63363069D-02.
 Linear search not attempted -- first point.
 Maximum step size (   0.300) exceeded in Quadratic search.
    -- Step size scaled by   0.453
 Iteration  1 RMS(Cart)=  0.01482559 RMS(Int)=  0.00013609
 Iteration  2 RMS(Cart)=  0.00008792 RMS(Int)=  0.00004274
 Iteration  3 RMS(Cart)=  0.00000000 RMS(Int)=  0.00004274
 Variable       Old X    -DE/DX   Delta X   Delta X   Delta X     New X
                                 (Linear)    (Quad)   (Total)
    R1        4.87468   0.00123   0.00000   0.01370   0.01376   4.88844
    R2        4.87468   0.00123   0.00000   0.01370   0.01376   4.88844
    R3        4.87468   0.00123   0.00000   0.01370   0.01376   4.88844
    R4        4.87468   0.00123   0.00000   0.01370   0.01376   4.88844
    R5        5.04847   0.01557   0.00000   0.08539   0.08534   5.13381
    R6        5.04847   0.01557   0.00000   0.08539   0.08534   5.13381
    R7        4.53822   0.00893   0.00000   0.04898   0.04896   4.58718
    R8        4.53822   0.00893   0.00000   0.04898   0.04896   4.58718
    R9        5.04847   0.01557   0.00000   0.08539   0.08534   5.13381
   R10        4.53822   0.00893   0.00000   0.04898   0.04896   4.58718
   R11        4.53822   0.00893   0.00000   0.04898   0.04896   4.58718
   R12        5.04847   0.01557   0.00000   0.08539   0.08534   5.13381
   R13        4.53822   0.00893   0.00000   0.04898   0.04896   4.58718
   R14        4.53822   0.00893   0.00000   0.04898   0.04896   4.58718
   R15        4.53822   0.00893   0.00000   0.04898   0.04896   4.58718
   R16        4.53822   0.00893   0.00000   0.04898   0.04896   4.58718
   R17        5.04847   0.01557   0.00000   0.08539   0.08534   5.13381
   R18        4.87468   0.00123   0.00000   0.01370   0.01376   4.88844
   R19        5.04847   0.01557   0.00000   0.08539   0.08534   5.13381
   R20        4.87468   0.00123   0.00000   0.01370   0.01376   4.88844
   R21        5.04847   0.01557   0.00000   0.08539   0.08534   5.13381
   R22        4.87468   0.00123   0.00000   0.01370   0.01376   4.88844
   R23        4.87468   0.00123   0.00000   0.01370   0.01376   4.88844
   R24        5.04847   0.01557   0.00000   0.08539   0.08534   5.13381
    A1        1.64343   0.00609   0.00000   0.03033   0.03045   1.67388
    A2        1.64343   0.00609   0.00000   0.03033   0.03045   1.67388
    A3        1.95520  -0.00301   0.00000  -0.01529  -0.01529   1.93991
    A4        1.95520  -0.00301   0.00000  -0.01529  -0.01529   1.93991
    A5        1.57080   0.00000   0.00000   0.00000   0.00000   1.57080
    A6        1.80328   0.00026   0.00000   0.00145   0.00143   1.80471
    A7        1.80328   0.00026   0.00000   0.00145   0.00143   1.80471
    A8        1.95520  -0.00301   0.00000  -0.01529  -0.01529   1.93991
    A9        1.95520  -0.00301   0.00000  -0.01529  -0.01529   1.93991
   A10        1.57080   0.00000   0.00000   0.00000   0.00000   1.57080
   A11        1.80328   0.00026   0.00000   0.00145   0.00143   1.80471
   A12        1.80328   0.00026   0.00000   0.00145   0.00143   1.80471
   A13        1.95520  -0.00301   0.00000  -0.01529  -0.01529   1.93991
   A14        1.95520  -0.00301   0.00000  -0.01529  -0.01529   1.93991
   A15        1.57080   0.00000   0.00000   0.00000   0.00000   1.57080
   A16        1.80328   0.00026   0.00000   0.00145   0.00143   1.80471
   A17        1.80328   0.00026   0.00000   0.00145   0.00143   1.80471
   A18        1.95520  -0.00301   0.00000  -0.01529  -0.01529   1.93991
   A19        1.95520  -0.00301   0.00000  -0.01529  -0.01529   1.93991
   A20        1.57080   0.00000   0.00000   0.00000   0.00000   1.57080
   A21        1.80328   0.00026   0.00000   0.00145   0.00143   1.80471
   A22        1.80328   0.00026   0.00000   0.00145   0.00143   1.80471
   A23        1.95520  -0.00301   0.00000  -0.01529  -0.01529   1.93991
   A24        1.80328   0.00026   0.00000   0.00145   0.00143   1.80471
   A25        1.80328   0.00026   0.00000   0.00145   0.00143   1.80471
   A26        1.95520  -0.00301   0.00000  -0.01529  -0.01529   1.93991
   A27        1.57080   0.00000   0.00000   0.00000   0.00000   1.57080
   A28        1.95520  -0.00301   0.00000  -0.01529  -0.01529   1.93991
   A29        1.80328   0.00026   0.00000   0.00145   0.00143   1.80471
   A30        1.80328   0.00026   0.00000   0.00145   0.00143   1.80471
   A31        1.95520  -0.00301   0.00000  -0.01529  -0.01529   1.93991
   A32        1.57080   0.00000   0.00000   0.00000   0.00000   1.57080
   A33        1.64343   0.00609   0.00000   0.03033   0.03045   1.67388
   A34        1.64343   0.00609   0.00000   0.03033   0.03045   1.67388
   A35        1.95520  -0.00301   0.00000  -0.01529  -0.01529   1.93991
   A36        1.80328   0.00026   0.00000   0.00145   0.00143   1.80471
   A37        1.80328   0.00026   0.00000   0.00145   0.00143   1.80471
   A38        1.95520  -0.00301   0.00000  -0.01529  -0.01529   1.93991
   A39        1.57080   0.00000   0.00000   0.00000   0.00000   1.57080
   A40        1.95520  -0.00301   0.00000  -0.01529  -0.01529   1.93991
   A41        1.80328   0.00026   0.00000   0.00145   0.00143   1.80471
   A42        1.80328   0.00026   0.00000   0.00145   0.00143   1.80471
   A43        1.95520  -0.00301   0.00000  -0.01529  -0.01529   1.93991
   A44        1.57080   0.00000   0.00000   0.00000   0.00000   1.57080
    D1       -0.64351   0.00008   0.00000   0.00005   0.00001  -0.64349
    D2        0.64351  -0.00008   0.00000  -0.00005  -0.00001   0.64349
    D3        0.64351  -0.00008   0.00000  -0.00005  -0.00001   0.64349
    D4       -0.64351   0.00008   0.00000   0.00005   0.00001  -0.64349
    D5       -0.64351   0.00008   0.00000   0.00005   0.00001  -0.64349
    D6        0.64351  -0.00008   0.00000  -0.00005  -0.00001   0.64349
    D7        0.64351  -0.00008   0.00000  -0.00005  -0.00001   0.64349
    D8       -0.64351   0.00008   0.00000   0.00005   0.00001  -0.64349
    D9        0.00000   0.00000   0.00000   0.00000   0.00000   0.00000
   D10        0.96235  -0.00082   0.00000  -0.00450  -0.00446   0.95789
   D11       -0.96235   0.00082   0.00000   0.00450   0.00446  -0.95789
   D12        0.00000   0.00000   0.00000   0.00000   0.00000   0.00000
   D13        0.00000   0.00000   0.00000   0.00000   0.00000   0.00000
   D14       -0.96235   0.00082   0.00000   0.00450   0.00446  -0.95789
   D15        0.96235  -0.00082   0.00000  -0.00450  -0.00446   0.95789
   D16        0.00000   0.00000   0.00000   0.00000   0.00000   0.00000
   D17        1.50544  -0.00345   0.00000  -0.01691  -0.01700   1.48844
   D18        0.43331  -0.00153   0.00000  -0.00742  -0.00747   0.42584
   D19        0.43331  -0.00153   0.00000  -0.00742  -0.00747   0.42584
   D20       -0.63882   0.00038   0.00000   0.00207   0.00206  -0.63676
   D21       -1.50544   0.00345   0.00000   0.01691   0.01700  -1.48844
   D22       -0.43331   0.00153   0.00000   0.00742   0.00747  -0.42584
   D23       -0.43331   0.00153   0.00000   0.00742   0.00747  -0.42584
   D24        0.63882  -0.00038   0.00000  -0.00207  -0.00206   0.63676
   D25        0.00000   0.00000   0.00000   0.00000   0.00000   0.00000
   D26        0.96235  -0.00082   0.00000  -0.00450  -0.00446   0.95789
   D27       -0.96235   0.00082   0.00000   0.00450   0.00446  -0.95789
   D28        0.00000   0.00000   0.00000   0.00000   0.00000   0.00000
   D29       -0.43331   0.00153   0.00000   0.00742   0.00747  -0.42584
   D30       -1.50544   0.00345   0.00000   0.01691   0.01700  -1.48844
   D31        0.63882  -0.00038   0.00000  -0.00207  -0.00206   0.63676
   D32       -0.43331   0.00153   0.00000   0.00742   0.00747  -0.42584
   D33        1.50544  -0.00345   0.00000  -0.01691  -0.01700   1.48844
   D34        0.43331  -0.00153   0.00000  -0.00742  -0.00747   0.42584
   D35        0.43331  -0.00153   0.00000  -0.00742  -0.00747   0.42584
   D36       -0.63882   0.00038   0.00000   0.00207   0.00206  -0.63676
   D37        0.00000   0.00000   0.00000   0.00000   0.00000   0.00000
   D38       -0.96235   0.00082   0.00000   0.00450   0.00446  -0.95789
   D39        0.96235  -0.00082   0.00000  -0.00450  -0.00446   0.95789
   D40        0.00000   0.00000   0.00000   0.00000   0.00000   0.00000
   D41        0.43331  -0.00153   0.00000  -0.00742  -0.00747   0.42584
   D42        1.50544  -0.00345   0.00000  -0.01691  -0.01700   1.48844
   D43       -0.63882   0.00038   0.00000   0.00207   0.00206  -0.63676
   D44        0.43331  -0.00153   0.00000  -0.00742  -0.00747   0.42584
   D45       -1.50544   0.00345   0.00000   0.01691   0.01700  -1.48844
   D46       -0.43331   0.00153   0.00000   0.00742   0.00747  -0.42584
   D47       -0.43331   0.00153   0.00000   0.00742   0.00747  -0.42584
   D48        0.63882  -0.00038   0.00000  -0.00207  -0.00206   0.63676
   D49       -0.43331   0.00153   0.00000   0.00742   0.00747  -0.42584
   D50       -1.50544   0.00345   0.00000   0.01691   0.01700  -1.48844
   D51        0.63882  -0.00038   0.00000  -0.00207  -0.00206   0.63676
   D52       -0.43331   0.00153   0.00000   0.00742   0.00747  -0.42584
   D53        0.43331  -0.00153   0.00000  -0.00742  -0.00747   0.42584
   D54        1.50544  -0.00345   0.00000  -0.01691  -0.01700   1.48844
   D55       -0.63882   0.00038   0.00000   0.00207   0.00206  -0.63676
   D56        0.43331  -0.00153   0.00000  -0.00742  -0.00747   0.42584
   D57        0.00000   0.00000   0.00000   0.00000   0.00000   0.00000
   D58       -0.96235   0.00082   0.00000   0.00450   0.00446  -0.95789
   D59        0.96235  -0.00082   0.00000  -0.00450  -0.00446   0.95789
   D60        0.00000   0.00000   0.00000   0.00000   0.00000   0.00000
   D61       -0.64351   0.00008   0.00000   0.00005   0.00001  -0.64349
   D62        0.64351  -0.00008   0.00000  -0.00005  -0.00001   0.64349
   D63        0.00000   0.00000   0.00000   0.00000   0.00000   0.00000
   D64        0.96235  -0.00082   0.00000  -0.00450  -0.00446   0.95789
   D65       -0.96235   0.00082   0.00000   0.00450   0.00446  -0.95789
   D66        0.00000   0.00000   0.00000   0.00000   0.00000   0.00000
   D67        0.64351  -0.00008   0.00000  -0.00005  -0.00001   0.64349
   D68       -0.64351   0.00008   0.00000   0.00005   0.00001  -0.64349
   D69        0.00000   0.00000   0.00000   0.00000   0.00000   0.00000
   D70       -0.96235   0.00082   0.00000   0.00450   0.00446  -0.95789
   D71        0.96235  -0.00082   0.00000  -0.00450  -0.00446   0.95789
   D72        0.00000   0.00000   0.00000   0.00000   0.00000   0.00000
   D73       -0.64351   0.00008   0.00000   0.00005   0.00001  -0.64349
   D74        0.64351  -0.00008   0.00000  -0.00005  -0.00001   0.64349
   D75        0.64351  -0.00008   0.00000  -0.00005  -0.00001   0.64349
   D76       -0.64351   0.00008   0.00000   0.00005   0.00001  -0.64349
   D77        0.00000   0.00000   0.00000   0.00000   0.00000   0.00000
   D78        0.96235  -0.00082   0.00000  -0.00450  -0.00446   0.95789
   D79       -0.96235   0.00082   0.00000   0.00450   0.00446  -0.95789
   D80        0.00000   0.00000   0.00000   0.00000   0.00000   0.00000
         Item               Value     Threshold  Converged?
 Maximum Force            0.015573     0.000450     NO 
 RMS     Force            0.004525     0.000300     NO 
 Maximum Displacement     0.060347     0.001800     NO 
 RMS     Displacement     0.014846     0.001200     NO 
 Predicted change in Energy=-1.437181D-02
 GradGradGradGradGradGradGradGradGradGradGradGradGradGradGradGradGradGrad

                          Input orientation:                          
 ---------------------------------------------------------------------
 Center     Atomic     Atomic              Coordinates (Angstroms)
 Number     Number      Type              X           Y           Z
 ---------------------------------------------------------------------
    1         14             0        0.000000    0.000000    2.698268
    2         14             0        0.000000    1.920993    0.965757
    3         14             0        1.920993    0.000000    0.965757
    4         14             0       -1.920993    0.000000    0.965757
    5         14             0        0.000000   -1.920993    0.965757
    6         14             0        1.358347    1.358347   -0.965757
    7         14             0       -1.358347    1.358347   -0.965757
    8         14             0        0.000000    0.000000   -2.698268
    9         14             0        1.358347   -1.358347   -0.965757
   10         14             0       -1.358347   -1.358347   -0.965757
 ---------------------------------------------------------------------
                    Distance matrix (angstroms):
                    1          2          3          4          5
     1  Si   0.000000
     2  Si   2.586853   0.000000
     3  Si   2.586853   2.716695   0.000000
     4  Si   2.586853   2.716695   3.841986   0.000000
     5  Si   2.586853   3.841986   2.716695   2.716695   0.000000
     6  Si   4.137063   2.427431   2.427431   4.041030   4.041030
     7  Si   4.137063   2.427431   4.041030   2.427431   4.041030
     8  Si   5.396536   4.137063   4.137063   4.137063   4.137063
     9  Si   4.137063   4.041030   2.427431   4.041030   2.427431
    10  Si   4.137063   4.041030   4.041030   2.427431   2.427431
                    6          7          8          9         10
     6  Si   0.000000
     7  Si   2.716695   0.000000
     8  Si   2.586853   2.586853   0.000000
     9  Si   2.716695   3.841986   2.586853   0.000000
    10  Si   3.841986   2.716695   2.586853   2.716695   0.000000
 Stoichiometry    Si10(2-)
 Framework group  D4D[C4(Si.Si),4SGD(Si2)]
 Deg. of freedom     3
 Full point group                 D4D
 Largest Abelian subgroup         C2V     NOp   4
 Largest concise Abelian subgroup C2V     NOp   4
                         Standard orientation:                         
 ---------------------------------------------------------------------
 Center     Atomic     Atomic              Coordinates (Angstroms)
 Number     Number      Type              X           Y           Z
 ---------------------------------------------------------------------
    1         14             0        0.000000    0.000000    2.698268
    2         14             0        0.000000    1.920993    0.965757
    3         14             0        1.920993    0.000000    0.965757
    4         14             0       -1.920993    0.000000    0.965757
    5         14             0        0.000000   -1.920993    0.965757
    6         14             0        1.358347    1.358347   -0.965757
    7         14             0       -1.358347    1.358347   -0.965757
    8         14             0        0.000000    0.000000   -2.698268
    9         14             0        1.358347   -1.358347   -0.965757
   10         14             0       -1.358347   -1.358347   -0.965757
 ---------------------------------------------------------------------
 Rotational constants (GHZ):      0.6118931      0.4910914      0.4910914
 Standard basis: LANL2DZ (5D, 7F)
 There are    28 symmetry adapted basis functions of A1  symmetry.
 There are    12 symmetry adapted basis functions of A2  symmetry.
 There are    20 symmetry adapted basis functions of B1  symmetry.
 There are    20 symmetry adapted basis functions of B2  symmetry.
 Integral buffers will be    131072 words long.
 Raffenetti 2 integral format.
 Two-electron integral symmetry is turned on.
    80 basis functions,   120 primitive gaussians,    80 cartesian basis functions
    21 alpha electrons       21 beta electrons
       nuclear repulsion energy       122.5391918440 Hartrees.
 NAtoms=   10 NActive=   10 NUniq=    2 SFac= 3.00D+00 NAtFMM=   80 NAOKFM=F Big=F
 One-electron integrals computed using PRISM.
  16 Symmetry operations used in ECPInt.
 ECPInt:  NShTT=     820 NPrTT=    1850 LenC2=     821 LenP2D=    1810.
 LDataN:  DoStor=F MaxTD1= 3 Len=   28
 LDataN:  DoStor=T MaxTD1= 3 Len=   28
 NBasis=    80 RedAO= T  NBF=    28    12    20    20
 NBsUse=    80 1.00D-06 NBFU=    28    12    20    20
 Initial guess read from the read-write file:
 Initial guess orbital symmetries:
       Occupied  (A1) (B2) (E1) (E1) (A1) (E2) (E2) (E3) (E3) (B2)
                 (A1) (E1) (E1) (E3) (E3) (E2) (E2) (A1) (B2) (E1)
                 (E1)
       Virtual   (E3) (E3) (B1) (E3) (E3) (E2) (E2) (E1) (E1) (B2)
                 (A1) (E2) (E2) (E1) (E1) (B2) (A2) (E3) (E3) (A1)
                 (E3) (E3) (B2) (E1) (E1) (E2) (E2) (E1) (E1) (E2)
                 (E2) (E3) (E3) (A1) (B1) (B2) (E3) (E3) (A1) (E2)
                 (E2) (E1) (E1) (E1) (E1) (A2) (B2) (E3) (E3) (A1)
                 (B2) (B2) (A1) (E3) (E3) (E1) (E1) (E2) (E2)
 Harris functional with IExCor=  402 diagonalized for initial guess.
 ExpMin= 8.85D-02 ExpMax= 2.58D+00 ExpMxC= 2.58D+00 IAcc=2 IRadAn=         4 AccDes= 0.00D+00
 HarFok:  IExCor= 402 AccDes= 0.00D+00 IRadAn=         4 IDoV=1
 ScaDFX=  1.000000  1.000000  1.000000  1.000000
 Requested convergence on RMS density matrix=1.00D-08 within 128 cycles.
 Requested convergence on MAX density matrix=1.00D-06.
 Requested convergence on             energy=1.00D-06.
 No special actions if energy rises.
 Keep R1 integrals in memory in canonical form, NReq=     7072718.
 Integral accuracy reduced to 1.0D-05 until final iterations.
 Initial convergence to 1.0D-05 achieved.  Increase integral accuracy.
 SCF Done:  E(RB+HF-LYP) =  -38.6797541683     A.U. after   11 cycles
             Convg  =    0.2919D-08             -V/T =  3.5411
             S**2   =   0.0000
 QCSCF skips out because SCF is already converged.
 Range of M.O.s used for correlation:     1    80
 NBasis=    80 NAE=    21 NBE=    21 NFC=     0 NFV=     0
 NROrb=     80 NOA=    21 NOB=    21 NVA=    59 NVB=    59
  16 Symmetry operations used in ECPInt.
 ECPInt:  NShTT=     820 NPrTT=    1850 LenC2=     821 LenP2D=    1810.
 LDataN:  DoStor=F MaxTD1= 4 Len=   56
 LDataN:  DoStor=T MaxTD1= 4 Len=   56
 Symmetrizing basis deriv contribution to polar:
 IMax=3 JMax=2 DiffMx= 0.00D+00
 G2DrvN: will do   11 centers at a time, making    1 passes doing MaxLOS=1.
 FoFDir/FoFCou used for L=0 through L=1.
 DoAtom=TTTTTTTTTT
          Differentiating once with respect to electric field.
                with respect to dipole field.
          Differentiating once with respect to nuclear coordinates.
          Store integrals in memory, NReq=     6054183.
          There are   9 degrees of freedom in the 1st order CPHF.
     9 vectors were produced by pass  0.
 AX will form   9 AO Fock derivatives at one time.
     9 vectors were produced by pass  1.
     9 vectors were produced by pass  2.
     9 vectors were produced by pass  3.
     9 vectors were produced by pass  4.
     9 vectors were produced by pass  5.
     9 vectors were produced by pass  6.
     9 vectors were produced by pass  7.
     7 vectors were produced by pass  8.
     3 vectors were produced by pass  9.
     3 vectors were produced by pass 10.
 Inv2:  IOpt= 1 Iter= 1 AM= 8.81D-16 Conv= 1.00D-12.
 Inverted reduced A of dimension   85 with in-core refinement.
 Isotropic polarizability for W=    0.000000      302.18 Bohr**3.
 End of Minotr Frequency-dependent properties file   721 does not exist.
  16 Symmetry operations used in ECPInt.
 ECPInt:  NShTT=     820 NPrTT=    1850 LenC2=     821 LenP2D=    1850.
 LDataN:  DoStor=F MaxTD1= 5 Len=  102
 LDataN:  DoStor=T MaxTD1= 5 Len=  102
 ***** Axes restored to original set *****
 -------------------------------------------------------------------
 Center     Atomic                   Forces (Hartrees/Bohr)
 Number     Number              X              Y              Z
 -------------------------------------------------------------------
    1         14           0.000000000    0.000000000   -0.004543616
    2         14           0.000000000    0.022698060    0.011465209
    3         14           0.022698060    0.000000000    0.011465209
    4         14          -0.022698060    0.000000000    0.011465209
    5         14           0.000000000   -0.022698060    0.011465209
    6         14           0.016049952    0.016049952   -0.011465209
    7         14          -0.016049952    0.016049952   -0.011465209
    8         14           0.000000000    0.000000000    0.004543616
    9         14           0.016049952   -0.016049952   -0.011465209
   10         14          -0.016049952   -0.016049952   -0.011465209
 -------------------------------------------------------------------
 Cartesian Forces:  Max     0.022698060 RMS     0.013183971

 GradGradGradGradGradGradGradGradGradGradGradGradGradGradGradGradGradGrad
 Berny optimization.
 Internal  Forces:  Max     0.011769371 RMS     0.003419319
 Search for a local minimum.
 Step number   2 out of a maximum of 100
 All quantities printed in internal units (Hartrees-Bohrs-Radians)
 Second derivative matrix not updated -- analytic derivatives used.
 Trust test= 1.00D+00 RLast= 3.00D-01 DXMaxT set to 4.24D-01
 Maximum step size (   0.424) exceeded in linear search.
    -- Step size scaled by   0.707
 Quintic linear search produced a step of  1.41422.
 Iteration  1 RMS(Cart)=  0.02100002 RMS(Int)=  0.00030111
 Iteration  2 RMS(Cart)=  0.00017866 RMS(Int)=  0.00015105
 Iteration  3 RMS(Cart)=  0.00000003 RMS(Int)=  0.00015105
 Variable       Old X    -DE/DX   Delta X   Delta X   Delta X     New X
                                 (Linear)    (Quad)   (Total)
    R1        4.88844   0.00122   0.01946   0.00000   0.01971   4.90815
    R2        4.88844   0.00122   0.01946   0.00000   0.01971   4.90815
    R3        4.88844   0.00122   0.01946   0.00000   0.01971   4.90815
    R4        4.88844   0.00122   0.01946   0.00000   0.01971   4.90815
    R5        5.13381   0.01177   0.12069   0.00000   0.12054   5.25434
    R6        5.13381   0.01177   0.12069   0.00000   0.12054   5.25434
    R7        4.58718   0.00678   0.06924   0.00000   0.06916   4.65634
    R8        4.58718   0.00678   0.06924   0.00000   0.06916   4.65634
    R9        5.13381   0.01177   0.12069   0.00000   0.12054   5.25434
   R10        4.58718   0.00678   0.06924   0.00000   0.06916   4.65634
   R11        4.58718   0.00678   0.06924   0.00000   0.06916   4.65634
   R12        5.13381   0.01177   0.12069   0.00000   0.12054   5.25434
   R13        4.58718   0.00678   0.06924   0.00000   0.06916   4.65634
   R14        4.58718   0.00678   0.06924   0.00000   0.06916   4.65634
   R15        4.58718   0.00678   0.06924   0.00000   0.06916   4.65634
   R16        4.58718   0.00678   0.06924   0.00000   0.06916   4.65634
   R17        5.13381   0.01177   0.12069   0.00000   0.12054   5.25434
   R18        4.88844   0.00122   0.01946   0.00000   0.01971   4.90815
   R19        5.13381   0.01177   0.12069   0.00000   0.12054   5.25434
   R20        4.88844   0.00122   0.01946   0.00000   0.01971   4.90815
   R21        5.13381   0.01177   0.12069   0.00000   0.12054   5.25434
   R22        4.88844   0.00122   0.01946   0.00000   0.01971   4.90815
   R23        4.88844   0.00122   0.01946   0.00000   0.01971   4.90815
   R24        5.13381   0.01177   0.12069   0.00000   0.12054   5.25434
    A1        1.67388   0.00453   0.04307   0.00000   0.04348   1.71736
    A2        1.67388   0.00453   0.04307   0.00000   0.04348   1.71736
    A3        1.93991  -0.00223  -0.02163   0.00000  -0.02164   1.91827
    A4        1.93991  -0.00223  -0.02163   0.00000  -0.02164   1.91827
    A5        1.57080   0.00000   0.00000   0.00000   0.00000   1.57080
    A6        1.80471   0.00019   0.00203   0.00000   0.00197   1.80668
    A7        1.80471   0.00019   0.00203   0.00000   0.00197   1.80668
    A8        1.93991  -0.00223  -0.02163   0.00000  -0.02164   1.91827
    A9        1.93991  -0.00223  -0.02163   0.00000  -0.02164   1.91827
   A10        1.57080   0.00000   0.00000   0.00000   0.00000   1.57080
   A11        1.80471   0.00019   0.00203   0.00000   0.00197   1.80668
   A12        1.80471   0.00019   0.00203   0.00000   0.00197   1.80668
   A13        1.93991  -0.00223  -0.02163   0.00000  -0.02164   1.91827
   A14        1.93991  -0.00223  -0.02163   0.00000  -0.02164   1.91827
   A15        1.57080   0.00000   0.00000   0.00000   0.00000   1.57080
   A16        1.80471   0.00019   0.00203   0.00000   0.00197   1.80668
   A17        1.80471   0.00019   0.00203   0.00000   0.00197   1.80668
   A18        1.93991  -0.00223  -0.02163   0.00000  -0.02164   1.91827
   A19        1.93991  -0.00223  -0.02163   0.00000  -0.02164   1.91827
   A20        1.57080   0.00000   0.00000   0.00000   0.00000   1.57080
   A21        1.80471   0.00019   0.00203   0.00000   0.00197   1.80668
   A22        1.80471   0.00019   0.00203   0.00000   0.00197   1.80668
   A23        1.93991  -0.00223  -0.02163   0.00000  -0.02164   1.91827
   A24        1.80471   0.00019   0.00203   0.00000   0.00197   1.80668
   A25        1.80471   0.00019   0.00203   0.00000   0.00197   1.80668
   A26        1.93991  -0.00223  -0.02163   0.00000  -0.02164   1.91827
   A27        1.57080   0.00000   0.00000   0.00000   0.00000   1.57080
   A28        1.93991  -0.00223  -0.02163   0.00000  -0.02164   1.91827
   A29        1.80471   0.00019   0.00203   0.00000   0.00197   1.80668
   A30        1.80471   0.00019   0.00203   0.00000   0.00197   1.80668
   A31        1.93991  -0.00223  -0.02163   0.00000  -0.02164   1.91827
   A32        1.57080   0.00000   0.00000   0.00000   0.00000   1.57080
   A33        1.67388   0.00453   0.04307   0.00000   0.04348   1.71736
   A34        1.67388   0.00453   0.04307   0.00000   0.04348   1.71736
   A35        1.93991  -0.00223  -0.02163   0.00000  -0.02164   1.91827
   A36        1.80471   0.00019   0.00203   0.00000   0.00197   1.80668
   A37        1.80471   0.00019   0.00203   0.00000   0.00197   1.80668
   A38        1.93991  -0.00223  -0.02163   0.00000  -0.02164   1.91827
   A39        1.57080   0.00000   0.00000   0.00000   0.00000   1.57080
   A40        1.93991  -0.00223  -0.02163   0.00000  -0.02164   1.91827
   A41        1.80471   0.00019   0.00203   0.00000   0.00197   1.80668
   A42        1.80471   0.00019   0.00203   0.00000   0.00197   1.80668
   A43        1.93991  -0.00223  -0.02163   0.00000  -0.02164   1.91827
   A44        1.57080   0.00000   0.00000   0.00000   0.00000   1.57080
    D1       -0.64349   0.00004   0.00002   0.00000  -0.00010  -0.64360
    D2        0.64349  -0.00004  -0.00002   0.00000   0.00010   0.64360
    D3        0.64349  -0.00004  -0.00002   0.00000   0.00010   0.64360
    D4       -0.64349   0.00004   0.00002   0.00000  -0.00010  -0.64360
    D5       -0.64349   0.00004   0.00002   0.00000  -0.00010  -0.64360
    D6        0.64349  -0.00004  -0.00002   0.00000   0.00010   0.64360
    D7        0.64349  -0.00004  -0.00002   0.00000   0.00010   0.64360
    D8       -0.64349   0.00004   0.00002   0.00000  -0.00010  -0.64360
    D9        0.00000   0.00000   0.00000   0.00000   0.00000   0.00000
   D10        0.95789  -0.00060  -0.00631   0.00000  -0.00617   0.95172
   D11       -0.95789   0.00060   0.00631   0.00000   0.00617  -0.95172
   D12        0.00000   0.00000   0.00000   0.00000   0.00000   0.00000
   D13        0.00000   0.00000   0.00000   0.00000   0.00000   0.00000
   D14       -0.95789   0.00060   0.00631   0.00000   0.00617  -0.95172
   D15        0.95789  -0.00060  -0.00631   0.00000  -0.00617   0.95172
   D16        0.00000   0.00000   0.00000   0.00000   0.00000   0.00000
   D17        1.48844  -0.00256  -0.02404   0.00000  -0.02436   1.46408
   D18        0.42584  -0.00114  -0.01056   0.00000  -0.01074   0.41510
   D19        0.42584  -0.00114  -0.01056   0.00000  -0.01074   0.41510
   D20       -0.63676   0.00028   0.00292   0.00000   0.00287  -0.63389
   D21       -1.48844   0.00256   0.02404   0.00000   0.02436  -1.46408
   D22       -0.42584   0.00114   0.01056   0.00000   0.01074  -0.41510
   D23       -0.42584   0.00114   0.01056   0.00000   0.01074  -0.41510
   D24        0.63676  -0.00028  -0.00292   0.00000  -0.00287   0.63389
   D25        0.00000   0.00000   0.00000   0.00000   0.00000   0.00000
   D26        0.95789  -0.00060  -0.00631   0.00000  -0.00617   0.95172
   D27       -0.95789   0.00060   0.00631   0.00000   0.00617  -0.95172
   D28        0.00000   0.00000   0.00000   0.00000   0.00000   0.00000
   D29       -0.42584   0.00114   0.01056   0.00000   0.01074  -0.41510
   D30       -1.48844   0.00256   0.02404   0.00000   0.02436  -1.46408
   D31        0.63676  -0.00028  -0.00292   0.00000  -0.00287   0.63389
   D32       -0.42584   0.00114   0.01056   0.00000   0.01074  -0.41510
   D33        1.48844  -0.00256  -0.02404   0.00000  -0.02436   1.46408
   D34        0.42584  -0.00114  -0.01056   0.00000  -0.01074   0.41510
   D35        0.42584  -0.00114  -0.01056   0.00000  -0.01074   0.41510
   D36       -0.63676   0.00028   0.00292   0.00000   0.00287  -0.63389
   D37        0.00000   0.00000   0.00000   0.00000   0.00000   0.00000
   D38       -0.95789   0.00060   0.00631   0.00000   0.00617  -0.95172
   D39        0.95789  -0.00060  -0.00631   0.00000  -0.00617   0.95172
   D40        0.00000   0.00000   0.00000   0.00000   0.00000   0.00000
   D41        0.42584  -0.00114  -0.01056   0.00000  -0.01074   0.41510
   D42        1.48844  -0.00256  -0.02404   0.00000  -0.02436   1.46408
   D43       -0.63676   0.00028   0.00292   0.00000   0.00287  -0.63389
   D44        0.42584  -0.00114  -0.01056   0.00000  -0.01074   0.41510
   D45       -1.48844   0.00256   0.02404   0.00000   0.02436  -1.46408
   D46       -0.42584   0.00114   0.01056   0.00000   0.01074  -0.41510
   D47       -0.42584   0.00114   0.01056   0.00000   0.01074  -0.41510
   D48        0.63676  -0.00028  -0.00292   0.00000  -0.00287   0.63389
   D49       -0.42584   0.00114   0.01056   0.00000   0.01074  -0.41510
   D50       -1.48844   0.00256   0.02404   0.00000   0.02436  -1.46408
   D51        0.63676  -0.00028  -0.00292   0.00000  -0.00287   0.63389
   D52       -0.42584   0.00114   0.01056   0.00000   0.01074  -0.41510
   D53        0.42584  -0.00114  -0.01056   0.00000  -0.01074   0.41510
   D54        1.48844  -0.00256  -0.02404   0.00000  -0.02436   1.46408
   D55       -0.63676   0.00028   0.00292   0.00000   0.00287  -0.63389
   D56        0.42584  -0.00114  -0.01056   0.00000  -0.01074   0.41510
   D57        0.00000   0.00000   0.00000   0.00000   0.00000   0.00000
   D58       -0.95789   0.00060   0.00631   0.00000   0.00617  -0.95172
   D59        0.95789  -0.00060  -0.00631   0.00000  -0.00617   0.95172
   D60        0.00000   0.00000   0.00000   0.00000   0.00000   0.00000
   D61       -0.64349   0.00004   0.00002   0.00000  -0.00010  -0.64360
   D62        0.64349  -0.00004  -0.00002   0.00000   0.00010   0.64360
   D63        0.00000   0.00000   0.00000   0.00000   0.00000   0.00000
   D64        0.95789  -0.00060  -0.00631   0.00000  -0.00617   0.95172
   D65       -0.95789   0.00060   0.00631   0.00000   0.00617  -0.95172
   D66        0.00000   0.00000   0.00000   0.00000   0.00000   0.00000
   D67        0.64349  -0.00004  -0.00002   0.00000   0.00010   0.64360
   D68       -0.64349   0.00004   0.00002   0.00000  -0.00010  -0.64360
   D69        0.00000   0.00000   0.00000   0.00000   0.00000   0.00000
   D70       -0.95789   0.00060   0.00631   0.00000   0.00617  -0.95172
   D71        0.95789  -0.00060  -0.00631   0.00000  -0.00617   0.95172
   D72        0.00000   0.00000   0.00000   0.00000   0.00000   0.00000
   D73       -0.64349   0.00004   0.00002   0.00000  -0.00010  -0.64360
   D74        0.64349  -0.00004  -0.00002   0.00000   0.00010   0.64360
   D75        0.64349  -0.00004  -0.00002   0.00000   0.00010   0.64360
   D76       -0.64349   0.00004   0.00002   0.00000  -0.00010  -0.64360
   D77        0.00000   0.00000   0.00000   0.00000   0.00000   0.00000
   D78        0.95789  -0.00060  -0.00631   0.00000  -0.00617   0.95172
   D79       -0.95789   0.00060   0.00631   0.00000   0.00617  -0.95172
   D80        0.00000   0.00000   0.00000   0.00000   0.00000   0.00000
         Item               Value     Threshold  Converged?
 Maximum Force            0.011769     0.000450     NO 
 RMS     Force            0.003419     0.000300     NO 
 Maximum Displacement     0.085232     0.001800     NO 
 RMS     Displacement     0.021042     0.001200     NO 
 Predicted change in Energy=-1.379683D-02
 GradGradGradGradGradGradGradGradGradGradGradGradGradGradGradGradGradGrad

                          Input orientation:                          
 ---------------------------------------------------------------------
 Center     Atomic     Atomic              Coordinates (Angstroms)
 Number     Number      Type              X           Y           Z
 ---------------------------------------------------------------------
    1         14             0        0.000000    0.000000    2.672742
    2         14             0        0.000000    1.966096    0.975585
    3         14             0        1.966096    0.000000    0.975585
    4         14             0       -1.966096    0.000000    0.975585
    5         14             0        0.000000   -1.966096    0.975585
    6         14             0        1.390240    1.390240   -0.975585
    7         14             0       -1.390240    1.390240   -0.975585
    8         14             0        0.000000    0.000000   -2.672742
    9         14             0        1.390240   -1.390240   -0.975585
   10         14             0       -1.390240   -1.390240   -0.975585
 ---------------------------------------------------------------------
                    Distance matrix (angstroms):
                    1          2          3          4          5
     1  Si   0.000000
     2  Si   2.597282   0.000000
     3  Si   2.597282   2.780479   0.000000
     4  Si   2.597282   2.780479   3.932192   0.000000
     5  Si   2.597282   3.932192   2.780479   2.780479   0.000000
     6  Si   4.144373   2.464030   2.464030   4.123690   4.123690
     7  Si   4.144373   2.464030   4.123690   2.464030   4.123690
     8  Si   5.345484   4.144373   4.144373   4.144373   4.144373
     9  Si   4.144373   4.123690   2.464030   4.123690   2.464030
    10  Si   4.144373   4.123690   4.123690   2.464030   2.464030
                    6          7          8          9         10
     6  Si   0.000000
     7  Si   2.780479   0.000000
     8  Si   2.597282   2.597282   0.000000
     9  Si   2.780479   3.932192   2.597282   0.000000
    10  Si   3.932192   2.780479   2.597282   2.780479   0.000000
 Stoichiometry    Si10(2-)
 Framework group  D4D[C4(Si.Si),4SGD(Si2)]
 Deg. of freedom     3
 Full point group                 D4D
 Largest Abelian subgroup         C2V     NOp   4
 Largest concise Abelian subgroup C2V     NOp   4
                         Standard orientation:                         
 ---------------------------------------------------------------------
 Center     Atomic     Atomic              Coordinates (Angstroms)
 Number     Number      Type              X           Y           Z
 ---------------------------------------------------------------------
    1         14             0        0.000000    0.000000    2.672742
    2         14             0        0.000000    1.966096    0.975585
    3         14             0        1.966096    0.000000    0.975585
    4         14             0       -1.966096    0.000000    0.975585
    5         14             0        0.000000   -1.966096    0.975585
    6         14             0        1.390240    1.390240   -0.975585
    7         14             0       -1.390240    1.390240   -0.975585
    8         14             0        0.000000    0.000000   -2.672742
    9         14             0        1.390240   -1.390240   -0.975585
   10         14             0       -1.390240   -1.390240   -0.975585
 ---------------------------------------------------------------------
 Rotational constants (GHZ):      0.5841412      0.4834719      0.4834719
 Standard basis: LANL2DZ (5D, 7F)
 There are    28 symmetry adapted basis functions of A1  symmetry.
 There are    12 symmetry adapted basis functions of A2  symmetry.
 There are    20 symmetry adapted basis functions of B1  symmetry.
 There are    20 symmetry adapted basis functions of B2  symmetry.
 Integral buffers will be    131072 words long.
 Raffenetti 2 integral format.
 Two-electron integral symmetry is turned on.
    80 basis functions,   120 primitive gaussians,    80 cartesian basis functions
    21 alpha electrons       21 beta electrons
       nuclear repulsion energy       120.8955304751 Hartrees.
 NAtoms=   10 NActive=   10 NUniq=    2 SFac= 3.00D+00 NAtFMM=   80 NAOKFM=F Big=F
 One-electron integrals computed using PRISM.
  16 Symmetry operations used in ECPInt.
 ECPInt:  NShTT=     820 NPrTT=    1850 LenC2=     821 LenP2D=    1794.
 LDataN:  DoStor=F MaxTD1= 3 Len=   28
 LDataN:  DoStor=T MaxTD1= 3 Len=   28
 NBasis=    80 RedAO= T  NBF=    28    12    20    20
 NBsUse=    80 1.00D-06 NBFU=    28    12    20    20
 Initial guess read from the read-write file:
 Initial guess orbital symmetries:
       Occupied  (A1) (B2) (E1) (E1) (A1) (E2) (E2) (E3) (E3) (B2)
                 (A1) (E1) (E1) (E3) (E3) (E2) (E2) (B2) (A1) (E1)
                 (E1)
       Virtual   (E3) (E3) (B1) (E3) (E3) (E2) (E2) (E1) (E1) (E2)
                 (E2) (A1) (B2) (E1) (E1) (B2) (A2) (E3) (E3) (A1)
                 (E3) (E3) (E2) (E2) (E1) (E1) (B2) (E1) (E1) (E2)
                 (E2) (E3) (E3) (B1) (A1) (B2) (E3) (E3) (E2) (E2)
                 (A1) (E1) (E1) (E1) (E1) (A2) (E3) (E3) (B2) (A1)
                 (B2) (B2) (A1) (E3) (E3) (E1) (E1) (E2) (E2)
 Harris functional with IExCor=  402 diagonalized for initial guess.
 ExpMin= 8.85D-02 ExpMax= 2.58D+00 ExpMxC= 2.58D+00 IAcc=2 IRadAn=         4 AccDes= 0.00D+00
 HarFok:  IExCor= 402 AccDes= 0.00D+00 IRadAn=         4 IDoV=1
 ScaDFX=  1.000000  1.000000  1.000000  1.000000
 Requested convergence on RMS density matrix=1.00D-08 within 128 cycles.
 Requested convergence on MAX density matrix=1.00D-06.
 Requested convergence on             energy=1.00D-06.
 No special actions if energy rises.
 Keep R1 integrals in memory in canonical form, NReq=     7072718.
 Integral accuracy reduced to 1.0D-05 until final iterations.
 Initial convergence to 1.0D-05 achieved.  Increase integral accuracy.
 SCF Done:  E(RB+HF-LYP) =  -38.6937082457     A.U. after   12 cycles
             Convg  =    0.3696D-08             -V/T =  3.5702
             S**2   =   0.0000
 QCSCF skips out because SCF is already converged.
 Range of M.O.s used for correlation:     1    80
 NBasis=    80 NAE=    21 NBE=    21 NFC=     0 NFV=     0
 NROrb=     80 NOA=    21 NOB=    21 NVA=    59 NVB=    59
  16 Symmetry operations used in ECPInt.
 ECPInt:  NShTT=     820 NPrTT=    1850 LenC2=     821 LenP2D=    1794.
 LDataN:  DoStor=F MaxTD1= 4 Len=   56
 LDataN:  DoStor=T MaxTD1= 4 Len=   56
 Symmetrizing basis deriv contribution to polar:
 IMax=3 JMax=2 DiffMx= 0.00D+00
 G2DrvN: will do   11 centers at a time, making    1 passes doing MaxLOS=1.
 FoFDir/FoFCou used for L=0 through L=1.
 DoAtom=TTTTTTTTTT
          Differentiating once with respect to electric field.
                with respect to dipole field.
          Differentiating once with respect to nuclear coordinates.
          Store integrals in memory, NReq=     6054183.
          There are   9 degrees of freedom in the 1st order CPHF.
     9 vectors were produced by pass  0.
 AX will form   9 AO Fock derivatives at one time.
     9 vectors were produced by pass  1.
     9 vectors were produced by pass  2.
     9 vectors were produced by pass  3.
     9 vectors were produced by pass  4.
     9 vectors were produced by pass  5.
     9 vectors were produced by pass  6.
     9 vectors were produced by pass  7.
     7 vectors were produced by pass  8.
     3 vectors were produced by pass  9.
     2 vectors were produced by pass 10.
 Inv2:  IOpt= 1 Iter= 1 AM= 1.00D-15 Conv= 1.00D-12.
 Inverted reduced A of dimension   84 with in-core refinement.
 Isotropic polarizability for W=    0.000000      307.57 Bohr**3.
 End of Minotr Frequency-dependent properties file   721 does not exist.
  16 Symmetry operations used in ECPInt.
 ECPInt:  NShTT=     820 NPrTT=    1850 LenC2=     821 LenP2D=    1850.
 LDataN:  DoStor=F MaxTD1= 5 Len=  102
 LDataN:  DoStor=T MaxTD1= 5 Len=  102
 ***** Axes restored to original set *****
 -------------------------------------------------------------------
 Center     Atomic                   Forces (Hartrees/Bohr)
 Number     Number              X              Y              Z
 -------------------------------------------------------------------
    1         14           0.000000000    0.000000000   -0.000845999
    2         14           0.000000000    0.013777434    0.006526791
    3         14           0.013777434    0.000000000    0.006526791
    4         14          -0.013777434    0.000000000    0.006526791
    5         14           0.000000000   -0.013777434    0.006526791
    6         14           0.009742117    0.009742117   -0.006526791
    7         14          -0.009742117    0.009742117   -0.006526791
    8         14           0.000000000    0.000000000    0.000845999
    9         14           0.009742117   -0.009742117   -0.006526791
   10         14          -0.009742117   -0.009742117   -0.006526791
 -------------------------------------------------------------------
 Cartesian Forces:  Max     0.013777434 RMS     0.007875627

 GradGradGradGradGradGradGradGradGradGradGradGradGradGradGradGradGradGrad
 Berny optimization.
 Internal  Forces:  Max     0.006929608 RMS     0.002023037
 Search for a local minimum.
 Step number   3 out of a maximum of 100
 All quantities printed in internal units (Hartrees-Bohrs-Radians)
 Second derivative matrix not updated -- analytic derivatives used.
 Maximum step size (   0.424) exceeded in linear search.
    -- Step size scaled by   0.576
 Quintic linear search produced a step of  1.00002.
 Iteration  1 RMS(Cart)=  0.02105657 RMS(Int)=  0.00032450
 Iteration  2 RMS(Cart)=  0.00018310 RMS(Int)=  0.00018720
 Iteration  3 RMS(Cart)=  0.00000004 RMS(Int)=  0.00018720
 Variable       Old X    -DE/DX   Delta X   Delta X   Delta X     New X
                                 (Linear)    (Quad)   (Total)
    R1        4.90815   0.00130   0.01971   0.00000   0.02002   4.92817
    R2        4.90815   0.00130   0.01971   0.00000   0.02002   4.92817
    R3        4.90815   0.00130   0.01971   0.00000   0.02002   4.92817
    R4        4.90815   0.00130   0.01971   0.00000   0.02002   4.92817
    R5        5.25434   0.00693   0.12054   0.00000   0.12032   5.37467
    R6        5.25434   0.00693   0.12054   0.00000   0.12032   5.37467
    R7        4.65634   0.00415   0.06916   0.00000   0.06908   4.72542
    R8        4.65634   0.00415   0.06916   0.00000   0.06908   4.72542
    R9        5.25434   0.00693   0.12054   0.00000   0.12032   5.37467
   R10        4.65634   0.00415   0.06916   0.00000   0.06908   4.72542
   R11        4.65634   0.00415   0.06916   0.00000   0.06908   4.72542
   R12        5.25434   0.00693   0.12054   0.00000   0.12032   5.37467
   R13        4.65634   0.00415   0.06916   0.00000   0.06908   4.72542
   R14        4.65634   0.00415   0.06916   0.00000   0.06908   4.72542
   R15        4.65634   0.00415   0.06916   0.00000   0.06908   4.72542
   R16        4.65634   0.00415   0.06916   0.00000   0.06908   4.72542
   R17        5.25434   0.00693   0.12054   0.00000   0.12032   5.37467
   R18        4.90815   0.00130   0.01971   0.00000   0.02002   4.92817
   R19        5.25434   0.00693   0.12054   0.00000   0.12032   5.37467
   R20        4.90815   0.00130   0.01971   0.00000   0.02002   4.92817
[...]
 Optimization completed.
    -- Stationary point found.
                           ----------------------------
                           !   Optimized Parameters   !
                           ! (Angstroms and Degrees)  !
 --------------------------                            --------------------------
 ! Name  Definition              Value          Derivative Info.                !
 --------------------------------------------------------------------------------
 ! R1    R(1,2)                  2.5088         -DE/DX =    0.0                 !
 ! R2    R(1,3)                  2.5088         -DE/DX =    0.0                 !
 ! R3    R(1,4)                  2.5088         -DE/DX =    0.0                 !
 ! R4    R(1,5)                  2.5088         -DE/DX =    0.0                 !
 ! R5    R(2,3)                  2.7145         -DE/DX =    0.0                 !
 ! R6    R(2,4)                  2.7145         -DE/DX =    0.0                 !
 ! R7    R(2,6)                  2.435          -DE/DX =    0.0                 !
 ! R8    R(2,7)                  2.435          -DE/DX =    0.0                 !
 ! R9    R(3,5)                  2.7145         -DE/DX =    0.0                 !
 ! R10   R(3,6)                  2.435          -DE/DX =    0.0                 !
 ! R11   R(3,9)                  2.435          -DE/DX =    0.0                 !
 ! R12   R(4,5)                  2.7145         -DE/DX =    0.0                 !
 ! R13   R(4,7)                  2.435          -DE/DX =    0.0                 !
 ! R14   R(4,10)                 2.435          -DE/DX =    0.0                 !
 ! R15   R(5,9)                  2.435          -DE/DX =    0.0                 !
 ! R16   R(5,10)                 2.435          -DE/DX =    0.0                 !
 ! R17   R(6,7)                  2.7145         -DE/DX =    0.0                 !
 ! R18   R(6,8)                  2.5088         -DE/DX =    0.0                 !
 ! R19   R(6,9)                  2.7145         -DE/DX =    0.0                 !
 ! R20   R(7,8)                  2.5088         -DE/DX =    0.0                 !
 ! R21   R(7,10)                 2.7145         -DE/DX =    0.0                 !
 ! R22   R(8,9)                  2.5088         -DE/DX =    0.0                 !
 ! R23   R(8,10)                 2.5088         -DE/DX =    0.0                 !
 ! R24   R(9,10)                 2.7145         -DE/DX =    0.0                 !
 ! A1    A(2,1,5)               99.8292         -DE/DX =    0.0                 !
 ! A2    A(3,1,4)               99.8292         -DE/DX =    0.0                 !
 ! A3    A(1,2,6)              109.6876         -DE/DX =    0.0                 !
 ! A4    A(1,2,7)              109.6876         -DE/DX =    0.0                 !
 ! A5    A(3,2,4)               90.0            -DE/DX =    0.0                 !
 ! A6    A(3,2,7)              103.3489         -DE/DX =    0.0                 !
 ! A7    A(4,2,6)              103.3489         -DE/DX =    0.0                 !
 ! A8    A(1,3,6)              109.6876         -DE/DX =    0.0                 !
 ! A9    A(1,3,9)              109.6876         -DE/DX =    0.0                 !
 ! A10   A(2,3,5)               90.0            -DE/DX =    0.0                 !
 ! A11   A(2,3,9)              103.3489         -DE/DX =    0.0                 !
 ! A12   A(5,3,6)              103.3489         -DE/DX =    0.0                 !
 ! A13   A(1,4,7)              109.6876         -DE/DX =    0.0                 !
 ! A14   A(1,4,10)             109.6876         -DE/DX =    0.0                 !
 ! A15   A(2,4,5)               90.0            -DE/DX =    0.0                 !
 ! A16   A(2,4,10)             103.3489         -DE/DX =    0.0                 !
 ! A17   A(5,4,7)              103.3489         -DE/DX =    0.0                 !
 ! A18   A(1,5,9)              109.6876         -DE/DX =    0.0                 !
 ! A19   A(1,5,10)             109.6876         -DE/DX =    0.0                 !
 ! A20   A(3,5,4)               90.0            -DE/DX =    0.0                 !
 ! A21   A(3,5,10)             103.3489         -DE/DX =    0.0                 !
 ! A22   A(4,5,9)              103.3489         -DE/DX =    0.0                 !
 ! A23   A(2,6,8)              109.6876         -DE/DX =    0.0                 !
 ! A24   A(2,6,9)              103.3489         -DE/DX =    0.0                 !
 ! A25   A(3,6,7)              103.3489         -DE/DX =    0.0                 !
 ! A26   A(3,6,8)              109.6876         -DE/DX =    0.0                 !
 ! A27   A(7,6,9)               90.0            -DE/DX =    0.0                 !
 ! A28   A(2,7,8)              109.6876         -DE/DX =    0.0                 !
 ! A29   A(2,7,10)             103.3489         -DE/DX =    0.0                 !
 ! A30   A(4,7,6)              103.3489         -DE/DX =    0.0                 !
 ! A31   A(4,7,8)              109.6876         -DE/DX =    0.0                 !
 ! A32   A(6,7,10)              90.0            -DE/DX =    0.0                 !
 ! A33   A(6,8,10)              99.8292         -DE/DX =    0.0                 !
 ! A34   A(7,8,9)               99.8292         -DE/DX =    0.0                 !
 ! A35   A(3,9,8)              109.6876         -DE/DX =    0.0                 !
 ! A36   A(3,9,10)             103.3489         -DE/DX =    0.0                 !
 ! A37   A(5,9,6)              103.3489         -DE/DX =    0.0                 !
 ! A38   A(5,9,8)              109.6876         -DE/DX =    0.0                 !
 ! A39   A(6,9,10)              90.0            -DE/DX =    0.0                 !
 ! A40   A(4,10,8)             109.6876         -DE/DX =    0.0                 !
 ! A41   A(4,10,9)             103.3489         -DE/DX =    0.0                 !
 ! A42   A(5,10,7)             103.3489         -DE/DX =    0.0                 !
 ! A43   A(5,10,8)             109.6876         -DE/DX =    0.0                 !
 ! A44   A(7,10,9)              90.0            -DE/DX =    0.0                 !
 ! D1    D(5,1,2,6)            -36.299          -DE/DX =    0.0                 !
 ! D2    D(5,1,2,7)             36.299          -DE/DX =    0.0                 !
 ! D3    D(4,1,3,6)             36.299          -DE/DX =    0.0                 !
 ! D4    D(4,1,3,9)            -36.299          -DE/DX =    0.0                 !
 ! D5    D(3,1,4,7)            -36.299          -DE/DX =    0.0                 !
 ! D6    D(3,1,4,10)            36.299          -DE/DX =    0.0                 !
 ! D7    D(2,1,5,9)             36.299          -DE/DX =    0.0                 !
 ! D8    D(2,1,5,10)           -36.299          -DE/DX =    0.0                 !
 ! D9    D(4,2,3,5)              0.0            -DE/DX =    0.0                 !
 ! D10   D(4,2,3,9)             55.0493         -DE/DX =    0.0                 !
 ! D11   D(7,2,3,5)            -55.0493         -DE/DX =    0.0                 !
 ! D12   D(7,2,3,9)              0.0            -DE/DX =    0.0                 !
 ! D13   D(3,2,4,5)              0.0            -DE/DX =    0.0                 !
 ! D14   D(3,2,4,10)           -55.0493         -DE/DX =    0.0                 !
 ! D15   D(6,2,4,5)             55.0493         -DE/DX =    0.0                 !
 ! D16   D(6,2,4,10)             0.0            -DE/DX =    0.0                 !
 ! D17   D(1,2,6,8)             82.6924         -DE/DX =    0.0                 !
 ! D18   D(1,2,6,9)             23.066          -DE/DX =    0.0                 !
 ! D19   D(4,2,6,8)             23.066          -DE/DX =    0.0                 !
 ! D20   D(4,2,6,9)            -36.5604         -DE/DX =    0.0                 !
 ! D21   D(1,2,7,8)            -82.6924         -DE/DX =    0.0                 !
 ! D22   D(1,2,7,10)           -23.066          -DE/DX =    0.0                 !
 ! D23   D(3,2,7,8)            -23.066          -DE/DX =    0.0                 !
 ! D24   D(3,2,7,10)            36.5604         -DE/DX =    0.0                 !
 ! D25   D(2,3,5,4)              0.0            -DE/DX =    0.0                 !
 ! D26   D(2,3,5,10)            55.0493         -DE/DX =    0.0                 !
 ! D27   D(6,3,5,4)            -55.0493         -DE/DX =    0.0                 !
 ! D28   D(6,3,5,10)             0.0            -DE/DX =    0.0                 !
 ! D29   D(1,3,6,7)            -23.066          -DE/DX =    0.0                 !
 ! D30   D(1,3,6,8)            -82.6924         -DE/DX =    0.0                 !
 ! D31   D(5,3,6,7)             36.5604         -DE/DX =    0.0                 !
 ! D32   D(5,3,6,8)            -23.066          -DE/DX =    0.0                 !
 ! D33   D(1,3,9,8)             82.6924         -DE/DX =    0.0                 !
 ! D34   D(1,3,9,10)            23.066          -DE/DX =    0.0                 !
 ! D35   D(2,3,9,8)             23.066          -DE/DX =    0.0                 !
 ! D36   D(2,3,9,10)           -36.5604         -DE/DX =    0.0                 !
 ! D37   D(2,4,5,3)              0.0            -DE/DX =    0.0                 !
 ! D38   D(2,4,5,9)            -55.0493         -DE/DX =    0.0                 !
 ! D39   D(7,4,5,3)             55.0493         -DE/DX =    0.0                 !
 ! D40   D(7,4,5,9)              0.0            -DE/DX =    0.0                 !
 ! D41   D(1,4,7,6)             23.066          -DE/DX =    0.0                 !
 ! D42   D(1,4,7,8)             82.6924         -DE/DX =    0.0                 !
 ! D43   D(5,4,7,6)            -36.5604         -DE/DX =    0.0                 !
 ! D44   D(5,4,7,8)             23.066          -DE/DX =    0.0                 !
 ! D45   D(1,4,10,8)           -82.6924         -DE/DX =    0.0                 !
 ! D46   D(1,4,10,9)           -23.066          -DE/DX =    0.0                 !
 ! D47   D(2,4,10,8)           -23.066          -DE/DX =    0.0                 !
 ! D48   D(2,4,10,9)            36.5604         -DE/DX =    0.0                 !
 ! D49   D(1,5,9,6)            -23.066          -DE/DX =    0.0                 !
 ! D50   D(1,5,9,8)            -82.6924         -DE/DX =    0.0                 !
 ! D51   D(4,5,9,6)             36.5604         -DE/DX =    0.0                 !
 ! D52   D(4,5,9,8)            -23.066          -DE/DX =    0.0                 !
 ! D53   D(1,5,10,7)            23.066          -DE/DX =    0.0                 !
 ! D54   D(1,5,10,8)            82.6924         -DE/DX =    0.0                 !
 ! D55   D(3,5,10,7)           -36.5604         -DE/DX =    0.0                 !
 ! D56   D(3,5,10,8)            23.066          -DE/DX =    0.0                 !
 ! D57   D(3,6,7,4)              0.0            -DE/DX =    0.0                 !
 ! D58   D(3,6,7,10)           -55.0493         -DE/DX =    0.0                 !
 ! D59   D(9,6,7,4)             55.0493         -DE/DX =    0.0                 !
 ! D60   D(9,6,7,10)             0.0            -DE/DX =    0.0                 !
 ! D61   D(2,6,8,10)           -36.299          -DE/DX =    0.0                 !
 ! D62   D(3,6,8,10)            36.299          -DE/DX =    0.0                 !
 ! D63   D(2,6,9,5)              0.0            -DE/DX =    0.0                 !
 ! D64   D(2,6,9,10)            55.0493         -DE/DX =    0.0                 !
 ! D65   D(7,6,9,5)            -55.0493         -DE/DX =    0.0                 !
 ! D66   D(7,6,9,10)             0.0            -DE/DX =    0.0                 !
 ! D67   D(2,7,8,9)             36.299          -DE/DX =    0.0                 !
 ! D68   D(4,7,8,9)            -36.299          -DE/DX =    0.0                 !
 ! D69   D(2,7,10,5)             0.0            -DE/DX =    0.0                 !
 ! D70   D(2,7,10,9)           -55.0493         -DE/DX =    0.0                 !
 ! D71   D(6,7,10,5)            55.0493         -DE/DX =    0.0                 !
 ! D72   D(6,7,10,9)             0.0            -DE/DX =    0.0                 !
 ! D73   D(7,8,9,3)            -36.299          -DE/DX =    0.0                 !
 ! D74   D(7,8,9,5)             36.299          -DE/DX =    0.0                 !
 ! D75   D(6,8,10,4)            36.299          -DE/DX =    0.0                 !
 ! D76   D(6,8,10,5)           -36.299          -DE/DX =    0.0                 !
 ! D77   D(3,9,10,4)             0.0            -DE/DX =    0.0                 !
 ! D78   D(3,9,10,7)            55.0493         -DE/DX =    0.0                 !
 ! D79   D(6,9,10,4)           -55.0493         -DE/DX =    0.0                 !
 ! D80   D(6,9,10,7)             0.0            -DE/DX =    0.0                 !
 --------------------------------------------------------------------------------
 GradGradGradGradGradGradGradGradGradGradGradGradGradGradGradGradGradGrad

 1\1\GINC-NODE194\Freq\RB3LYP\6-311+G(d)\Si10(2-)\TAM\02-Dec-2011\0\\#N
  Geom=AllCheck Guess=Read SCRF=Check GenChk RB3LYP/6-311+G(d) Freq\\si
 10-n\\-2,1\Si,0.,0.,2.5864427099\Si,0.,1.9194439078,0.970955717\Si,1.9
 194439078,0.,0.970955717\Si,-1.9194439078,0.,0.970955717\Si,0.,-1.9194
 439078,0.970955717\Si,1.3572518033,1.3572518033,-0.970955717\Si,-1.357
 2518033,1.3572518033,-0.970955717\Si,0.,0.,-2.5864427099\Si,1.35725180
 33,-1.3572518033,-0.970955717\Si,-1.3572518033,-1.3572518033,-0.970955
 717\\Version=AM64L-G03RevE.01\State=1-A1\HF=-2895.1741847\RMSD=3.313e-
 10\RMSF=2.389e-06\ZeroPoint=0.0145907\Thermal=0.0287835\Dipole=0.,0.,0
 .\DipoleDeriv=-0.0621749,0.,0.,0.,-0.0621749,0.,0.,0.,0.2520331,-0.258
 3714,0.,0.,0.,-0.2105254,-0.1525505,0.,-0.0352471,-0.313007,-0.2105254
 ,0.,-0.1525505,0.,-0.2583714,0.,-0.0352471,0.,-0.313007,-0.2105254,0.,
 0.1525505,0.,-0.2583714,0.,0.0352471,0.,-0.313007,-0.2583714,0.,0.,0.,
 -0.2105254,0.1525505,0.,0.0352471,-0.313007,-0.2344573,0.0238774,0.107
 8339,0.0238774,-0.2344573,0.1078339,0.0249533,0.0249533,-0.3129893,-0.
 2344573,-0.0238774,-0.1078339,-0.0238774,-0.2344573,0.1078339,-0.02495
 33,0.0249533,-0.3129893,-0.0621707,0.,0.,0.,-0.0621707,0.,0.,0.,0.2519
 571,-0.2344573,-0.0238774,0.1078339,-0.0238774,-0.2344573,-0.1078339,0
 .0249533,-0.0249533,-0.3129893,-0.2344573,0.0238774,-0.1078339,0.02387
 74,-0.2344573,-0.1078339,-0.0249533,-0.0249533,-0.3129893\Polar=403.34
 93255,0.,403.3493255,0.,0.,457.2700877\PG=D04D [C4(Si1.Si1),4SGD(Si2)]
 \NImag=0\\0.03594352,0.,0.03594352,0.,0.,0.10662590,0.00026590,0.,0.,0
 .04651126,0.,-0.01309424,0.01351352,0.,0.06417473,0.,0.01999088,-0.020
 38325,0.,0.01311528,0.09139521,-0.01309424,0.,0.01351352,-0.00707720,0
 .00425143,-0.00490769,0.06417473,0.,0.00026590,0.,0.00693808,-0.007077
 20,-0.00261544,0.,0.04651126,0.01999088,0.,-0.02038325,-0.00261544,-0.
 00490769,-0.00123745,0.01311528,0.,0.09139521,-0.01309424,0.,-0.013513
 52,-0.00707720,-0.00425143,0.00490769,-0.01112856,0.,0.00621593,0.0641
 7473,0.,0.00026590,0.,-0.00693808,-0.00707720,-0.00261544,0.,-0.003905
 15,0.,0.,0.04651126,-0.01999088,0.,-0.02038325,0.00261544,-0.00490769,
 -0.00123745,-0.00621593,0.,0.00004497,-0.01311528,0.,0.09139521,0.0002
 6590,0.,0.,-0.00390515,0.,0.,-0.00707720,-0.00693808,-0.00261544,-0.00
 707720,0.00693808,0.00261544,0.04651126,0.,-0.01309424,-0.01351352,0.,
 -0.01112856,0.00621593,-0.00425143,-0.00707720,0.00490769,0.00425143,-
 0.00707720,0.00490769,0.,0.06417473,0.,-0.01999088,-0.02038325,0.,-0.0
 0621593,0.00004497,-0.00490769,0.00261544,-0.00123745,0.00490769,0.002
 61544,-0.00123745,0.,-0.01311528,0.09139521,0.00057554,-0.00332369,-0.
 00217483,-0.01321947,0.00513239,0.01576309,-0.00227766,0.00580942,-0.0
 0985759,-0.00924688,-0.00935056,0.00436117,-0.00308900,0.00319268,-0.0
 0059787,0.05534300,-0.00332369,0.00057554,-0.00217483,0.00580942,-0.00
 227766,-0.00985759,0.00513239,-0.01321947,0.01576309,0.00319268,-0.003
 08900,-0.00059787,-0.00935056,-0.00924688,0.00436117,0.00883173,0.0553
 4300,0.00399757,0.00399757,-0.00357965,0.01811655,-0.00417582,-0.02865
 069,-0.00417582,0.01811655,-0.02865069,0.00266105,0.00350657,-0.003850
 36,0.00350657,0.00266105,-0.00385036,-0.00927390,-0.00927390,0.0913952
 1,0.00057554,0.00332369,0.00217483,-0.01321947,-0.00513239,-0.01576309
 ,-0.00924688,0.00935056,-0.00436117,-0.00227766,-0.00580942,0.00985759
 ,-0.00308900,-0.00319268,0.00059787,-0.01267195,0.00134333,-0.00162087
 ,0.05534300,0.00332369,0.00057554,-0.00217483,-0.00580942,-0.00227766,
 -0.00985759,-0.00319268,-0.00308900,-0.00059787,-0.00513239,-0.0132194
 7,0.01576309,0.00935056,-0.00924688,0.00436117,-0.00134333,-0.00148245
 ,0.00531966,-0.00883173,0.05534300,-0.00399757,0.00399757,-0.00357965,
 -0.01811655,-0.00417582,-0.02865069,-0.00266105,0.00350657,-0.00385036
 ,0.00417582,0.01811655,-0.02865069,-0.00350657,0.00266105,-0.00385036,
 0.00162087,0.00531966,-0.00123745,0.00927390,-0.00927390,0.09139521,-0
 .01258939,0.,0.,0.00389923,0.,0.,-0.00274815,0.,-0.00565342,-0.0027481
 5,0.,0.00565342,0.00389923,0.,0.,-0.00641417,-0.00668007,-0.01413568,-
 0.00641417,0.00668007,0.01413568,0.03594352,0.,-0.01258939,0.,0.,-0.00
 274815,-0.00565342,0.,0.00389923,0.,0.,0.00389923,0.,0.,-0.00274815,0.
 00565342,-0.00668007,-0.00641417,-0.01413568,0.00668007,-0.00641417,-0
 .01413568,0.,0.03594352,0.,0.,-0.01077538,0.,0.00307567,-0.00357965,0.
 00307567,0.,-0.00357965,-0.00307567,0.,-0.00357965,0.,-0.00307567,-0.0
 0357965,-0.00955550,-0.00955550,-0.02038325,0.00955550,-0.00955550,-0.
 02038325,0.,0.,0.10662590,0.00057554,0.00332369,-0.00217483,-0.0030890
 0,-0.00319268,-0.00059787,-0.00227766,-0.00580942,-0.00985759,-0.00924
 688,0.00935056,0.00436117,-0.01321947,-0.00513239,0.01576309,-0.001482
 45,-0.00134333,0.00531966,-0.00751685,0.00361170,0.00439533,-0.0064141
 7,0.00668007,-0.00955550,0.05534300,0.00332369,0.00057554,0.00217483,0
 .00935056,-0.00924688,-0.00436117,-0.00513239,-0.01321947,-0.01576309,
 -0.00319268,-0.00308900,0.00059787,-0.00580942,-0.00227766,0.00985759,
 0.00134333,-0.01267195,-0.00162087,0.00361170,-0.00751685,-0.00439533,
 0.00668007,-0.00641417,0.00955550,-0.00883173,0.05534300,0.00399757,-0
 .00399757,-0.00357965,0.00350657,-0.00266105,-0.00385036,-0.00417582,-
 0.01811655,-0.02865069,0.00266105,-0.00350657,-0.00385036,0.01811655,0
 .00417582,-0.02865069,0.00531966,0.00162087,-0.00123745,-0.00439533,0.
 00439533,0.00004497,-0.01413568,0.01413568,-0.02038325,-0.00927390,0.0
 0927390,0.09139521,0.00057554,-0.00332369,0.00217483,-0.00308900,0.003
 19268,0.00059787,-0.00924688,-0.00935056,-0.00436117,-0.00227766,0.005
 80942,0.00985759,-0.01321947,0.00513239,-0.01576309,-0.00751685,-0.003
 61170,-0.00439533,-0.00148245,0.00134333,-0.00531966,-0.00641417,-0.00
 668007,0.00955550,-0.01267195,-0.00134333,-0.00162087,0.05534300,-0.00
 332369,0.00057554,0.00217483,-0.00935056,-0.00924688,-0.00436117,0.003
 19268,-0.00308900,0.00059787,0.00513239,-0.01321947,-0.01576309,0.0058
 0942,-0.00227766,0.00985759,-0.00361170,-0.00751685,-0.00439533,-0.001
 34333,-0.01267195,-0.00162087,-0.00668007,-0.00641417,0.00955550,0.001
 34333,-0.00148245,-0.00531966,0.00883173,0.05534300,-0.00399757,-0.003
 99757,-0.00357965,-0.00350657,-0.00266105,-0.00385036,-0.00266105,-0.0
 0350657,-0.00385036,0.00417582,-0.01811655,-0.02865069,-0.01811655,0.0
 0417582,-0.02865069,0.00439533,0.00439533,0.00004497,-0.00531966,0.001
 62087,-0.00123745,0.01413568,0.01413568,-0.02038325,0.00162087,-0.0053
 1966,-0.00123745,0.00927390,0.00927390,0.09139521\\0.,0.,-0.00000461,0
 .,-0.00000023,-0.00000400,-0.00000023,0.,-0.00000400,0.00000023,0.,-0.
 00000400,0.,0.00000023,-0.00000400,-0.00000016,-0.00000016,0.00000400,
 0.00000016,-0.00000016,0.00000400,0.,0.,0.00000461,-0.00000016,0.00000
 016,0.00000400,0.00000016,0.00000016,0.00000400\\\@


 NO SCIENCE HAS EVER MADE MORE RAPID PROGRESS IN A
 SHORTER TIME THAN CHEMISTRY.
   -- MARTIN HEINRICH KLOPROTH, 1791
 (FIRST PROFESSOR OF CHEMISTRY AT THE UNIVERSITY OF BERLIN)
 Job cpu time:  0 days  0 hours 46 minutes 41.1 seconds.
 File lengths (MBytes):  RWF=     94 Int=      0 D2E=      0 Chk=     12 Scr=      1
 Normal termination of Gaussian 03 at Fri Dec  2 13:08:32 2011.
