 Entering Gaussian System, Link 0=g03
 Initial command:
 /usr/local/chem/g03E01/l1.exe /temp0/tam/Gau-12361.inp -scrdir=/temp0/tam/
 Entering Link 1 = /usr/local/chem/g03E01/l1.exe PID=     12362.
  
 Copyright (c) 1988,1990,1992,1993,1995,1998,2003,2004,2007, Gaussian, Inc.
                  All Rights Reserved.
  
 This is the Gaussian(R) 03 program.  It is based on the
 the Gaussian(R) 98 system (copyright 1998, Gaussian, Inc.),
 the Gaussian(R) 94 system (copyright 1995, Gaussian, Inc.),
 the Gaussian 92(TM) system (copyright 1992, Gaussian, Inc.),
 the Gaussian 90(TM) system (copyright 1990, Gaussian, Inc.),
 the Gaussian 88(TM) system (copyright 1988, Gaussian, Inc.),
 the Gaussian 86(TM) system (copyright 1986, Carnegie Mellon
 University), and the Gaussian 82(TM) system (copyright 1983,
 Carnegie Mellon University). Gaussian is a federally registered
 trademark of Gaussian, Inc.
  
 This software contains proprietary and confidential information,
 including trade secrets, belonging to Gaussian, Inc.
  
 This software is provided under written license and may be
 used, copied, transmitted, or stored only in accord with that
 written license.
  
 The following legend is applicable only to US Government
 contracts under FAR:
  
                    RESTRICTED RIGHTS LEGEND
  
 Use, reproduction and disclosure by the US Government is
 subject to restrictions as set forth in subparagraphs (a)
 and (c) of the Commercial Computer Software - Restricted
 Rights clause in FAR 52.227-19.
  
 Gaussian, Inc.
 340 Quinnipiac St., Bldg. 40, Wallingford CT 06492
  
  
 ---------------------------------------------------------------
 Warning -- This program may not be used in any manner that
 competes with the business of Gaussian, Inc. or will provide
 assistance to any competitor of Gaussian, Inc.  The licensee
 of this program is prohibited from giving any competitor of
 Gaussian, Inc. access to this program.  By using this program,
 the user acknowledges that Gaussian, Inc. is engaged in the
 business of creating and licensing software in the field of
 computational chemistry and represents and warrants to the
 licensee that it is not a competitor of Gaussian, Inc. and that
 it will not use this program in any manner prohibited above.
 ---------------------------------------------------------------
  

 Cite this work as:
 Gaussian 03, Revision E.01,
 M. J. Frisch, G. W. Trucks, H. B. Schlegel, G. E. Scuseria, 
 M. A. Robb, J. R. Cheeseman, J. A. Montgomery, Jr., T. Vreven, 
 K. N. Kudin, J. C. Burant, J. M. Millam, S. S. Iyengar, J. Tomasi, 
 V. Barone, B. Mennucci, M. Cossi, G. Scalmani, N. Rega, 
 G. A. Petersson, H. Nakatsuji, M. Hada, M. Ehara, K. Toyota, 
 R. Fukuda, J. Hasegawa, M. Ishida, T. Nakajima, Y. Honda, O. Kitao, 
 H. Nakai, M. Klene, X. Li, J. E. Knox, H. P. Hratchian, J. B. Cross, 
 V. Bakken, C. Adamo, J. Jaramillo, R. Gomperts, R. E. Stratmann, 
 O. Yazyev, A. J. Austin, R. Cammi, C. Pomelli, J. W. Ochterski, 
 P. Y. Ayala, K. Morokuma, G. A. Voth, P. Salvador, J. J. Dannenberg, 
 V. G. Zakrzewski, S. Dapprich, A. D. Daniels, M. C. Strain, 
 O. Farkas, D. K. Malick, A. D. Rabuck, K. Raghavachari, 
 J. B. Foresman, J. V. Ortiz, Q. Cui, A. G. Baboul, S. Clifford, 
 J. Cioslowski, B. B. Stefanov, G. Liu, A. Liashenko, P. Piskorz, 
 I. Komaromi, R. L. Martin, D. J. Fox, T. Keith, M. A. Al-Laham, 
 C. Y. Peng, A. Nanayakkara, M. Challacombe, P. M. W. Gill, 
 B. Johnson, W. Chen, M. W. Wong, C. Gonzalez, and J. A. Pople, 
 Gaussian, Inc., Wallingford CT, 2004.
 
 ******************************************
 Gaussian 03:  AM64L-G03RevE.01 11-Sep-2007
                17-Jun-2011 
 ******************************************
 %NprocShared=4
 Will use up to    4 processors via shared memory.
 %mem=3750MB
 %chk=S9L-ne-d-01
 --------------------------------------
 # hf/6-311G(d) freq scfcyc=500 scf=xqc
 --------------------------------------
 1/10=4,30=1,38=1/1,3;
 2/17=6,18=5,40=1/2;
 3/5=4,6=6,7=1,11=9,16=1,25=1,30=1/1,2,3;
 4//1;
 5/5=2,7=500,8=3,13=1,38=5/2,8;
 8/6=4,10=90,11=11/1;
 10/13=10/2;
 11/6=2,8=1,9=11,15=111,16=1/1,2,10;
 10/6=1/2;
 6/7=2,8=2,9=2,10=2,18=1,28=1/1;
 7/8=1,10=1,25=1/1,2,3,16;
 1/10=4,30=1/3;
 99//99;
 -----
 si3-c
 -----
 Symbolic Z-matrix:
 Charge =  1 Multiplicity = 2
 Si                    0.        1.43811  -0.54849 
 Si                    0.       -1.43811  -0.54849 
 Si                    0.        0.        1.09697 
 

 GradGradGradGradGradGradGradGradGradGradGradGradGradGradGradGradGradGrad
 Berny optimization.
 Initialization pass.
 Trust Radius=3.00D-01 FncErr=1.00D-07 GrdErr=1.00D-07
 Number of steps in this run=   2 maximum allowed number of steps=   2.
 GradGradGradGradGradGradGradGradGradGradGradGradGradGradGradGradGradGrad

                          Input orientation:                          
 ---------------------------------------------------------------------
 Center     Atomic     Atomic              Coordinates (Angstroms)
 Number     Number      Type              X           Y           Z
 ---------------------------------------------------------------------
    1         14             0        0.000000    1.438106   -0.548486
    2         14             0        0.000000   -1.438106   -0.548486
    3         14             0        0.000000    0.000000    1.096973
 ---------------------------------------------------------------------
                    Distance matrix (angstroms):
                    1          2          3
     1  Si   0.000000
     2  Si   2.876212   0.000000
     3  Si   2.185334   2.185334   0.000000
 Stoichiometry    Si3(1+,2)
 Framework group  C2V[C2(Si),SGV(Si2)]
 Deg. of freedom     2
 Full point group                 C2V
 Largest Abelian subgroup         C2V     NOp   4
 Largest concise Abelian subgroup C2      NOp   2
                         Standard orientation:                         
 ---------------------------------------------------------------------
 Center     Atomic     Atomic              Coordinates (Angstroms)
 Number     Number      Type              X           Y           Z
 ---------------------------------------------------------------------
    1         14             0        0.000000    1.438106   -0.548486
    2         14             0        0.000000   -1.438106   -0.548486
    3         14             0        0.000000    0.000000    1.096973
 ---------------------------------------------------------------------
 Rotational constants (GHZ):     10.0077004      4.3672230      3.0404238
 Standard basis: 6-311G(d) (5D, 7F)
 There are    32 symmetry adapted basis functions of A1  symmetry.
 There are     8 symmetry adapted basis functions of A2  symmetry.
 There are    13 symmetry adapted basis functions of B1  symmetry.
 There are    25 symmetry adapted basis functions of B2  symmetry.
 Integral buffers will be    131072 words long.
 Raffenetti 2 integral format.
 Two-electron integral symmetry is turned on.
    78 basis functions,   138 primitive gaussians,    81 cartesian basis functions
    21 alpha electrons       20 beta electrons
       nuclear repulsion energy       130.9834292958 Hartrees.
 NAtoms=    3 NActive=    3 NUniq=    2 SFac= 1.69D+00 NAtFMM=   80 NAOKFM=F Big=F
 One-electron integrals computed using PRISM.
 NBasis=    78 RedAO= T  NBF=    32     8    13    25
 NBsUse=    78 1.00D-06 NBFU=    32     8    13    25
 Harris functional with IExCor=  205 diagonalized for initial guess.
 ExpMin= 6.54D-02 ExpMax= 6.94D+04 ExpMxC= 2.33D+03 IAcc=2 IRadAn=         4 AccDes= 0.00D+00
 HarFok:  IExCor= 205 AccDes= 0.00D+00 IRadAn=         4 IDoV=1
 ScaDFX=  1.000000  1.000000  1.000000  1.000000
 Initial guess orbital symmetries:
 Alpha Orbitals:
       Occupied  (A1) (B2) (A1) (A1) (B2) (A1) (A1) (B2) (B1) (A1)
                 (B2) (A1) (B2) (A2) (B1) (A1) (B2) (A1) (B1) (A1)
                 (B2)
       Virtual   (A1) (A2) (B1) (B2) (B2) (A1) (A1) (B2) (B1) (A1)
                 (B2) (A2) (A1) (B1) (A1) (B2) (A1) (B2) (A1) (A2)
                 (B1) (B2) (B1) (A1) (B2) (A2) (A1) (B2) (A2) (B1)
                 (A1) (A1) (B2) (B1) (A1) (A2) (B1) (B2) (A1) (B2)
                 (A1) (B2) (A1) (B2) (A1) (B1) (A1) (B2) (B1) (A2)
                 (A1) (B2) (A1) (B2) (A1) (B2) (A1)
 Beta  Orbitals:
       Occupied  (A1) (B2) (A1) (A1) (B2) (A1) (A1) (B2) (B1) (A1)
                 (B2) (A1) (B2) (A2) (B1) (A1) (B2) (A1) (B1) (A1)
       Virtual   (B2) (A1) (A2) (B1) (B2) (B2) (A1) (A1) (B2) (B1)
                 (A1) (B2) (A2) (A1) (B1) (A1) (B2) (A1) (B2) (A1)
                 (A2) (B1) (B2) (B1) (A1) (B2) (A2) (A1) (B2) (A2)
                 (B1) (A1) (A1) (B2) (B1) (A1) (A2) (B1) (B2) (A1)
                 (B2) (A1) (B2) (A1) (B2) (A1) (B1) (A1) (B2) (B1)
                 (A2) (A1) (B2) (A1) (B2) (A1) (B2) (A1)
 The electronic state of the initial guess is 2-B2.
 <S**2> of initial guess= 0.7500
 Requested convergence on RMS density matrix=1.00D-08 within 128 cycles.
 Requested convergence on MAX density matrix=1.00D-06.
 Requested convergence on             energy=1.00D-06.
 No special actions if energy rises.
 Keep R1 and R2 integrals in memory in canonical form, NReq=    12169247.
 Rare condition: small coef for last iteration:  0.000D+00
 Rare condition: small coef for last iteration:  0.000D+00
 Rare condition: small coef for last iteration:  0.000D+00
 Rare condition: small coef for last iteration:  0.000D+00
 Rare condition: small coef for last iteration:  0.000D+00
 Rare condition: small coef for last iteration:  0.000D+00
 Rare condition: small coef for last iteration:  0.000D+00
 Rare condition: small coef for last iteration:  0.000D+00
 Restarting incremental Fock formation.
 Rare condition: small coef for last iteration:  0.000D+00
 Rare condition: small coef for last iteration:  0.000D+00
 Rare condition: small coef for last iteration:  0.000D+00
 Rare condition: small coef for last iteration:  0.000D+00
 Rare condition: small coef for last iteration:  0.000D+00
 Rare condition: small coef for last iteration:  0.000D+00
 Rare condition: small coef for last iteration:  0.000D+00
 Rare condition: small coef for last iteration:  0.000D+00
 Rare condition: small coef for last iteration:  0.000D+00
 Restarting incremental Fock formation.
 Rare condition: small coef for last iteration:  0.000D+00
 Rare condition: small coef for last iteration:  0.000D+00
 Rare condition: small coef for last iteration:  0.000D+00
 Rare condition: small coef for last iteration:  0.000D+00
 Rare condition: small coef for last iteration:  0.000D+00
 Rare condition: small coef for last iteration:  0.000D+00
 Rare condition: small coef for last iteration:  0.000D+00
 Rare condition: small coef for last iteration:  0.000D+00
 Rare condition: small coef for last iteration:  0.000D+00
 Rare condition: small coef for last iteration:  0.000D+00
 Restarting incremental Fock formation.
 Rare condition: small coef for last iteration:  0.000D+00
 Rare condition: small coef for last iteration:  0.000D+00
 Rare condition: small coef for last iteration:  0.000D+00
 Rare condition: small coef for last iteration:  0.000D+00
 Rare condition: small coef for last iteration:  0.000D+00
 Rare condition: small coef for last iteration:  0.000D+00
 Rare condition: small coef for last iteration:  0.000D+00
 Rare condition: small coef for last iteration:  0.000D+00
 Rare condition: small coef for last iteration:  0.000D+00
 Rare condition: small coef for last iteration:  0.000D+00
 Rare condition: small coef for last iteration:  0.000D+00
 Restarting incremental Fock formation.
 Rare condition: small coef for last iteration:  0.000D+00
 Rare condition: small coef for last iteration:  0.000D+00
 Rare condition: small coef for last iteration:  0.000D+00
 Rare condition: small coef for last iteration:  0.000D+00
 Rare condition: small coef for last iteration:  0.000D+00
 Restarting incremental Fock formation.
 Rare condition: small coef for last iteration:  0.000D+00
 Rare condition: small coef for last iteration:  0.000D+00
 Rare condition: small coef for last iteration:  0.000D+00
 Rare condition: small coef for last iteration:  0.000D+00
 Rare condition: small coef for last iteration:  0.000D+00
 Rare condition: small coef for last iteration:  0.000D+00
 Rare condition: small coef for last iteration:  0.000D+00
 Rare condition: small coef for last iteration:  0.000D+00
 Rare condition: small coef for last iteration:  0.000D+00
 Restarting incremental Fock formation.
 Rare condition: small coef for last iteration:  0.000D+00
 Rare condition: small coef for last iteration:  0.000D+00
 Rare condition: small coef for last iteration:  0.000D+00
 Rare condition: small coef for last iteration:  0.000D+00
 Rare condition: small coef for last iteration:  0.000D+00
 >>>>>>>>>> Convergence criterion not met.
 SCF Done:  E(UHF) =  -866.382796811     A.U. after  129 cycles
             Convg  =    0.4040D-04             -V/T =  2.0000
             S**2   =   1.0299
 Annihilation of the first spin contaminant:
 S**2 before annihilation     1.0299,   after     0.7868
 Keep R1 and R2 integrals in memory in canonical form, NReq=    11912449.
 LinEq1:  Iter=  0 NonCon=   1 RMS=1.06D-04 Max=3.22D-03
 AX will form   1 AO Fock derivatives at one time.
 LinEq1:  Iter=  1 NonCon=   1 RMS=3.73D-05 Max=9.10D-04
 LinEq1:  Iter=  2 NonCon=   1 RMS=1.80D-05 Max=3.78D-04
 LinEq1:  Iter=  3 NonCon=   1 RMS=5.41D-06 Max=9.98D-05
 LinEq1:  Iter=  4 NonCon=   1 RMS=1.98D-06 Max=3.41D-05
 LinEq1:  Iter=  5 NonCon=   1 RMS=5.98D-07 Max=1.18D-05
 LinEq1:  Iter=  6 NonCon=   1 RMS=1.50D-07 Max=1.75D-06
 LinEq1:  Iter=  7 NonCon=   1 RMS=3.09D-08 Max=6.24D-07
 LinEq1:  Iter=  8 NonCon=   1 RMS=5.20D-09 Max=9.22D-08
 LinEq1:  Iter=  9 NonCon=   0 RMS=1.73D-09 Max=3.06D-08
 Linear equations converged to 4.855D-09 4.855D-08 after   9 iterations.
 Incorrect curvature in search direction -- initial direction reversed.
 Gradient too large for Newton-Raphson -- use scaled steepest descent instead.
 Gradient too large for Newton-Raphson -- use scaled steepest descent instead.
 Gradient too large for Newton-Raphson -- use scaled steepest descent instead.
 Gradient too large for Newton-Raphson -- use scaled steepest descent instead.
 Gradient too large for Newton-Raphson -- use scaled steepest descent instead.
 Gradient too large for Newton-Raphson -- use scaled steepest descent instead.
 Gradient too large for Newton-Raphson -- use scaled steepest descent instead.
 Gradient too large for Newton-Raphson -- use scaled steepest descent instead.
 Gradient too large for Newton-Raphson -- use scaled steepest descent instead.
 Gradient too large for Newton-Raphson -- use scaled steepest descent instead.
 Gradient too large for Newton-Raphson -- use scaled steepest descent instead.
 Gradient too large for Newton-Raphson -- use scaled steepest descent instead.
 LinEq1:  Iter=  0 NonCon=   1 RMS=3.17D-04 Max=8.70D-03
 LinEq1:  Iter=  1 NonCon=   1 RMS=2.27D-04 Max=6.39D-03
 LinEq1:  Iter=  2 NonCon=   1 RMS=7.84D-06 Max=2.58D-04
 LinEq1:  Iter=  3 NonCon=   1 RMS=6.21D-07 Max=1.02D-05
 LinEq1:  Iter=  4 NonCon=   1 RMS=2.72D-07 Max=5.86D-06
 LinEq1:  Iter=  5 NonCon=   1 RMS=4.05D-08 Max=6.33D-07
 LinEq1:  Iter=  6 NonCon=   1 RMS=6.23D-09 Max=1.12D-07
 LinEq1:  Iter=  7 NonCon=   0 RMS=1.94D-09 Max=3.01D-08
 Linear equations converged to 4.855D-09 4.855D-08 after   7 iterations.
 LinEq1:  Iter=  0 NonCon=   1 RMS=4.06D-05 Max=1.06D-03
 LinEq1:  Iter=  1 NonCon=   1 RMS=2.15D-05 Max=8.08D-04
 LinEq1:  Iter=  2 NonCon=   1 RMS=6.16D-06 Max=1.29D-04
 LinEq1:  Iter=  3 NonCon=   1 RMS=1.43D-06 Max=2.24D-05
 LinEq1:  Iter=  4 NonCon=   1 RMS=5.38D-07 Max=8.92D-06
 LinEq1:  Iter=  5 NonCon=   1 RMS=8.86D-08 Max=1.36D-06
 LinEq1:  Iter=  6 NonCon=   1 RMS=1.39D-08 Max=3.88D-07
 LinEq1:  Iter=  7 NonCon=   1 RMS=3.87D-09 Max=7.43D-08
 LinEq1:  Iter=  8 NonCon=   0 RMS=1.23D-09 Max=1.13D-08
 Linear equations converged to 4.855D-09 4.855D-08 after   8 iterations.
 LinEq1:  Iter=  0 NonCon=   1 RMS=1.65D-07 Max=3.06D-06
 LinEq1:  Iter=  1 NonCon=   1 RMS=7.19D-08 Max=1.40D-06
 LinEq1:  Iter=  2 NonCon=   1 RMS=2.03D-08 Max=4.25D-07
 LinEq1:  Iter=  3 NonCon=   1 RMS=6.43D-09 Max=1.18D-07
 LinEq1:  Iter=  4 NonCon=   1 RMS=2.14D-09 Max=3.58D-08
 LinEq1:  Iter=  5 NonCon=   1 RMS=7.88D-10 Max=1.60D-08
 LinEq1:  Iter=  6 NonCon=   1 RMS=2.88D-10 Max=6.18D-09
 LinEq1:  Iter=  7 NonCon=   0 RMS=7.46D-11 Max=1.54D-09
 Linear equations converged to 5.361D-10 5.361D-09 after   7 iterations.
 LinEq1:  Iter=  0 NonCon=   1 RMS=1.67D-09 Max=3.23D-08
 LinEq1:  Iter=  1 NonCon=   1 RMS=5.79D-10 Max=1.36D-08
 LinEq1:  Iter=  2 NonCon=   1 RMS=1.58D-10 Max=2.52D-09
 LinEq1:  Iter=  3 NonCon=   1 RMS=7.27D-11 Max=1.76D-09
 LinEq1:  Iter=  4 NonCon=   1 RMS=2.50D-11 Max=3.93D-10
 LinEq1:  Iter=  5 NonCon=   0 RMS=8.47D-12 Max=1.74D-10
 Linear equations converged to 2.292D-11 2.292D-10 after   5 iterations.
 Search did not lower the energy significantly.
 No lower point found -- using Newton-Raphson step.
 SCF Done:  E(UHF) =  -866.394253670     a.u. after   18 cycles
            Convg  =    0.1525D-06                   105 Fock formations.
              S**2 =  1.4784                  -V/T =  1.9999
 Annihilation of the first spin contaminant:
 S**2 before annihilation     1.4784,   after     0.9629
 Range of M.O.s used for correlation:     1    78
 NBasis=    78 NAE=    21 NBE=    20 NFC=     0 NFV=     0
 NROrb=     78 NOA=    21 NOB=    20 NVA=    57 NVB=    58
          Differentiating once with respect to electric field.
                with respect to dipole field.
          Electric field/nuclear overlap derivatives assumed to be zero.
          Store integrals in memory, NReq=    11853257.
          There are   3 degrees of freedom in the 1st order CPHF.
     3 vectors were produced by pass  0.
 AX will form   3 AO Fock derivatives at one time.
     3 vectors were produced by pass  1.
     3 vectors were produced by pass  2.
     3 vectors were produced by pass  3.
     3 vectors were produced by pass  4.
     3 vectors were produced by pass  5.
     3 vectors were produced by pass  6.
     3 vectors were produced by pass  7.
     3 vectors were produced by pass  8.
     3 vectors were produced by pass  9.
     3 vectors were produced by pass 10.
     3 vectors were produced by pass 11.
     2 vectors were produced by pass 12.
     2 vectors were produced by pass 13.
     2 vectors were produced by pass 14.
 Inv2:  IOpt= 1 Iter= 1 AM= 2.90D-14 Conv= 1.00D-12.
 Inverted reduced A of dimension   42 with in-core refinement.
 End of Minotr Frequency-dependent properties file   721 does not exist.
 Symmetrizing basis deriv contribution to polar:
 IMax=3 JMax=2 DiffMx= 0.00D+00
 G2DrvN: will do    4 centers at a time, making    1 passes doing MaxLOS=2.
 FoFDir/FoFCou used for L=0 through L=2.
 DoAtom=TTT
          Differentiating once with respect to electric field.
                with respect to dipole field.
          Differentiating once with respect to nuclear coordinates.
          Store integrals in memory, NReq=    11853320.
          There are   9 degrees of freedom in the 1st order CPHF.
     9 vectors were produced by pass  0.
 AX will form   9 AO Fock derivatives at one time.
     9 vectors were produced by pass  1.
     9 vectors were produced by pass  2.
     9 vectors were produced by pass  3.
     9 vectors were produced by pass  4.
     9 vectors were produced by pass  5.
     9 vectors were produced by pass  6.
     9 vectors were produced by pass  7.
     9 vectors were produced by pass  8.
     5 vectors were produced by pass  9.
     4 vectors were produced by pass 10.
     2 vectors were produced by pass 11.
 Inv2:  IOpt= 1 Iter= 1 AM= 1.50D-13 Conv= 1.00D-12.
 Inverted reduced A of dimension   92 with in-core refinement.
 Isotropic polarizability for W=    0.000000       90.04 Bohr**3.
 End of Minotr Frequency-dependent properties file   721 does not exist.

 **********************************************************************

            Population analysis using the SCF density.

 **********************************************************************

 Orbital symmetries:
 Alpha Orbitals:
       Occupied  (A1) (B2) (A1) (B2) (A1) (A1) (A1) (B2) (B1) (A2)
                 (A1) (B2) (A1) (B2) (B1) (A1) (B2) (A1) (B2) (A1)
                 (B1)
       Virtual   (A1) (A2) (B1) (B2) (B2) (A1) (A1) (B2) (B1) (A1)
                 (B2) (A2) (A1) (B1) (B2) (A1) (B2) (A1) (A1) (A2)
                 (B1) (B2) (B1) (A1) (B2) (A1) (A2) (B2) (A2) (B1)
                 (A1) (A1) (B2) (B1) (A1) (A2) (A1) (B2) (B1) (B2)
                 (A1) (B2) (A1) (B2) (A1) (B1) (A1) (A2) (B2) (B2)
                 (A1) (B1) (A1) (B2) (A1) (B2) (A1)
 Beta  Orbitals:
       Occupied  (A1) (B2) (A1) (A1) (B2) (A1) (A1) (B2) (B1) (A2)
                 (A1) (B2) (B1) (A1) (B2) (A1) (B2) (A1) (A1) (B1)
       Virtual   (B2) (A2) (A1) (B2) (B1) (A1) (B2) (A1) (B1) (B2)
                 (A1) (B2) (A2) (B1) (A1) (B2) (A1) (B2) (A1) (A1)
                 (B1) (A2) (B2) (A1) (B1) (B2) (A2) (A1) (B2) (A2)
                 (B1) (A1) (A1) (B2) (B1) (A1) (A2) (B2) (A1) (B1)
                 (B2) (A1) (B2) (A1) (B2) (A1) (B1) (A1) (A2) (B2)
                 (B2) (A1) (B1) (A1) (B2) (A1) (B2) (A1)
 The electronic state is 2-B2.
 Alpha  occ. eigenvalues --  -69.05978 -69.05978 -69.00600  -6.40109  -6.40108
 Alpha  occ. eigenvalues --   -6.35532  -4.50995  -4.50992  -4.50015  -4.50014
 Alpha  occ. eigenvalues --   -4.49609  -4.49604  -4.46313  -4.46245  -4.45577
 Alpha  occ. eigenvalues --   -1.00480  -0.79063  -0.70751  -0.56864  -0.54972
 Alpha  occ. eigenvalues --   -0.51040
 Alpha virt. eigenvalues --   -0.21865  -0.19132  -0.14374  -0.11239  -0.04854
 Alpha virt. eigenvalues --   -0.03885   0.04281   0.05312   0.07600   0.10021
 Alpha virt. eigenvalues --    0.11493   0.12554   0.13565   0.15217   0.18558
 Alpha virt. eigenvalues --    0.18765   0.35053   0.38372   0.39352   0.43281
 Alpha virt. eigenvalues --    0.43567   0.52527   0.58151   0.58690   0.60225
 Alpha virt. eigenvalues --    0.61932   0.63065   0.73985   0.76334   0.79956
 Alpha virt. eigenvalues --    0.80243   1.01733   1.06525   1.12765   1.15566
 Alpha virt. eigenvalues --    1.17704   1.19492   1.19842   1.21138   1.26302
 Alpha virt. eigenvalues --    1.30488   1.34153   5.33407   5.57423   5.76192
 Alpha virt. eigenvalues --   11.82735  11.84586  11.85814  11.86502  11.89565
 Alpha virt. eigenvalues --   11.90095  11.90431  11.94564  11.95025 143.05466
 Alpha virt. eigenvalues --  143.31726 143.53273
  Beta  occ. eigenvalues --  -69.05860 -69.05860 -68.99880  -6.39983  -6.39980
  Beta  occ. eigenvalues --   -6.34738  -4.50527  -4.50519  -4.50107  -4.50106
  Beta  occ. eigenvalues --   -4.49272  -4.49269  -4.44844  -4.44478  -4.44461
  Beta  occ. eigenvalues --   -0.95839  -0.76191  -0.60679  -0.52922  -0.49887
  Beta virt. eigenvalues --   -0.24222  -0.20258  -0.19039  -0.14893  -0.12123
  Beta virt. eigenvalues --   -0.02880  -0.01685   0.05002   0.07803   0.08077
  Beta virt. eigenvalues --    0.09892   0.11564   0.12391   0.15577   0.16936
  Beta virt. eigenvalues --    0.21443   0.21848   0.35854   0.39585   0.42953
  Beta virt. eigenvalues --    0.47264   0.48268   0.56154   0.56264   0.56436
  Beta virt. eigenvalues --    0.60652   0.60691   0.64671   0.73478   0.79157
  Beta virt. eigenvalues --    0.82257   0.83134   1.04992   1.10162   1.12683
  Beta virt. eigenvalues --    1.14008   1.17605   1.20258   1.21996   1.22411
  Beta virt. eigenvalues --    1.28941   1.33031   1.35230   5.33920   5.57590
  Beta virt. eigenvalues --    5.76960  11.82689  11.84407  11.85735  11.86699
  Beta virt. eigenvalues --   11.90357  11.91014  11.91040  11.96108  11.96247
  Beta virt. eigenvalues --  143.05636 143.31790 143.53570
          Condensed to atoms (all electrons):
              1          2          3
     1  Si  13.243086   0.138761   0.172491
     2  Si   0.138761  13.243086   0.172491
     3  Si   0.172491   0.172491  13.546343
 Mulliken atomic charges:
              1
     1  Si   0.445662
     2  Si   0.445662
     3  Si   0.108676
 Sum of Mulliken charges=   1.00000
 Atomic charges with hydrogens summed into heavy atoms:
              1
     1  Si   0.445662
     2  Si   0.445662
     3  Si   0.108676
 Sum of Mulliken charges=   1.00000
          Atomic-Atomic Spin Densities.
              1          2          3
     1  Si  -0.131686  -0.142079   0.234932
     2  Si  -0.142079  -0.131686   0.234932
     3  Si   0.234932   0.234932   0.607801
 Mulliken atomic spin densities:
              1
     1  Si  -0.038833
     2  Si  -0.038833
     3  Si   1.077665
 Sum of Mulliken spin densities=   1.00000
 APT atomic charges:
              1
     1  Si   0.179753
     2  Si   0.179733
     3  Si   0.640521
 Sum of APT charges=   1.00001
 APT Atomic charges with hydrogens summed into heavy atoms:
              1
     1  Si   0.179753
     2  Si   0.179733
     3  Si   0.640521
 Sum of APT charges=   1.00001
 Electronic spatial extent (au):  <R**2>=   364.6946
 Charge=     1.0000 electrons
 Dipole moment (field-independent basis, Debye):
    X=     0.0000    Y=     0.0000    Z=    -1.0176  Tot=     1.0176
 Quadrupole moment (field-independent basis, Debye-Ang):
   XX=   -36.1365   YY=   -24.1554   ZZ=   -30.7114
   XY=     0.0000   XZ=     0.0000   YZ=     0.0000
 Traceless Quadrupole moment (field-independent basis, Debye-Ang):
   XX=    -5.8021   YY=     6.1790   ZZ=    -0.3769
   XY=     0.0000   XZ=     0.0000   YZ=     0.0000
 Octapole moment (field-independent basis, Debye-Ang**2):
  XXX=     0.0000  YYY=     0.0000  ZZZ=     0.5576  XYY=     0.0000
  XXY=     0.0000  XXZ=    -2.0623  XZZ=     0.0000  YZZ=     0.0000
  YYZ=    -3.3572  XYZ=     0.0000
 Hexadecapole moment (field-independent basis, Debye-Ang**3):
 XXXX=   -65.8772 YYYY=  -312.6086 ZZZZ=  -177.1047 XXXY=     0.0000
 XXXZ=     0.0000 YYYX=     0.0000 YYYZ=     0.0000 ZZZX=     0.0000
 ZZZY=     0.0000 XXYY=   -64.9204 XXZZ=   -41.9390 YYZZ=   -84.3391
 XXYZ=     0.0000 YYXZ=     0.0000 ZZXY=     0.0000
 N-N= 1.309834292958D+02 E-N=-2.320445508896D+03  KE= 8.664525443950D+02
 Symmetry A1   KE= 5.030458170817D+02
 Symmetry A2   KE= 2.438617847116D+01
 Symmetry B1   KE= 5.046485889819D+01
 Symmetry B2   KE= 2.885556899440D+02
  Exact polarizability:  46.333   0.000 139.680   0.000  -0.001  84.098
 Approx polarizability:  44.984   0.000 139.961   0.000   0.000  91.994
                          Isotropic Fermi Contact Couplings
        Atom                 a.u.       MegaHertz       Gauss      10(-4) cm-1
     1  Si(29)            -0.01264      11.23067       4.00738       3.74615
     2  Si(29)            -0.01264      11.23067       4.00738       3.74615
     3  Si(29)            -0.03779      33.58675      11.98459      11.20333
 --------------------------------------------------------
       Center         ----  Spin Dipole Couplings  ----
                      3XX-RR        3YY-RR        3ZZ-RR
 --------------------------------------------------------
     1   Atom       -0.400710     -0.588454      0.989164
     2   Atom       -0.400710     -0.588454      0.989164
     3   Atom       -0.839062      0.378543      0.460520
 --------------------------------------------------------
                        XY            XZ            YZ
 --------------------------------------------------------
     1   Atom        0.000000      0.000000     -1.365405
     2   Atom        0.000000      0.000000      1.365405
     3   Atom        0.000000      0.000000      0.000000
 --------------------------------------------------------


 ---------------------------------------------------------------------------------
              Anisotropic Spin Dipole Couplings in Principal Axis System
 ---------------------------------------------------------------------------------

       Atom             a.u.   MegaHertz   Gauss  10(-4) cm-1        Axes

              Baa    -1.3765   146.027    52.106    48.709  0.0000  0.8661  0.4999
     1 Si(29) Bbb    -0.4007    42.509    15.168    14.179  1.0000  0.0000  0.0000
              Bcc     1.7772  -188.536   -67.274   -62.889  0.0000 -0.4999  0.8661
 
              Baa    -1.3765   146.027    52.106    48.709  0.0000  0.8661 -0.4999
     2 Si(29) Bbb    -0.4007    42.509    15.168    14.179  1.0000  0.0000  0.0000
              Bcc     1.7772  -188.536   -67.274   -62.889  0.0000  0.4999  0.8661
 
              Baa    -0.8391    89.011    31.761    29.691  1.0000  0.0000  0.0000
     3 Si(29) Bbb     0.3785   -40.157   -14.329   -13.395  0.0000  1.0000  0.0000
              Bcc     0.4605   -48.854   -17.432   -16.296  0.0000  0.0000  1.0000
 

 ---------------------------------------------------------------------------------

 Full mass-weighted force constant matrix:
 Low frequencies --- -128.4345  -56.6105   -0.0170    0.0030    0.0032   62.9661
 Low frequencies ---   67.6840  257.0084  521.0632
 Diagonal vibrational polarizability:
        0.0000000      23.2390212     105.0755154
 Diagonal vibrational hyperpolarizability:
        0.0000000       3.4589323     -87.9984781
 Harmonic frequencies (cm**-1), IR intensities (KM/Mole), Raman scattering
 activities (A**4/AMU), depolarization ratios for plane and unpolarized
 incident light, reduced masses (AMU), force constants (mDyne/A),
 and normal coordinates:
                     1                      2                      3
                    A1                     B2                     A1
 Frequencies --    62.9661               254.3002               521.0632
 Red. masses --    27.9769                27.9769                27.9769
 Frc consts  --     0.0654                 1.0660                 4.4754
 IR Inten    --    15.4792                55.8442                 0.0810
 Raman Activ --  1397.9920               120.6795               570.6106
 Depolar (P) --     0.3339                 0.7500                 0.4842
 Depolar (U) --     0.5006                 0.8571                 0.6525
 Atom AN      X      Y      Z        X      Y      Z        X      Y      Z
   1  14     0.00   0.62   0.20     0.00   0.34  -0.39     0.00  -0.34   0.36
   2  14     0.00  -0.62   0.20     0.00   0.34   0.39     0.00   0.34   0.36
   3  14     0.00   0.00  -0.39     0.00  -0.68   0.00     0.00   0.00  -0.72

 -------------------
 - Thermochemistry -
 -------------------
 Temperature   298.150 Kelvin.  Pressure   1.00000 Atm.
 Atom  1 has atomic number 14 and mass  27.97693
 Atom  2 has atomic number 14 and mass  27.97693
 Atom  3 has atomic number 14 and mass  27.97693
 Molecular mass:    83.93079 amu.
 Principal axes and moments of inertia in atomic units:
                           1         2         3
     EIGENVALUES --   180.33526 413.24686 593.58212
           X            0.00000   0.00000   1.00000
           Y            1.00000   0.00000   0.00000
           Z            0.00000   1.00000   0.00000
 This molecule is an asymmetric top.
 Rotational symmetry number  2.
 Rotational temperatures (Kelvin)      0.48029     0.20959     0.14592
 Rotational constants (GHZ):          10.00770     4.36722     3.04042
 Zero-point vibrational energy       5014.3 (Joules/Mol)
                                    1.19845 (Kcal/Mol)
 Warning -- explicit consideration of   3 degrees of freedom as
           vibrations may cause significant error
 Vibrational temperatures:     90.59   365.88   749.69
          (Kelvin)
 
 Zero-point correction=                           0.001910 (Hartree/Particle)
 Thermal correction to Energy=                    0.006240
 Thermal correction to Enthalpy=                  0.007184
 Thermal correction to Gibbs Free Energy=        -0.026627
 Sum of electronic and zero-point Energies=           -866.392344
 Sum of electronic and thermal Energies=              -866.388014
 Sum of electronic and thermal Enthalpies=            -866.387070
 Sum of electronic and thermal Free Energies=         -866.420881
 
                     E (Thermal)             CV                S
                      KCal/Mol        Cal/Mol-Kelvin    Cal/Mol-Kelvin
 Total                    3.916             10.892             71.161
 Electronic               0.000              0.000              1.377
 Translational            0.889              2.981             39.196
 Rotational               0.889              2.981             23.918
 Vibrational              2.138              4.931              6.670
 Vibration  1             0.597              1.972              4.362
 Vibration  2             0.665              1.756              1.701
 Vibration  3             0.876              1.203              0.608
                       Q            Log10(Q)             Ln(Q)
 Total Bot       0.176823D+13         12.247539         28.201001
 Total V=0       0.133663D+14         13.126010         30.223755
 Vib (Bot)       0.777088D+00         -0.109530         -0.252202
 Vib (Bot)  1    0.327843D+01          0.515665          1.187364
 Vib (Bot)  2    0.765911D+00         -0.115822         -0.266690
 Vib (Bot)  3    0.309476D+00         -0.509373         -1.172876
 Vib (V=0)       0.587409D+01          0.768941          1.770552
 Vib (V=0)  1    0.381634D+01          0.581647          1.339291
 Vib (V=0)  2    0.141467D+01          0.150655          0.346895
 Vib (V=0)  3    0.108803D+01          0.036639          0.084366
 Electronic      0.200000D+01          0.301030          0.693147
 Translational   0.302230D+08          7.480337         17.224113
 Rotational      0.376445D+05          4.575702         10.535943
 ***** Axes restored to original set *****
 -------------------------------------------------------------------
 Center     Atomic                   Forces (Hartrees/Bohr)
 Number     Number              X              Y              Z
 -------------------------------------------------------------------
    1         14           0.000000000   -0.013189170   -0.018102482
    2         14           0.000000000    0.013189170   -0.018102482
    3         14           0.000000000    0.000000000    0.036204965
 -------------------------------------------------------------------
 Cartesian Forces:  Max     0.036204965 RMS     0.016035058
 ------------------------------------------------------------------------
           Internal Coordinate Forces (Hartree/Bohr or radian)
 Cent Atom N1     Length/X     N2     Alpha/Y      N3      Beta/Z       J
 ------------------------------------------------------------------------
   1  Si        0.000000(   1)     -0.013189(   4)     -0.018102(   7)
   2  Si        0.000000(   2)      0.013189(   5)     -0.018102(   8)
   3  Si        0.000000(   3)      0.000000(   6)      0.036205(   9)
 ------------------------------------------------------------------------
 Internal  Forces:  Max     0.036204965 RMS     0.016035058

 GradGradGradGradGradGradGradGradGradGradGradGradGradGradGradGradGradGrad
 Berny optimization.
 Search for a local minimum.
 Step number   1 out of a maximum of   2
 All quantities printed in internal units (Hartrees-Bohrs-Radians)
 Second derivative matrix not updated -- analytic derivatives used.
 The second derivative matrix:
                          X1        Y1        Z1        X2        Y2
           X1          -0.00049
           Y1           0.00000   0.04107
           Z1           0.00000  -0.04496   0.05146
           X2          -0.00534   0.00000   0.00000  -0.00049
           Y2           0.00000  -0.02852   0.02395   0.00000   0.04107
           Z2           0.00000  -0.02395   0.02256   0.00000   0.04496
           X3           0.00582   0.00000   0.00000   0.00582   0.00000
           Y3           0.00000  -0.01255   0.02102   0.00000  -0.01255
           Z3           0.00000   0.06891  -0.07402   0.00000  -0.06891
                          Z2        X3        Y3        Z3
           Z2           0.05146
           X3           0.00000  -0.01164
           Y3          -0.02102   0.00000   0.02509
           Z3          -0.07402   0.00000   0.00000   0.14804
     Eigenvalues ---    0.00420   0.06847   0.28746
 Quadratic step=8.973D+00 exceeds max=3.000D-01 adjusted using Lamda=-1.252D-01.
 Angle between NR and scaled steps=  13.32 degrees.
 Angle between quadratic step and forces=  24.48 degrees.
 Linear search not attempted -- first point.
 TrRot=  0.000000  0.000000  0.000000  0.000000  0.000000  0.000000
 Variable       Old X    -DE/DX   Delta X   Delta X   Delta X     New X
                                 (Linear)    (Quad)   (Total)
    X1        0.00000   0.00000   0.00000   0.00000   0.00000   0.00000
    Y1        2.71763  -0.01319   0.00000  -0.15589  -0.15589   2.56173
    Z1       -1.03649  -0.01810   0.00000  -0.08307  -0.08307  -1.11956
    X2        0.00000   0.00000   0.00000   0.00000   0.00000   0.00000
    Y2       -2.71763   0.01319   0.00000   0.15589   0.15589  -2.56173
    Z2       -1.03649  -0.01810   0.00000  -0.08307  -0.08307  -1.11956
    X3        0.00000   0.00000   0.00000   0.00000   0.00000   0.00000
    Y3        0.00000   0.00000   0.00000   0.00000   0.00000   0.00000
    Z3        2.07298   0.03620   0.00000   0.16614   0.16614   2.23912
         Item               Value     Threshold  Converged?
 Maximum Force            0.036205     0.000450     NO 
 RMS     Force            0.016035     0.000300     NO 
 Maximum Displacement     0.166139     0.001800     NO 
 RMS     Displacement     0.100005     0.001200     NO 
 Predicted change in Energy=-1.220094D-02
 GradGradGradGradGradGradGradGradGradGradGradGradGradGradGradGradGradGrad

 1\1\GINC-NODE24\Freq\UHF\6-311G(d)\Si3(1+,2)\TAM\17-Jun-2011\0\\# hf/6
 -311G(d) freq scfcyc=500 scf=xqc\\si3-c\\1,2\Si,0.,1.438106,-0.548486\
 Si,0.,-1.438106,-0.548486\Si,0.,0.,1.096973\\Version=AM64L-G03RevE.01\
 State=2-B2\HF=-866.3942537\S2=1.478428\S2-1=0.\S2A=0.962876\RMSD=4.040
 e-05\RMSF=1.604e-02\ZeroPoint=0.0019099\Thermal=0.0062399\Dipole=0.,0.
 ,-0.4003508\DipoleDeriv=0.3977115,0.,0.,0.,-0.0783182,-0.4297005,0.,0.
 5446489,0.2198653,0.3977115,0.,0.,0.,-0.0783847,0.4297046,0.,-0.544616
 6,0.2198708,0.2045806,0.,0.,0.,1.1566979,0.0000197,0.,-0.0000371,0.560
 2852\Polar=46.3333812,0.,139.6795288,0.,-0.001047,84.0982151\PolarDeri
 v=0.,17.2105424,0.,-6.0727149,0.,0.,2.2141515,0.,81.7368072,0.,-12.703
 7004,8.8570229,-2.9570604,0.,87.1337881,0.,24.7733541,-8.8829871,0.,-1
 7.2109818,0.,-6.0726798,0.,0.,-2.2141498,0.,-81.7580816,0.,-12.7073462
 ,-8.8571117,-2.9570587,0.,87.1263684,0.,-24.7776049,-8.8829135,0.,-0.0
 006667,0.,12.145062,0.,0.,0.0007485,0.,0.0831585,0.,25.4106488,-0.0019
 199,5.9147894,0.,-174.1640218,0.,0.0035964,17.7635292\HyperPolar=0.,0.
 0305613,0.,-5.8338617,92.5146336,0.,-1120.1665125,0.,-0.0024341,304.83
 79844\PG=C02V [C2(Si1),SGV(Si2)]\NImag=0\\-0.00048539,0.,0.04106784,0.
 ,-0.04496414,0.05146129,-0.00533563,0.,0.,-0.00048539,0.,-0.02852127,0
 .02394757,0.,0.04106784,0.,-0.02394757,0.02256090,0.,0.04496414,0.0514
 6129,0.00582137,0.,0.,0.00582137,0.,0.,-0.01164343,0.,-0.01254588,0.02
 101714,0.,-0.01254752,-0.02101634,0.,0.02509366,0.,0.06891233,-0.07402
 168,0.,-0.06891257,-0.07402200,0.,-0.00000056,0.14804297\\0.,0.0131891
 7,0.01810248,0.,-0.01318917,0.01810248,0.,0.,-0.03620496\\\@


 EXPERIMENTALISTS THINK SILICON IS REALLY FUN TO USE
     ITS PLACE IN NOVEL COMPOUNDS IS CERTAIN TO AMUSE
 THEY SIT ALL DAY IN LABORATORIES MAKING ALL THIS SLUDGE
     "LOADED WITH THE SILICON THEY SAY", TO ME IT LOOKS LIKE FUDGE.
 FOR HAPPY THOUGH THEY BE WITH CRUD, I'D LIKE TO KNOW A LITTLE
      ABOUT THE PI BONDS ON THE EDGE AND SIGMAS IN THE MIDDLE.

 SO LETS DERIVE A WAVEFUNCTION.....6-31G*
     USE AN OPTIMAL GEOMETRY AND SEE WHERE ELECTRONS ARE.
 BUT WHAT OF CORRELATION?  ASKS THE WIRY LITTLE SKEPTIC.
     WE'LL THROW IN PERTURBATION AS AN ELECTRON ANTISEPTIC.
 AND WHEN THE PROGRAM GIVES US ANSWERS IN THEM WE CAN TRUST
     SINCE NOBODY CAN MAKE THE STUFF, WE HAVE NO CHOICE, WE MUST.

 SO THEORY GUYS HAVE GOT IT MADE, IN ROOMS FREE OF POLLUTION.
     INSTEAD OF PROBLEMS WITH THE REFLUX, THEY HAVE ONLY SOLUTIONS.
 AND WHEN THE FEDS ANNOUNCE THE LIST OF CARCINOGENIC TERRORS,
     THE THEORISTS SIT SAFELY AT THEIR TERMINALS FIXING ERRORS.
 IN OTHER WORDS, EXPERIMENTALISTS WILL LIKELY DIE OF CANCER
     FROM WORKING HARD YET FRUITLESSLY...TILL THEORY GIVES THE ANSWER.
          -- THOMAS A. HOLME, 1983
 Job cpu time:  0 days  0 hours  1 minutes 35.2 seconds.
 File lengths (MBytes):  RWF=     21 Int=      0 D2E=      0 Chk=      6 Scr=      1
 Normal termination of Gaussian 03 at Fri Jun 17 16:04:04 2011.
 Initial command:
 /usr/local/chem/g03E01/l1.exe /temp0/tam/Gau-12361.inp -scrdir=/temp0/tam/
 Entering Link 1 = /usr/local/chem/g03E01/l1.exe PID=     12432.
  
 Copyright (c) 1988,1990,1992,1993,1995,1998,2003,2004,2007, Gaussian, Inc.
                  All Rights Reserved.
  
 This is the Gaussian(R) 03 program.  It is based on the
 the Gaussian(R) 98 system (copyright 1998, Gaussian, Inc.),
 the Gaussian(R) 94 system (copyright 1995, Gaussian, Inc.),
 the Gaussian 92(TM) system (copyright 1992, Gaussian, Inc.),
 the Gaussian 90(TM) system (copyright 1990, Gaussian, Inc.),
 the Gaussian 88(TM) system (copyright 1988, Gaussian, Inc.),
 the Gaussian 86(TM) system (copyright 1986, Carnegie Mellon
 University), and the Gaussian 82(TM) system (copyright 1983,
 Carnegie Mellon University). Gaussian is a federally registered
 trademark of Gaussian, Inc.
  
 This software contains proprietary and confidential information,
 including trade secrets, belonging to Gaussian, Inc.
  
 This software is provided under written license and may be
 used, copied, transmitted, or stored only in accord with that
 written license.
  
 The following legend is applicable only to US Government
 contracts under FAR:
  
                    RESTRICTED RIGHTS LEGEND
  
 Use, reproduction and disclosure by the US Government is
 subject to restrictions as set forth in subparagraphs (a)
 and (c) of the Commercial Computer Software - Restricted
 Rights clause in FAR 52.227-19.
  
 Gaussian, Inc.
 340 Quinnipiac St., Bldg. 40, Wallingford CT 06492
  
  
 ---------------------------------------------------------------
 Warning -- This program may not be used in any manner that
 competes with the business of Gaussian, Inc. or will provide
 assistance to any competitor of Gaussian, Inc.  The licensee
 of this program is prohibited from giving any competitor of
 Gaussian, Inc. access to this program.  By using this program,
 the user acknowledges that Gaussian, Inc. is engaged in the
 business of creating and licensing software in the field of
 computational chemistry and represents and warrants to the
 licensee that it is not a competitor of Gaussian, Inc. and that
 it will not use this program in any manner prohibited above.
 ---------------------------------------------------------------
  

 Cite this work as:
 Gaussian 03, Revision E.01,
 M. J. Frisch, G. W. Trucks, H. B. Schlegel, G. E. Scuseria, 
 M. A. Robb, J. R. Cheeseman, J. A. Montgomery, Jr., T. Vreven, 
 K. N. Kudin, J. C. Burant, J. M. Millam, S. S. Iyengar, J. Tomasi, 
 V. Barone, B. Mennucci, M. Cossi, G. Scalmani, N. Rega, 
 G. A. Petersson, H. Nakatsuji, M. Hada, M. Ehara, K. Toyota, 
 R. Fukuda, J. Hasegawa, M. Ishida, T. Nakajima, Y. Honda, O. Kitao, 
 H. Nakai, M. Klene, X. Li, J. E. Knox, H. P. Hratchian, J. B. Cross, 
 V. Bakken, C. Adamo, J. Jaramillo, R. Gomperts, R. E. Stratmann, 
 O. Yazyev, A. J. Austin, R. Cammi, C. Pomelli, J. W. Ochterski, 
 P. Y. Ayala, K. Morokuma, G. A. Voth, P. Salvador, J. J. Dannenberg, 
 V. G. Zakrzewski, S. Dapprich, A. D. Daniels, M. C. Strain, 
 O. Farkas, D. K. Malick, A. D. Rabuck, K. Raghavachari, 
 J. B. Foresman, J. V. Ortiz, Q. Cui, A. G. Baboul, S. Clifford, 
 J. Cioslowski, B. B. Stefanov, G. Liu, A. Liashenko, P. Piskorz, 
 I. Komaromi, R. L. Martin, D. J. Fox, T. Keith, M. A. Al-Laham, 
 C. Y. Peng, A. Nanayakkara, M. Challacombe, P. M. W. Gill, 
 B. Johnson, W. Chen, M. W. Wong, C. Gonzalez, and J. A. Pople, 
 Gaussian, Inc., Wallingford CT, 2004.
 
 ******************************************
 Gaussian 03:  AM64L-G03RevE.01 11-Sep-2007
                17-Jun-2011 
 ******************************************
 %NprocShared=4
 Will use up to    4 processors via shared memory.
 %mem=3750MB
 %chk=S9L-ne-d-01
 ----------------------------------------------------------------------
 # b3lyp/6-311+G(d) opt=(readfc,noeigentest,maxcycle=500) freq scfcyc=5
 00 optcyc=500 scf=xqc geom=allcheck guess=read
 ----------------------------------------------------------------------
 1/6=500,10=3,11=1,14=-1,18=20,26=3,29=7,38=1/1,3;
 2/9=110,40=1/2;
 3/5=4,6=6,7=11,11=2,16=1,25=1,30=1,74=-5/1,2,3;
 4/5=1/1;
 5/5=2,7=500,8=3,13=1,38=6/2,8;
 6/7=2,8=2,9=2,10=2,28=1/1;
 7//1,2,3,16;
 1/6=500,11=1,14=-1,18=20/3(3);
 2/9=110/2;
 6/7=2,8=2,9=2,10=2,19=2,28=1/1;
 99//99;
 2/9=110/2;
 3/5=4,6=6,7=11,11=2,16=1,25=1,30=1,74=-5/1,2,3;
 4/5=5,16=3/1;
 5/5=2,7=500,8=3,13=1,38=5/2,8;
 7//1,2,3,16;
 1/6=500,11=1,14=-1,18=20/3(-5);
 2/9=110/2;
 6/7=2,8=2,9=2,10=2,19=2,28=1/1;
 99/9=1/99;
 -----
 si3-c
 -----
 No Z-matrix found on checkpoint file.
 Cartesian coordinates read from the checkpoint file:
 S9L-ne-d-01.chk
 Charge =  1 Multiplicity = 2
  Si                                                0.000000000000      1.438106000000     -0.548486000000
  Si                                                0.000000000000     -1.438106000000     -0.548486000000
  Si                                                0.000000000000      0.000000000000      1.096973000000
 Recover connectivity data from disk.

 GradGradGradGradGradGradGradGradGradGradGradGradGradGradGradGradGradGrad
 Berny optimization.
 Initialization pass.
 No redundant coordinates on chk file, so ReadFC converted to ReadCartesianFC.
 Cartesian force constants read from checkpoint file:
 S9L-ne-d-01.chk
                           ----------------------------
                           !    Initial Parameters    !
                           ! (Angstroms and Degrees)  !
 --------------------------                            --------------------------
 ! Name  Definition              Value          Derivative Info.                !
 --------------------------------------------------------------------------------
 ! R1    R(1,3)                  2.1853         D2E/DX2 =    0.0915             !
 ! R2    R(2,3)                  2.1853         D2E/DX2 =    0.0915             !
 ! A1    A(1,3,2)               82.3059         D2E/DX2 =    0.0377             !
 --------------------------------------------------------------------------------
 Trust Radius=3.00D-01 FncErr=1.00D-07 GrdErr=1.00D-06
 Number of steps in this run= 100 maximum allowed number of steps= 100.
 GradGradGradGradGradGradGradGradGradGradGradGradGradGradGradGradGradGrad

                          Input orientation:                          
 ---------------------------------------------------------------------
 Center     Atomic     Atomic              Coordinates (Angstroms)
 Number     Number      Type              X           Y           Z
 ---------------------------------------------------------------------
    1         14             0        0.000000    1.438106   -0.548486
    2         14             0        0.000000   -1.438106   -0.548486
    3         14             0        0.000000    0.000000    1.096973
 ---------------------------------------------------------------------
                    Distance matrix (angstroms):
                    1          2          3
     1  Si   0.000000
     2  Si   2.876212   0.000000
     3  Si   2.185334   2.185334   0.000000
 Stoichiometry    Si3(1+,2)
 Framework group  C2V[C2(Si),SGV(Si2)]
 Deg. of freedom     2
 Full point group                 C2V
 Largest Abelian subgroup         C2V     NOp   4
 Largest concise Abelian subgroup C2      NOp   2
                         Standard orientation:                         
 ---------------------------------------------------------------------
 Center     Atomic     Atomic              Coordinates (Angstroms)
 Number     Number      Type              X           Y           Z
 ---------------------------------------------------------------------
    1         14             0        0.000000    1.438106   -0.548486
    2         14             0        0.000000   -1.438106   -0.548486
    3         14             0        0.000000    0.000000    1.096973
 ---------------------------------------------------------------------
 Rotational constants (GHZ):     10.0077004      4.3672230      3.0404238
 Standard basis: 6-311+G(d) (5D, 7F)
 There are    37 symmetry adapted basis functions of A1  symmetry.
 There are     9 symmetry adapted basis functions of A2  symmetry.
 There are    15 symmetry adapted basis functions of B1  symmetry.
 There are    29 symmetry adapted basis functions of B2  symmetry.
 Integral buffers will be    131072 words long.
 Raffenetti 2 integral format.
 Two-electron integral symmetry is turned on.
    90 basis functions,   150 primitive gaussians,    93 cartesian basis functions
    21 alpha electrons       20 beta electrons
       nuclear repulsion energy       130.9834292958 Hartrees.
 NAtoms=    3 NActive=    3 NUniq=    2 SFac= 1.69D+00 NAtFMM=   80 NAOKFM=F Big=F
 One-electron integrals computed using PRISM.
 NBasis=    90 RedAO= T  NBF=    37     9    15    29
 NBsUse=    90 1.00D-06 NBFU=    37     9    15    29
 Initial guess read from the checkpoint file:
 S9L-ne-d-01.chk
 Initial guess orbital symmetries:
 Alpha Orbitals:
       Occupied  (A1) (B2) (A1) (B2) (A1) (A1) (A1) (B2) (B1) (A2)
                 (A1) (B2) (A1) (B2) (B1) (A1) (B2) (A1) (B2) (A1)
                 (B1)
       Virtual   (A1) (A2) (B1) (B2) (B2) (A1) (A1) (B2) (B1) (A1)
                 (B2) (A2) (A1) (B1) (B2) (A1) (B2) (A1) (A1) (A2)
                 (B1) (B2) (B1) (A1) (B2) (A1) (A2) (B2) (A2) (B1)
                 (A1) (A1) (B2) (B1) (A1) (A2) (A1) (B2) (B1) (B2)
                 (A1) (B2) (A1) (B2) (A1) (B1) (A1) (A2) (B2) (B2)
                 (A1) (B1) (A1) (B2) (A1) (B2) (A1) (A1) (A1) (A1)
                 (A1) (A1) (A2) (B1) (B1) (B2) (B2) (B2) (B2)
 Beta  Orbitals:
       Occupied  (A1) (B2) (A1) (A1) (B2) (A1) (A1) (B2) (B1) (A2)
                 (A1) (B2) (B1) (A1) (B2) (A1) (B2) (A1) (A1) (B1)
       Virtual   (B2) (A2) (A1) (B2) (B1) (A1) (B2) (A1) (B1) (B2)
                 (A1) (B2) (A2) (B1) (A1) (B2) (A1) (B2) (A1) (A1)
                 (B1) (A2) (B2) (A1) (B1) (B2) (A2) (A1) (B2) (A2)
                 (B1) (A1) (A1) (B2) (B1) (A1) (A2) (B2) (A1) (B1)
                 (B2) (A1) (B2) (A1) (B2) (A1) (B1) (A1) (A2) (B2)
                 (B2) (A1) (B1) (A1) (B2) (A1) (B2) (A1) (A1) (A1)
                 (A1) (A1) (A1) (A2) (B1) (B1) (B2) (B2) (B2) (B2)
 <S**2> of initial guess= 1.4784
 Requested convergence on RMS density matrix=1.00D-08 within 128 cycles.
 Requested convergence on MAX density matrix=1.00D-06.
 Requested convergence on             energy=1.00D-06.
 No special actions if energy rises.
 Keep R1 and R2 integrals in memory in canonical form, NReq=    20916809.
 SCF Done:  E(UB+HF-LYP) =  -868.126628284     A.U. after   15 cycles
             Convg  =    0.2863D-08             -V/T =  2.0016
             S**2   =   0.8013
 Annihilation of the first spin contaminant:
 S**2 before annihilation     0.8013,   after     0.7506
 QCSCF skips out because SCF is already converged.

 **********************************************************************

            Population analysis using the SCF density.

 **********************************************************************

 Orbital symmetries:
 Alpha Orbitals:
       Occupied  (B2) (A1) (A1) (B2) (A1) (A1) (A1) (B2) (B1) (A2)
                 (A1) (B2) (B2) (A1) (B1) (A1) (B2) (A1) (B2) (A1)
                 (B1)
       Virtual   (A1) (A2) (B1) (B2) (B2) (A1) (A1) (B1) (A1) (A1)
                 (B2) (B2) (A1) (A2) (B1) (B2) (A1) (B2) (B2) (A1)
                 (B1) (A1) (B2) (A2) (A1) (B1) (B2) (A1) (A1) (A2)
                 (B1) (B2) (A1) (B1) (B2) (B2) (A1) (A2) (A1) (A2)
                 (B2) (B1) (A1) (A1) (B2) (B1) (A1) (A2) (B2) (A1)
                 (B1) (B2) (A1) (B2) (A1) (B2) (A1) (B1) (A1) (A2)
                 (B2) (B1) (A1) (B2) (A1) (B2) (A1) (B2) (A1)
 Beta  Orbitals:
       Occupied  (B2) (A1) (A1) (B2) (A1) (A1) (A1) (B2) (B1) (A2)
                 (A1) (B2) (A1) (B1) (B2) (A1) (B2) (A1) (A1) (B1)
       Virtual   (B2) (A1) (A2) (B2) (B1) (B2) (A1) (A1) (B1) (A1)
                 (A1) (B2) (B2) (A1) (A2) (B1) (B2) (A1) (B2) (A1)
                 (B2) (B1) (A1) (B2) (A2) (B1) (A1) (B2) (A1) (A1)
                 (B1) (A2) (B2) (A1) (B1) (A1) (B2) (B2) (A2) (A1)
                 (A2) (B2) (B1) (A1) (A1) (B2) (B1) (A1) (A2) (B2)
                 (B1) (A1) (B2) (A1) (B2) (A1) (B2) (A1) (B1) (A1)
                 (A2) (B2) (B1) (A1) (B2) (A1) (B2) (A1) (B2) (A1)
 The electronic state is 2-B2.
 Alpha  occ. eigenvalues --  -66.37139 -66.37139 -66.33508  -5.53693  -5.53691
 Alpha  occ. eigenvalues --   -5.50710  -3.89709  -3.89709  -3.89454  -3.89453
 Alpha  occ. eigenvalues --   -3.89260  -3.89254  -3.86714  -3.86500  -3.86325
 Alpha  occ. eigenvalues --   -0.80582  -0.66048  -0.58007  -0.45988  -0.45366
 Alpha  occ. eigenvalues --   -0.44741
 Alpha virt. eigenvalues --   -0.34718  -0.31151  -0.25609  -0.25311  -0.16623
 Alpha virt. eigenvalues --   -0.15275  -0.13081  -0.09189  -0.08801  -0.08013
 Alpha virt. eigenvalues --   -0.07958  -0.07578  -0.05971  -0.05548  -0.04773
 Alpha virt. eigenvalues --   -0.03095  -0.01264  -0.00835   0.06696   0.07189
 Alpha virt. eigenvalues --    0.11194   0.11281   0.11678   0.13565   0.13971
 Alpha virt. eigenvalues --    0.14683   0.16915   0.20012   0.21700   0.23080
 Alpha virt. eigenvalues --    0.23738   0.29711   0.30467   0.35257   0.36909
 Alpha virt. eigenvalues --    0.37702   0.38011   0.39723   0.45943   0.52992
 Alpha virt. eigenvalues --    0.55379   0.57078   0.57170   0.80241   0.84432
 Alpha virt. eigenvalues --    0.98819   0.99536   1.02693   1.04207   1.04239
 Alpha virt. eigenvalues --    1.04974   1.10172   1.13407   1.17051   4.98505
 Alpha virt. eigenvalues --    5.13606   5.29322  11.02412  11.03735  11.04844
 Alpha virt. eigenvalues --   11.05854  11.07790  11.08076  11.08984  11.12331
 Alpha virt. eigenvalues --   11.12480 140.38732 140.55204 140.73264
  Beta  occ. eigenvalues --  -66.36988 -66.36988 -66.33298  -5.53534  -5.53533
  Beta  occ. eigenvalues --   -5.50509  -3.89477  -3.89475  -3.89365  -3.89364
  Beta  occ. eigenvalues --   -3.88929  -3.88925  -3.86274  -3.86212  -3.86073
  Beta  occ. eigenvalues --   -0.78953  -0.64142  -0.55497  -0.44532  -0.44316
  Beta virt. eigenvalues --   -0.37866  -0.33580  -0.30676  -0.25168  -0.24961
  Beta virt. eigenvalues --   -0.14880  -0.14308  -0.12962  -0.09166  -0.08722
  Beta virt. eigenvalues --   -0.07614  -0.07452  -0.07126  -0.05840  -0.05520
  Beta virt. eigenvalues --   -0.04746  -0.02957  -0.01099  -0.00631   0.07481
  Beta virt. eigenvalues --    0.07659   0.11261   0.11582   0.11937   0.13664
  Beta virt. eigenvalues --    0.14747   0.14888   0.17722   0.22079   0.22266
  Beta virt. eigenvalues --    0.24900   0.25491   0.30485   0.30840   0.35523
  Beta virt. eigenvalues --    0.38064   0.38423   0.38693   0.39614   0.46789
  Beta virt. eigenvalues --    0.54643   0.55921   0.57903   0.59038   0.81210
  Beta virt. eigenvalues --    0.86263   0.99013   0.99417   1.02923   1.04989
  Beta virt. eigenvalues --    1.05192   1.05537   1.11541   1.13989   1.17889
  Beta virt. eigenvalues --    4.98873   5.13957   5.29761  11.02531  11.03904
  Beta virt. eigenvalues --   11.04964  11.06169  11.07957  11.08645  11.09601
  Beta virt. eigenvalues --   11.12654  11.13164 140.38896 140.55354 140.73442
          Condensed to atoms (all electrons):
              1          2          3
     1  Si  13.200111   0.153570   0.272609
     2  Si   0.153570  13.200111   0.272609
     3  Si   0.272609   0.272609  13.202205
 Mulliken atomic charges:
              1
     1  Si   0.373711
     2  Si   0.373711
     3  Si   0.252578
 Sum of Mulliken charges=   1.00000
 Atomic charges with hydrogens summed into heavy atoms:
              1
     1  Si   0.373711
     2  Si   0.373711
     3  Si   0.252578
 Sum of Mulliken charges=   1.00000
          Atomic-Atomic Spin Densities.
              1          2          3
     1  Si   0.221703  -0.035891   0.095192
     2  Si  -0.035891   0.221703   0.095192
     3  Si   0.095192   0.095192   0.247608
 Mulliken atomic spin densities:
              1
     1  Si   0.281004
     2  Si   0.281004
     3  Si   0.437992
 Sum of Mulliken spin densities=   1.00000
 Electronic spatial extent (au):  <R**2>=   362.7020
 Charge=     1.0000 electrons
 Dipole moment (field-independent basis, Debye):
    X=     0.0000    Y=     0.0000    Z=    -0.8424  Tot=     0.8424
 Quadrupole moment (field-independent basis, Debye-Ang):
   XX=   -34.9908   YY=   -25.3508   ZZ=   -27.9817
   XY=     0.0000   XZ=     0.0000   YZ=     0.0000
 Traceless Quadrupole moment (field-independent basis, Debye-Ang):
   XX=    -5.5497   YY=     4.0903   ZZ=     1.4594
   XY=     0.0000   XZ=     0.0000   YZ=     0.0000
 Octapole moment (field-independent basis, Debye-Ang**2):
  XXX=     0.0000  YYY=     0.0000  ZZZ=     0.4232  XYY=     0.0000
  XXY=     0.0000  XXZ=    -1.3909  XZZ=     0.0000  YZZ=     0.0000
  YYZ=    -3.6447  XYZ=     0.0000
 Hexadecapole moment (field-independent basis, Debye-Ang**3):
 XXXX=   -59.7338 YYYY=  -321.2061 ZZZZ=  -160.6129 XXXY=     0.0000
 XXXZ=     0.0000 YYYX=     0.0000 YYYZ=     0.0000 ZZZX=     0.0000
 ZZZY=     0.0000 XXYY=   -64.6873 XXZZ=   -38.7070 YYZZ=   -81.9423
 XXYZ=     0.0000 YYXZ=     0.0000 ZZXY=     0.0000
 N-N= 1.309834292958D+02 E-N=-2.321612869659D+03  KE= 8.667057012641D+02
 Symmetry A1   KE= 5.028423218734D+02
 Symmetry A2   KE= 2.444975436337D+01
 Symmetry B1   KE= 5.086796107667D+01
 Symmetry B2   KE= 2.885456639507D+02
                          Isotropic Fermi Contact Couplings
        Atom                 a.u.       MegaHertz       Gauss      10(-4) cm-1
     1  Si(29)             0.14434    -128.27519     -45.77178     -42.78800
     2  Si(29)             0.14434    -128.27519     -45.77178     -42.78800
     3  Si(29)            -0.12062     107.19890      38.25123      35.75770
 --------------------------------------------------------
       Center         ----  Spin Dipole Couplings  ----
                      3XX-RR        3YY-RR        3ZZ-RR
 --------------------------------------------------------
     1   Atom       -0.388694     -0.325573      0.714268
     2   Atom       -0.388694     -0.325573      0.714268
     3   Atom       -0.638490      0.931150     -0.292660
 --------------------------------------------------------
                        XY            XZ            YZ
 --------------------------------------------------------
     1   Atom        0.000000      0.000000     -0.690438
     2   Atom        0.000000      0.000000      0.690438
     3   Atom        0.000000      0.000000      0.000000
 --------------------------------------------------------


 ---------------------------------------------------------------------------------
              Anisotropic Spin Dipole Couplings in Principal Axis System
 ---------------------------------------------------------------------------------

       Atom             a.u.   MegaHertz   Gauss  10(-4) cm-1        Axes

              Baa    -0.6700    71.072    25.360    23.707  0.0000  0.8949  0.4463
     1 Si(29) Bbb    -0.3887    41.234    14.713    13.754  1.0000  0.0000  0.0000
              Bcc     1.0587  -112.306   -40.074   -37.461  0.0000 -0.4463  0.8949
 
              Baa    -0.6700    71.072    25.360    23.707  0.0000  0.8949 -0.4463
     2 Si(29) Bbb    -0.3887    41.234    14.713    13.754  1.0000  0.0000  0.0000
              Bcc     1.0587  -112.306   -40.074   -37.461  0.0000  0.4463  0.8949
 
              Baa    -0.6385    67.734    24.169    22.594  1.0000  0.0000  0.0000
     3 Si(29) Bbb    -0.2927    31.047    11.078    10.356  0.0000  0.0000  1.0000
              Bcc     0.9311   -98.780   -35.247   -32.950  0.0000  1.0000  0.0000
 

 ---------------------------------------------------------------------------------

 ***** Axes restored to original set *****
 -------------------------------------------------------------------
 Center     Atomic                   Forces (Hartrees/Bohr)
 Number     Number              X              Y              Z
 -------------------------------------------------------------------
    1         14           0.000000000   -0.005047269   -0.006688024
    2         14           0.000000000    0.005047269   -0.006688024
    3         14           0.000000000    0.000000000    0.013376048
 -------------------------------------------------------------------
 Cartesian Forces:  Max     0.013376048 RMS     0.005956582

 GradGradGradGradGradGradGradGradGradGradGradGradGradGradGradGradGradGrad
 Berny optimization.
 Internal  Forces:  Max     0.033869868 RMS     0.019604810
 Search for a local minimum.
 Step number   1 out of a maximum of 100
 All quantities printed in internal units (Hartrees-Bohrs-Radians)
 Second derivative matrix not updated -- first step.
 The second derivative matrix:
                          R1        R2        A1
           R1           0.09152
           R2           0.04887   0.09152
           A1           0.02544   0.02544   0.03765
     Eigenvalues ---    0.02631   0.04265   0.15174
 RFO step:  Lambda=-2.26431042D-02.
 Linear search not attempted -- first point.
 Maximum step size (   0.300) exceeded in Quadratic search.
    -- Step size scaled by   0.444
 Iteration  1 RMS(Cart)=  0.25722914 RMS(Int)=  0.06122896
 Iteration  2 RMS(Cart)=  0.16087103 RMS(Int)=  0.00461049
 Iteration  3 RMS(Cart)=  0.00315897 RMS(Int)=  0.00000024
 Iteration  4 RMS(Cart)=  0.00000065 RMS(Int)=  0.00000000
 Variable       Old X    -DE/DX   Delta X   Delta X   Delta X     New X
                                 (Linear)    (Quad)   (Total)
    R1        4.12968   0.00171   0.00000   0.05014   0.05014   4.17982
    R2        4.12968   0.00171   0.00000   0.05015   0.05014   4.17982
    A1        1.43651  -0.03387   0.00000  -0.29150  -0.29150   1.14501
         Item               Value     Threshold  Converged?
 Maximum Force            0.033870     0.000450     NO 
 RMS     Force            0.019605     0.000300     NO 
 Maximum Displacement     0.453249     0.001800     NO 
 RMS     Displacement     0.416177     0.001200     NO 
 Predicted change in Energy=-8.835796D-03
 GradGradGradGradGradGradGradGradGradGradGradGradGradGradGradGradGradGrad

                          Input orientation:                          
 ---------------------------------------------------------------------
 Center     Atomic     Atomic              Coordinates (Angstroms)
 Number     Number      Type              X           Y           Z
 ---------------------------------------------------------------------
    1         14             0        0.000000    1.198257   -0.619725
    2         14             0        0.000000   -1.198257   -0.619725
    3         14             0        0.000000    0.000000    1.239453
 ---------------------------------------------------------------------
                    Distance matrix (angstroms):
                    1          2          3
     1  Si   0.000000
     2  Si   2.396514   0.000000
     3  Si   2.211868   2.211868   0.000000
 Stoichiometry    Si3(1+,2)
 Framework group  C2V[C2(Si),SGV(Si2)]
 Deg. of freedom     2
 Full point group                 C2V
 Largest Abelian subgroup         C2V     NOp   4
 Largest concise Abelian subgroup C2      NOp   2
                         Standard orientation:                         
 ---------------------------------------------------------------------
 Center     Atomic     Atomic              Coordinates (Angstroms)
 Number     Number      Type              X           Y           Z
 ---------------------------------------------------------------------
    1         14             0        0.000000    1.198257   -0.619726
    2         14             0        0.000000   -1.198257   -0.619726
    3         14             0        0.000000    0.000000    1.239451
 ---------------------------------------------------------------------
 Rotational constants (GHZ):      7.8391118      6.2905304      3.4899802
 Standard basis: 6-311+G(d) (5D, 7F)
 There are    37 symmetry adapted basis functions of A1  symmetry.
 There are     9 symmetry adapted basis functions of A2  symmetry.
 There are    15 symmetry adapted basis functions of B1  symmetry.
 There are    29 symmetry adapted basis functions of B2  symmetry.
 Integral buffers will be    131072 words long.
 Raffenetti 2 integral format.
 Two-electron integral symmetry is turned on.
    90 basis functions,   150 primitive gaussians,    93 cartesian basis functions
    21 alpha electrons       20 beta electrons
       nuclear repulsion energy       137.0628447229 Hartrees.
 NAtoms=    3 NActive=    3 NUniq=    2 SFac= 1.69D+00 NAtFMM=   80 NAOKFM=F Big=F
 One-electron integrals computed using PRISM.
 NBasis=    90 RedAO= T  NBF=    37     9    15    29
 NBsUse=    90 1.00D-06 NBFU=    37     9    15    29
 Initial guess read from the read-write file:
 Initial guess orbital symmetries:
 Alpha Orbitals:
       Occupied  (B2) (A1) (A1) (B2) (A1) (A1) (A1) (B2) (B1) (A2)
                 (A1) (B2) (B2) (A1) (B1) (A1) (B2) (A1) (B2) (A1)
                 (B1)
       Virtual   (A1) (A2) (B1) (B2) (B2) (A1) (A1) (B1) (A1) (A1)
                 (B2) (B2) (A1) (A2) (B1) (B2) (A1) (B2) (B2) (A1)
                 (B1) (A1) (B2) (A2) (A1) (B1) (B2) (A1) (A1) (A2)
                 (B1) (B2) (A1) (B1) (B2) (B2) (A1) (A2) (A1) (A2)
                 (B2) (B1) (A1) (A1) (B2) (B1) (A1) (A2) (B2) (A1)
                 (B1) (B2) (A1) (B2) (A1) (B2) (A1) (B1) (A1) (A2)
                 (B2) (B1) (A1) (B2) (A1) (B2) (A1) (B2) (A1)
 Beta  Orbitals:
       Occupied  (B2) (A1) (A1) (B2) (A1) (A1) (A1) (B2) (B1) (A2)
                 (A1) (B2) (A1) (B1) (B2) (A1) (B2) (A1) (A1) (B1)
       Virtual   (B2) (A1) (A2) (B2) (B1) (B2) (A1) (A1) (B1) (A1)
                 (A1) (B2) (B2) (A1) (A2) (B1) (B2) (A1) (B2) (A1)
                 (B2) (B1) (A1) (B2) (A2) (B1) (A1) (B2) (A1) (A1)
                 (B1) (A2) (B2) (A1) (B1) (A1) (B2) (B2) (A2) (A1)
                 (A2) (B2) (B1) (A1) (A1) (B2) (B1) (A1) (A2) (B2)
                 (B1) (A1) (B2) (A1) (B2) (A1) (B2) (A1) (B1) (A1)
                 (A2) (B2) (B1) (A1) (B2) (A1) (B2) (A1) (B2) (A1)
 <S**2> of initial guess= 0.8060
 Harris functional with IExCor=  402 diagonalized for initial guess.
 ExpMin= 3.31D-02 ExpMax= 6.94D+04 ExpMxC= 2.33D+03 IAcc=3 IRadAn=         5 AccDes= 0.00D+00
 HarFok:  IExCor= 402 AccDes= 0.00D+00 IRadAn=         5 IDoV=1
 ScaDFX=  1.000000  1.000000  1.000000  1.000000
 Requested convergence on RMS density matrix=1.00D-08 within 128 cycles.
 Requested convergence on MAX density matrix=1.00D-06.
 Requested convergence on             energy=1.00D-06.
 No special actions if energy rises.
 Keep R1 and R2 integrals in memory in canonical form, NReq=    20916809.
 SCF Done:  E(UB+HF-LYP) =  -868.129909744     A.U. after   17 cycles
             Convg  =    0.4715D-08             -V/T =  2.0015
             S**2   =   1.1959
 Annihilation of the first spin contaminant:
 S**2 before annihilation     1.1959,   after     0.7694
 QCSCF skips out because SCF is already converged.
 ***** Axes restored to original set *****
 -------------------------------------------------------------------
 Center     Atomic                   Forces (Hartrees/Bohr)
 Number     Number              X              Y              Z
 -------------------------------------------------------------------
    1         14           0.000000000    0.013052031   -0.005780242
    2         14           0.000000000   -0.013052031   -0.005780242
    3         14           0.000000000    0.000000000    0.011560484
 -------------------------------------------------------------------
 Cartesian Forces:  Max     0.013052031 RMS     0.007754412

 GradGradGradGradGradGradGradGradGradGradGradGradGradGradGradGradGradGrad
 Berny optimization.
 Internal  Forces:  Max     0.032767517 RMS     0.021278547
 Search for a local minimum.
 Step number   2 out of a maximum of 100
 All quantities printed in internal units (Hartrees-Bohrs-Radians)
 Update second derivatives using D2CorX and points  1  2
 Trust test= 3.71D-01 RLast= 3.00D-01 DXMaxT set to 3.00D-01
 The second derivative matrix:
                          R1        R2        A1
           R1           0.09713
           R2           0.05449   0.09713
           A1           0.06112   0.06112   0.24963
     Eigenvalues ---    0.04265   0.10126   0.29999
 RFO step:  Lambda=-1.63812484D-03.
 Quartic linear search produced a step of -0.28304.
 Iteration  1 RMS(Cart)=  0.11124389 RMS(Int)=  0.00117408
 Iteration  2 RMS(Cart)=  0.00252161 RMS(Int)=  0.00000135
 Iteration  3 RMS(Cart)=  0.00000127 RMS(Int)=  0.00000000
 Iteration  4 RMS(Cart)=  0.00000000 RMS(Int)=  0.00000000
 Variable       Old X    -DE/DX   Delta X   Delta X   Delta X     New X
                                 (Linear)    (Quad)   (Total)
    R1        4.17982   0.01193  -0.01419   0.08006   0.06586   4.24569
    R2        4.17982   0.01193  -0.01419   0.08006   0.06586   4.24569
    A1        1.14501   0.03277   0.08251  -0.02417   0.05833   1.20334
         Item               Value     Threshold  Converged?
 Maximum Force            0.032768     0.000450     NO 
 RMS     Force            0.021279     0.000300     NO 
 Maximum Displacement     0.138773     0.001800     NO 
 RMS     Displacement     0.113479     0.001200     NO 
 Predicted change in Energy=-1.930714D-03
 GradGradGradGradGradGradGradGradGradGradGradGradGradGradGradGradGradGrad

                          Input orientation:                          
 ---------------------------------------------------------------------
 Center     Atomic     Atomic              Coordinates (Angstroms)
 Number     Number      Type              X           Y           Z
 ---------------------------------------------------------------------
    1         14             0        0.000000    1.271692   -0.617391
    2         14             0        0.000000   -1.271692   -0.617391
    3         14             0        0.000000    0.000000    1.234785
 ---------------------------------------------------------------------
                    Distance matrix (angstroms):
                    1          2          3
     1  Si   0.000000
     2  Si   2.543384   0.000000
     3  Si   2.246722   2.246722   0.000000
 Stoichiometry    Si3(1+,2)
 Framework group  C2V[C2(Si),SGV(Si2)]
 Deg. of freedom     2
 Full point group                 C2V
 Largest Abelian subgroup         C2V     NOp   4
 Largest concise Abelian subgroup C2      NOp   2
                         Standard orientation:                         
 ---------------------------------------------------------------------
 Center     Atomic     Atomic              Coordinates (Angstroms)
 Number     Number      Type              X           Y           Z
 ---------------------------------------------------------------------
    1         14             0        0.000000    1.271692   -0.617392
    2         14             0        0.000000   -1.271692   -0.617392
    3         14             0        0.000000    0.000000    1.234784
 ---------------------------------------------------------------------
 Rotational constants (GHZ):      7.8984845      5.5849993      3.2716345
 Standard basis: 6-311+G(d) (5D, 7F)
 There are    37 symmetry adapted basis functions of A1  symmetry.
 There are     9 symmetry adapted basis functions of A2  symmetry.
 There are    15 symmetry adapted basis functions of B1  symmetry.
 There are    29 symmetry adapted basis functions of B2  symmetry.
 Integral buffers will be    131072 words long.
 Raffenetti 2 integral format.
 Two-electron integral symmetry is turned on.
    90 basis functions,   150 primitive gaussians,    93 cartesian basis functions
    21 alpha electrons       20 beta electrons
       nuclear repulsion energy       133.1087644435 Hartrees.
 NAtoms=    3 NActive=    3 NUniq=    2 SFac= 1.69D+00 NAtFMM=   80 NAOKFM=F Big=F
 One-electron integrals computed using PRISM.
 NBasis=    90 RedAO= T  NBF=    37     9    15    29
 NBsUse=    90 1.00D-06 NBFU=    37     9    15    29
 Initial guess read from the read-write file:
 Initial guess orbital symmetries:
 Alpha Orbitals:
       Occupied  (B2) (A1) (A1) (A1) (B2) (A1) (A1) (B2) (B1) (A2)
                 (A1) (B2) (B2) (A1) (B1) (A1) (B2) (A1) (A1) (B1)
                 (B2)
       Virtual   (A1) (A2) (B1) (B2) (B2) (A1) (A1) (B1) (A1) (B2)
                 (B2) (A1) (A1) (A2) (B1) (B2) (A1) (B2) (A1) (B2)
                 (A1) (B1) (B2) (A1) (A2) (B1) (A1) (B2) (B1) (A1)
                 (A2) (B2) (B1) (A1) (A1) (B2) (B2) (A2) (A1) (A1)
                 (A2) (B1) (B2) (B2) (A1) (B1) (A1) (B2) (B1) (A2)
                 (A1) (B2) (B2) (A1) (A1) (B2) (A1) (B1) (B2) (A2)
                 (B1) (A1) (B2) (B2) (A1) (A1) (A1) (B2) (A1)
 Beta  Orbitals:
       Occupied  (B2) (A1) (A1) (A1) (B2) (A1) (A1) (B2) (B1) (A2)
                 (A1) (B2) (B1) (A1) (B2) (A1) (B2) (A1) (B1) (A1)
       Virtual   (B2) (A1) (A2) (B1) (B2) (B2) (A1) (A1) (B1) (A1)
                 (B2) (A1) (B2) (A1) (A2) (B1) (B2) (A1) (B2) (A1)
                 (B2) (A1) (B1) (B2) (A2) (B1) (A1) (B2) (A1) (B1)
                 (A1) (A2) (B1) (B2) (A1) (A1) (B2) (B2) (A2) (A1)
                 (A1) (A2) (B1) (B2) (A1) (B2) (B1) (A1) (A2) (B2)
                 (B1) (A1) (B2) (B2) (A1) (A1) (B2) (A1) (B2) (B1)
                 (A2) (B1) (A1) (B2) (B2) (A1) (A1) (A1) (B2) (A1)
 <S**2> of initial guess= 1.1934
 Harris functional with IExCor=  402 diagonalized for initial guess.
 ExpMin= 3.31D-02 ExpMax= 6.94D+04 ExpMxC= 2.33D+03 IAcc=3 IRadAn=         5 AccDes= 0.00D+00
 HarFok:  IExCor= 402 AccDes= 0.00D+00 IRadAn=         5 IDoV=1
 ScaDFX=  1.000000  1.000000  1.000000  1.000000
 Requested convergence on RMS density matrix=1.00D-08 within 128 cycles.
 Requested convergence on MAX density matrix=1.00D-06.
 Requested convergence on             energy=1.00D-06.
 No special actions if energy rises.
 Keep R1 and R2 integrals in memory in canonical form, NReq=    20916809.
 SCF Done:  E(UB+HF-LYP) =  -868.131269181     A.U. after   14 cycles
             Convg  =    0.6111D-08             -V/T =  2.0017
             S**2   =   1.1059
 Annihilation of the first spin contaminant:
 S**2 before annihilation     1.1059,   after     0.7633
 QCSCF skips out because SCF is already converged.
 ***** Axes restored to original set *****
 -------------------------------------------------------------------
 Center     Atomic                   Forces (Hartrees/Bohr)
 Number     Number              X              Y              Z
 -------------------------------------------------------------------
    1         14           0.000000000   -0.001711628    0.000903494
    2         14           0.000000000    0.001711628    0.000903494
    3         14           0.000000000    0.000000000   -0.001806988
 -------------------------------------------------------------------
 Cartesian Forces:  Max     0.001806988 RMS     0.001093270

 GradGradGradGradGradGradGradGradGradGradGradGradGradGradGradGradGradGrad
 Berny optimization.
 Internal  Forces:  Max     0.003819649 RMS     0.002611699
 Search for a local minimum.
 Step number   3 out of a maximum of 100
 All quantities printed in internal units (Hartrees-Bohrs-Radians)
 Update second derivatives using D2CorX and points  1  2  3
 Trust test= 7.04D-01 RLast= 1.10D-01 DXMaxT set to 3.00D-01
 The second derivative matrix:
                          R1        R2        A1
           R1           0.08122
           R2           0.03857   0.08122
           A1           0.09863   0.09863   0.40449
     Eigenvalues ---    0.04265   0.06284   0.46144
 RFO step:  Lambda=-1.15045178D-05.
 Quartic linear search produced a step of -0.14269.
 Iteration  1 RMS(Cart)=  0.01259208 RMS(Int)=  0.00000568
 Iteration  2 RMS(Cart)=  0.00001334 RMS(Int)=  0.00000000
 Iteration  3 RMS(Cart)=  0.00000000 RMS(Int)=  0.00000000
 Variable       Old X    -DE/DX   Delta X   Delta X   Delta X     New X
                                 (Linear)    (Quad)   (Total)
    R1        4.24569  -0.00171  -0.00940  -0.00822  -0.01762   4.22807
    R2        4.24569  -0.00171  -0.00940  -0.00822  -0.01762   4.22807
    A1        1.20334  -0.00382  -0.00832   0.00613  -0.00219   1.20115
         Item               Value     Threshold  Converged?
 Maximum Force            0.003820     0.000450     NO 
 RMS     Force            0.002612     0.000300     NO 
 Maximum Displacement     0.013797     0.001800     NO 
 RMS     Displacement     0.012584     0.001200     NO 
 Predicted change in Energy=-2.298587D-05
 GradGradGradGradGradGradGradGradGradGradGradGradGradGradGradGradGradGrad

                          Input orientation:                          
 ---------------------------------------------------------------------
 Center     Atomic     Atomic              Coordinates (Angstroms)
 Number     Number      Type              X           Y           Z
 ---------------------------------------------------------------------
    1         14             0        0.000000    1.264391   -0.615292
    2         14             0        0.000000   -1.264391   -0.615292
    3         14             0        0.000000    0.000000    1.230588
 ---------------------------------------------------------------------
                    Distance matrix (angstroms):
                    1          2          3
     1  Si   0.000000
     2  Si   2.528782   0.000000
     3  Si   2.237400   2.237400   0.000000
 Stoichiometry    Si3(1+,2)
 Framework group  C2V[C2(Si),SGV(Si2)]
 Deg. of freedom     2
 Full point group                 C2V
 Largest Abelian subgroup         C2V     NOp   4
 Largest concise Abelian subgroup C2      NOp   2
                         Standard orientation:                         
 ---------------------------------------------------------------------
 Center     Atomic     Atomic              Coordinates (Angstroms)
 Number     Number      Type              X           Y           Z
 ---------------------------------------------------------------------
    1         14             0        0.000000    1.264391   -0.615293
    2         14             0        0.000000   -1.264391   -0.615293
    3         14             0        0.000000    0.000000    1.230587
 ---------------------------------------------------------------------
 Rotational constants (GHZ):      7.9524575      5.6496854      3.3030739
 Standard basis: 6-311+G(d) (5D, 7F)
 There are    37 symmetry adapted basis functions of A1  symmetry.
 There are     9 symmetry adapted basis functions of A2  symmetry.
 There are    15 symmetry adapted basis functions of B1  symmetry.
 There are    29 symmetry adapted basis functions of B2  symmetry.
 Integral buffers will be    131072 words long.
 Raffenetti 2 integral format.
 Two-electron integral symmetry is turned on.
    90 basis functions,   150 primitive gaussians,    93 cartesian basis functions
    21 alpha electrons       20 beta electrons
       nuclear repulsion energy       133.7289097392 Hartrees.
 NAtoms=    3 NActive=    3 NUniq=    2 SFac= 1.69D+00 NAtFMM=   80 NAOKFM=F Big=F
 One-electron integrals computed using PRISM.
 NBasis=    90 RedAO= T  NBF=    37     9    15    29
 NBsUse=    90 1.00D-06 NBFU=    37     9    15    29
 Initial guess read from the read-write file:
[...]
 NROrb=     90 NOA=    21 NOB=    20 NVA=    69 NVB=    70

 **** Warning!!: The largest alpha MO coefficient is  0.20636262D+02


 **** Warning!!: The smallest alpha delta epsilon is  0.84834776D-01


 **** Warning!!: The largest beta MO coefficient is  0.20607280D+02


 **** Warning!!: The smallest beta delta epsilon is  0.83817115D-01

 Symmetrizing basis deriv contribution to polar:
 IMax=3 JMax=2 DiffMx= 0.00D+00
 G2DrvN: will do    4 centers at a time, making    1 passes doing MaxLOS=2.
 FoFDir/FoFCou used for L=0 through L=2.
 DoAtom=TTT
          Differentiating once with respect to electric field.
                with respect to dipole field.
          Differentiating once with respect to nuclear coordinates.
          Store integrals in memory, NReq=    19931679.
          There are   9 degrees of freedom in the 1st order CPHF.
     9 vectors were produced by pass  0.
 AX will form   9 AO Fock derivatives at one time.
     9 vectors were produced by pass  1.
     9 vectors were produced by pass  2.
     9 vectors were produced by pass  3.
     9 vectors were produced by pass  4.
     9 vectors were produced by pass  5.
     9 vectors were produced by pass  6.
     9 vectors were produced by pass  7.
     7 vectors were produced by pass  8.
     3 vectors were produced by pass  9.
     1 vectors were produced by pass 10.
 Inv2:  IOpt= 1 Iter= 1 AM= 3.12D-15 Conv= 1.00D-12.
 Inverted reduced A of dimension   83 with in-core refinement.
 Isotropic polarizability for W=    0.000000       79.81 Bohr**3.
 End of Minotr Frequency-dependent properties file   721 does not exist.

 **********************************************************************

            Population analysis using the SCF density.

 **********************************************************************

 Orbital symmetries:
 Alpha Orbitals:
       Occupied  (B2) (A1) (A1) (B2) (A1) (A1) (A1) (B2) (B1) (A2)
                 (A1) (B2) (B2) (A1) (B1) (A1) (B2) (A1) (A1) (B1)
                 (B2)
       Virtual   (A1) (A2) (B1) (B2) (B2) (A1) (A1) (B1) (A1) (B2)
                 (B2) (A1) (A1) (A2) (B1) (B2) (A1) (B2) (A1) (B2)
                 (A1) (B1) (B2) (A1) (A2) (B1) (B2) (A1) (B1) (A1)
                 (A2) (B2) (B1) (A1) (B2) (A1) (B2) (A2) (A1) (A1)
                 (A2) (B1) (B2) (A1) (B2) (B1) (A1) (B2) (A2) (B1)
                 (A1) (B2) (B2) (A1) (A1) (B2) (A1) (B1) (B2) (A2)
                 (A1) (B1) (B2) (A1) (B2) (A1) (A1) (B2) (A1)
 Beta  Orbitals:
       Occupied  (B2) (A1) (A1) (B2) (A1) (A1) (A1) (B2) (B1) (A2)
                 (A1) (B2) (B1) (A1) (B2) (A1) (B2) (A1) (A1) (B1)
       Virtual   (B2) (A1) (A2) (B1) (B2) (B2) (A1) (A1) (B1) (A1)
                 (B2) (B2) (A1) (A1) (A2) (B1) (B2) (A1) (B2) (A1)
                 (B2) (A1) (B1) (B2) (A2) (B1) (A1) (B2) (A1) (B1)
                 (A1) (A2) (B2) (B1) (A1) (A1) (B2) (B2) (A2) (A1)
                 (A2) (A1) (B1) (B2) (A1) (B2) (B1) (A1) (A2) (B1)
                 (B2) (A1) (B2) (B2) (A1) (A1) (B2) (A1) (B1) (B2)
                 (A2) (A1) (B1) (B2) (A1) (B2) (A1) (A1) (B2) (A1)
 The electronic state is 2-B2.
 Alpha  occ. eigenvalues --  -66.36651 -66.36651 -66.35206  -5.53284  -5.53283
 Alpha  occ. eigenvalues --   -5.52183  -3.89297  -3.89295  -3.89043  -3.89041
 Alpha  occ. eigenvalues --   -3.88820  -3.88794  -3.88129  -3.88081  -3.87849
 Alpha  occ. eigenvalues --   -0.81820  -0.63383  -0.60774  -0.46065  -0.45502
 Alpha  occ. eigenvalues --   -0.45066
 Alpha virt. eigenvalues --   -0.36583  -0.29414  -0.27540  -0.20581  -0.18594
 Alpha virt. eigenvalues --   -0.16245  -0.13860  -0.09401  -0.09079  -0.07323
 Alpha virt. eigenvalues --   -0.07270  -0.06953  -0.06563  -0.05317  -0.05026
 Alpha virt. eigenvalues --   -0.02197  -0.01465  -0.01263   0.05533   0.07681
 Alpha virt. eigenvalues --    0.10189   0.11161   0.12922   0.13449   0.13687
 Alpha virt. eigenvalues --    0.14262   0.17586   0.18382   0.21754   0.24423
 Alpha virt. eigenvalues --    0.25185   0.29779   0.32072   0.32328   0.34061
 Alpha virt. eigenvalues --    0.34090   0.42307   0.43945   0.44933   0.50406
 Alpha virt. eigenvalues --    0.51101   0.54737   0.65987   0.78533   0.78636
 Alpha virt. eigenvalues --    0.98853   1.01892   1.03194   1.03240   1.03454
 Alpha virt. eigenvalues --    1.10163   1.10637   1.15857   1.17324   4.97899
 Alpha virt. eigenvalues --    5.15249   5.24130  11.03282  11.03845  11.05164
 Alpha virt. eigenvalues --   11.05543  11.05979  11.07719  11.09452  11.09823
 Alpha virt. eigenvalues --   11.20172 140.38417 140.56878 140.67343
  Beta  occ. eigenvalues --  -66.36579 -66.36579 -66.34833  -5.53207  -5.53207
  Beta  occ. eigenvalues --   -5.51803  -3.89252  -3.89235  -3.89020  -3.89017
  Beta  occ. eigenvalues --   -3.88586  -3.88574  -3.87589  -3.87462  -3.87341
  Beta  occ. eigenvalues --   -0.80365  -0.62340  -0.57671  -0.45113  -0.45055
  Beta virt. eigenvalues --   -0.36674  -0.35793  -0.29366  -0.26422  -0.21244
  Beta virt. eigenvalues --   -0.16049  -0.15270  -0.13572  -0.09381  -0.08932
  Beta virt. eigenvalues --   -0.07068  -0.06820  -0.06619  -0.06176  -0.05315
  Beta virt. eigenvalues --   -0.04970  -0.02115  -0.01358  -0.01043   0.05900
  Beta virt. eigenvalues --    0.08724   0.10204   0.11230   0.12935   0.13762
  Beta virt. eigenvalues --    0.14330   0.14659   0.18255   0.19973   0.23386
  Beta virt. eigenvalues --    0.26317   0.27857   0.30503   0.31506   0.31547
  Beta virt. eigenvalues --    0.33977   0.36185   0.42631   0.43410   0.45862
  Beta virt. eigenvalues --    0.52603   0.52857   0.56301   0.65548   0.79877
  Beta virt. eigenvalues --    0.80904   0.98957   1.02173   1.03337   1.03958
  Beta virt. eigenvalues --    1.04298   1.10980   1.11997   1.16342   1.18149
  Beta virt. eigenvalues --    4.98275   5.15415   5.24752  11.03322  11.03637
  Beta virt. eigenvalues --   11.05190  11.06093  11.06333  11.08424  11.09874
  Beta virt. eigenvalues --   11.10737  11.20416 140.38588 140.56951 140.67604
          Condensed to atoms (all electrons):
              1          2          3
     1  Si  13.210021   0.182766   0.259008
     2  Si   0.182766  13.210021   0.259008
     3  Si   0.259008   0.259008  13.178394
 Mulliken atomic charges:
              1
     1  Si   0.348205
     2  Si   0.348205
     3  Si   0.303590
 Sum of Mulliken charges=   1.00000
 Atomic charges with hydrogens summed into heavy atoms:
              1
     1  Si   0.348205
     2  Si   0.348205
     3  Si   0.303590
 Sum of Mulliken charges=   1.00000
          Atomic-Atomic Spin Densities.
              1          2          3
     1  Si   0.088779  -0.085326   0.099242
     2  Si  -0.085326   0.088779   0.099242
     3  Si   0.099242   0.099242   0.596122
 Mulliken atomic spin densities:
              1
     1  Si   0.102696
     2  Si   0.102696
     3  Si   0.794607
 Sum of Mulliken spin densities=   1.00000
 APT atomic charges:
              1
     1  Si   0.331954
     2  Si   0.331954
     3  Si   0.336092
 Sum of APT charges=   1.00000
 APT Atomic charges with hydrogens summed into heavy atoms:
              1
     1  Si   0.331954
     2  Si   0.331954
     3  Si   0.336092
 Sum of APT charges=   1.00000
 Electronic spatial extent (au):  <R**2>=   339.9132
 Charge=     1.0000 electrons
 Dipole moment (field-independent basis, Debye):
    X=     0.0000    Y=     0.0000    Z=    -0.0243  Tot=     0.0243
 Quadrupole moment (field-independent basis, Debye-Ang):
   XX=   -34.8871   YY=   -27.2144   ZZ=   -27.0976
   XY=     0.0000   XZ=     0.0000   YZ=     0.0000
 Traceless Quadrupole moment (field-independent basis, Debye-Ang):
   XX=    -5.1541   YY=     2.5187   ZZ=     2.6354
   XY=     0.0000   XZ=     0.0000   YZ=     0.0000
 Octapole moment (field-independent basis, Debye-Ang**2):
  XXX=     0.0000  YYY=     0.0000  ZZZ=     4.8505  XYY=     0.0000
  XXY=     0.0000  XXZ=    -0.4596  XZZ=     0.0000  YZZ=     0.0000
  YYZ=    -1.9535  XYZ=     0.0000
 Hexadecapole moment (field-independent basis, Debye-Ang**3):
 XXXX=   -59.1519 YYYY=  -258.2519 ZZZZ=  -189.0014 XXXY=     0.0000
 XXXZ=     0.0000 YYYX=     0.0000 YYYZ=     0.0000 ZZZX=     0.0000
 ZZZY=     0.0000 XXYY=   -54.3794 XXZZ=   -43.7734 YYZZ=   -78.7973
 XXYZ=     0.0000 YYXZ=     0.0000 ZZXY=     0.0000
 N-N= 1.336482163849D+02 E-N=-2.326827936774D+03  KE= 8.667040859950D+02
 Symmetry A1   KE= 5.029185663841D+02
 Symmetry A2   KE= 2.444821554313D+01
 Symmetry B1   KE= 5.085376190506D+01
 Symmetry B2   KE= 2.884835421628D+02
  Exact polarizability:  50.455   0.000 102.787   0.000   0.000  86.175
 Approx polarizability:  78.750   0.000 246.232   0.000   0.000 223.954
                          Isotropic Fermi Contact Couplings
        Atom                 a.u.       MegaHertz       Gauss      10(-4) cm-1
     1  Si(29)             0.09647     -85.73428     -30.59212     -28.59788
     2  Si(29)             0.09647     -85.73428     -30.59212     -28.59788
     3  Si(29)             0.11121     -98.83418     -35.26649     -32.96753
 --------------------------------------------------------
       Center         ----  Spin Dipole Couplings  ----
                      3XX-RR        3YY-RR        3ZZ-RR
 --------------------------------------------------------
     1   Atom       -0.241351     -0.899727      1.141079
     2   Atom       -0.241351     -0.899727      1.141079
     3   Atom       -0.882379      0.687794      0.194584
 --------------------------------------------------------
                        XY            XZ            YZ
 --------------------------------------------------------
     1   Atom        0.000000      0.000000     -0.827519
     2   Atom        0.000000      0.000000      0.827519
     3   Atom        0.000000      0.000000      0.000000
 --------------------------------------------------------


 ---------------------------------------------------------------------------------
              Anisotropic Spin Dipole Couplings in Principal Axis System
 ---------------------------------------------------------------------------------

       Atom             a.u.   MegaHertz   Gauss  10(-4) cm-1        Axes

              Baa    -1.1931   126.569    45.163    42.219  0.0000  0.9425  0.3341
     1 Si(29) Bbb    -0.2414    25.604     9.136     8.540  1.0000  0.0000  0.0000
              Bcc     1.4345  -152.173   -54.299   -50.759  0.0000 -0.3341  0.9425
 
              Baa    -1.1931   126.569    45.163    42.219  0.0000  0.9425 -0.3341
     2 Si(29) Bbb    -0.2414    25.604     9.136     8.540  1.0000  0.0000  0.0000
              Bcc     1.4345  -152.173   -54.299   -50.759  0.0000  0.3341  0.9425
 
              Baa    -0.8824    93.606    33.401    31.224  1.0000  0.0000  0.0000
     3 Si(29) Bbb     0.1946   -20.642    -7.366    -6.886  0.0000  0.0000  1.0000
              Bcc     0.6878   -72.964   -26.035   -24.338  0.0000  1.0000  0.0000
 

 ---------------------------------------------------------------------------------

 Full mass-weighted force constant matrix:
 Low frequencies ---   -9.8587   -8.8412   -4.3688   -0.0031    0.0011    0.0011
 Low frequencies ---  186.4434  253.6255  464.7794
 Diagonal vibrational polarizability:
        0.0000000       0.1743891       8.4769272
 Harmonic frequencies (cm**-1), IR intensities (KM/Mole), Raman scattering
 activities (A**4/AMU), depolarization ratios for plane and unpolarized
 incident light, reduced masses (AMU), force constants (mDyne/A),
 and normal coordinates:
                     1                      2                      3
                    A1                     B2                     A1
 Frequencies --   186.4434               253.6254               464.7794
 Red. masses --    27.9769                27.9769                27.9769
 Frc consts  --     0.5730                 1.0603                 3.5608
 IR Inten    --    10.6122                 0.4168                 2.0968
 Atom AN      X      Y      Z        X      Y      Z        X      Y      Z
   1  14     0.00   0.59   0.22     0.00  -0.31   0.46     0.00  -0.39   0.34
   2  14     0.00  -0.59   0.22     0.00  -0.31  -0.46     0.00   0.39   0.34
   3  14     0.00   0.00  -0.45     0.00   0.62   0.00     0.00   0.00  -0.68

 -------------------
 - Thermochemistry -
 -------------------
 Temperature   298.150 Kelvin.  Pressure   1.00000 Atm.
 Atom  1 has atomic number 14 and mass  27.97693
 Atom  2 has atomic number 14 and mass  27.97693
 Atom  3 has atomic number 14 and mass  27.97693
 Molecular mass:    83.93079 amu.
 Principal axes and moments of inertia in atomic units:
                           1         2         3
     EIGENVALUES --   228.40228 318.33852 546.74080
           X            0.00000   0.00000   1.00000
           Y            1.00000   0.00000   0.00000
           Z            0.00000   1.00000   0.00000
 This molecule is an asymmetric top.
 Rotational symmetry number  2.
 Rotational temperatures (Kelvin)      0.37922     0.27208     0.15842
 Rotational constants (GHZ):           7.90159     5.66925     3.30091
 Zero-point vibrational energy       5412.2 (Joules/Mol)
                                    1.29355 (Kcal/Mol)
 Warning -- explicit consideration of   3 degrees of freedom as
           vibrations may cause significant error
 Vibrational temperatures:    268.25   364.91   668.71
          (Kelvin)
 
 Zero-point correction=                           0.002061 (Hartree/Particle)
 Thermal correction to Energy=                    0.006209
 Thermal correction to Enthalpy=                  0.007153
 Thermal correction to Gibbs Free Energy=        -0.025681
 Sum of electronic and zero-point Energies=           -868.129240
 Sum of electronic and thermal Energies=              -868.125092
 Sum of electronic and thermal Enthalpies=            -868.124148
 Sum of electronic and thermal Free Energies=         -868.156982
 
                     E (Thermal)             CV                S
                      KCal/Mol        Cal/Mol-Kelvin    Cal/Mol-Kelvin
 Total                    3.896             10.905             69.106
 Electronic               0.000              0.000              1.377
 Translational            0.889              2.981             39.196
 Rotational               0.889              2.981             23.812
 Vibrational              2.119              4.943              4.720
 Vibration  1             0.632              1.858              2.263
 Vibration  2             0.665              1.757              1.705
 Vibration  3             0.822              1.328              0.752
                       Q            Log10(Q)             Ln(Q)
 Total Bot       0.649216D+12         11.812389         27.199031
 Total V=0       0.576187D+13         12.760563         29.382283
 Vib (Bot)       0.300968D+00         -0.521480         -1.200752
 Vib (Bot)  1    0.107484D+01          0.031344          0.072173
 Vib (Bot)  2    0.768198D+00         -0.114527         -0.263708
 Vib (Bot)  3    0.364504D+00         -0.438297         -1.009217
 Vib (V=0)       0.267113D+01          0.426694          0.982500
 Vib (V=0)  1    0.168545D+01          0.226715          0.522030
 Vib (V=0)  2    0.141659D+01          0.151243          0.348249
 Vib (V=0)  3    0.111876D+01          0.048737          0.112221
 Electronic      0.200000D+01          0.301030          0.693147
 Translational   0.302230D+08          7.480337         17.224113
 Rotational      0.356863D+05          4.552502         10.482523
 ***** Axes restored to original set *****
 -------------------------------------------------------------------
 Center     Atomic                   Forces (Hartrees/Bohr)
 Number     Number              X              Y              Z
 -------------------------------------------------------------------
    1         14           0.000000000   -0.000021651   -0.000033674
    2         14           0.000000000    0.000021651   -0.000033674
    3         14           0.000000000    0.000000000    0.000067348
 -------------------------------------------------------------------
 Cartesian Forces:  Max     0.000067348 RMS     0.000029328

 GradGradGradGradGradGradGradGradGradGradGradGradGradGradGradGradGradGrad
 Berny optimization.
 Internal  Forces:  Max     0.000156086 RMS     0.000091016
 Search for a local minimum.
 Step number   1 out of a maximum of   2
 All quantities printed in internal units (Hartrees-Bohrs-Radians)
 Second derivative matrix not updated -- analytic derivatives used.
 The second derivative matrix:
                          R1        R2        A1
           R1           0.07898
           R2           0.03730   0.07898
           A1           0.07671   0.07671   0.31758
     Eigenvalues ---    0.04168   0.06895   0.36491
 Angle between quadratic step and forces=  41.32 degrees.
 Linear search not attempted -- first point.
 Iteration  1 RMS(Cart)=  0.00112004 RMS(Int)=  0.00000024
 Iteration  2 RMS(Cart)=  0.00000056 RMS(Int)=  0.00000000
 Variable       Old X    -DE/DX   Delta X   Delta X   Delta X     New X
                                 (Linear)    (Quad)   (Total)
    R1        4.23500   0.00002   0.00000   0.00067   0.00067   4.23567
    R2        4.23500   0.00002   0.00000   0.00067   0.00067   4.23567
    A1        1.19655  -0.00016   0.00000  -0.00082  -0.00082   1.19573
         Item               Value     Threshold  Converged?
 Maximum Force            0.000156     0.000450     YES
 RMS     Force            0.000091     0.000300     YES
 Maximum Displacement     0.001050     0.001800     YES
 RMS     Displacement     0.001121     0.001200     YES
 Predicted change in Energy=-7.425901D-08
 Optimization completed.
    -- Stationary point found.
                           ----------------------------
                           !   Optimized Parameters   !
                           ! (Angstroms and Degrees)  !
 --------------------------                            --------------------------
 ! Name  Definition              Value          Derivative Info.                !
 --------------------------------------------------------------------------------
 ! R1    R(1,3)                  2.2411         -DE/DX =    0.0                 !
 ! R2    R(2,3)                  2.2411         -DE/DX =    0.0                 !
 ! A1    A(1,3,2)               68.5572         -DE/DX =   -0.0002              !
 --------------------------------------------------------------------------------
 GradGradGradGradGradGradGradGradGradGradGradGradGradGradGradGradGradGrad

 1\1\GINC-NODE24\Freq\UB3LYP\6-311+G(d)\Si3(1+,2)\TAM\17-Jun-2011\0\\#N
  Geom=AllCheck Guess=Read SCRF=Check GenChk UB3LYP/6-311+G(d) Freq\\si
 3-c\\1,2\Si,0.,1.2622073849,-0.6172697696\Si,0.,-1.2622073849,-0.61726
 97696\Si,0.,0.,1.2345425033\\Version=AM64L-G03RevE.01\State=2-B2\HF=-8
 68.1313011\S2=1.115492\S2-1=0.\S2A=0.763871\RMSD=8.764e-10\RMSF=2.933e
 -05\ZeroPoint=0.0020614\Thermal=0.0062091\Dipole=0.,0.,-0.0095682\Dipo
 leDeriv=0.3347183,0.,0.,0.,0.3679692,-0.4213344,0.,-0.0488322,0.293173
 9,0.3347183,0.,0.,0.,0.3679692,0.4213344,0.,0.0488322,0.2931739,0.3305
 635,0.,0.,0.,0.2640616,0.,0.,0.,0.4136522\Polar=50.455464,-0.0000002,1
 02.7870785,0.,0.0000005,86.1746729\PG=C02V [C2(Si1),SGV(Si2)]\NImag=0\
 \-0.00002725,0.,0.05399907,0.,-0.03514157,0.04262826,-0.00000705,0.,0.
 ,-0.00002725,0.,-0.04077265,0.01573149,0.,0.05399907,0.,-0.01573149,0.
 01428557,0.,0.03514157,0.04262826,0.00003430,0.,0.,0.00003430,0.,0.,-0
 .00006860,0.,-0.01322642,0.01941008,0.,-0.01322642,-0.01941008,0.,0.02
 645284,0.,0.05087306,-0.05691383,0.,-0.05087306,-0.05691383,0.,0.,0.11
 382765\\0.,0.00002165,0.00003367,0.,-0.00002165,0.00003367,0.,0.,-0.00
 006735\\\@


 IN-LAWS ARE LIKE SEEDS. YOU DON'T NEED THEM
 BUT THEY COME WITH THE TOMATO.
 Job cpu time:  0 days  0 hours  1 minutes 29.9 seconds.
 File lengths (MBytes):  RWF=     21 Int=      0 D2E=      0 Chk=      6 Scr=      1
 Normal termination of Gaussian 03 at Fri Jun 17 16:07:24 2011.
