 Entering Gaussian System, Link 0=g03
 Initial command:
 /usr/local/chem/g03E01/l1.exe /temp0/tam/Gau-25687.inp -scrdir=/temp0/tam/
 Entering Link 1 = /usr/local/chem/g03E01/l1.exe PID=     25688.
  
 Copyright (c) 1988,1990,1992,1993,1995,1998,2003,2004,2007, Gaussian, Inc.
                  All Rights Reserved.
  
 This is the Gaussian(R) 03 program.  It is based on the
 the Gaussian(R) 98 system (copyright 1998, Gaussian, Inc.),
 the Gaussian(R) 94 system (copyright 1995, Gaussian, Inc.),
 the Gaussian 92(TM) system (copyright 1992, Gaussian, Inc.),
 the Gaussian 90(TM) system (copyright 1990, Gaussian, Inc.),
 the Gaussian 88(TM) system (copyright 1988, Gaussian, Inc.),
 the Gaussian 86(TM) system (copyright 1986, Carnegie Mellon
 University), and the Gaussian 82(TM) system (copyright 1983,
 Carnegie Mellon University). Gaussian is a federally registered
 trademark of Gaussian, Inc.
  
 This software contains proprietary and confidential information,
 including trade secrets, belonging to Gaussian, Inc.
  
 This software is provided under written license and may be
 used, copied, transmitted, or stored only in accord with that
 written license.
  
 The following legend is applicable only to US Government
 contracts under FAR:
  
                    RESTRICTED RIGHTS LEGEND
  
 Use, reproduction and disclosure by the US Government is
 subject to restrictions as set forth in subparagraphs (a)
 and (c) of the Commercial Computer Software - Restricted
 Rights clause in FAR 52.227-19.
  
 Gaussian, Inc.
 340 Quinnipiac St., Bldg. 40, Wallingford CT 06492
  
  
 ---------------------------------------------------------------
 Warning -- This program may not be used in any manner that
 competes with the business of Gaussian, Inc. or will provide
 assistance to any competitor of Gaussian, Inc.  The licensee
 of this program is prohibited from giving any competitor of
 Gaussian, Inc. access to this program.  By using this program,
 the user acknowledges that Gaussian, Inc. is engaged in the
 business of creating and licensing software in the field of
 computational chemistry and represents and warrants to the
 licensee that it is not a competitor of Gaussian, Inc. and that
 it will not use this program in any manner prohibited above.
 ---------------------------------------------------------------
  

 Cite this work as:
 Gaussian 03, Revision E.01,
 M. J. Frisch, G. W. Trucks, H. B. Schlegel, G. E. Scuseria, 
 M. A. Robb, J. R. Cheeseman, J. A. Montgomery, Jr., T. Vreven, 
 K. N. Kudin, J. C. Burant, J. M. Millam, S. S. Iyengar, J. Tomasi, 
 V. Barone, B. Mennucci, M. Cossi, G. Scalmani, N. Rega, 
 G. A. Petersson, H. Nakatsuji, M. Hada, M. Ehara, K. Toyota, 
 R. Fukuda, J. Hasegawa, M. Ishida, T. Nakajima, Y. Honda, O. Kitao, 
 H. Nakai, M. Klene, X. Li, J. E. Knox, H. P. Hratchian, J. B. Cross, 
 V. Bakken, C. Adamo, J. Jaramillo, R. Gomperts, R. E. Stratmann, 
 O. Yazyev, A. J. Austin, R. Cammi, C. Pomelli, J. W. Ochterski, 
 P. Y. Ayala, K. Morokuma, G. A. Voth, P. Salvador, J. J. Dannenberg, 
 V. G. Zakrzewski, S. Dapprich, A. D. Daniels, M. C. Strain, 
 O. Farkas, D. K. Malick, A. D. Rabuck, K. Raghavachari, 
 J. B. Foresman, J. V. Ortiz, Q. Cui, A. G. Baboul, S. Clifford, 
 J. Cioslowski, B. B. Stefanov, G. Liu, A. Liashenko, P. Piskorz, 
 I. Komaromi, R. L. Martin, D. J. Fox, T. Keith, M. A. Al-Laham, 
 C. Y. Peng, A. Nanayakkara, M. Challacombe, P. M. W. Gill, 
 B. Johnson, W. Chen, M. W. Wong, C. Gonzalez, and J. A. Pople, 
 Gaussian, Inc., Wallingford CT, 2004.
 
 ******************************************
 Gaussian 03:  AM64L-G03RevE.01 11-Sep-2007
                 4-Apr-2011 
 ******************************************
 %NprocShared=4
 Will use up to    4 processors via shared memory.
 %mem=3750MB
 %chk=S9L-ne-d-01
 ----------------------------------------------------------------------
 # b3lyp/LANL2DZ opt=(calcall,noeigentest,maxcycle=500) scfcyc=500 scf=
 xqc
 ----------------------------------------------------------------------
 1/6=500,10=4,11=1,14=-1,18=20,26=3,38=1/1,3;
 2/9=110,17=6,18=5,40=1/2;
 3/5=6,6=3,11=2,16=1,25=1,30=1,74=-5/1,2,3;
 4//1;
 5/5=2,7=500,8=3,13=1,38=5/2,8;
 8/6=4,10=90,11=11/1;
 11/6=1,8=1,9=11,15=111,16=1/1,2,10;
 10/6=1/2;
 6/7=2,8=2,9=2,10=2,18=1,28=1/1;
 7/10=1,25=1/1,2,3,16;
 1/6=500,10=4,11=1,14=-1,18=20/3(3);
 2/9=110/2;
 7/8=1,9=1,25=1,44=-1/16;
 99//99;
 2/9=110/2;
 3/5=6,6=3,11=2,16=1,25=1,30=1,74=-5/1,2,3;
 4/5=5,16=3/1;
 5/5=2,7=500,8=3,13=1,38=5/2,8;
 8/6=4,10=90,11=11/1;
 11/6=1,8=1,9=11,15=111,16=1/1,2,10;
 10/6=1/2;
 7/10=1,25=1/1,2,3,16;
 1/6=500,10=4,11=1,14=-1,18=20/3(-8);
 2/9=110/2;
 6/7=2,8=2,9=2,10=2,18=1,19=2,28=1/1;
 7/8=1,9=1,25=1,44=-1/16;
 99//99;
 -----
 si3-n
 -----
 Symbolic Z-matrix:
 Charge =  0 Multiplicity = 1
 Si                   -0.956    -1.3958    0. 
 Si                    0.        1.21269   0. 
 Si                    1.12803  -0.60041   0. 
 

 GradGradGradGradGradGradGradGradGradGradGradGradGradGradGradGradGradGrad
 Berny optimization.
 Initialization pass.
                           ----------------------------
                           !    Initial Parameters    !
                           ! (Angstroms and Degrees)  !
 --------------------------                            --------------------------
 ! Name  Definition              Value          Derivative Info.                !
 --------------------------------------------------------------------------------
 ! R1    R(1,3)                  2.2307         calculate D2E/DX2 analytically  !
 ! R2    R(2,3)                  2.1354         calculate D2E/DX2 analytically  !
 ! A1    A(1,3,2)               79.0018         calculate D2E/DX2 analytically  !
 --------------------------------------------------------------------------------
 Trust Radius=3.00D-01 FncErr=1.00D-07 GrdErr=1.00D-06
 Number of steps in this run= 100 maximum allowed number of steps= 100.
 GradGradGradGradGradGradGradGradGradGradGradGradGradGradGradGradGradGrad

                          Input orientation:                          
 ---------------------------------------------------------------------
 Center     Atomic     Atomic              Coordinates (Angstroms)
 Number     Number      Type              X           Y           Z
 ---------------------------------------------------------------------
    1         14             0       -0.956002   -1.395802    0.000000
    2         14             0        0.000000    1.212685    0.000000
    3         14             0        1.128028   -0.600411    0.000000
 ---------------------------------------------------------------------
                    Distance matrix (angstroms):
                    1          2          3
     1  Si   0.000000
     2  Si   2.778155   0.000000
     3  Si   2.230656   2.135360   0.000000
 Stoichiometry    Si3
 Framework group  CS[SG(Si3)]
 Deg. of freedom     3
 Full point group                 CS
 Largest Abelian subgroup         CS      NOp   2
 Largest concise Abelian subgroup C1      NOp   1
                         Standard orientation:                         
 ---------------------------------------------------------------------
 Center     Atomic     Atomic              Coordinates (Angstroms)
 Number     Number      Type              X           Y           Z
 ---------------------------------------------------------------------
    1         14             0        1.387705   -0.623312    0.000000
    2         14             0       -1.387705   -0.499830    0.000000
    3         14             0        0.000000    1.123142    0.000000
 ---------------------------------------------------------------------
 Rotational constants (GHZ):      9.5837755      4.6721063      3.1409083
 Standard basis: LANL2DZ (5D, 7F)
 There are    18 symmetry adapted basis functions of A'  symmetry.
 There are     6 symmetry adapted basis functions of A"  symmetry.
 Integral buffers will be    131072 words long.
 Raffenetti 2 integral format.
 Two-electron integral symmetry is turned on.
    24 basis functions,    36 primitive gaussians,    24 cartesian basis functions
     6 alpha electrons        6 beta electrons
       nuclear repulsion energy        10.8083783697 Hartrees.
 NAtoms=    3 NActive=    3 NUniq=    3 SFac= 7.50D-01 NAtFMM=   80 NAOKFM=F Big=F
 One-electron integrals computed using PRISM.
   1 Symmetry operations used in ECPInt.
 ECPInt:  NShTT=      78 NPrTT=     177 LenC2=      79 LenP2D=     177.
 LDataN:  DoStor=F MaxTD1= 3 Len=   28
 LDataN:  DoStor=T MaxTD1= 3 Len=   28
 NBasis=    24 RedAO= T  NBF=    18     6
 NBsUse=    24 1.00D-06 NBFU=    18     6
 Harris functional with IExCor=  402 diagonalized for initial guess.
 ExpMin= 8.85D-02 ExpMax= 2.58D+00 ExpMxC= 2.58D+00 IAcc=2 IRadAn=         4 AccDes= 0.00D+00
 HarFok:  IExCor= 402 AccDes= 0.00D+00 IRadAn=         4 IDoV=1
 ScaDFX=  1.000000  1.000000  1.000000  1.000000
 Initial guess orbital symmetries:
       Occupied  (A') (A') (A') (A') (A") (A')
       Virtual   (A') (A") (A") (A') (A') (A') (A') (A') (A') (A")
                 (A') (A") (A") (A') (A') (A') (A') (A')
 The electronic state of the initial guess is 1-A'.
 Requested convergence on RMS density matrix=1.00D-08 within 128 cycles.
 Requested convergence on MAX density matrix=1.00D-06.
 Requested convergence on             energy=1.00D-06.
 No special actions if energy rises.
 Keep R1 integrals in memory in canonical form, NReq=     1745763.
 Integral accuracy reduced to 1.0D-05 until final iterations.
 Initial convergence to 1.0D-05 achieved.  Increase integral accuracy.
 SCF Done:  E(RB+HF-LYP) =  -11.4980387779     A.U. after   16 cycles
             Convg  =    0.2069D-08             -V/T =  3.6604
             S**2   =   0.0000
 QCSCF skips out because SCF is already converged.
 Range of M.O.s used for correlation:     1    24
 NBasis=    24 NAE=     6 NBE=     6 NFC=     0 NFV=     0
 NROrb=     24 NOA=     6 NOB=     6 NVA=    18 NVB=    18

 **** Warning!!: The smallest alpha delta epsilon is  0.80217066D-01

   2 Symmetry operations used in ECPInt.
 ECPInt:  NShTT=      78 NPrTT=     177 LenC2=      79 LenP2D=     177.
 LDataN:  DoStor=F MaxTD1= 4 Len=   56
 LDataN:  DoStor=T MaxTD1= 4 Len=   56
 Symmetrizing basis deriv contribution to polar:
 IMax=3 JMax=2 DiffMx= 0.00D+00
 G2DrvN: will do    4 centers at a time, making    1 passes doing MaxLOS=1.
 FoFDir/FoFCou used for L=0 through L=1.
 DoAtom=TTT
          Differentiating once with respect to electric field.
                with respect to dipole field.
          Differentiating once with respect to nuclear coordinates.
          Store integrals in memory, NReq=      846072.
          There are  12 degrees of freedom in the 1st order CPHF.
     9 vectors were produced by pass  0.
 AX will form   9 AO Fock derivatives at one time.
     9 vectors were produced by pass  1.
     9 vectors were produced by pass  2.
     9 vectors were produced by pass  3.
     9 vectors were produced by pass  4.
     8 vectors were produced by pass  5.
     4 vectors were produced by pass  6.
     2 vectors were produced by pass  7.
 Inv2:  IOpt= 1 Iter= 1 AM= 7.03D-16 Conv= 1.00D-12.
 Inverted reduced A of dimension   59 with in-core refinement.
 Isotropic polarizability for W=    0.000000       83.92 Bohr**3.
 End of Minotr Frequency-dependent properties file   721 does not exist.

 **********************************************************************

            Population analysis using the SCF density.

 **********************************************************************

 Orbital symmetries:
       Occupied  (A') (A') (A') (A") (A') (A')
       Virtual   (A') (A") (A") (A') (A') (A') (A') (A') (A") (A')
                 (A') (A") (A") (A') (A') (A') (A') (A')
 The electronic state is 1-A'.
 Alpha  occ. eigenvalues --   -0.61313  -0.44187  -0.36108  -0.25689  -0.24872
 Alpha  occ. eigenvalues --   -0.23205
 Alpha virt. eigenvalues --   -0.15183  -0.11435  -0.06385  -0.04921   0.03702
 Alpha virt. eigenvalues --    0.06125   0.27475   0.28307   0.30574   0.31270
 Alpha virt. eigenvalues --    0.33610   0.33827   0.35552   0.39594   0.41889
 Alpha virt. eigenvalues --    5.05791   8.31631   8.94609
          Condensed to atoms (all electrons):
              1          2          3
     1  Si   3.734826   0.013881   0.177472
     2  Si   0.013881   3.790962   0.149595
     3  Si   0.177472   0.149595   3.792316
 Mulliken atomic charges:
              1
     1  Si   0.073821
     2  Si   0.045562
     3  Si  -0.119383
 Sum of Mulliken charges=   0.00000
 Atomic charges with hydrogens summed into heavy atoms:
              1
     1  Si   0.073821
     2  Si   0.045562
     3  Si  -0.119383
 Sum of Mulliken charges=   0.00000
 APT atomic charges:
              1
     1  Si   0.144059
     2  Si   0.108252
     3  Si  -0.252312
 Sum of APT charges=   0.00000
 APT Atomic charges with hydrogens summed into heavy atoms:
              1
     1  Si   0.144059
     2  Si   0.108252
     3  Si  -0.252312
 Sum of APT charges=   0.00000
 Electronic spatial extent (au):  <R**2>=   166.6564
 Charge=     0.0000 electrons
 Dipole moment (field-independent basis, Debye):
    X=     0.2624    Y=     0.4650    Z=     0.0000  Tot=     0.5339
 Quadrupole moment (field-independent basis, Debye-Ang):
   XX=   -40.0968   YY=   -37.3430   ZZ=   -36.2212
   XY=    -0.4914   XZ=     0.0000   YZ=     0.0000
 Traceless Quadrupole moment (field-independent basis, Debye-Ang):
   XX=    -2.2098   YY=     0.5440   ZZ=     1.6658
   XY=    -0.4914   XZ=     0.0000   YZ=     0.0000
 Octapole moment (field-independent basis, Debye-Ang**2):
  XXX=     1.7978  YYY=     2.3034  ZZZ=     0.0000  XYY=    -0.5759
  XXY=     9.9391  XXZ=     0.0000  XZZ=     0.0906  YZZ=    -0.7827
  YYZ=     0.0000  XYZ=     0.0000
 Hexadecapole moment (field-independent basis, Debye-Ang**3):
 XXXX=  -380.7496 YYYY=  -207.8628 ZZZZ=   -75.5654 XXXY=     4.4060
 XXXZ=     0.0000 YYYX=     5.9200 YYYZ=     0.0000 ZZZX=     0.0000
 ZZZY=     0.0000 XXYY=  -108.1293 XXZZ=   -70.4475 YYZZ=   -47.7227
 XXYZ=     0.0000 YYXZ=     0.0000 ZZXY=     1.6397
 N-N= 1.080837836971D+01 E-N=-4.270995235428D+01  KE= 4.321920823654D+00
 Symmetry A'   KE= 3.636735849129D+00
 Symmetry A"   KE= 6.851849745248D-01
  Exact polarizability: 120.489  -2.498  93.367   0.000   0.000  37.893
 Approx polarizability: 310.222 -18.331 267.396   0.000   0.000  54.263
   2 Symmetry operations used in ECPInt.
 ECPInt:  NShTT=      78 NPrTT=     177 LenC2=      79 LenP2D=     177.
 LDataN:  DoStor=F MaxTD1= 5 Len=  102
 LDataN:  DoStor=T MaxTD1= 5 Len=  102
 ***** Axes restored to original set *****
 -------------------------------------------------------------------
 Center     Atomic                   Forces (Hartrees/Bohr)
 Number     Number              X              Y              Z
 -------------------------------------------------------------------
    1         14          -0.000997758   -0.015017220    0.000000000
    2         14          -0.007551695    0.039198728    0.000000000
    3         14           0.008549453   -0.024181508    0.000000000
 -------------------------------------------------------------------
 Cartesian Forces:  Max     0.039198728 RMS     0.016592901

 GradGradGradGradGradGradGradGradGradGradGradGradGradGradGradGradGradGrad
 Berny optimization.
 Internal  Forces:  Max     0.057664175 RMS     0.039808200
 Search for a local minimum.
 Step number   1 out of a maximum of 100
 All quantities printed in internal units (Hartrees-Bohrs-Radians)
 Second derivative matrix not updated -- analytic derivatives used.
 The second derivative matrix:
                          R1        R2        A1
           R1           0.14156
           R2          -0.00220   0.20166
           A1           0.05555   0.04763   0.28268
     Eigenvalues ---    0.11804   0.18898   0.31889
 RFO step:  Lambda=-1.49953254D-02.
 Linear search not attempted -- first point.
 Iteration  1 RMS(Cart)=  0.26345058 RMS(Int)=  0.01172675
 Iteration  2 RMS(Cart)=  0.01361963 RMS(Int)=  0.00005665
 Iteration  3 RMS(Cart)=  0.00007636 RMS(Int)=  0.00000000
 Iteration  4 RMS(Cart)=  0.00000000 RMS(Int)=  0.00000000
 Variable       Old X    -DE/DX   Delta X   Delta X   Delta X     New X
                                 (Linear)    (Quad)   (Total)
    R1        4.21533   0.00628   0.00000  -0.02053  -0.02053   4.19480
    R2        4.03525   0.03728   0.00000   0.13309   0.13309   4.16834
    A1        1.37884   0.05766   0.00000   0.17625   0.17625   1.55509
         Item               Value     Threshold  Converged?
 Maximum Force            0.057664     0.000450     NO 
 RMS     Force            0.039808     0.000300     NO 
 Maximum Displacement     0.305720     0.001800     NO 
 RMS     Displacement     0.273606     0.001200     NO 
 Predicted change in Energy=-7.866538D-03
 GradGradGradGradGradGradGradGradGradGradGradGradGradGradGradGradGradGrad

                          Input orientation:                          
 ---------------------------------------------------------------------
 Center     Atomic     Atomic              Coordinates (Angstroms)
 Number     Number      Type              X           Y           Z
 ---------------------------------------------------------------------
    1         14             0       -0.957122   -1.552412    0.000000
    2         14             0        0.078537    1.374465    0.000000
    3         14             0        1.050611   -0.605581    0.000000
 ---------------------------------------------------------------------
                    Distance matrix (angstroms):
                    1          2          3
     1  Si   0.000000
     2  Si   3.104707   0.000000
     3  Si   2.219793   2.205790   0.000000
 Stoichiometry    Si3
 Framework group  CS[SG(Si3)]
 Deg. of freedom     3
 Full point group                 CS
 Largest Abelian subgroup         CS      NOp   2
 Largest concise Abelian subgroup C1      NOp   1
                         Standard orientation:                         
 ---------------------------------------------------------------------
 Center     Atomic     Atomic              Coordinates (Angstroms)
 Number     Number      Type              X           Y           Z
 ---------------------------------------------------------------------
    1         14             0        1.552322   -0.535467    0.000000
    2         14             0       -1.552322   -0.515817    0.000000
    3         14             0        0.000000    1.051284    0.000000
 ---------------------------------------------------------------------
 Rotational constants (GHZ):     10.8971419      3.7479768      2.7887951
 Standard basis: LANL2DZ (5D, 7F)
 There are    18 symmetry adapted basis functions of A'  symmetry.
 There are     6 symmetry adapted basis functions of A"  symmetry.
 Integral buffers will be    131072 words long.
 Raffenetti 2 integral format.
 Two-electron integral symmetry is turned on.
    24 basis functions,    36 primitive gaussians,    24 cartesian basis functions
     6 alpha electrons        6 beta electrons
       nuclear repulsion energy        10.3798018900 Hartrees.
 NAtoms=    3 NActive=    3 NUniq=    3 SFac= 7.50D-01 NAtFMM=   80 NAOKFM=F Big=F
 One-electron integrals computed using PRISM.
   1 Symmetry operations used in ECPInt.
 ECPInt:  NShTT=      78 NPrTT=     177 LenC2=      79 LenP2D=     177.
 LDataN:  DoStor=F MaxTD1= 3 Len=   28
 LDataN:  DoStor=T MaxTD1= 3 Len=   28
 NBasis=    24 RedAO= T  NBF=    18     6
 NBsUse=    24 1.00D-06 NBFU=    18     6
 Initial guess read from the read-write file:
 Initial guess orbital symmetries:
       Occupied  (A') (A') (A') (A") (A') (A')
       Virtual   (A') (A") (A") (A') (A') (A') (A') (A') (A") (A')
                 (A') (A") (A") (A') (A') (A') (A') (A')
 Harris functional with IExCor=  402 diagonalized for initial guess.
 ExpMin= 8.85D-02 ExpMax= 2.58D+00 ExpMxC= 2.58D+00 IAcc=2 IRadAn=         4 AccDes= 0.00D+00
 HarFok:  IExCor= 402 AccDes= 0.00D+00 IRadAn=         4 IDoV=1
 ScaDFX=  1.000000  1.000000  1.000000  1.000000
 Requested convergence on RMS density matrix=1.00D-08 within 128 cycles.
 Requested convergence on MAX density matrix=1.00D-06.
 Requested convergence on             energy=1.00D-06.
 No special actions if energy rises.
 Keep R1 integrals in memory in canonical form, NReq=     1745777.
 Integral accuracy reduced to 1.0D-05 until final iterations.
 Initial convergence to 1.0D-05 achieved.  Increase integral accuracy.
 SCF Done:  E(RB+HF-LYP) =  -11.5069619422     A.U. after   15 cycles
             Convg  =    0.4564D-08             -V/T =  3.7122
             S**2   =   0.0000
 QCSCF skips out because SCF is already converged.
 Range of M.O.s used for correlation:     1    24
 NBasis=    24 NAE=     6 NBE=     6 NFC=     0 NFV=     0
 NROrb=     24 NOA=     6 NOB=     6 NVA=    18 NVB=    18
   2 Symmetry operations used in ECPInt.
 ECPInt:  NShTT=      78 NPrTT=     177 LenC2=      79 LenP2D=     177.
 LDataN:  DoStor=F MaxTD1= 4 Len=   56
 LDataN:  DoStor=T MaxTD1= 4 Len=   56
 Symmetrizing basis deriv contribution to polar:
 IMax=3 JMax=2 DiffMx= 0.00D+00
 G2DrvN: will do    4 centers at a time, making    1 passes doing MaxLOS=1.
 FoFDir/FoFCou used for L=0 through L=1.
 DoAtom=TTT
          Differentiating once with respect to electric field.
                with respect to dipole field.
          Differentiating once with respect to nuclear coordinates.
          Store integrals in memory, NReq=      846072.
          There are  12 degrees of freedom in the 1st order CPHF.
     9 vectors were produced by pass  0.
 AX will form   9 AO Fock derivatives at one time.
     9 vectors were produced by pass  1.
     9 vectors were produced by pass  2.
     9 vectors were produced by pass  3.
     9 vectors were produced by pass  4.
     9 vectors were produced by pass  5.
     4 vectors were produced by pass  6.
     2 vectors were produced by pass  7.
 Inv2:  IOpt= 1 Iter= 1 AM= 9.25D-16 Conv= 1.00D-12.
 Inverted reduced A of dimension   60 with in-core refinement.
 Isotropic polarizability for W=    0.000000       89.41 Bohr**3.
 End of Minotr Frequency-dependent properties file   721 does not exist.
   2 Symmetry operations used in ECPInt.
 ECPInt:  NShTT=      78 NPrTT=     177 LenC2=      79 LenP2D=     177.
 LDataN:  DoStor=F MaxTD1= 5 Len=  102
 LDataN:  DoStor=T MaxTD1= 5 Len=  102
 ***** Axes restored to original set *****
 -------------------------------------------------------------------
 Center     Atomic                   Forces (Hartrees/Bohr)
 Number     Number              X              Y              Z
 -------------------------------------------------------------------
    1         14          -0.000292507   -0.004651742    0.000000000
    2         14           0.000874536    0.007535334    0.000000000
    3         14          -0.000582029   -0.002883592    0.000000000
 -------------------------------------------------------------------
 Cartesian Forces:  Max     0.007535334 RMS     0.003125597

 GradGradGradGradGradGradGradGradGradGradGradGradGradGradGradGradGradGrad
 Berny optimization.
 Internal  Forces:  Max     0.017119954 RMS     0.010627518
 Search for a local minimum.
 Step number   2 out of a maximum of 100
 All quantities printed in internal units (Hartrees-Bohrs-Radians)
 Second derivative matrix not updated -- analytic derivatives used.
 Trust test= 1.13D+00 RLast= 2.22D-01 DXMaxT set to 4.24D-01
 The second derivative matrix:
                          R1        R2        A1
           R1           0.14683
           R2          -0.00513   0.15490
           A1           0.03341   0.03340   0.13799
     Eigenvalues ---    0.09434   0.15586   0.18952
 RFO step:  Lambda=-2.74191422D-04.
 Quintic linear search produced a step of  0.52290.
 Iteration  1 RMS(Cart)=  0.17784043 RMS(Int)=  0.00678532
 Iteration  2 RMS(Cart)=  0.00486478 RMS(Int)=  0.00000278
 Iteration  3 RMS(Cart)=  0.00000601 RMS(Int)=  0.00000000
 Iteration  4 RMS(Cart)=  0.00000000 RMS(Int)=  0.00000000
 Variable       Old X    -DE/DX   Delta X   Delta X   Delta X     New X
                                 (Linear)    (Quad)   (Total)
    R1        4.19480   0.00225  -0.01073  -0.01397  -0.02470   4.17010
    R2        4.16834   0.00638   0.06959  -0.03572   0.03388   4.20222
    A1        1.55509   0.01712   0.09216   0.03492   0.12708   1.68217
         Item               Value     Threshold  Converged?
 Maximum Force            0.017120     0.000450     NO 
 RMS     Force            0.010628     0.000300     NO 
 Maximum Displacement     0.190631     0.001800     NO 
 RMS     Displacement     0.177422     0.001200     NO 
 Predicted change in Energy=-1.045028D-03
 GradGradGradGradGradGradGradGradGradGradGradGradGradGradGradGradGradGrad

                          Input orientation:                          
 ---------------------------------------------------------------------
 Center     Atomic     Atomic              Coordinates (Angstroms)
 Number     Number      Type              X           Y           Z
 ---------------------------------------------------------------------
    1         14             0       -0.951682   -1.653290    0.000000
    2         14             0        0.139693    1.463477    0.000000
    3         14             0        0.984015   -0.593715    0.000000
 ---------------------------------------------------------------------
                    Distance matrix (angstroms):
                    1          2          3
     1  Si   0.000000
     2  Si   3.302323   0.000000
     3  Si   2.206722   2.223717   0.000000
 Stoichiometry    Si3
 Framework group  CS[SG(Si3)]
 Deg. of freedom     3
 Full point group                 CS
 Largest Abelian subgroup         CS      NOp   2
 Largest concise Abelian subgroup C1      NOp   1
                         Standard orientation:                         
 ---------------------------------------------------------------------
 Center     Atomic     Atomic              Coordinates (Angstroms)
 Number     Number      Type              X           Y           Z
 ---------------------------------------------------------------------
    1         14             0        1.651112   -0.479519    0.000000
    2         14             0       -1.651112   -0.505013    0.000000
    3         14             0        0.000000    0.984533    0.000000
 ---------------------------------------------------------------------
 Rotational constants (GHZ):     12.4251270      3.3128262      2.6154790
 Standard basis: LANL2DZ (5D, 7F)
 There are    18 symmetry adapted basis functions of A'  symmetry.
 There are     6 symmetry adapted basis functions of A"  symmetry.
 Integral buffers will be    131072 words long.
 Raffenetti 2 integral format.
 Two-electron integral symmetry is turned on.
    24 basis functions,    36 primitive gaussians,    24 cartesian basis functions
     6 alpha electrons        6 beta electrons
       nuclear repulsion energy        10.2082555493 Hartrees.
 NAtoms=    3 NActive=    3 NUniq=    3 SFac= 7.50D-01 NAtFMM=   80 NAOKFM=F Big=F
 One-electron integrals computed using PRISM.
   1 Symmetry operations used in ECPInt.
 ECPInt:  NShTT=      78 NPrTT=     177 LenC2=      79 LenP2D=     176.
 LDataN:  DoStor=F MaxTD1= 3 Len=   28
 LDataN:  DoStor=T MaxTD1= 3 Len=   28
 NBasis=    24 RedAO= T  NBF=    18     6
 NBsUse=    24 1.00D-06 NBFU=    18     6
 Initial guess read from the read-write file:
 Initial guess orbital symmetries:
       Occupied  (A') (A') (A') (A") (A') (A')
       Virtual   (A') (A") (A') (A") (A') (A') (A') (A') (A") (A')
                 (A') (A") (A") (A') (A') (A') (A') (A')
 Harris functional with IExCor=  402 diagonalized for initial guess.
 ExpMin= 8.85D-02 ExpMax= 2.58D+00 ExpMxC= 2.58D+00 IAcc=2 IRadAn=         4 AccDes= 0.00D+00
 HarFok:  IExCor= 402 AccDes= 0.00D+00 IRadAn=         4 IDoV=1
 ScaDFX=  1.000000  1.000000  1.000000  1.000000
 Requested convergence on RMS density matrix=1.00D-08 within 128 cycles.
 Requested convergence on MAX density matrix=1.00D-06.
 Requested convergence on             energy=1.00D-06.
 No special actions if energy rises.
 Keep R1 integrals in memory in canonical form, NReq=     1745777.
 Integral accuracy reduced to 1.0D-05 until final iterations.
 Initial convergence to 1.0D-05 achieved.  Increase integral accuracy.
 SCF Done:  E(RB+HF-LYP) =  -11.5081961294     A.U. after   15 cycles
             Convg  =    0.2758D-08             -V/T =  3.7263
             S**2   =   0.0000
 QCSCF skips out because SCF is already converged.
 Range of M.O.s used for correlation:     1    24
 NBasis=    24 NAE=     6 NBE=     6 NFC=     0 NFV=     0
 NROrb=     24 NOA=     6 NOB=     6 NVA=    18 NVB=    18
   2 Symmetry operations used in ECPInt.
 ECPInt:  NShTT=      78 NPrTT=     177 LenC2=      79 LenP2D=     176.
 LDataN:  DoStor=F MaxTD1= 4 Len=   56
 LDataN:  DoStor=T MaxTD1= 4 Len=   56
 Symmetrizing basis deriv contribution to polar:
 IMax=3 JMax=2 DiffMx= 0.00D+00
 G2DrvN: will do    4 centers at a time, making    1 passes doing MaxLOS=1.
 FoFDir/FoFCou used for L=0 through L=1.
 DoAtom=TTT
          Differentiating once with respect to electric field.
                with respect to dipole field.
          Differentiating once with respect to nuclear coordinates.
          Store integrals in memory, NReq=      846072.
          There are  12 degrees of freedom in the 1st order CPHF.
     9 vectors were produced by pass  0.
 AX will form   9 AO Fock derivatives at one time.
     9 vectors were produced by pass  1.
     9 vectors were produced by pass  2.
     9 vectors were produced by pass  3.
     9 vectors were produced by pass  4.
     9 vectors were produced by pass  5.
     4 vectors were produced by pass  6.
     2 vectors were produced by pass  7.
 Inv2:  IOpt= 1 Iter= 1 AM= 7.24D-16 Conv= 1.00D-12.
 Inverted reduced A of dimension   60 with in-core refinement.
 Isotropic polarizability for W=    0.000000       91.70 Bohr**3.
 End of Minotr Frequency-dependent properties file   721 does not exist.
   2 Symmetry operations used in ECPInt.
 ECPInt:  NShTT=      78 NPrTT=     177 LenC2=      79 LenP2D=     177.
 LDataN:  DoStor=F MaxTD1= 5 Len=  102
 LDataN:  DoStor=T MaxTD1= 5 Len=  102
 ***** Axes restored to original set *****
 -------------------------------------------------------------------
 Center     Atomic                   Forces (Hartrees/Bohr)
 Number     Number              X              Y              Z
 -------------------------------------------------------------------
    1         14          -0.001763850   -0.001931035    0.000000000
    2         14           0.001723325   -0.001972660    0.000000000
    3         14           0.000040525    0.003903696    0.000000000
 -------------------------------------------------------------------
 Cartesian Forces:  Max     0.003903696 RMS     0.001793252

 GradGradGradGradGradGradGradGradGradGradGradGradGradGradGradGradGradGrad
 Berny optimization.
 Internal  Forces:  Max     0.003541857 RMS     0.002875355
 Search for a local minimum.
 Step number   3 out of a maximum of 100
 All quantities printed in internal units (Hartrees-Bohrs-Radians)
 Second derivative matrix not updated -- analytic derivatives used.
 Trust test= 1.18D+00 RLast= 1.34D-01 DXMaxT set to 4.24D-01
 The second derivative matrix:
                          R1        R2        A1
           R1           0.15314
           R2          -0.00588   0.14343
           A1           0.02475   0.02454   0.07559
     Eigenvalues ---    0.06069   0.15097   0.16051
 RFO step:  Lambda=-2.01320516D-04.
 Quintic linear search produced a step of  0.20916.
 Iteration  1 RMS(Cart)=  0.07116668 RMS(Int)=  0.00129439
 Iteration  2 RMS(Cart)=  0.00117629 RMS(Int)=  0.00000003
 Iteration  3 RMS(Cart)=  0.00000006 RMS(Int)=  0.00000000
 Variable       Old X    -DE/DX   Delta X   Delta X   Delta X     New X
                                 (Linear)    (Quad)   (Total)
    R1        4.17010   0.00247  -0.00517   0.00957   0.00440   4.17450
    R2        4.20222  -0.00248   0.00709  -0.03297  -0.02588   4.17634
    A1        1.68217   0.00354   0.02658   0.02802   0.05460   1.73678
         Item               Value     Threshold  Converged?
 Maximum Force            0.003542     0.000450     NO 
 RMS     Force            0.002875     0.000300     NO 
 Maximum Displacement     0.076916     0.001800     NO 
 RMS     Displacement     0.070538     0.001200     NO 
 Predicted change in Energy=-1.342751D-04
 GradGradGradGradGradGradGradGradGradGradGradGradGradGradGradGradGradGrad

                          Input orientation:                          
 ---------------------------------------------------------------------
 Center     Atomic     Atomic              Coordinates (Angstroms)
 Number     Number      Type              X           Y           Z
 ---------------------------------------------------------------------
    1         14             0       -0.951154   -1.693993    0.000000
    2         14             0        0.168255    1.487868    0.000000
    3         14             0        0.954925   -0.577403    0.000000
 ---------------------------------------------------------------------
                    Distance matrix (angstroms):
                    1          2          3
     1  Si   0.000000
     2  Si   3.373027   0.000000
     3  Si   2.209052   2.210021   0.000000
 Stoichiometry    Si3
 Framework group  CS[SG(Si3)]
 Deg. of freedom     3
 Full point group                 CS
 Largest Abelian subgroup         CS      NOp   2
 Largest concise Abelian subgroup C1      NOp   1
                         Standard orientation:                         
 ---------------------------------------------------------------------
 Center     Atomic     Atomic              Coordinates (Angstroms)
 Number     Number      Type              X           Y           Z
 ---------------------------------------------------------------------
    1         14             0        1.686513   -0.475079    0.000000
    2         14             0       -1.686513   -0.476580    0.000000
    3         14             0        0.000000    0.951659    0.000000
 ---------------------------------------------------------------------
 Rotational constants (GHZ):     13.2972896      3.1754662      2.5633290
 Standard basis: LANL2DZ (5D, 7F)
 There are    18 symmetry adapted basis functions of A'  symmetry.
 There are     6 symmetry adapted basis functions of A"  symmetry.
 Integral buffers will be    131072 words long.
 Raffenetti 2 integral format.
 Two-electron integral symmetry is turned on.
    24 basis functions,    36 primitive gaussians,    24 cartesian basis functions
     6 alpha electrons        6 beta electrons
       nuclear repulsion energy        10.1740612393 Hartrees.
 NAtoms=    3 NActive=    3 NUniq=    3 SFac= 7.50D-01 NAtFMM=   80 NAOKFM=F Big=F
 One-electron integrals computed using PRISM.
   1 Symmetry operations used in ECPInt.
 ECPInt:  NShTT=      78 NPrTT=     177 LenC2=      79 LenP2D=     176.
 LDataN:  DoStor=F MaxTD1= 3 Len=   28
 LDataN:  DoStor=T MaxTD1= 3 Len=   28
 NBasis=    24 RedAO= T  NBF=    18     6
 NBsUse=    24 1.00D-06 NBFU=    18     6
 Initial guess read from the read-write file:
 Initial guess orbital symmetries:
       Occupied  (A') (A') (A') (A') (A') (A")
       Virtual   (A") (A') (A') (A") (A') (A') (A') (A") (A') (A')
                 (A') (A") (A") (A') (A') (A') (A') (A')
 Harris functional with IExCor=  402 diagonalized for initial guess.
 ExpMin= 8.85D-02 ExpMax= 2.58D+00 ExpMxC= 2.58D+00 IAcc=2 IRadAn=         4 AccDes= 0.00D+00
 HarFok:  IExCor= 402 AccDes= 0.00D+00 IRadAn=         4 IDoV=1
 ScaDFX=  1.000000  1.000000  1.000000  1.000000
 Requested convergence on RMS density matrix=1.00D-08 within 128 cycles.
 Requested convergence on MAX density matrix=1.00D-06.
 Requested convergence on             energy=1.00D-06.
 No special actions if energy rises.
 Keep R1 integrals in memory in canonical form, NReq=     1745777.
 Integral accuracy reduced to 1.0D-05 until final iterations.
 EnCoef did     7 forward-backward iterations
 Initial convergence to 1.0D-05 achieved.  Increase integral accuracy.
 SCF Done:  E(RB+HF-LYP) =  -11.5083380816     A.U. after   13 cycles
             Convg  =    0.4652D-08             -V/T =  3.7264
             S**2   =   0.0000
 QCSCF skips out because SCF is already converged.
 Range of M.O.s used for correlation:     1    24
 NBasis=    24 NAE=     6 NBE=     6 NFC=     0 NFV=     0
 NROrb=     24 NOA=     6 NOB=     6 NVA=    18 NVB=    18
   2 Symmetry operations used in ECPInt.
 ECPInt:  NShTT=      78 NPrTT=     177 LenC2=      79 LenP2D=     176.
 LDataN:  DoStor=F MaxTD1= 4 Len=   56
 LDataN:  DoStor=T MaxTD1= 4 Len=   56
 Symmetrizing basis deriv contribution to polar:
 IMax=3 JMax=2 DiffMx= 0.00D+00
 G2DrvN: will do    4 centers at a time, making    1 passes doing MaxLOS=1.
 FoFDir/FoFCou used for L=0 through L=1.
 DoAtom=TTT
          Differentiating once with respect to electric field.
                with respect to dipole field.
          Differentiating once with respect to nuclear coordinates.
          Store integrals in memory, NReq=      846072.
          There are  12 degrees of freedom in the 1st order CPHF.
     9 vectors were produced by pass  0.
 AX will form   9 AO Fock derivatives at one time.
     9 vectors were produced by pass  1.
     9 vectors were produced by pass  2.
     9 vectors were produced by pass  3.
     9 vectors were produced by pass  4.
     9 vectors were produced by pass  5.
     4 vectors were produced by pass  6.
     2 vectors were produced by pass  7.
 Inv2:  IOpt= 1 Iter= 1 AM= 7.30D-16 Conv= 1.00D-12.
 Inverted reduced A of dimension   60 with in-core refinement.
 Isotropic polarizability for W=    0.000000       92.18 Bohr**3.
 End of Minotr Frequency-dependent properties file   721 does not exist.
   2 Symmetry operations used in ECPInt.
 ECPInt:  NShTT=      78 NPrTT=     177 LenC2=      79 LenP2D=     177.
 LDataN:  DoStor=F MaxTD1= 5 Len=  102
 LDataN:  DoStor=T MaxTD1= 5 Len=  102
 ***** Axes restored to original set *****
 -------------------------------------------------------------------
 Center     Atomic                   Forces (Hartrees/Bohr)
 Number     Number              X              Y              Z
 -------------------------------------------------------------------
    1         14          -0.000278711   -0.000281783    0.000000000
    2         14           0.000061951    0.000125284    0.000000000
    3         14           0.000216761    0.000156499    0.000000000
 -------------------------------------------------------------------
 Cartesian Forces:  Max     0.000281783 RMS     0.000166030

 GradGradGradGradGradGradGradGradGradGradGradGradGradGradGradGradGradGrad
 Berny optimization.
 Internal  Forces:  Max     0.000427452 RMS     0.000335824
 Search for a local minimum.
 Step number   4 out of a maximum of 100
 All quantities printed in internal units (Hartrees-Bohrs-Radians)
 Second derivative matrix not updated -- analytic derivatives used.
 Trust test= 1.06D+00 RLast= 6.06D-02 DXMaxT set to 4.24D-01
 The second derivative matrix:
                          R1        R2        A1
           R1           0.15122
           R2          -0.00607   0.15066
           A1           0.02164   0.02162   0.05718
     Eigenvalues ---    0.04756   0.15446   0.15704
 RFO step:  Lambda=-1.09387123D-06.
 Quintic linear search produced a step of  0.10126.
 Iteration  1 RMS(Cart)=  0.00939442 RMS(Int)=  0.00002033
 Iteration  2 RMS(Cart)=  0.00001529 RMS(Int)=  0.00000000
 Iteration  3 RMS(Cart)=  0.00000000 RMS(Int)=  0.00000000
 Variable       Old X    -DE/DX   Delta X   Delta X   Delta X     New X
                                 (Linear)    (Quad)   (Total)
    R1        4.17450   0.00038   0.00045   0.00104   0.00148   4.17599
    R2        4.17634   0.00010  -0.00262   0.00210  -0.00053   4.17581
    A1        1.73678   0.00043   0.00553   0.00138   0.00691   1.74369
         Item               Value     Threshold  Converged?
 Maximum Force            0.000427     0.000450     YES
 RMS     Force            0.000336     0.000300     NO 
 Maximum Displacement     0.010543     0.001800     NO 
 RMS     Displacement     0.009391     0.001200     NO 
 Predicted change in Energy=-1.771393D-06
 GradGradGradGradGradGradGradGradGradGradGradGradGradGradGradGradGradGrad

                          Input orientation:                          
 ---------------------------------------------------------------------
 Center     Atomic     Atomic              Coordinates (Angstroms)
 Number     Number      Type              X           Y           Z
 ---------------------------------------------------------------------
    1         14             0       -0.951280   -1.699571    0.000000
    2         14             0        0.171824    1.491837    0.000000
    3         14             0        0.951482   -0.575794    0.000000
 ---------------------------------------------------------------------
                    Distance matrix (angstroms):
                    1          2          3
     1  Si   0.000000
     2  Si   3.383260   0.000000
     3  Si   2.209836   2.209743   0.000000
 Stoichiometry    Si3
 Framework group  CS[SG(Si3)]
 Deg. of freedom     3
 Full point group                 CS
 Largest Abelian subgroup         CS      NOp   2
 Largest concise Abelian subgroup C1      NOp   1
                         Standard orientation:                         
 ---------------------------------------------------------------------
 Center     Atomic     Atomic              Coordinates (Angstroms)
 Number     Number      Type              X           Y           Z
 ---------------------------------------------------------------------
    1         14             0        1.691630   -0.474011    0.000000
    2         14             0       -1.691630   -0.473866    0.000000
    3         14             0        0.000000    0.947877    0.000000
 ---------------------------------------------------------------------
 Rotational constants (GHZ):     13.4036241      3.1562857      2.5547040
 Standard basis: LANL2DZ (5D, 7F)
 There are    18 symmetry adapted basis functions of A'  symmetry.
 There are     6 symmetry adapted basis functions of A"  symmetry.
 Integral buffers will be    131072 words long.
 Raffenetti 2 integral format.
 Two-electron integral symmetry is turned on.
    24 basis functions,    36 primitive gaussians,    24 cartesian basis functions
     6 alpha electrons        6 beta electrons
       nuclear repulsion energy        10.1655903942 Hartrees.
 NAtoms=    3 NActive=    3 NUniq=    3 SFac= 7.50D-01 NAtFMM=   80 NAOKFM=F Big=F
 One-electron integrals computed using PRISM.
   1 Symmetry operations used in ECPInt.
 ECPInt:  NShTT=      78 NPrTT=     177 LenC2=      79 LenP2D=     176.
 LDataN:  DoStor=F MaxTD1= 3 Len=   28
 LDataN:  DoStor=T MaxTD1= 3 Len=   28
 NBasis=    24 RedAO= T  NBF=    18     6
 NBsUse=    24 1.00D-06 NBFU=    18     6
 Initial guess read from the read-write file:
 Initial guess orbital symmetries:
       Occupied  (A') (A') (A') (A') (A') (A")
       Virtual   (A") (A') (A') (A") (A') (A') (A') (A") (A') (A')
                 (A') (A") (A") (A') (A') (A') (A') (A')
 Requested convergence on RMS density matrix=1.00D-08 within 128 cycles.
 Requested convergence on MAX density matrix=1.00D-06.
 Requested convergence on             energy=1.00D-06.
 No special actions if energy rises.
 Keep R1 integrals in memory in canonical form, NReq=     1745777.
 SCF Done:  E(RB+HF-LYP) =  -11.5083398726     A.U. after    9 cycles
             Convg  =    0.2631D-08             -V/T =  3.7270
             S**2   =   0.0000
 QCSCF skips out because SCF is already converged.
 Range of M.O.s used for correlation:     1    24
 NBasis=    24 NAE=     6 NBE=     6 NFC=     0 NFV=     0
 NROrb=     24 NOA=     6 NOB=     6 NVA=    18 NVB=    18
   2 Symmetry operations used in ECPInt.
 ECPInt:  NShTT=      78 NPrTT=     177 LenC2=      79 LenP2D=     176.
 LDataN:  DoStor=F MaxTD1= 4 Len=   56
 LDataN:  DoStor=T MaxTD1= 4 Len=   56
 Symmetrizing basis deriv contribution to polar:
 IMax=3 JMax=2 DiffMx= 0.00D+00
 G2DrvN: will do    4 centers at a time, making    1 passes doing MaxLOS=1.
 FoFDir/FoFCou used for L=0 through L=1.
 DoAtom=TTT
          Differentiating once with respect to electric field.
                with respect to dipole field.
          Differentiating once with respect to nuclear coordinates.
          Store integrals in memory, NReq=      846072.
          There are  12 degrees of freedom in the 1st order CPHF.
     9 vectors were produced by pass  0.
 AX will form   9 AO Fock derivatives at one time.
     9 vectors were produced by pass  1.
     9 vectors were produced by pass  2.
     9 vectors were produced by pass  3.
     9 vectors were produced by pass  4.
     9 vectors were produced by pass  5.
     4 vectors were produced by pass  6.
     2 vectors were produced by pass  7.
 Inv2:  IOpt= 1 Iter= 1 AM= 9.40D-16 Conv= 1.00D-12.
 Inverted reduced A of dimension   60 with in-core refinement.
 Isotropic polarizability for W=    0.000000       92.28 Bohr**3.
 End of Minotr Frequency-dependent properties file   721 does not exist.
   2 Symmetry operations used in ECPInt.
 ECPInt:  NShTT=      78 NPrTT=     177 LenC2=      79 LenP2D=     177.
 LDataN:  DoStor=F MaxTD1= 5 Len=  102
 LDataN:  DoStor=T MaxTD1= 5 Len=  102
 ***** Axes restored to original set *****
 -------------------------------------------------------------------
 Center     Atomic                   Forces (Hartrees/Bohr)
 Number     Number              X              Y              Z
 -------------------------------------------------------------------
    1         14          -0.000004165   -0.000007950    0.000000000
    2         14          -0.000008033    0.000034625    0.000000000
    3         14           0.000012197   -0.000026675    0.000000000
 -------------------------------------------------------------------
 Cartesian Forces:  Max     0.000034625 RMS     0.000015650

 GradGradGradGradGradGradGradGradGradGradGradGradGradGradGradGradGradGrad
 Berny optimization.
 Internal  Forces:  Max     0.000035226 RMS     0.000023711
 Search for a local minimum.
 Step number   5 out of a maximum of 100
 All quantities printed in internal units (Hartrees-Bohrs-Radians)
 Second derivative matrix not updated -- analytic derivatives used.
 Trust test= 1.01D+00 RLast= 7.09D-03 DXMaxT set to 4.24D-01
 The second derivative matrix:
                          R1        R2        A1
           R1           0.15069
           R2          -0.00609   0.15075
           A1           0.02125   0.02125   0.05489
     Eigenvalues ---    0.04576   0.15376   0.15681
 RFO step:  Lambda= 0.00000000D+00.
 Quintic linear search produced a step of  0.03925.
 Iteration  1 RMS(Cart)=  0.00041172 RMS(Int)=  0.00000003
 Iteration  2 RMS(Cart)=  0.00000003 RMS(Int)=  0.00000000
 Variable       Old X    -DE/DX   Delta X   Delta X   Delta X     New X
                                 (Linear)    (Quad)   (Total)
    R1        4.17599   0.00001   0.00006  -0.00004   0.00002   4.17601
    R2        4.17581   0.00004  -0.00002   0.00022   0.00020   4.17600
    A1        1.74369   0.00002   0.00027   0.00000   0.00028   1.74396
         Item               Value     Threshold  Converged?
 Maximum Force            0.000035     0.000450     YES
 RMS     Force            0.000024     0.000300     YES
 Maximum Displacement     0.000447     0.001800     YES
 RMS     Displacement     0.000412     0.001200     YES
 Predicted change in Energy=-6.231124D-09
 Optimization completed.
    -- Stationary point found.
                           ----------------------------
                           !   Optimized Parameters   !
                           ! (Angstroms and Degrees)  !
 --------------------------                            --------------------------
 ! Name  Definition              Value          Derivative Info.                !
 --------------------------------------------------------------------------------
 ! R1    R(1,3)                  2.2098         -DE/DX =    0.0                 !
 ! R2    R(2,3)                  2.2097         -DE/DX =    0.0                 !
 ! A1    A(1,3,2)               99.9059         -DE/DX =    0.0                 !
 --------------------------------------------------------------------------------
 GradGradGradGradGradGradGradGradGradGradGradGradGradGradGradGradGradGrad

                          Input orientation:                          
 ---------------------------------------------------------------------
 Center     Atomic     Atomic              Coordinates (Angstroms)
 Number     Number      Type              X           Y           Z
 ---------------------------------------------------------------------
    1         14             0       -0.951280   -1.699571    0.000000
    2         14             0        0.171824    1.491837    0.000000
    3         14             0        0.951482   -0.575794    0.000000
 ---------------------------------------------------------------------
                    Distance matrix (angstroms):
                    1          2          3
     1  Si   0.000000
     2  Si   3.383260   0.000000
     3  Si   2.209836   2.209743   0.000000
 Stoichiometry    Si3
 Framework group  CS[SG(Si3)]
 Deg. of freedom     3
 Full point group                 CS
 Largest Abelian subgroup         CS      NOp   2
 Largest concise Abelian subgroup C1      NOp   1
                         Standard orientation:                         
 ---------------------------------------------------------------------
 Center     Atomic     Atomic              Coordinates (Angstroms)
 Number     Number      Type              X           Y           Z
 ---------------------------------------------------------------------
    1         14             0        1.691630   -0.474011    0.000000
    2         14             0       -1.691630   -0.473866    0.000000
    3         14             0        0.000000    0.947877    0.000000
 ---------------------------------------------------------------------
 Rotational constants (GHZ):     13.4036241      3.1562857      2.5547040

 **********************************************************************

            Population analysis using the SCF density.

 **********************************************************************

 Orbital symmetries:
       Occupied  (A') (A') (A') (A') (A') (A")
       Virtual   (A") (A') (A') (A") (A') (A') (A') (A") (A') (A')
                 (A') (A") (A") (A') (A') (A') (A') (A')
 The electronic state is 1-A'.
 Alpha  occ. eigenvalues --   -0.57829  -0.46482  -0.34282  -0.24419  -0.24352
 Alpha  occ. eigenvalues --   -0.24177
 Alpha virt. eigenvalues --   -0.13193  -0.12190  -0.10504  -0.05134   0.05595
 Alpha virt. eigenvalues --    0.06034   0.27575   0.30268   0.30889   0.32299
 Alpha virt. eigenvalues --    0.32485   0.34040   0.36536   0.38684   0.41003
 Alpha virt. eigenvalues --    4.56721   7.57920   8.97012
          Condensed to atoms (all electrons):
              1          2          3
     1  Si   3.619943   0.020269   0.262348
     2  Si   0.020269   3.619976   0.262337
     3  Si   0.262348   0.262337   3.670174
 Mulliken atomic charges:
              1
     1  Si   0.097441
     2  Si   0.097418
     3  Si  -0.194859
 Sum of Mulliken charges=   0.00000
 Atomic charges with hydrogens summed into heavy atoms:
              1
     1  Si   0.097441
     2  Si   0.097418
     3  Si  -0.194859
 Sum of Mulliken charges=   0.00000
 APT atomic charges:
              1
     1  Si   0.203633
     2  Si   0.203610
     3  Si  -0.407243
 Sum of APT charges=   0.00000
 APT Atomic charges with hydrogens summed into heavy atoms:
              1
     1  Si   0.203633
     2  Si   0.203610
     3  Si  -0.407243
 Sum of APT charges=   0.00000
 Electronic spatial extent (au):  <R**2>=   185.1227
 Charge=     0.0000 electrons
 Dipole moment (field-independent basis, Debye):
    X=     0.0003    Y=    -0.4251    Z=     0.0000  Tot=     0.4251
 Quadrupole moment (field-independent basis, Debye-Ang):
   XX=   -38.4679   YY=   -38.0095   ZZ=   -36.6665
   XY=    -0.0003   XZ=     0.0000   YZ=     0.0000
 Traceless Quadrupole moment (field-independent basis, Debye-Ang):
   XX=    -0.7533   YY=    -0.2948   ZZ=     1.0481
   XY=    -0.0003   XZ=     0.0000   YZ=     0.0000
 Octapole moment (field-independent basis, Debye-Ang**2):
  XXX=     0.0022  YYY=    -2.4790  ZZZ=     0.0000  XYY=    -0.0006
  XXY=     7.8877  XXZ=     0.0000  XZZ=     0.0002  YZZ=    -1.4863
  YYZ=     0.0000  XYZ=     0.0000
 Hexadecapole moment (field-independent basis, Debye-Ang**3):
 XXXX=  -523.6962 YYYY=  -177.4285 ZZZZ=   -77.3118 XXXY=     0.0079
 XXXZ=     0.0000 YYYX=     0.0091 YYYZ=     0.0000 ZZZX=     0.0000
 ZZZY=     0.0000 XXYY=  -119.5657 XXZZ=   -91.4421 YYZZ=   -42.3853
 XXYZ=     0.0000 YYXZ=     0.0000 ZZXY=     0.0026
 N-N= 1.016559039416D+01 E-N=-4.144300636369D+01  KE= 4.220148007191D+00
 Symmetry A'   KE= 3.533038596367D+00
 Symmetry A"   KE= 6.871094108247D-01
  Exact polarizability: 152.787  -0.004  84.626   0.000   0.000  39.414
 Approx polarizability: 553.928  -0.027 218.345   0.000   0.000  54.583
 Rotating derivatives to standard orientation.
 Full mass-weighted force constant matrix:
 Low frequencies ---   -5.7155   -2.4884   -0.0001    0.0000    0.0001   10.0968
 Low frequencies ---   95.9287  484.2189  567.1852
 Diagonal vibrational polarizability:
        5.2747308       4.6358320       0.0000000
 Harmonic frequencies (cm**-1), IR intensities (KM/Mole), Raman scattering
 activities (A**4/AMU), depolarization ratios for plane and unpolarized
 incident light, reduced masses (AMU), force constants (mDyne/A),
 and normal coordinates:
                     1                      2                      3
                    A'                     A'                     A'
 Frequencies --    95.9287               484.2189               567.1852
 Red. masses --    27.9769                27.9769                27.9769
 Frc consts  --     0.1517                 3.8649                 5.3027
 IR Inten    --     1.3699                 5.4864                63.0546
 Atom AN      X      Y      Z        X      Y      Z        X      Y      Z
   1  14     0.56   0.25   0.00    -0.43   0.32   0.00     0.37  -0.31   0.00
   2  14    -0.56   0.25   0.00     0.43   0.32   0.00     0.37   0.31   0.00
   3  14     0.00  -0.49   0.00     0.00  -0.65   0.00    -0.73   0.00   0.00

 -------------------
 - Thermochemistry -
 -------------------
 Temperature   298.150 Kelvin.  Pressure   1.00000 Atm.
 Atom  1 has atomic number 14 and mass  27.97693
 Atom  2 has atomic number 14 and mass  27.97693
 Atom  3 has atomic number 14 and mass  27.97693
 Molecular mass:    83.93079 amu.
 Principal axes and moments of inertia in atomic units:
                           1         2         3
     EIGENVALUES --   134.64576 571.79272 706.43849
           X            1.00000   0.00006   0.00000
           Y           -0.00006   1.00000   0.00000
           Z            0.00000   0.00000   1.00000
 This molecule is an asymmetric top.
 Rotational symmetry number  1.
 Rotational temperatures (Kelvin)      0.64327     0.15148     0.12261
 Rotational constants (GHZ):          13.40362     3.15629     2.55470
 Zero-point vibrational energy       6862.6 (Joules/Mol)
                                    1.64019 (Kcal/Mol)
 Warning -- explicit consideration of   3 degrees of freedom as
           vibrations may cause significant error
 Vibrational temperatures:    138.02   696.68   816.05
          (Kelvin)
 
 Zero-point correction=                           0.002614 (Hartree/Particle)
 Thermal correction to Energy=                    0.006604
 Thermal correction to Enthalpy=                  0.007548
 Thermal correction to Gibbs Free Energy=        -0.025445
 Sum of electronic and zero-point Energies=            -11.505726
 Sum of electronic and thermal Energies=               -11.501736
 Sum of electronic and thermal Enthalpies=             -11.500792
 Sum of electronic and thermal Free Energies=          -11.533785
 
                     E (Thermal)             CV                S
                      KCal/Mol        Cal/Mol-Kelvin    Cal/Mol-Kelvin
 Total                    4.144             10.301             69.440
 Electronic               0.000              0.000              0.000
 Translational            0.889              2.981             39.196
 Rotational               0.889              2.981             25.501
 Vibrational              2.366              4.339              4.744
 Vibration  1             0.603              1.952              3.535
 Vibration  2             0.840              1.285              0.699
 Vibration  3             0.923              1.102              0.510
                       Q            Log10(Q)             Ln(Q)
 Total Bot       0.505861D+12         11.704031         26.949528
 Total V=0       0.805937D+13         12.906301         29.717856
 Vib (Bot)       0.200491D+00         -0.697905         -1.606985
 Vib (Bot)  1    0.214103D+01          0.330622          0.761286
 Vib (Bot)  2    0.344143D+00         -0.463261         -1.066699
 Vib (Bot)  3    0.272104D+00         -0.565266         -1.301573
 Vib (V=0)       0.319422D+01          0.504365          1.161343
 Vib (V=0)  1    0.269864D+01          0.431144          0.992747
 Vib (V=0)  2    0.110699D+01          0.044143          0.101643
 Vib (V=0)  3    0.106925D+01          0.029077          0.066953
 Electronic      0.100000D+01          0.000000          0.000000
 Translational   0.302230D+08          7.480337         17.224113
 Rotational      0.834832D+05          4.921599         11.332401
 ***** Axes restored to original set *****
 -------------------------------------------------------------------
 Center     Atomic                   Forces (Hartrees/Bohr)
 Number     Number              X              Y              Z
 -------------------------------------------------------------------
    1         14          -0.000004165   -0.000007950    0.000000000
    2         14          -0.000008033    0.000034625    0.000000000
    3         14           0.000012197   -0.000026675    0.000000000
 -------------------------------------------------------------------
 Cartesian Forces:  Max     0.000034625 RMS     0.000015650
 1\1\GINC-NODE28\Freq\RB3LYP\LANL2DZ\Si3\TAM\04-Apr-2011\0\\# b3lyp/LAN
 L2DZ opt=(calcall,noeigentest,maxcycle=500) scfcyc=500 scf=xqc\\si3-n\
 \0,1\Si,-0.9512795936,-1.6995713993,0.\Si,0.1718239159,1.4918372882,0.
 \Si,0.9514816777,-0.5757938889,0.\\Version=AM64L-G03RevE.01\State=1-A'
 \HF=-11.5083399\RMSD=2.631e-09\RMSF=1.565e-05\ZeroPoint=0.0026138\Ther
 mal=0.0066038\Dipole=-0.1578009,0.0554106,0.\DipoleDeriv=0.3376863,0.4
 512981,0.,0.3386924,0.2420664,0.,0.,0.,0.031145,-0.0855653,-0.1881874,
 0.,-0.0755392,0.6652845,0.,0.,0.,0.0311112,-0.2521209,-0.2631107,0.,-0
 .2631532,-0.9073509,0.,0.,0.,-0.0622562\Polar=92.1379415,21.3442506,14
 5.2753753,0.,0.,39.4137237\PG=CS [SG(Si3)]\NImag=0\\0.10812216,0.06703
 815,0.04577090,0.,0.,-0.00000615,-0.00541405,-0.00447779,0.,0.01820920
 ,0.00635697,-0.00307480,0.,-0.04491793,0.13573158,0.,0.,-0.00000168,0.
 ,0.,-0.00001274,-0.10270810,-0.06256036,0.,-0.01279515,0.03856096,0.,0
 .11550325,-0.07339512,-0.04269609,0.,0.04939572,-0.13265678,0.,0.02399
 940,0.17535287,0.,0.,0.00000783,0.,0.,0.00001442,0.,0.,-0.00002225\\0.
 00000416,0.00000795,0.,0.00000803,-0.00003462,0.,-0.00001220,0.0000266
 7,0.\\\@


 ON INDUCTION, OR "WHY DO YOU BELIEVE THE SUN WILL RISE TOMORROW?":

 ... THE FARMER WHO HAS FED THE CHICKEN EVERY DAY THROUGHOUT ITS
 LIFE AT LAST WRINGS ITS NECK INSTEAD, SHOWING THAT MORE REFINED VIEWS
 AS TO THE UNIFORMITY OF NATURE WOULD HAVE BEEN USEFUL TO THE CHICKEN.

                               -- BERTRAND RUSSELL
 Job cpu time:  0 days  0 hours  3 minutes 15.5 seconds.
 File lengths (MBytes):  RWF=     13 Int=      0 D2E=      0 Chk=      6 Scr=      1
 Normal termination of Gaussian 03 at Mon Apr  4 15:55:37 2011.
 Initial command:
 /usr/local/chem/g03E01/l1.exe /temp0/tam/Gau-25687.inp -scrdir=/temp0/tam/
 Entering Link 1 = /usr/local/chem/g03E01/l1.exe PID=     25970.
  
 Copyright (c) 1988,1990,1992,1993,1995,1998,2003,2004,2007, Gaussian, Inc.
                  All Rights Reserved.
  
 This is the Gaussian(R) 03 program.  It is based on the
 the Gaussian(R) 98 system (copyright 1998, Gaussian, Inc.),
 the Gaussian(R) 94 system (copyright 1995, Gaussian, Inc.),
 the Gaussian 92(TM) system (copyright 1992, Gaussian, Inc.),
 the Gaussian 90(TM) system (copyright 1990, Gaussian, Inc.),
 the Gaussian 88(TM) system (copyright 1988, Gaussian, Inc.),
 the Gaussian 86(TM) system (copyright 1986, Carnegie Mellon
 University), and the Gaussian 82(TM) system (copyright 1983,
 Carnegie Mellon University). Gaussian is a federally registered
 trademark of Gaussian, Inc.
  
 This software contains proprietary and confidential information,
 including trade secrets, belonging to Gaussian, Inc.
  
 This software is provided under written license and may be
 used, copied, transmitted, or stored only in accord with that
 written license.
  
 The following legend is applicable only to US Government
 contracts under FAR:
  
                    RESTRICTED RIGHTS LEGEND
  
 Use, reproduction and disclosure by the US Government is
 subject to restrictions as set forth in subparagraphs (a)
 and (c) of the Commercial Computer Software - Restricted
 Rights clause in FAR 52.227-19.
  
 Gaussian, Inc.
 340 Quinnipiac St., Bldg. 40, Wallingford CT 06492
  
  
 ---------------------------------------------------------------
 Warning -- This program may not be used in any manner that
 competes with the business of Gaussian, Inc. or will provide
 assistance to any competitor of Gaussian, Inc.  The licensee
 of this program is prohibited from giving any competitor of
 Gaussian, Inc. access to this program.  By using this program,
 the user acknowledges that Gaussian, Inc. is engaged in the
 business of creating and licensing software in the field of
 computational chemistry and represents and warrants to the
 licensee that it is not a competitor of Gaussian, Inc. and that
 it will not use this program in any manner prohibited above.
 ---------------------------------------------------------------
  

 Cite this work as:
 Gaussian 03, Revision E.01,
 M. J. Frisch, G. W. Trucks, H. B. Schlegel, G. E. Scuseria, 
 M. A. Robb, J. R. Cheeseman, J. A. Montgomery, Jr., T. Vreven, 
 K. N. Kudin, J. C. Burant, J. M. Millam, S. S. Iyengar, J. Tomasi, 
 V. Barone, B. Mennucci, M. Cossi, G. Scalmani, N. Rega, 
 G. A. Petersson, H. Nakatsuji, M. Hada, M. Ehara, K. Toyota, 
 R. Fukuda, J. Hasegawa, M. Ishida, T. Nakajima, Y. Honda, O. Kitao, 
 H. Nakai, M. Klene, X. Li, J. E. Knox, H. P. Hratchian, J. B. Cross, 
 V. Bakken, C. Adamo, J. Jaramillo, R. Gomperts, R. E. Stratmann, 
 O. Yazyev, A. J. Austin, R. Cammi, C. Pomelli, J. W. Ochterski, 
 P. Y. Ayala, K. Morokuma, G. A. Voth, P. Salvador, J. J. Dannenberg, 
 V. G. Zakrzewski, S. Dapprich, A. D. Daniels, M. C. Strain, 
 O. Farkas, D. K. Malick, A. D. Rabuck, K. Raghavachari, 
 J. B. Foresman, J. V. Ortiz, Q. Cui, A. G. Baboul, S. Clifford, 
 J. Cioslowski, B. B. Stefanov, G. Liu, A. Liashenko, P. Piskorz, 
 I. Komaromi, R. L. Martin, D. J. Fox, T. Keith, M. A. Al-Laham, 
 C. Y. Peng, A. Nanayakkara, M. Challacombe, P. M. W. Gill, 
 B. Johnson, W. Chen, M. W. Wong, C. Gonzalez, and J. A. Pople, 
 Gaussian, Inc., Wallingford CT, 2004.
 
 ******************************************
 Gaussian 03:  AM64L-G03RevE.01 11-Sep-2007
                 4-Apr-2011 
 ******************************************
 %NprocShared=4
 Will use up to    4 processors via shared memory.
 %mem=3750MB
 %chk=S9L-ne-d-01
 ----------------------------------------------------------------------
 # b3lyp/6-311G(d) opt=(readfc,noeigentest,maxcycle=500) freq scfcyc=50
 0 optcyc=500 geom=allcheck guess=read scf=xqc
 ----------------------------------------------------------------------
 1/6=500,10=3,11=1,14=-1,18=20,26=3,29=7,38=1/1,3;
 2/9=110,40=1/2;
 3/5=4,6=6,7=1,11=2,16=1,25=1,30=1,74=-5/1,2,3;
 4/5=1/1;
 5/5=2,7=500,8=3,13=1,38=6/2,8;
 6/7=2,8=2,9=2,10=2,28=1/1;
 7//1,2,3,16;
 1/6=500,11=1,14=-1,18=20/3(3);
 2/9=110/2;
 6/7=2,8=2,9=2,10=2,19=2,28=1/1;
 99//99;
 2/9=110/2;
 3/5=4,6=6,7=1,11=2,16=1,25=1,30=1,74=-5/1,2,3;
 4/5=5,16=3/1;
 5/5=2,7=500,8=3,13=1,38=5/2,8;
 7//1,2,3,16;
 1/6=500,11=1,14=-1,18=20/3(-5);
 2/9=110/2;
 6/7=2,8=2,9=2,10=2,19=2,28=1/1;
 99/9=1/99;
 -----
 si3-n
 -----
 Redundant internal coordinates taken from checkpoint file:
 S9L-ne-d-01.chk
 Charge =  0 Multiplicity = 1
 Si,0,-0.9512795936,-1.6995713993,0.
 Si,0,0.1718239159,1.4918372882,0.
 Si,0,0.9514816777,-0.5757938889,0.
 Recover connectivity data from disk.

 GradGradGradGradGradGradGradGradGradGradGradGradGradGradGradGradGradGrad
 Berny optimization.
 Initialization pass.
 Force constant matrix read from checkpoint file:
 S9L-ne-d-01.chk
                           ----------------------------
                           !    Initial Parameters    !
                           ! (Angstroms and Degrees)  !
 --------------------------                            --------------------------
 ! Name  Definition              Value          Derivative Info.                !
 --------------------------------------------------------------------------------
 ! R1    R(1,3)                  2.2098         D2E/DX2 =    0.1507             !
 ! R2    R(2,3)                  2.2097         D2E/DX2 =    0.1507             !
 ! A1    A(1,3,2)               99.9059         D2E/DX2 =    0.0549             !
 --------------------------------------------------------------------------------
 Trust Radius=3.00D-01 FncErr=1.00D-07 GrdErr=1.00D-06
 Number of steps in this run= 100 maximum allowed number of steps= 100.
 GradGradGradGradGradGradGradGradGradGradGradGradGradGradGradGradGradGrad

                          Input orientation:                          
 ---------------------------------------------------------------------
 Center     Atomic     Atomic              Coordinates (Angstroms)
 Number     Number      Type              X           Y           Z
 ---------------------------------------------------------------------
    1         14             0       -0.951280   -1.699571    0.000000
    2         14             0        0.171824    1.491837    0.000000
    3         14             0        0.951482   -0.575794    0.000000
 ---------------------------------------------------------------------
                    Distance matrix (angstroms):
                    1          2          3
     1  Si   0.000000
     2  Si   3.383260   0.000000
     3  Si   2.209836   2.209743   0.000000
 Stoichiometry    Si3
 Framework group  CS[SG(Si3)]
 Deg. of freedom     3
 Full point group                 CS
 Largest Abelian subgroup         CS      NOp   2
 Largest concise Abelian subgroup C1      NOp   1
                         Standard orientation:                         
 ---------------------------------------------------------------------
 Center     Atomic     Atomic              Coordinates (Angstroms)
 Number     Number      Type              X           Y           Z
 ---------------------------------------------------------------------
    1         14             0        1.691630   -0.474011    0.000000
    2         14             0       -1.691630   -0.473866    0.000000
    3         14             0        0.000000    0.947877    0.000000
 ---------------------------------------------------------------------
 Rotational constants (GHZ):     13.4036241      3.1562857      2.5547040
 Standard basis: 6-311G(d) (5D, 7F)
 There are    57 symmetry adapted basis functions of A'  symmetry.
 There are    21 symmetry adapted basis functions of A"  symmetry.
 Integral buffers will be    131072 words long.
 Raffenetti 2 integral format.
 Two-electron integral symmetry is turned on.
    78 basis functions,   138 primitive gaussians,    81 cartesian basis functions
    21 alpha electrons       21 beta electrons
       nuclear repulsion energy       124.5284823285 Hartrees.
 NAtoms=    3 NActive=    3 NUniq=    3 SFac= 7.50D-01 NAtFMM=   80 NAOKFM=F Big=F
 One-electron integrals computed using PRISM.
 NBasis=    78 RedAO= T  NBF=    57    21
 NBsUse=    78 1.00D-06 NBFU=    57    21
 Initial guess read from the checkpoint file:
 S9L-ne-d-01.chk
 Initial guess orbital symmetries:
       Occupied  (A') (A') (A') (A') (A') (A") (A") (A') (A') (A")
                 (A') (A') (A') (A") (A') (A') (A') (A") (A") (A')
                 (A')
       Virtual   (A') (A') (A') (A') (A') (A') (A') (A') (A') (A')
                 (A') (A') (A') (A') (A') (A') (A') (A') (A') (A')
                 (A') (A') (A') (A') (A') (A') (A') (A') (A') (A')
                 (A') (A') (A') (A') (A') (A') (A') (A') (A') (A')
                 (A') (A') (A") (A") (A") (A") (A") (A") (A") (A")
                 (A") (A") (A") (A") (A") (A") (A")
 Requested convergence on RMS density matrix=1.00D-08 within 128 cycles.
 Requested convergence on MAX density matrix=1.00D-06.
 Requested convergence on             energy=1.00D-06.
 No special actions if energy rises.
 Keep R1 integrals in memory in canonical form, NReq=     7302138.
 EnCoef did     5 forward-backward iterations
 SCF Done:  E(RB+HF-LYP) =  -868.421742957     A.U. after   19 cycles
             Convg  =    0.6203D-08             -V/T =  2.0018
             S**2   =   0.0000
 QCSCF skips out because SCF is already converged.

 **********************************************************************

            Population analysis using the SCF density.

 **********************************************************************

 Orbital symmetries:
       Occupied  (A') (A') (A') (A') (A') (A') (A') (A') (A") (A")
                 (A') (A') (A') (A") (A') (A') (A') (A') (A') (A')
                 (A")
       Virtual   (A") (A') (A') (A") (A') (A') (A') (A') (A") (A')
                 (A') (A") (A") (A') (A') (A') (A') (A') (A') (A")
                 (A") (A') (A") (A") (A') (A') (A') (A') (A") (A")
                 (A') (A') (A') (A') (A") (A") (A') (A') (A") (A')
                 (A') (A') (A') (A') (A') (A') (A") (A") (A') (A')
                 (A") (A') (A') (A') (A') (A') (A')
 The electronic state is 1-A'.
 Alpha  occ. eigenvalues --  -66.14064 -66.14063 -66.08614  -5.30768  -5.30762
 Alpha  occ. eigenvalues --   -5.26079  -3.66702  -3.66701  -3.66665  -3.66664
 Alpha  occ. eigenvalues --   -3.66177  -3.66176  -3.61915  -3.61910  -3.61649
 Alpha  occ. eigenvalues --   -0.55514  -0.45270  -0.34392  -0.23422  -0.23390
 Alpha  occ. eigenvalues --   -0.22830
 Alpha virt. eigenvalues --   -0.12279  -0.11657  -0.09510  -0.04744   0.03515
 Alpha virt. eigenvalues --    0.04051   0.12600   0.14323   0.14810   0.15891
 Alpha virt. eigenvalues --    0.15917   0.18085   0.20852   0.21112   0.22751
 Alpha virt. eigenvalues --    0.23723   0.40833   0.41074   0.43529   0.45458
 Alpha virt. eigenvalues --    0.48623   0.54376   0.58041   0.58322   0.58854
 Alpha virt. eigenvalues --    0.60378   0.62580   0.64076   0.76334   0.76996
 Alpha virt. eigenvalues --    0.82274   0.95701   1.02786   1.08397   1.09293
 Alpha virt. eigenvalues --    1.12321   1.13807   1.17719   1.18093   1.23388
 Alpha virt. eigenvalues --    1.24389   1.30359   5.03801   5.28601   5.44178
 Alpha virt. eigenvalues --   11.15722  11.17302  11.18909  11.20092  11.21305
 Alpha virt. eigenvalues --   11.24862  11.25449  11.27978  11.31014 140.40842
 Alpha virt. eigenvalues --  140.69101 140.86825
          Condensed to atoms (all electrons):
              1          2          3
     1  Si  13.469753   0.046837   0.372300
     2  Si   0.046837  13.469770   0.372305
     3  Si   0.372300   0.372305  13.477592
 Mulliken atomic charges:
              1
     1  Si   0.111110
     2  Si   0.111088
     3  Si  -0.222198
 Sum of Mulliken charges=   0.00000
 Atomic charges with hydrogens summed into heavy atoms:
              1
     1  Si   0.111110
     2  Si   0.111088
     3  Si  -0.222198
 Sum of Mulliken charges=   0.00000
 Electronic spatial extent (au):  <R**2>=   444.1753
 Charge=     0.0000 electrons
 Dipole moment (field-independent basis, Debye):
    X=     0.0003    Y=    -0.3839    Z=     0.0000  Tot=     0.3839
 Quadrupole moment (field-independent basis, Debye-Ang):
   XX=   -41.0641   YY=   -40.4961   ZZ=   -40.3871
   XY=    -0.0004   XZ=     0.0000   YZ=     0.0000
 Traceless Quadrupole moment (field-independent basis, Debye-Ang):
   XX=    -0.4150   YY=     0.1530   ZZ=     0.2620
   XY=    -0.0004   XZ=     0.0000   YZ=     0.0000
 Octapole moment (field-independent basis, Debye-Ang**2):
  XXX=     0.0024  YYY=    -1.4969  ZZZ=     0.0000  XYY=    -0.0005
  XXY=     6.9777  XXZ=     0.0000  XZZ=     0.0003  YZZ=    -1.1380
  YYZ=     0.0000  XYZ=     0.0000
 Hexadecapole moment (field-independent basis, Debye-Ang**3):
 XXXX=  -567.4281 YYYY=  -187.4709 ZZZZ=   -80.7709 XXXY=     0.0082
 XXXZ=     0.0000 YYYX=     0.0096 YYYZ=     0.0000 ZZZX=     0.0000
 ZZZY=     0.0000 XXYY=  -129.0902 XXZZ=  -100.0788 YYZZ=   -44.7470
 XXYZ=     0.0000 YYXZ=     0.0000 ZZXY=     0.0028
 N-N= 1.245284823285D+02 E-N=-2.318549698129D+03  KE= 8.668736795968D+02
 Symmetry A'   KE= 7.917858238290D+02
 Symmetry A"   KE= 7.508785576781D+01
 ***** Axes restored to original set *****
 -------------------------------------------------------------------
 Center     Atomic                   Forces (Hartrees/Bohr)
 Number     Number              X              Y              Z
 -------------------------------------------------------------------
    1         14           0.006211975    0.009637547    0.000000000
    2         14          -0.001201736   -0.011379740    0.000000000
    3         14          -0.005010239    0.001742194    0.000000000
 -------------------------------------------------------------------
 Cartesian Forces:  Max     0.011379740 RMS     0.005681855

 GradGradGradGradGradGradGradGradGradGradGradGradGradGradGradGradGradGrad
 Berny optimization.
 Internal  Forces:  Max     0.021461735 RMS     0.014946484
 Search for a local minimum.
 Step number   1 out of a maximum of 100
 All quantities printed in internal units (Hartrees-Bohrs-Radians)
 Second derivative matrix not updated -- first step.
 The second derivative matrix:
                          R1        R2        A1
           R1           0.15069
           R2          -0.00609   0.15075
           A1           0.02125   0.02125   0.05489
     Eigenvalues ---    0.04576   0.15376   0.15681
 RFO step:  Lambda=-7.50639242D-03.
 Linear search not attempted -- first point.
 Maximum step size (   0.300) exceeded in Quadratic search.
    -- Step size scaled by   0.907
 Iteration  1 RMS(Cart)=  0.27221360 RMS(Int)=  0.05969336
 Iteration  2 RMS(Cart)=  0.14630274 RMS(Int)=  0.00421203
 Iteration  3 RMS(Cart)=  0.00307213 RMS(Int)=  0.00000031
 Iteration  4 RMS(Cart)=  0.00000076 RMS(Int)=  0.00000000
 Variable       Old X    -DE/DX   Delta X   Delta X   Delta X     New X
                                 (Linear)    (Quad)   (Total)
    R1        4.17599  -0.01025   0.00000  -0.01937  -0.01937   4.15661
    R2        4.17581  -0.01022   0.00000  -0.01922  -0.01922   4.15659
    A1        1.74369  -0.02146   0.00000  -0.29876  -0.29876   1.44493
         Item               Value     Threshold  Converged?
 Maximum Force            0.021462     0.000450     NO 
 RMS     Force            0.014946     0.000300     NO 
 Maximum Displacement     0.470550     0.001800     NO 
 RMS     Displacement     0.418668     0.001200     NO 
 Predicted change in Energy=-4.058390D-03
 GradGradGradGradGradGradGradGradGradGradGradGradGradGradGradGradGradGrad

                          Input orientation:                          
 ---------------------------------------------------------------------
 Center     Atomic     Atomic              Coordinates (Angstroms)
 Number     Number      Type              X           Y           Z
 ---------------------------------------------------------------------
    1         14             0       -0.944299   -1.450567    0.000000
    2         14             0        0.021307    1.293372    0.000000
    3         14             0        1.095018   -0.626333    0.000000
 ---------------------------------------------------------------------
                    Distance matrix (angstroms):
                    1          2          3
     1  Si   0.000000
     2  Si   2.908882   0.000000
     3  Si   2.199585   2.199573   0.000000
 Stoichiometry    Si3
 Framework group  CS[SG(Si3)]
 Deg. of freedom     3
 Full point group                 CS
 Largest Abelian subgroup         CS      NOp   2
 Largest concise Abelian subgroup C1      NOp   1
                         Standard orientation:                         
 ---------------------------------------------------------------------
 Center     Atomic     Atomic              Coordinates (Angstroms)
 Number     Number      Type              X           Y           Z
 ---------------------------------------------------------------------
    1         14             0        1.454441   -0.550034    0.000000
    2         14             0       -1.454441   -0.550017    0.000000
    3         14             0        0.000000    1.100050    0.000000
 ---------------------------------------------------------------------
 Rotational constants (GHZ):      9.9517809      4.2696761      2.9878008
 Standard basis: 6-311G(d) (5D, 7F)
 There are    57 symmetry adapted basis functions of A'  symmetry.
 There are    21 symmetry adapted basis functions of A"  symmetry.
 Integral buffers will be    131072 words long.
 Raffenetti 2 integral format.
 Two-electron integral symmetry is turned on.
    78 basis functions,   138 primitive gaussians,    81 cartesian basis functions
    21 alpha electrons       21 beta electrons
       nuclear repulsion energy       129.9636778320 Hartrees.
 NAtoms=    3 NActive=    3 NUniq=    3 SFac= 7.50D-01 NAtFMM=   80 NAOKFM=F Big=F
 One-electron integrals computed using PRISM.
 NBasis=    78 RedAO= T  NBF=    57    21
 NBsUse=    78 1.00D-06 NBFU=    57    21
 Initial guess read from the read-write file:
 Initial guess orbital symmetries:
       Occupied  (A') (A') (A') (A') (A') (A') (A') (A') (A") (A")
                 (A') (A') (A') (A") (A') (A') (A') (A') (A') (A')
                 (A")
       Virtual   (A") (A') (A') (A") (A') (A') (A') (A') (A") (A')
                 (A') (A") (A") (A') (A') (A') (A') (A') (A') (A")
                 (A") (A') (A") (A") (A') (A') (A') (A') (A") (A")
                 (A') (A') (A') (A') (A") (A") (A') (A') (A") (A')
                 (A') (A') (A') (A') (A') (A') (A") (A") (A') (A')
                 (A") (A') (A') (A') (A') (A') (A')
 Harris functional with IExCor=  402 diagonalized for initial guess.
 ExpMin= 6.54D-02 ExpMax= 6.94D+04 ExpMxC= 2.33D+03 IAcc=2 IRadAn=         4 AccDes= 0.00D+00
 HarFok:  IExCor= 402 AccDes= 0.00D+00 IRadAn=         4 IDoV=1
 ScaDFX=  1.000000  1.000000  1.000000  1.000000
 Requested convergence on RMS density matrix=1.00D-08 within 128 cycles.
 Requested convergence on MAX density matrix=1.00D-06.
 Requested convergence on             energy=1.00D-06.
 No special actions if energy rises.
 Keep R1 integrals in memory in canonical form, NReq=     7302138.
 Integral accuracy reduced to 1.0D-05 until final iterations.
 Initial convergence to 1.0D-05 achieved.  Increase integral accuracy.
 SCF Done:  E(RB+HF-LYP) =  -868.426392863     A.U. after   14 cycles
[...]
 Berny optimization.
 Initialization pass.
                           ----------------------------
                           !    Initial Parameters    !
                           ! (Angstroms and Degrees)  !
 --------------------------                            --------------------------
 ! Name  Definition              Value          Derivative Info.                !
 --------------------------------------------------------------------------------
 ! R1    R(1,3)                  2.1853         calculate D2E/DX2 analytically  !
 ! R2    R(2,3)                  2.1853         calculate D2E/DX2 analytically  !
 ! A1    A(1,3,2)               82.3059         calculate D2E/DX2 analytically  !
 --------------------------------------------------------------------------------
 Trust Radius=3.00D-01 FncErr=1.00D-07 GrdErr=1.00D-07
 Number of steps in this run=   2 maximum allowed number of steps=   2.
 GradGradGradGradGradGradGradGradGradGradGradGradGradGradGradGradGradGrad

                          Input orientation:                          
 ---------------------------------------------------------------------
 Center     Atomic     Atomic              Coordinates (Angstroms)
 Number     Number      Type              X           Y           Z
 ---------------------------------------------------------------------
    1         14             0       -0.937422   -1.435668    0.000000
    2         14             0        0.017335    1.277455    0.000000
    3         14             0        1.092113   -0.625316    0.000000
 ---------------------------------------------------------------------
                    Distance matrix (angstroms):
                    1          2          3
     1  Si   0.000000
     2  Si   2.876212   0.000000
     3  Si   2.185334   2.185334   0.000000
 Stoichiometry    Si3
 Framework group  C2V[C2(Si),SGV(Si2)]
 Deg. of freedom     2
 Full point group                 C2V
 Largest Abelian subgroup         C2V     NOp   4
 Largest concise Abelian subgroup C2      NOp   2
                         Standard orientation:                         
 ---------------------------------------------------------------------
 Center     Atomic     Atomic              Coordinates (Angstroms)
 Number     Number      Type              X           Y           Z
 ---------------------------------------------------------------------
    1         14             0        0.000000    1.438106   -0.548486
    2         14             0        0.000000   -1.438106   -0.548486
    3         14             0        0.000000    0.000000    1.096973
 ---------------------------------------------------------------------
 Rotational constants (GHZ):     10.0076969      4.3672219      3.0404230
 Standard basis: 6-311+G(d) (5D, 7F)
 There are    37 symmetry adapted basis functions of A1  symmetry.
 There are     9 symmetry adapted basis functions of A2  symmetry.
 There are    15 symmetry adapted basis functions of B1  symmetry.
 There are    29 symmetry adapted basis functions of B2  symmetry.
 Integral buffers will be    131072 words long.
 Raffenetti 2 integral format.
 Two-electron integral symmetry is turned on.
    90 basis functions,   150 primitive gaussians,    93 cartesian basis functions
    21 alpha electrons       21 beta electrons
       nuclear repulsion energy       130.9834101014 Hartrees.
 NAtoms=    3 NActive=    3 NUniq=    2 SFac= 1.69D+00 NAtFMM=   80 NAOKFM=F Big=F
 One-electron integrals computed using PRISM.
 NBasis=    90 RedAO= T  NBF=    37     9    15    29
 NBsUse=    90 1.00D-06 NBFU=    37     9    15    29
 Initial guess read from the checkpoint file:
 S9L-ne-d-01.chk
 Initial guess orbital symmetries:
       Occupied  (B2) (A1) (A1) (B2) (A1) (A1) (A1) (B2) (B1) (A2)
                 (A1) (B2) (A1) (B1) (B2) (A1) (B2) (A1) (A1) (B1)
                 (B2)
       Virtual   (A1) (A2) (B1) (B2) (A1) (B2) (A1) (B1) (A1) (B2)
                 (A1) (B2) (A2) (B1) (A1) (B2) (B2) (A1) (A1) (B2)
                 (B1) (A1) (B2) (A2) (B1) (A1) (B2) (A1) (A1) (B1)
                 (A2) (B2) (A1) (B1) (B2) (A1) (B2) (A2) (A1) (A2)
                 (B2) (B1) (A1) (A1) (B2) (B1) (A1) (A2) (B1) (B2)
                 (A1) (B2) (A1) (B2) (A1) (B2) (A1) (B1) (A1) (A2)
                 (B2) (B1) (A1) (B2) (A1) (B2) (A1) (B2) (A1)
 Requested convergence on RMS density matrix=1.00D-08 within 128 cycles.
 Requested convergence on MAX density matrix=1.00D-06.
 Requested convergence on             energy=1.00D-06.
 No special actions if energy rises.
 Keep R1 integrals in memory in canonical form, NReq=    11361803.
 SCF Done:  E(RB+HF-LYP) =  -868.428891982     A.U. after    1 cycles
             Convg  =    0.7466D-09             -V/T =  2.0017
             S**2   =   0.0000
 QCSCF skips out because SCF is already converged.
 Range of M.O.s used for correlation:     1    90
 NBasis=    90 NAE=    21 NBE=    21 NFC=     0 NFV=     0
 NROrb=     90 NOA=    21 NOB=    21 NVA=    69 NVB=    69

 **** Warning!!: The largest alpha MO coefficient is  0.18469046D+02


 **** Warning!!: The smallest alpha delta epsilon is  0.87568624D-01

 Symmetrizing basis deriv contribution to polar:
 IMax=3 JMax=2 DiffMx= 0.00D+00
 G2DrvN: will do    4 centers at a time, making    1 passes doing MaxLOS=2.
 FoFDir/FoFCou used for L=0 through L=2.
 DoAtom=TTT
          Differentiating once with respect to electric field.
                with respect to dipole field.
          Differentiating once with respect to nuclear coordinates.
          Store integrals in memory, NReq=    10376666.
          There are   9 degrees of freedom in the 1st order CPHF.
     9 vectors were produced by pass  0.
 AX will form   9 AO Fock derivatives at one time.
     9 vectors were produced by pass  1.
     9 vectors were produced by pass  2.
     9 vectors were produced by pass  3.
     9 vectors were produced by pass  4.
     9 vectors were produced by pass  5.
     9 vectors were produced by pass  6.
     3 vectors were produced by pass  7.
     2 vectors were produced by pass  8.
 Inv2:  IOpt= 1 Iter= 1 AM= 9.03D-16 Conv= 1.00D-12.
 Inverted reduced A of dimension   68 with in-core refinement.
 Isotropic polarizability for W=    0.000000      104.07 Bohr**3.
 End of Minotr Frequency-dependent properties file   721 does not exist.

 **********************************************************************

            Population analysis using the SCF density.

 **********************************************************************

 Orbital symmetries:
       Occupied  (B2) (A1) (A1) (B2) (A1) (A1) (A1) (B2) (B1) (A2)
                 (A1) (B2) (A1) (B1) (B2) (A1) (B2) (A1) (A1) (B1)
                 (B2)
       Virtual   (A1) (A2) (B1) (B2) (A1) (B2) (A1) (B1) (A1) (B2)
                 (A1) (B2) (A2) (B1) (A1) (B2) (B2) (A1) (A1) (B2)
                 (B1) (A1) (B2) (A2) (B1) (A1) (B2) (A1) (A1) (B1)
                 (A2) (B2) (A1) (B1) (B2) (A1) (B2) (A2) (A1) (A2)
                 (B2) (B1) (A1) (A1) (B2) (B1) (A1) (A2) (B1) (B2)
                 (A1) (B2) (A1) (B2) (A1) (B2) (A1) (B1) (A1) (A2)
                 (B2) (B1) (A1) (B2) (A1) (B2) (A1) (B2) (A1)
 The electronic state is 1-A1.
 Alpha  occ. eigenvalues --  -66.13426 -66.13426 -66.09493  -5.30219  -5.30217
 Alpha  occ. eigenvalues --   -5.26964  -3.66164  -3.66162  -3.66106  -3.66106
 Alpha  occ. eigenvalues --   -3.65617  -3.65614  -3.62842  -3.62794  -3.62470
 Alpha  occ. eigenvalues --   -0.57592  -0.43420  -0.35674  -0.24258  -0.23985
 Alpha  occ. eigenvalues --   -0.22674
 Alpha virt. eigenvalues --   -0.13917  -0.10891  -0.05792  -0.05610   0.00928
 Alpha virt. eigenvalues --    0.01551   0.01685   0.03514   0.04175   0.05100
 Alpha virt. eigenvalues --    0.05856   0.06424   0.06481   0.07381   0.07999
 Alpha virt. eigenvalues --    0.10014   0.11425   0.11872   0.22406   0.22844
 Alpha virt. eigenvalues --    0.27062   0.27582   0.27674   0.29227   0.30666
 Alpha virt. eigenvalues --    0.31053   0.33843   0.40726   0.42665   0.46102
 Alpha virt. eigenvalues --    0.46588   0.48697   0.50185   0.57066   0.58580
 Alpha virt. eigenvalues --    0.58714   0.59948   0.61265   0.67045   0.76014
 Alpha virt. eigenvalues --    0.76428   0.79350   0.80397   1.02494   1.07584
 Alpha virt. eigenvalues --    1.19308   1.20058   1.23096   1.25437   1.25464
 Alpha virt. eigenvalues --    1.25689   1.31897   1.34533   1.38479   5.21590
 Alpha virt. eigenvalues --    5.36594   5.52562  11.25578  11.27024  11.28000
 Alpha virt. eigenvalues --   11.29279  11.31150  11.31714  11.32675  11.35822
 Alpha virt. eigenvalues --   11.36403 140.62467 140.78845 140.97096
          Condensed to atoms (all electrons):
              1          2          3
     1  Si  13.606477   0.077478   0.280430
     2  Si   0.077478  13.606477   0.280430
     3  Si   0.280430   0.280430  13.510369
 Mulliken atomic charges:
              1
     1  Si   0.035615
     2  Si   0.035615
     3  Si  -0.071230
 Sum of Mulliken charges=   0.00000
 Atomic charges with hydrogens summed into heavy atoms:
              1
     1  Si   0.035615
     2  Si   0.035615
     3  Si  -0.071230
 Sum of Mulliken charges=   0.00000
 APT atomic charges:
              1
     1  Si   0.159440
     2  Si   0.159440
     3  Si  -0.318880
 Sum of APT charges=   0.00000
 APT Atomic charges with hydrogens summed into heavy atoms:
              1
     1  Si   0.159440
     2  Si   0.159440
     3  Si  -0.318880
 Sum of APT charges=   0.00000
 Electronic spatial extent (au):  <R**2>=   388.3320
 Charge=     0.0000 electrons
 Dipole moment (field-independent basis, Debye):
    X=     0.0000    Y=     0.0000    Z=     0.1177  Tot=     0.1177
 Quadrupole moment (field-independent basis, Debye-Ang):
   XX=   -40.1780   YY=   -42.7263   ZZ=   -39.8922
   XY=     0.0000   XZ=     0.0000   YZ=     0.0000
 Traceless Quadrupole moment (field-independent basis, Debye-Ang):
   XX=     0.7542   YY=    -1.7941   ZZ=     1.0399
   XY=     0.0000   XZ=     0.0000   YZ=     0.0000
 Octapole moment (field-independent basis, Debye-Ang**2):
  XXX=     0.0000  YYY=     0.0000  ZZZ=     2.3227  XYY=     0.0000
  XXY=     0.0000  XXZ=    -0.6582  XZZ=     0.0000  YZZ=     0.0000
  YYZ=     7.8050  XYZ=     0.0000
 Hexadecapole moment (field-independent basis, Debye-Ang**3):
 XXXX=   -80.1307 YYYY=  -440.2037 ZZZZ=  -219.0832 XXXY=     0.0000
 XXXZ=     0.0000 YYYX=     0.0000 YYYZ=     0.0000 ZZZX=     0.0000
 ZZZY=     0.0000 XXYY=   -82.2481 XXZZ=   -50.6247 YYZZ=  -120.1229
 XXYZ=     0.0000 YYXZ=     0.0000 ZZXY=     0.0000
 N-N= 1.309834101014D+02 E-N=-2.331510394401D+03  KE= 8.669558835281D+02
 Symmetry A1   KE= 5.022970557438D+02
 Symmetry A2   KE= 2.443491545337D+01
 Symmetry B1   KE= 5.065413291765D+01
 Symmetry B2   KE= 2.895697794132D+02
  Exact polarizability:  66.645   0.000 141.659   0.000   0.000 103.901
 Approx polarizability: 103.637   0.000 361.121   0.000   0.000 251.895
 Full mass-weighted force constant matrix:
 Low frequencies ---  -10.7644   -6.5396   -4.4686   -0.0045   -0.0040   -0.0036
 Low frequencies ---  165.5488  536.4733  537.0612
 Diagonal vibrational polarizability:
        0.0000000       4.0889099       6.0783185
 Harmonic frequencies (cm**-1), IR intensities (KM/Mole), Raman scattering
 activities (A**4/AMU), depolarization ratios for plane and unpolarized
 incident light, reduced masses (AMU), force constants (mDyne/A),
 and normal coordinates:
                     1                      2                      3
                    A1                     A1                     B2
 Frequencies --   165.5488               536.4733               537.0612
 Red. masses --    27.9769                27.9769                27.9769
 Frc consts  --     0.4518                 4.7440                 4.7544
 IR Inten    --     5.3480                 8.8442                43.8250
 Atom AN      X      Y      Z        X      Y      Z        X      Y      Z
   1  14     0.00   0.62   0.19     0.00  -0.33   0.36     0.00   0.34  -0.39
   2  14     0.00  -0.62   0.19     0.00   0.33   0.36     0.00   0.34   0.39
   3  14     0.00   0.00  -0.39     0.00   0.00  -0.72     0.00  -0.68   0.00

 -------------------
 - Thermochemistry -
 -------------------
 Temperature   298.150 Kelvin.  Pressure   1.00000 Atm.
 Atom  1 has atomic number 14 and mass  27.97693
 Atom  2 has atomic number 14 and mass  27.97693
 Atom  3 has atomic number 14 and mass  27.97693
 Molecular mass:    83.93079 amu.
 Principal axes and moments of inertia in atomic units:
                           1         2         3
     EIGENVALUES --   180.33532 413.24697 593.58228
           X            0.00000   0.00000   1.00000
           Y            1.00000   0.00000   0.00000
           Z            0.00000   1.00000   0.00000
 This molecule is an asymmetric top.
 Rotational symmetry number  2.
 Rotational temperatures (Kelvin)      0.48029     0.20959     0.14592
 Rotational constants (GHZ):          10.00770     4.36722     3.04042
 Zero-point vibrational energy       7411.4 (Joules/Mol)
                                    1.77136 (Kcal/Mol)
 Warning -- explicit consideration of   3 degrees of freedom as
           vibrations may cause significant error
 Vibrational temperatures:    238.19   771.86   772.71
          (Kelvin)
 
 Zero-point correction=                           0.002823 (Hartree/Particle)
 Thermal correction to Energy=                    0.006669
 Thermal correction to Enthalpy=                  0.007613
 Thermal correction to Gibbs Free Energy=        -0.024099
 Sum of electronic and zero-point Energies=           -868.426069
 Sum of electronic and thermal Energies=              -868.422223
 Sum of electronic and thermal Enthalpies=            -868.421279
 Sum of electronic and thermal Free Energies=         -868.452991
 
                     E (Thermal)             CV                S
                      KCal/Mol        Cal/Mol-Kelvin    Cal/Mol-Kelvin
 Total                    4.185             10.184             66.744
 Electronic               0.000              0.000              0.000
 Translational            0.889              2.981             39.196
 Rotational               0.889              2.981             23.918
 Vibrational              2.407              4.222              3.630
 Vibration  1             0.624              1.885              2.485
 Vibration  2             0.891              1.169              0.573
 Vibration  3             0.892              1.168              0.572
                       Q            Log10(Q)             Ln(Q)
 Total Bot       0.121576D+12         11.084846         25.523801
 Total V=0       0.241690D+13         12.383259         28.513508
 Vib (Bot)       0.106858D+00         -0.971193         -2.236255
 Vib (Bot)  1    0.121907D+01          0.086028          0.198086
 Vib (Bot)  2    0.296311D+00         -0.528252         -1.216346
 Vib (Bot)  3    0.295823D+00         -0.528968         -1.217995
 Vib (V=0)       0.212432D+01          0.327220          0.753452
 Vib (V=0)  1    0.181762D+01          0.259503          0.597529
 Vib (V=0)  2    0.108121D+01          0.033908          0.078077
 Vib (V=0)  3    0.108096D+01          0.033808          0.077847
 Electronic      0.100000D+01          0.000000          0.000000
 Translational   0.302230D+08          7.480337         17.224113
 Rotational      0.376445D+05          4.575702         10.535943
 ***** Axes restored to original set *****
 -------------------------------------------------------------------
 Center     Atomic                   Forces (Hartrees/Bohr)
 Number     Number              X              Y              Z
 -------------------------------------------------------------------
    1         14           0.000001131    0.000000498    0.000000000
    2         14           0.000000570   -0.000001097    0.000000000
    3         14          -0.000001700    0.000000598    0.000000000
 -------------------------------------------------------------------
 Cartesian Forces:  Max     0.000001700 RMS     0.000000837

 GradGradGradGradGradGradGradGradGradGradGradGradGradGradGradGradGradGrad
 Berny optimization.
 Internal  Forces:  Max     0.000001235 RMS     0.000001014
 Search for a local minimum.
 Step number   1 out of a maximum of   2
 All quantities printed in internal units (Hartrees-Bohrs-Radians)
 Second derivative matrix not updated -- analytic derivatives used.
 The second derivative matrix:
                          R1        R2        A1
           R1           0.15717
           R2          -0.00647   0.15717
           A1           0.02769   0.02769   0.17693
     Eigenvalues ---    0.12252   0.16364   0.20512
 Angle between quadratic step and forces=  13.66 degrees.
 Linear search not attempted -- first point.
 Iteration  1 RMS(Cart)=  0.00000476 RMS(Int)=  0.00000000
 Iteration  2 RMS(Cart)=  0.00000000 RMS(Int)=  0.00000000
 Variable       Old X    -DE/DX   Delta X   Delta X   Delta X     New X
                                 (Linear)    (Quad)   (Total)
    R1        4.12968   0.00000   0.00000  -0.00001  -0.00001   4.12967
    R2        4.12968   0.00000   0.00000  -0.00001  -0.00001   4.12967
    A1        1.43651   0.00000   0.00000   0.00000   0.00000   1.43651
         Item               Value     Threshold  Converged?
 Maximum Force            0.000001     0.000450     YES
 RMS     Force            0.000001     0.000300     YES
 Maximum Displacement     0.000005     0.001800     YES
 RMS     Displacement     0.000005     0.001200     YES
 Predicted change in Energy=-1.034450D-11
 Optimization completed.
    -- Stationary point found.
                           ----------------------------
                           !   Optimized Parameters   !
                           ! (Angstroms and Degrees)  !
 --------------------------                            --------------------------
 ! Name  Definition              Value          Derivative Info.                !
 --------------------------------------------------------------------------------
 ! R1    R(1,3)                  2.1853         -DE/DX =    0.0                 !
 ! R2    R(2,3)                  2.1853         -DE/DX =    0.0                 !
 ! A1    A(1,3,2)               82.3059         -DE/DX =    0.0                 !
 --------------------------------------------------------------------------------
 GradGradGradGradGradGradGradGradGradGradGradGradGradGradGradGradGradGrad

 1\1\GINC-NODE28\Freq\RB3LYP\6-311+G(d)\Si3\TAM\04-Apr-2011\0\\#N Geom=
 AllCheck Guess=Read SCRF=Check GenChk RB3LYP/6-311+G(d) Freq\\si3-n\\0
 ,1\Si,-0.9374222466,-1.4356677433,0.\Si,0.0173348481,1.2774552713,0.\S
 i,1.0921133996,-0.6253155284,0.\\Version=AM64L-G03RevE.01\State=1-A1\H
 F=-868.428892\RMSD=7.466e-10\RMSF=8.368e-07\ZeroPoint=0.0028228\Therma
 l=0.0066687\Dipole=0.0436822,-0.0153719,0.\DipoleDeriv=0.4038887,0.434
 3728,0.,0.4037941,0.0818795,0.,0.,0.,-0.0074477,-0.1316276,-0.2628664,
 0.,-0.2322877,0.6173958,0.,0.,0.,-0.0074477,-0.2722612,-0.1715064,0.,-
 0.1715064,-0.6992753,0.,0.,0.,0.0148954\Polar=108.0612117,11.8232244,1
 37.4985106,0.,0.,66.6454552\PG=C02V [C2(Si1),SGV(Si2)]\NImag=0\\0.1323
 5838,0.05543689,0.03515307,0.,0.,-0.00001812,-0.00622830,-0.00870353,0
 .,0.04010207,0.00623376,-0.00930290,0.,-0.05941234,0.12740938,0.,0.,0.
 00000302,0.,0.,-0.00001812,-0.12613008,-0.04673337,0.,-0.03387377,0.05
 317858,0.,0.16000384,-0.06167065,-0.02585016,0.,0.06811587,-0.11810648
 ,0.,-0.00644521,0.14395664,0.,0.,0.00001509,0.,0.,0.00001509,0.,0.,-0.
 00003019\\-0.00000113,-0.00000050,0.,-0.00000057,0.00000110,0.,0.00000
 170,-0.00000060,0.\\\@


 THE REASON MAN'S BEST FRIEND IS A DOG IS BECAUSE
 HE WAGS HIS TAIL INSTEAD OF HIS TONGUE.
 Job cpu time:  0 days  0 hours  1 minutes 10.4 seconds.
 File lengths (MBytes):  RWF=     17 Int=      0 D2E=      0 Chk=      8 Scr=      1
 Normal termination of Gaussian 03 at Mon Apr  4 16:01:06 2011.
