 Entering Gaussian System, Link 0=g03
 Initial command:
 /usr/local/chem/g03E01/l1.exe /temp0/tam/Gau-562.inp -scrdir=/temp0/tam/
 Entering Link 1 = /usr/local/chem/g03E01/l1.exe PID=       563.
  
 Copyright (c) 1988,1990,1992,1993,1995,1998,2003,2004,2007, Gaussian, Inc.
                  All Rights Reserved.
  
 This is the Gaussian(R) 03 program.  It is based on the
 the Gaussian(R) 98 system (copyright 1998, Gaussian, Inc.),
 the Gaussian(R) 94 system (copyright 1995, Gaussian, Inc.),
 the Gaussian 92(TM) system (copyright 1992, Gaussian, Inc.),
 the Gaussian 90(TM) system (copyright 1990, Gaussian, Inc.),
 the Gaussian 88(TM) system (copyright 1988, Gaussian, Inc.),
 the Gaussian 86(TM) system (copyright 1986, Carnegie Mellon
 University), and the Gaussian 82(TM) system (copyright 1983,
 Carnegie Mellon University). Gaussian is a federally registered
 trademark of Gaussian, Inc.
  
 This software contains proprietary and confidential information,
 including trade secrets, belonging to Gaussian, Inc.
  
 This software is provided under written license and may be
 used, copied, transmitted, or stored only in accord with that
 written license.
  
 The following legend is applicable only to US Government
 contracts under FAR:
  
                    RESTRICTED RIGHTS LEGEND
  
 Use, reproduction and disclosure by the US Government is
 subject to restrictions as set forth in subparagraphs (a)
 and (c) of the Commercial Computer Software - Restricted
 Rights clause in FAR 52.227-19.
  
 Gaussian, Inc.
 340 Quinnipiac St., Bldg. 40, Wallingford CT 06492
  
  
 ---------------------------------------------------------------
 Warning -- This program may not be used in any manner that
 competes with the business of Gaussian, Inc. or will provide
 assistance to any competitor of Gaussian, Inc.  The licensee
 of this program is prohibited from giving any competitor of
 Gaussian, Inc. access to this program.  By using this program,
 the user acknowledges that Gaussian, Inc. is engaged in the
 business of creating and licensing software in the field of
 computational chemistry and represents and warrants to the
 licensee that it is not a competitor of Gaussian, Inc. and that
 it will not use this program in any manner prohibited above.
 ---------------------------------------------------------------
  

 Cite this work as:
 Gaussian 03, Revision E.01,
 M. J. Frisch, G. W. Trucks, H. B. Schlegel, G. E. Scuseria, 
 M. A. Robb, J. R. Cheeseman, J. A. Montgomery, Jr., T. Vreven, 
 K. N. Kudin, J. C. Burant, J. M. Millam, S. S. Iyengar, J. Tomasi, 
 V. Barone, B. Mennucci, M. Cossi, G. Scalmani, N. Rega, 
 G. A. Petersson, H. Nakatsuji, M. Hada, M. Ehara, K. Toyota, 
 R. Fukuda, J. Hasegawa, M. Ishida, T. Nakajima, Y. Honda, O. Kitao, 
 H. Nakai, M. Klene, X. Li, J. E. Knox, H. P. Hratchian, J. B. Cross, 
 V. Bakken, C. Adamo, J. Jaramillo, R. Gomperts, R. E. Stratmann, 
 O. Yazyev, A. J. Austin, R. Cammi, C. Pomelli, J. W. Ochterski, 
 P. Y. Ayala, K. Morokuma, G. A. Voth, P. Salvador, J. J. Dannenberg, 
 V. G. Zakrzewski, S. Dapprich, A. D. Daniels, M. C. Strain, 
 O. Farkas, D. K. Malick, A. D. Rabuck, K. Raghavachari, 
 J. B. Foresman, J. V. Ortiz, Q. Cui, A. G. Baboul, S. Clifford, 
 J. Cioslowski, B. B. Stefanov, G. Liu, A. Liashenko, P. Piskorz, 
 I. Komaromi, R. L. Martin, D. J. Fox, T. Keith, M. A. Al-Laham, 
 C. Y. Peng, A. Nanayakkara, M. Challacombe, P. M. W. Gill, 
 B. Johnson, W. Chen, M. W. Wong, C. Gonzalez, and J. A. Pople, 
 Gaussian, Inc., Wallingford CT, 2004.
 
 ******************************************
 Gaussian 03:  AM64L-G03RevE.01 11-Sep-2007
                18-Nov-2011 
 ******************************************
 %NprocShared=8
 Will use up to    8 processors via shared memory.
 %mem=3750MB
 %chk=S9L-ne-d-01
 -----------------------------------------
 # b3lyp/6-311G(d) freq scfcyc=500 scf=xqc
 -----------------------------------------
 1/10=4,30=1,38=1/1,3;
 2/17=6,18=5,40=1/2;
 3/5=4,6=6,7=1,11=2,16=1,25=1,30=1,74=-5/1,2,3;
 4//1;
 5/5=2,7=500,8=3,13=1,38=5/2,8;
 8/6=4,10=90,11=11/1;
 11/6=1,8=1,9=11,15=111,16=1/1,2,10;
 10/6=1/2;
 6/7=2,8=2,9=2,10=2,18=1,28=1/1;
 7/8=1,10=1,25=1/1,2,3,16;
 1/10=4,30=1/3;
 99//99;
 -----
 si3-n
 -----
 Symbolic Z-matrix:
 Charge =  0 Multiplicity = 3
 Si                    0.        1.32508   0. 
 Si                    1.14755  -0.66254   0. 
 Si                   -1.14755  -0.66254   0. 
 

 GradGradGradGradGradGradGradGradGradGradGradGradGradGradGradGradGradGrad
 Berny optimization.
 Initialization pass.
 Trust Radius=3.00D-01 FncErr=1.00D-07 GrdErr=1.00D-07
 Number of steps in this run=   2 maximum allowed number of steps=   2.
 GradGradGradGradGradGradGradGradGradGradGradGradGradGradGradGradGradGrad

                          Input orientation:                          
 ---------------------------------------------------------------------
 Center     Atomic     Atomic              Coordinates (Angstroms)
 Number     Number      Type              X           Y           Z
 ---------------------------------------------------------------------
    1         14             0        0.000000    1.325075    0.000000
    2         14             0        1.147549   -0.662538    0.000000
    3         14             0       -1.147549   -0.662538    0.000000
 ---------------------------------------------------------------------
                    Distance matrix (angstroms):
                    1          2          3
     1  Si   0.000000
     2  Si   2.295097   0.000000
     3  Si   2.295097   2.295097   0.000000
 Stoichiometry    Si3(3)
 Framework group  D3H[3C2(Si)]
 Deg. of freedom     1
 Full point group                 D3H
 Largest Abelian subgroup         C2V     NOp   4
 Largest concise Abelian subgroup C2      NOp   2
                         Standard orientation:                         
 ---------------------------------------------------------------------
 Center     Atomic     Atomic              Coordinates (Angstroms)
 Number     Number      Type              X           Y           Z
 ---------------------------------------------------------------------
    1         14             0        0.000000    1.325075    0.000000
    2         14             0       -1.147549   -0.662537    0.000000
    3         14             0        1.147549   -0.662538    0.000000
 ---------------------------------------------------------------------
 Rotational constants (GHZ):      6.8587502      6.8587502      3.4293751
 Standard basis: 6-311G(d) (5D, 7F)
 There are    32 symmetry adapted basis functions of A1  symmetry.
 There are     8 symmetry adapted basis functions of A2  symmetry.
 There are    25 symmetry adapted basis functions of B1  symmetry.
 There are    13 symmetry adapted basis functions of B2  symmetry.
 Integral buffers will be    131072 words long.
 Raffenetti 2 integral format.
 Two-electron integral symmetry is turned on.
    78 basis functions,   138 primitive gaussians,    81 cartesian basis functions
    22 alpha electrons       20 beta electrons
       nuclear repulsion energy       135.5742995322 Hartrees.
 NAtoms=    3 NActive=    3 NUniq=    1 SFac= 3.00D+00 NAtFMM=   80 NAOKFM=F Big=F
 One-electron integrals computed using PRISM.
 NBasis=    78 RedAO= T  NBF=    32     8    25    13
 NBsUse=    78 1.00D-06 NBFU=    32     8    25    13
 Harris functional with IExCor=  402 diagonalized for initial guess.
 ExpMin= 6.54D-02 ExpMax= 6.94D+04 ExpMxC= 2.33D+03 IAcc=2 IRadAn=         4 AccDes= 0.00D+00
 HarFok:  IExCor= 402 AccDes= 0.00D+00 IRadAn=         4 IDoV=1
 ScaDFX=  1.000000  1.000000  1.000000  1.000000
 Initial guess orbital symmetries:
 Alpha Orbitals:
       Occupied  (E') (E') (A1') (E') (E') (A1') (A1') (E') (E')
                 (E') (E') (A2') (A2") (E") (E") (A1') (E') (E')
                 (A2") (A1') (E') (E')
       Virtual   (E") (E") (A2') (E') (E') (A1') (A2") (E') (E')
                 (E') (E') (E") (E") (A1') (A2') (A1') (A2") (E')
                 (E') (E") (E") (E') (E') (A1') (E') (E') (A1")
                 (E") (E") (E') (E') (A2') (A2") (E') (E') (E")
                 (E") (E') (E') (A2') (A1') (A1') (E') (E') (A2")
                 (E') (E') (E") (E") (E') (E') (A2') (A1') (A1')
                 (E') (E')
 Beta  Orbitals:
       Occupied  (E') (E') (A1') (E') (E') (A1') (A1') (E') (E')
                 (E') (E') (A2') (A2") (E") (E") (A1') (E') (E')
                 (A2") (A1')
       Virtual   (E') (E') (E") (E") (A2') (E') (E') (A1') (A2")
                 (E') (E') (E') (E') (E") (E") (A1') (A2') (A1')
                 (A2") (E') (E') (E") (E") (E') (E') (A1') (E')
                 (E') (A1") (E") (E") (E') (E') (A2') (A2") (E')
                 (E') (E") (E") (E') (E') (A2') (A1') (A1') (E')
                 (E') (A2") (E') (E') (E") (E") (E') (E') (A2')
                 (A1') (A1') (E') (E')
 The electronic state of the initial guess is 3-A1'.
 <S**2> of initial guess= 2.0000
 Requested convergence on RMS density matrix=1.00D-08 within 128 cycles.
 Requested convergence on MAX density matrix=1.00D-06.
 Requested convergence on             energy=1.00D-06.
 No special actions if energy rises.
 Keep R1 and R2 integrals in memory in canonical form, NReq=    12818708.
 Integral accuracy reduced to 1.0D-05 until final iterations.
 Initial convergence to 1.0D-05 achieved.  Increase integral accuracy.
 SCF Done:  E(UB+HF-LYP) =  -868.426485469     A.U. after   13 cycles
             Convg  =    0.2763D-09             -V/T =  2.0016
             S**2   =   2.0033
 Annihilation of the first spin contaminant:
 S**2 before annihilation     2.0033,   after     2.0000
 QCSCF skips out because SCF is already converged.
 Range of M.O.s used for correlation:     1    78
 NBasis=    78 NAE=    22 NBE=    20 NFC=     0 NFV=     0
 NROrb=     78 NOA=    22 NOB=    20 NVA=    56 NVB=    58

 **** Warning!!: The smallest beta delta epsilon is  0.78178731D-01

 Symmetrizing basis deriv contribution to polar:
 IMax=3 JMax=2 DiffMx= 0.00D+00
 G2DrvN: will do    4 centers at a time, making    1 passes doing MaxLOS=2.
 FoFDir/FoFCou used for L=0 through L=2.
 DoAtom=TTT
          Differentiating once with respect to electric field.
                with respect to dipole field.
          Differentiating once with respect to nuclear coordinates.
          Store integrals in memory, NReq=    11854212.
          There are   6 degrees of freedom in the 1st order CPHF.
     6 vectors were produced by pass  0.
 AX will form   6 AO Fock derivatives at one time.
     6 vectors were produced by pass  1.
     6 vectors were produced by pass  2.
     6 vectors were produced by pass  3.
     6 vectors were produced by pass  4.
     6 vectors were produced by pass  5.
     6 vectors were produced by pass  6.
     6 vectors were produced by pass  7.
     6 vectors were produced by pass  8.
     3 vectors were produced by pass  9.
     2 vectors were produced by pass 10.
     2 vectors were produced by pass 11.
 Inv2:  IOpt= 1 Iter= 1 AM= 1.20D-15 Conv= 1.00D-12.
 Inverted reduced A of dimension   61 with in-core refinement.
 Isotropic polarizability for W=    0.000000       90.43 Bohr**3.
 End of Minotr Frequency-dependent properties file   721 does not exist.

 **********************************************************************

            Population analysis using the SCF density.

 **********************************************************************

 Orbital symmetries:
 Alpha Orbitals:
       Occupied  (E') (E') (A1') (A1') (E') (E') (E') (E') (A2')
                 (A2") (E") (E") (A1') (E') (E') (A1') (E') (E')
                 (A1') (A2") (E') (E')
       Virtual   (E") (E") (A2') (E') (E') (A1') (A2") (E') (E')
                 (E") (E") (E') (E') (A1') (A2') (A1') (E') (E')
                 (A2") (E") (E") (E') (E') (A1') (E') (E') (A1")
                 (E") (E") (E') (E') (A2') (A2") (E') (E') (E")
                 (E") (E') (E') (A2') (A1') (A1') (E') (E') (A2")
                 (E') (E') (E") (E") (E') (E') (A2') (A1') (A1')
                 (E') (E')
 Beta  Orbitals:
       Occupied  (E') (E') (A1') (A1') (E') (E') (A2") (E") (E")
                 (E') (E') (A1') (A2') (E') (E') (A1') (E') (E')
                 (A2") (A1')
       Virtual   (E') (E') (E") (E") (E') (E') (A2') (A1') (A2")
                 (E') (E') (E") (E") (E') (E') (A1') (A2') (E')
                 (E') (A2") (A1') (E") (E") (E') (E') (A1') (A1")
                 (E') (E') (E") (E") (E') (E') (A2') (A2") (E')
                 (E') (E") (E") (E') (E') (A2') (A1') (A1') (E')
                 (E') (A2") (E") (E") (E') (E') (E') (E') (A2')
                 (A1') (A1') (E') (E')
 The electronic state is 3-A1'.
 Alpha  occ. eigenvalues --  -66.12265 -66.12265 -66.12264  -5.29287  -5.29280
 Alpha  occ. eigenvalues --   -5.29280  -3.65304  -3.65304  -3.65266  -3.65112
 Alpha  occ. eigenvalues --   -3.65101  -3.65101  -3.64957  -3.64865  -3.64865
 Alpha  occ. eigenvalues --   -0.60641  -0.41300  -0.41300  -0.25557  -0.25327
 Alpha  occ. eigenvalues --   -0.22735  -0.22735
 Alpha virt. eigenvalues --   -0.08558  -0.08558  -0.00713   0.00749   0.00749
 Alpha virt. eigenvalues --    0.09776   0.13758   0.13976   0.13976   0.19327
 Alpha virt. eigenvalues --    0.19327   0.19591   0.19591   0.22131   0.24244
 Alpha virt. eigenvalues --    0.41477   0.41555   0.41555   0.43212   0.49429
 Alpha virt. eigenvalues --    0.49429   0.52427   0.52427   0.60466   0.66677
 Alpha virt. eigenvalues --    0.66677   0.66846   0.73920   0.73920   0.93088
 Alpha virt. eigenvalues --    0.93088   0.94087   1.09657   1.13135   1.13135
 Alpha virt. eigenvalues --    1.14824   1.14824   1.24919   1.24919   1.25866
 Alpha virt. eigenvalues --    1.31200   5.02473   5.36378   5.36378  11.18969
 Alpha virt. eigenvalues --   11.20939  11.20939  11.21238  11.21238  11.24293
 Alpha virt. eigenvalues --   11.24293  11.24571  11.35529 140.40373 140.78073
 Alpha virt. eigenvalues --  140.78073
  Beta  occ. eigenvalues --  -66.11974 -66.11974 -66.11974  -5.28987  -5.28983
  Beta  occ. eigenvalues --   -5.28983  -3.64942  -3.64932  -3.64932  -3.64591
  Beta  occ. eigenvalues --   -3.64591  -3.64562  -3.64550  -3.64467  -3.64467
  Beta  occ. eigenvalues --   -0.58336  -0.37540  -0.37540  -0.24564  -0.22722
  Beta virt. eigenvalues --   -0.14904  -0.14904  -0.07599  -0.07599   0.01983
  Beta virt. eigenvalues --    0.01983   0.02671   0.10166   0.13921   0.15159
  Beta virt. eigenvalues --    0.15159   0.19609   0.19609   0.21464   0.21464
  Beta virt. eigenvalues --    0.23701   0.25847   0.42475   0.42475   0.44819
  Beta virt. eigenvalues --    0.45258   0.51789   0.51789   0.54768   0.54768
  Beta virt. eigenvalues --    0.61319   0.69105   0.69925   0.69925   0.75154
  Beta virt. eigenvalues --    0.75154   0.94298   0.94298   0.96953   1.10040
  Beta virt. eigenvalues --    1.15038   1.15038   1.15326   1.15326   1.26430
  Beta virt. eigenvalues --    1.26430   1.27772   1.32155   5.03114   5.37071
  Beta virt. eigenvalues --    5.37071  11.19200  11.21477  11.21477  11.21704
  Beta virt. eigenvalues --   11.21704  11.25030  11.25030  11.25531  11.36083
  Beta virt. eigenvalues --  140.40657 140.78358 140.78358
          Condensed to atoms (all electrons):
              1          2          3
     1  Si  13.590335   0.204833   0.204833
     2  Si   0.204833  13.590335   0.204833
     3  Si   0.204833   0.204833  13.590335
 Mulliken atomic charges:
              1
     1  Si   0.000000
     2  Si   0.000000
     3  Si   0.000000
 Sum of Mulliken charges=   0.00000
 Atomic charges with hydrogens summed into heavy atoms:
              1
     1  Si   0.000000
     2  Si   0.000000
     3  Si   0.000000
 Sum of Mulliken charges=   0.00000
          Atomic-Atomic Spin Densities.
              1          2          3
     1  Si   0.609270   0.028698   0.028698
     2  Si   0.028698   0.609270   0.028698
     3  Si   0.028698   0.028698   0.609270
 Mulliken atomic spin densities:
              1
     1  Si   0.666667
     2  Si   0.666667
     3  Si   0.666667
 Sum of Mulliken spin densities=   2.00000
 APT atomic charges:
              1
     1  Si  -0.000067
     2  Si  -0.000017
     3  Si  -0.000017
 Sum of APT charges=  -0.00010
 APT Atomic charges with hydrogens summed into heavy atoms:
              1
     1  Si  -0.000067
     2  Si  -0.000017
     3  Si  -0.000017
 Sum of APT charges=  -0.00010
 Electronic spatial extent (au):  <R**2>=   353.7661
 Charge=     0.0000 electrons
 Dipole moment (field-independent basis, Debye):
    X=     0.0000    Y=     0.0000    Z=     0.0000  Tot=     0.0000
 Quadrupole moment (field-independent basis, Debye-Ang):
   XX=   -41.1430   YY=   -41.1430   ZZ=   -39.3311
   XY=     0.0000   XZ=     0.0000   YZ=     0.0000
 Traceless Quadrupole moment (field-independent basis, Debye-Ang):
   XX=    -0.6039   YY=    -0.6039   ZZ=     1.2079
   XY=     0.0000   XZ=     0.0000   YZ=     0.0000
 Octapole moment (field-independent basis, Debye-Ang**2):
  XXX=     0.0000  YYY=    -4.2502  ZZZ=     0.0000  XYY=     0.0000
  XXY=     4.2502  XXZ=     0.0000  XZZ=     0.0000  YZZ=     0.0000
  YYZ=     0.0000  XYZ=     0.0000
 Hexadecapole moment (field-independent basis, Debye-Ang**3):
 XXXX=  -300.7806 YYYY=  -300.7806 ZZZZ=   -74.6789 XXXY=     0.0000
 XXXZ=     0.0000 YYYX=     0.0000 YYYZ=     0.0000 ZZZX=     0.0000
 ZZZY=     0.0000 XXYY=  -100.2602 XXZZ=   -59.5498 YYZZ=   -59.5498
 XXYZ=     0.0000 YYXZ=     0.0000 ZZXY=     0.0000
 N-N= 1.355742995322D+02 E-N=-2.340674234080D+03  KE= 8.670082757518D+02
 Symmetry A1   KE= 5.038198765568D+02
 Symmetry A2   KE= 2.443020944068D+01
 Symmetry B1   KE= 2.880961233885D+02
 Symmetry B2   KE= 5.066206636578D+01
  Exact polarizability: 112.839   0.000 112.845   0.000   0.000  45.592
 Approx polarizability: 262.775   0.000 262.775   0.000   0.000  78.290
                          Isotropic Fermi Contact Couplings
        Atom                 a.u.       MegaHertz       Gauss      10(-4) cm-1
     1  Si(29)             0.16422     -72.97202     -26.03823     -24.34085
     2  Si(29)             0.16422     -72.97202     -26.03823     -24.34085
     3  Si(29)             0.16422     -72.97202     -26.03823     -24.34085
 --------------------------------------------------------
       Center         ----  Spin Dipole Couplings  ----
                      3XX-RR        3YY-RR        3ZZ-RR
 --------------------------------------------------------
     1   Atom        0.864622     -0.087615     -0.777007
     2   Atom        0.150444      0.626563     -0.777007
     3   Atom        0.150444      0.626563     -0.777007
 --------------------------------------------------------
                        XY            XZ            YZ
 --------------------------------------------------------
     1   Atom        0.000000      0.000000      0.000000
     2   Atom       -0.412331      0.000000      0.000000
     3   Atom        0.412331      0.000000      0.000000
 --------------------------------------------------------


 ---------------------------------------------------------------------------------
              Anisotropic Spin Dipole Couplings in Principal Axis System
 ---------------------------------------------------------------------------------

       Atom             a.u.   MegaHertz   Gauss  10(-4) cm-1        Axes

              Baa    -0.7770    82.428    29.412    27.495  0.0000  0.0000  1.0000
     1 Si(29) Bbb    -0.0876     9.295     3.317     3.100  0.0000  1.0000  0.0000
              Bcc     0.8646   -91.723   -32.729   -30.595  1.0000  0.0000  0.0000
 
              Baa    -0.7770    82.428    29.412    27.495  0.0000  0.0000  1.0000
     2 Si(29) Bbb    -0.0876     9.295     3.317     3.100  0.8660  0.5000  0.0000
              Bcc     0.8646   -91.723   -32.729   -30.595 -0.5000  0.8660  0.0000
 
              Baa    -0.7770    82.428    29.412    27.495  0.0000  0.0000  1.0000
     3 Si(29) Bbb    -0.0876     9.295     3.317     3.100  0.8660 -0.5000  0.0000
              Bcc     0.8646   -91.723   -32.729   -30.595  0.5000  0.8660  0.0000
 

 ---------------------------------------------------------------------------------

 Full mass-weighted force constant matrix:
 Low frequencies ---   -0.0254   -0.0251   -0.0048    9.7438    9.7438   13.3448
 Low frequencies ---  303.4675  303.4675  487.6351
 Diagonal vibrational polarizability:
        0.0233051       0.0231714       0.0000000
 Harmonic frequencies (cm**-1), IR intensities (KM/Mole), Raman scattering
 activities (A**4/AMU), depolarization ratios for plane and unpolarized
 incident light, reduced masses (AMU), force constants (mDyne/A),
 and normal coordinates:
                     1                      2                      3
                    E'                     E'                     A1'
 Frequencies --   303.4675               303.4675               487.6351
 Red. masses --    27.9769                27.9769                27.9769
 Frc consts  --     1.5180                 1.5180                 3.9196
 IR Inten    --     0.0793                 0.0797                 0.0000
 Atom AN      X      Y      Z        X      Y      Z        X      Y      Z
   1  14     0.14   0.56   0.00     0.56  -0.14   0.00     0.00   0.58   0.00
   2  14     0.41  -0.40   0.00    -0.40  -0.41   0.00    -0.50  -0.29   0.00
   3  14    -0.56  -0.16   0.00    -0.16   0.56   0.00     0.50  -0.29   0.00

 -------------------
 - Thermochemistry -
 -------------------
 Temperature   298.150 Kelvin.  Pressure   1.00000 Atm.
 Atom  1 has atomic number 14 and mass  27.97693
 Atom  2 has atomic number 14 and mass  27.97693
 Atom  3 has atomic number 14 and mass  27.97693
 Molecular mass:    83.93079 amu.
 Principal axes and moments of inertia in atomic units:
                           1         2         3
     EIGENVALUES --   263.12975 263.12975 526.25950
           X           -0.47186   0.88167   0.00000
           Y            0.88167   0.47186   0.00000
           Z            0.00000   0.00000   1.00000
 This molecule is an oblate symmetric top.
 Rotational symmetry number  6.
 Rotational temperatures (Kelvin)      0.32917     0.32917     0.16458
 Rotational constants (GHZ):           6.85875     6.85875     3.42938
 Zero-point vibrational energy       6547.0 (Joules/Mol)
                                    1.56477 (Kcal/Mol)
 Warning -- explicit consideration of   3 degrees of freedom as
           vibrations may cause significant error
 Vibrational temperatures:    436.62   436.62   701.60
          (Kelvin)
 
 Zero-point correction=                           0.002494 (Hartree/Particle)
 Thermal correction to Energy=                    0.006391
 Thermal correction to Enthalpy=                  0.007335
 Thermal correction to Gibbs Free Energy=        -0.024216
 Sum of electronic and zero-point Energies=           -868.423992
 Sum of electronic and thermal Energies=              -868.420094
 Sum of electronic and thermal Enthalpies=            -868.419150
 Sum of electronic and thermal Free Energies=         -868.450702
 
                     E (Thermal)             CV                S
                      KCal/Mol        Cal/Mol-Kelvin    Cal/Mol-Kelvin
 Total                    4.011             10.573             66.406
 Electronic               0.000              0.000              2.183
 Translational            0.889              2.981             39.196
 Rotational               0.889              2.981             21.542
 Vibrational              2.233              4.612              3.485
 Vibration  1             0.695              1.667              1.398
 Vibration  2             0.695              1.667              1.398
 Vibration  3             0.844              1.277              0.690
                       Q            Log10(Q)             Ln(Q)
 Total Bot       0.137629D+12         11.138709         25.647826
 Total V=0       0.193059D+13         12.285690         28.288846
 Vib (Bot)       0.133286D+00         -0.875214         -2.015255
 Vib (Bot)  1    0.625451D+00         -0.203807         -0.469283
 Vib (Bot)  2    0.625451D+00         -0.203807         -0.469283
 Vib (Bot)  3    0.340722D+00         -0.467600         -1.076689
 Vib (V=0)       0.186968D+01          0.271766          0.625765
 Vib (V=0)  1    0.130074D+01          0.114191          0.262935
 Vib (V=0)  2    0.130074D+01          0.114191          0.262935
 Vib (V=0)  3    0.110505D+01          0.043384          0.099895
 Electronic      0.300000D+01          0.477121          1.098612
 Translational   0.302230D+08          7.480337         17.224113
 Rotational      0.113885D+05          4.056465          9.340356
 ***** Axes restored to original set *****
 -------------------------------------------------------------------
 Center     Atomic                   Forces (Hartrees/Bohr)
 Number     Number              X              Y              Z
 -------------------------------------------------------------------
    1         14           0.000000000   -0.000090940    0.000000000
    2         14          -0.000078756    0.000045470    0.000000000
    3         14           0.000078756    0.000045470    0.000000000
 -------------------------------------------------------------------
 Cartesian Forces:  Max     0.000090940 RMS     0.000052504
 ------------------------------------------------------------------------
           Internal Coordinate Forces (Hartree/Bohr or radian)
 Cent Atom N1     Length/X     N2     Alpha/Y      N3      Beta/Z       J
 ------------------------------------------------------------------------
   1  Si        0.000000(   1)     -0.000091(   4)      0.000000(   7)
   2  Si       -0.000079(   2)      0.000045(   5)      0.000000(   8)
   3  Si        0.000079(   3)      0.000045(   6)      0.000000(   9)
 ------------------------------------------------------------------------
 Internal  Forces:  Max     0.000090940 RMS     0.000052504

 GradGradGradGradGradGradGradGradGradGradGradGradGradGradGradGradGradGrad
 Berny optimization.
 Search for a local minimum.
 Step number   1 out of a maximum of   2
 All quantities printed in internal units (Hartrees-Bohrs-Radians)
 Second derivative matrix not updated -- analytic derivatives used.
 The second derivative matrix:
                          X1        Y1        Z1        X2        Y2
           X1           0.03257
           Y1           0.00000   0.11641
           Z1           0.00000   0.00000   0.00007
           X2          -0.01628   0.04453   0.00000   0.09545
           Y2           0.02809  -0.05821   0.00000  -0.03631   0.05353
           Z2           0.00000   0.00000  -0.00003   0.00000   0.00000
           X3          -0.01628  -0.04453   0.00000  -0.07918   0.00822
           Y3          -0.02809  -0.05821   0.00000  -0.00822   0.00468
           Z3           0.00000   0.00000  -0.00003   0.00000   0.00000
                          Z2        X3        Y3        Z3
           Z2           0.00007
           X3           0.00000   0.09545
           Y3           0.00000   0.03631   0.05353
           Z3          -0.00003   0.00000   0.00000   0.00007
     Eigenvalues ---    0.09750   0.09750   0.25176
 Angle between quadratic step and forces=   0.00 degrees.
 Linear search not attempted -- first point.
 TrRot=  0.000000  0.000000  0.000000  0.000000  0.000000  0.000000
 Variable       Old X    -DE/DX   Delta X   Delta X   Delta X     New X
                                 (Linear)    (Quad)   (Total)
    X1        0.00000   0.00000   0.00000   0.00000   0.00000   0.00000
    Y1        2.50403  -0.00009   0.00000  -0.00036  -0.00036   2.50367
    Z1        0.00000   0.00000   0.00000   0.00000   0.00000   0.00000
    X2        2.16855  -0.00008   0.00000  -0.00031  -0.00031   2.16824
    Y2       -1.25201   0.00005   0.00000   0.00018   0.00018  -1.25183
    Z2        0.00000   0.00000   0.00000   0.00000   0.00000   0.00000
    X3       -2.16855   0.00008   0.00000   0.00031   0.00031  -2.16824
    Y3       -1.25201   0.00005   0.00000   0.00018   0.00018  -1.25183
    Z3        0.00000   0.00000   0.00000   0.00000   0.00000   0.00000
         Item               Value     Threshold  Converged?
 Maximum Force            0.000091     0.000450     YES
 RMS     Force            0.000053     0.000300     YES
 Maximum Displacement     0.000361     0.001800     YES
 RMS     Displacement     0.000209     0.001200     YES
 Predicted change in Energy=-4.927432D-08
 Optimization completed.
    -- Stationary point found.
 GradGradGradGradGradGradGradGradGradGradGradGradGradGradGradGradGradGrad

 1\1\GINC-NODE193\Freq\UB3LYP\6-311G(d)\Si3(3)\TAM\18-Nov-2011\0\\# b3l
 yp/6-311G(d) freq scfcyc=500 scf=xqc\\si3-n\\0,3\Si,-0.000000001,1.325
 075,0.\Si,1.1475486124,-0.6625374992,0.\Si,-1.1475486114,-0.6625375008
 ,0.\\Version=AM64L-G03RevE.01\State=3-A1'\HF=-868.4264855\S2=2.003339\
 S2-1=0.\S2A=2.000006\RMSD=2.763e-10\RMSF=5.250e-05\ZeroPoint=0.0024936
 \Thermal=0.0063913\Dipole=0.,0.,0.\DipoleDeriv=-0.0276729,0.,0.,0.,0.0
 274794,0.,0.,0.,-0.0000061,0.0137639,-0.0238633,0.,-0.0239169,-0.01381
 23,0.,0.,0.,-0.0000015,0.0137639,0.0238633,0.,0.0239169,-0.0138123,0.,
 0.,0.,-0.0000015\Polar=112.8388682,0.,112.8450202,0.,0.,45.5921661\PG=
 D03H [3C2(Si1)]\NImag=0\\0.03256903,0.,0.11641447,0.,0.,0.00006701,-0.
 01628051,0.04453170,0.,0.09545311,0.02809444,-0.05821124,0.,-0.0363061
 4,0.05353039,0.,0.,-0.00003351,0.,0.,0.00006701,-0.01628051,-0.0445317
 0,0.,-0.07917660,0.00821863,0.,0.09545311,-0.02809444,-0.05821124,0.,-
 0.00821863,0.00468485,0.,0.03630614,0.05353039,0.,0.,-0.00003351,0.,0.
 ,-0.00003351,0.,0.,0.00006701\\0.,0.00009094,0.,0.00007876,-0.00004547
 ,0.,-0.00007876,-0.00004547,0.\\\@


 IF I HAVE SEEN FARTHER, IT IS BY STANDING ON THE
 SHOULDERS OF GIANTS. -- SIR ISAAC NEWTON
 Job cpu time:  0 days  0 hours  2 minutes  1.3 seconds.
 File lengths (MBytes):  RWF=     17 Int=      0 D2E=      0 Chk=      6 Scr=      1
 Normal termination of Gaussian 03 at Fri Nov 18 16:01:21 2011.
 Initial command:
 /usr/local/chem/g03E01/l1.exe /temp0/tam/Gau-562.inp -scrdir=/temp0/tam/
 Entering Link 1 = /usr/local/chem/g03E01/l1.exe PID=       723.
  
 Copyright (c) 1988,1990,1992,1993,1995,1998,2003,2004,2007, Gaussian, Inc.
                  All Rights Reserved.
  
 This is the Gaussian(R) 03 program.  It is based on the
 the Gaussian(R) 98 system (copyright 1998, Gaussian, Inc.),
 the Gaussian(R) 94 system (copyright 1995, Gaussian, Inc.),
 the Gaussian 92(TM) system (copyright 1992, Gaussian, Inc.),
 the Gaussian 90(TM) system (copyright 1990, Gaussian, Inc.),
 the Gaussian 88(TM) system (copyright 1988, Gaussian, Inc.),
 the Gaussian 86(TM) system (copyright 1986, Carnegie Mellon
 University), and the Gaussian 82(TM) system (copyright 1983,
 Carnegie Mellon University). Gaussian is a federally registered
 trademark of Gaussian, Inc.
  
 This software contains proprietary and confidential information,
 including trade secrets, belonging to Gaussian, Inc.
  
 This software is provided under written license and may be
 used, copied, transmitted, or stored only in accord with that
 written license.
  
 The following legend is applicable only to US Government
 contracts under FAR:
  
                    RESTRICTED RIGHTS LEGEND
  
 Use, reproduction and disclosure by the US Government is
 subject to restrictions as set forth in subparagraphs (a)
 and (c) of the Commercial Computer Software - Restricted
 Rights clause in FAR 52.227-19.
  
 Gaussian, Inc.
 340 Quinnipiac St., Bldg. 40, Wallingford CT 06492
  
  
 ---------------------------------------------------------------
 Warning -- This program may not be used in any manner that
 competes with the business of Gaussian, Inc. or will provide
 assistance to any competitor of Gaussian, Inc.  The licensee
 of this program is prohibited from giving any competitor of
 Gaussian, Inc. access to this program.  By using this program,
 the user acknowledges that Gaussian, Inc. is engaged in the
 business of creating and licensing software in the field of
 computational chemistry and represents and warrants to the
 licensee that it is not a competitor of Gaussian, Inc. and that
 it will not use this program in any manner prohibited above.
 ---------------------------------------------------------------
  

 Cite this work as:
 Gaussian 03, Revision E.01,
 M. J. Frisch, G. W. Trucks, H. B. Schlegel, G. E. Scuseria, 
 M. A. Robb, J. R. Cheeseman, J. A. Montgomery, Jr., T. Vreven, 
 K. N. Kudin, J. C. Burant, J. M. Millam, S. S. Iyengar, J. Tomasi, 
 V. Barone, B. Mennucci, M. Cossi, G. Scalmani, N. Rega, 
 G. A. Petersson, H. Nakatsuji, M. Hada, M. Ehara, K. Toyota, 
 R. Fukuda, J. Hasegawa, M. Ishida, T. Nakajima, Y. Honda, O. Kitao, 
 H. Nakai, M. Klene, X. Li, J. E. Knox, H. P. Hratchian, J. B. Cross, 
 V. Bakken, C. Adamo, J. Jaramillo, R. Gomperts, R. E. Stratmann, 
 O. Yazyev, A. J. Austin, R. Cammi, C. Pomelli, J. W. Ochterski, 
 P. Y. Ayala, K. Morokuma, G. A. Voth, P. Salvador, J. J. Dannenberg, 
 V. G. Zakrzewski, S. Dapprich, A. D. Daniels, M. C. Strain, 
 O. Farkas, D. K. Malick, A. D. Rabuck, K. Raghavachari, 
 J. B. Foresman, J. V. Ortiz, Q. Cui, A. G. Baboul, S. Clifford, 
 J. Cioslowski, B. B. Stefanov, G. Liu, A. Liashenko, P. Piskorz, 
 I. Komaromi, R. L. Martin, D. J. Fox, T. Keith, M. A. Al-Laham, 
 C. Y. Peng, A. Nanayakkara, M. Challacombe, P. M. W. Gill, 
 B. Johnson, W. Chen, M. W. Wong, C. Gonzalez, and J. A. Pople, 
 Gaussian, Inc., Wallingford CT, 2004.
 
 ******************************************
 Gaussian 03:  AM64L-G03RevE.01 11-Sep-2007
                18-Nov-2011 
 ******************************************
 %NprocShared=8
 Will use up to    8 processors via shared memory.
 %mem=3750MB
 %chk=S9L-ne-d-01
 ----------------------------------------------------------------------
 # b3lyp/6-311+G(d) opt=(readfc,noeigentest,maxcycle=500) freq scfcyc=5
 00 optcyc=500 scf=xqc geom=allcheck guess=read
 ----------------------------------------------------------------------
 1/6=500,10=3,11=1,14=-1,18=20,26=3,29=7,38=1/1,3;
 2/9=110,40=1/2;
 3/5=4,6=6,7=11,11=2,16=1,25=1,30=1,74=-5/1,2,3;
 4/5=1/1;
 5/5=2,7=500,8=3,13=1,38=6/2,8;
 6/7=2,8=2,9=2,10=2,28=1/1;
 7//1,2,3,16;
 1/6=500,11=1,14=-1,18=20/3(3);
 2/9=110/2;
 6/7=2,8=2,9=2,10=2,19=2,28=1/1;
 99//99;
 2/9=110/2;
 3/5=4,6=6,7=11,11=2,16=1,25=1,30=1,74=-5/1,2,3;
 4/5=5,16=3/1;
 5/5=2,7=500,8=3,13=1,38=5/2,8;
 7//1,2,3,16;
 1/6=500,11=1,14=-1,18=20/3(-5);
 2/9=110/2;
 6/7=2,8=2,9=2,10=2,19=2,28=1/1;
 99/9=1/99;
 -----
 si3-n
 -----
 No Z-matrix found on checkpoint file.
 Cartesian coordinates read from the checkpoint file:
 S9L-ne-d-01.chk
 Charge =  0 Multiplicity = 3
  Si                                               -0.000000000960      1.325075000000      0.000000000000
  Si                                                1.147548612400     -0.662537499169      0.000000000000
  Si                                               -1.147548611440     -0.662537500831      0.000000000000
 Recover connectivity data from disk.

 GradGradGradGradGradGradGradGradGradGradGradGradGradGradGradGradGradGrad
 Berny optimization.
 Initialization pass.
 No redundant coordinates on chk file, so ReadFC converted to ReadCartesianFC.
 Cartesian force constants read from checkpoint file:
 S9L-ne-d-01.chk
                           ----------------------------
                           !    Initial Parameters    !
                           ! (Angstroms and Degrees)  !
 --------------------------                            --------------------------
 ! Name  Definition              Value          Derivative Info.                !
 --------------------------------------------------------------------------------
 ! R1    R(1,2)                  2.2951         D2E/DX2 =    0.0713             !
 ! R2    R(1,3)                  2.2951         D2E/DX2 =    0.0713             !
 ! R3    R(2,3)                  2.2951         D2E/DX2 =    0.0713             !
 --------------------------------------------------------------------------------
 Trust Radius=3.00D-01 FncErr=1.00D-07 GrdErr=1.00D-06
 Number of steps in this run= 100 maximum allowed number of steps= 100.
 GradGradGradGradGradGradGradGradGradGradGradGradGradGradGradGradGradGrad

                          Input orientation:                          
 ---------------------------------------------------------------------
 Center     Atomic     Atomic              Coordinates (Angstroms)
 Number     Number      Type              X           Y           Z
 ---------------------------------------------------------------------
    1         14             0        0.000000    1.325075    0.000000
    2         14             0        1.147549   -0.662537    0.000000
    3         14             0       -1.147549   -0.662538    0.000000
 ---------------------------------------------------------------------
                    Distance matrix (angstroms):
                    1          2          3
     1  Si   0.000000
     2  Si   2.295097   0.000000
     3  Si   2.295097   2.295097   0.000000
 Stoichiometry    Si3(3)
 Framework group  D3H[3C2(Si)]
 Deg. of freedom     1
 Full point group                 D3H
 Largest Abelian subgroup         C2V     NOp   4
 Largest concise Abelian subgroup C2      NOp   2
                         Standard orientation:                         
 ---------------------------------------------------------------------
 Center     Atomic     Atomic              Coordinates (Angstroms)
 Number     Number      Type              X           Y           Z
 ---------------------------------------------------------------------
    1         14             0        0.000000    1.325075    0.000000
    2         14             0        1.147549   -0.662538    0.000000
    3         14             0       -1.147549   -0.662537    0.000000
 ---------------------------------------------------------------------
 Rotational constants (GHZ):      6.8587502      6.8587502      3.4293751
 Standard basis: 6-311+G(d) (5D, 7F)
 There are    37 symmetry adapted basis functions of A1  symmetry.
 There are     9 symmetry adapted basis functions of A2  symmetry.
 There are    29 symmetry adapted basis functions of B1  symmetry.
 There are    15 symmetry adapted basis functions of B2  symmetry.
 Integral buffers will be    131072 words long.
 Raffenetti 2 integral format.
 Two-electron integral symmetry is turned on.
    90 basis functions,   150 primitive gaussians,    93 cartesian basis functions
    22 alpha electrons       20 beta electrons
       nuclear repulsion energy       135.5742995322 Hartrees.
 NAtoms=    3 NActive=    3 NUniq=    1 SFac= 3.00D+00 NAtFMM=   80 NAOKFM=F Big=F
 One-electron integrals computed using PRISM.
 NBasis=    90 RedAO= T  NBF=    37     9    29    15
 NBsUse=    90 1.00D-06 NBFU=    37     9    29    15
 Initial guess read from the checkpoint file:
 S9L-ne-d-01.chk
 Initial guess orbital symmetries:
 Alpha Orbitals:
       Occupied  (E') (E') (A1') (A1') (?A) (?A) (?B) (?B) (E')
                 (A2") (E") (E") (E') (?B) (?B) (?A) (?A) (?A)
                 (?A) (?C) (?A) (?A)
       Virtual   (?C) (?C) (?A) (?A) (?A) (?A) (?C) (?A) (?A) (?C)
                 (?C) (?A) (?A) (?A) (?A) (?A) (?A) (?A) (?C) (?C)
                 (?C) (?A) (?A) (?A) (?A) (?A) (?C) (?C) (?C) (?A)
                 (?A) (?A) (?C) (?A) (?A) (?C) (?C) (?A) (?A) (?A)
                 (?A) (?A) (?A) (?A) (?C) (?A) (?A) (?C) (?C) (?A)
                 (?A) (?A) (?A) (A1') (?A) (?A) (?D) (?D) (?D)
                 (?D) (?D) (?E) (?D) (?D) (?D) (?D) (?E) (?E)
 Beta  Orbitals:
       Occupied  (E') (E') (A1') (A1') (?A) (?A) (A2") (E") (E")
                 (?B) (?B) (E') (E') (?B) (?B) (?A) (?A) (?A) (?C)
                 (?A)
       Virtual   (?A) (?A) (?C) (?C) (?A) (?A) (?A) (?A) (?C) (?A)
                 (?A) (?C) (?C) (?A) (?A) (?A) (?A) (?A) (?A) (?C)
                 (?A) (?C) (?C) (?A) (?A) (?A) (?C) (?A) (?A) (?C)
                 (?C) (?A) (?A) (?A) (?C) (?A) (?A) (?C) (?C) (?A)
                 (?A) (?A) (?A) (?A) (?A) (?A) (?C) (?C) (?C) (?A)
                 (?A) (?A) (?A) (?A) (?A) (A1') (?A) (?A) (?D)
                 (?D) (?D) (?D) (?D) (?E) (?D) (?D) (?D) (?D) (?E)
                 (?E)
 <S**2> of initial guess= 2.0054
 Requested convergence on RMS density matrix=1.00D-08 within 128 cycles.
 Requested convergence on MAX density matrix=1.00D-06.
 Requested convergence on             energy=1.00D-06.
 No special actions if energy rises.
 Keep R1 and R2 integrals in memory in canonical form, NReq=    20917400.
 Density matrix breaks symmetry, PCut= 1.00D-04
 Density has only Abelian symmetry.
 Density matrix breaks symmetry, PCut= 1.00D-04
 Density has only Abelian symmetry.
 Density matrix breaks symmetry, PCut= 1.00D-04
 Density has only Abelian symmetry.
 Density matrix breaks symmetry, PCut= 1.00D-04
 Density has only Abelian symmetry.
 Density matrix breaks symmetry, PCut= 1.00D-04
 Density has only Abelian symmetry.
 Density matrix breaks symmetry, PCut= 1.00D-04
 Density has only Abelian symmetry.
 Density matrix breaks symmetry, PCut= 1.00D-04
 Density has only Abelian symmetry.
 Density matrix breaks symmetry, PCut= 1.00D-04
 Density has only Abelian symmetry.
 Density matrix breaks symmetry, PCut= 1.00D-04
 Density has only Abelian symmetry.
 Density matrix breaks symmetry, PCut= 1.00D-04
 Density has only Abelian symmetry.
 Density matrix breaks symmetry, PCut= 1.00D-04
 Density has only Abelian symmetry.
 SCF Done:  E(UB+HF-LYP) =  -868.429419999     A.U. after   15 cycles
             Convg  =    0.5020D-08             -V/T =  2.0017
             S**2   =   2.0046
 Annihilation of the first spin contaminant:
 S**2 before annihilation     2.0046,   after     2.0000
 QCSCF skips out because SCF is already converged.

 **********************************************************************

            Population analysis using the SCF density.

 **********************************************************************

 Orbital symmetries:
 Alpha Orbitals:
       Occupied  (E') (E') (A1') (A1') (E') (E') (E') (E') (A2')
                 (A2") (E") (E") (A1') (E') (E') (A1') (E') (E')
                 (A1') (A2") (E') (E')
       Virtual   (E") (E") (A2') (E') (E') (A1') (A2") (A1') (E')
                 (E') (E") (E") (E') (E') (A2') (E') (E') (A1')
                 (E') (E') (A2") (E") (E") (E') (E') (A2') (A1')
                 (A2") (A1') (E") (E") (E') (E') (E') (E') (A1')
                 (A1") (E') (E') (E") (E") (A2') (E') (E') (A2")
                 (E') (E') (E") (E") (A2') (E') (E') (A1') (A1')
                 (E') (E') (A2") (E') (E') (E") (E") (A2') (E')
                 (E') (A1') (A1') (E') (E')
 Beta  Orbitals:
       Occupied  (E') (E') (A1') (A1') (E') (E') (A2") (E") (E")
                 (E') (E') (A1') (A2') (E') (E') (A1') (E') (E')
                 (A2") (A1')
       Virtual   (E') (E') (E") (E") (E') (E') (A1') (A2') (A2")
                 (A1') (E') (E') (E") (E") (E') (E') (A2') (E')
                 (E') (A1') (E') (E') (A2") (E") (E") (E') (E')
                 (A2') (A1') (A2") (A1') (E') (E') (E") (E") (E')
                 (E') (A1') (A1") (E') (E') (E") (E") (E') (E')
                 (A2') (A2") (E") (E") (E') (E') (A2') (E') (E')
                 (A1') (A1') (E') (E') (A2") (E') (E') (E") (E")
                 (A2') (E') (E') (A1') (A1') (E') (E')
 The electronic state is 3-A1'.
 Alpha  occ. eigenvalues --  -66.12623 -66.12623 -66.12622  -5.29625  -5.29613
 Alpha  occ. eigenvalues --   -5.29613  -3.65637  -3.65637  -3.65599  -3.65440
 Alpha  occ. eigenvalues --   -3.65429  -3.65429  -3.65298  -3.65206  -3.65206
 Alpha  occ. eigenvalues --   -0.60833  -0.41530  -0.41530  -0.25869  -0.25481
 Alpha  occ. eigenvalues --   -0.22964  -0.22964
 Alpha virt. eigenvalues --   -0.08773  -0.08773  -0.01033  -0.00728  -0.00728
 Alpha virt. eigenvalues --    0.01340   0.03260   0.03851   0.05221   0.05221
 Alpha virt. eigenvalues --    0.06909   0.06909   0.07751   0.07751   0.10096
 Alpha virt. eigenvalues --    0.11079   0.11079   0.20173   0.24203   0.24203
 Alpha virt. eigenvalues --    0.26641   0.29753   0.29753   0.29806   0.29806
 Alpha virt. eigenvalues --    0.33449   0.36619   0.42963   0.44897   0.49257
 Alpha virt. eigenvalues --    0.49257   0.50026   0.50026   0.54065   0.54065
 Alpha virt. eigenvalues --    0.65313   0.66622   0.67633   0.67633   0.74631
 Alpha virt. eigenvalues --    0.74631   0.96150   0.97062   0.97062   1.19649
 Alpha virt. eigenvalues --    1.22435   1.22435   1.23457   1.23457   1.32144
 Alpha virt. eigenvalues --    1.33796   1.33796   1.39889   5.19629   5.42880
 Alpha virt. eigenvalues --    5.42880  11.27150  11.27745  11.27745  11.28263
 Alpha virt. eigenvalues --   11.28263  11.30589  11.32689  11.32689  11.44528
 Alpha virt. eigenvalues --  140.60942 140.86084 140.86084
  Beta  occ. eigenvalues --  -66.12330 -66.12330 -66.12330  -5.29323  -5.29313
  Beta  occ. eigenvalues --   -5.29313  -3.65269  -3.65259  -3.65259  -3.64922
  Beta  occ. eigenvalues --   -3.64922  -3.64899  -3.64881  -3.64803  -3.64803
  Beta  occ. eigenvalues --   -0.58515  -0.37749  -0.37749  -0.24725  -0.23061
  Beta virt. eigenvalues --   -0.15107  -0.15107  -0.07831  -0.07831   0.00004
  Beta virt. eigenvalues --    0.00004   0.01800   0.02156   0.03292   0.03987
  Beta virt. eigenvalues --    0.05607   0.05607   0.07008   0.07008   0.08925
  Beta virt. eigenvalues --    0.08925   0.10775   0.11242   0.11242   0.20637
  Beta virt. eigenvalues --    0.25434   0.25434   0.26807   0.30022   0.30022
  Beta virt. eigenvalues --    0.31246   0.31246   0.34896   0.39057   0.44598
  Beta virt. eigenvalues --    0.47640   0.51033   0.51033   0.51607   0.51607
  Beta virt. eigenvalues --    0.56258   0.56258   0.66158   0.68887   0.70867
  Beta virt. eigenvalues --    0.70867   0.75935   0.75935   0.98235   0.98235
  Beta virt. eigenvalues --    0.99032   1.20046   1.23902   1.23902   1.24274
  Beta virt. eigenvalues --    1.24274   1.33969   1.35248   1.35248   1.40803
  Beta virt. eigenvalues --    5.20288   5.43581   5.43581  11.27380  11.28470
  Beta virt. eigenvalues --   11.28470  11.28502  11.28502  11.31550  11.33475
  Beta virt. eigenvalues --   11.33475  11.45084 140.61228 140.86370 140.86370
          Condensed to atoms (all electrons):
              1          2          3
     1  Si  13.568694   0.215653   0.215653
     2  Si   0.215653  13.568694   0.215653
     3  Si   0.215653   0.215653  13.568694
 Mulliken atomic charges:
              1
     1  Si   0.000000
     2  Si   0.000000
     3  Si   0.000000
 Sum of Mulliken charges=   0.00000
 Atomic charges with hydrogens summed into heavy atoms:
              1
     1  Si   0.000000
     2  Si   0.000000
     3  Si   0.000000
 Sum of Mulliken charges=   0.00000
          Atomic-Atomic Spin Densities.
              1          2          3
     1  Si   0.585996   0.040335   0.040335
     2  Si   0.040335   0.585996   0.040335
     3  Si   0.040335   0.040335   0.585996
 Mulliken atomic spin densities:
              1
     1  Si   0.666667
     2  Si   0.666667
     3  Si   0.666667
 Sum of Mulliken spin densities=   2.00000
 Electronic spatial extent (au):  <R**2>=   354.5667
 Charge=     0.0000 electrons
 Dipole moment (field-independent basis, Debye):
    X=     0.0000    Y=     0.0000    Z=     0.0000  Tot=     0.0000
 Quadrupole moment (field-independent basis, Debye-Ang):
   XX=   -41.4184   YY=   -41.4184   ZZ=   -39.8572
   XY=     0.0000   XZ=     0.0000   YZ=     0.0000
 Traceless Quadrupole moment (field-independent basis, Debye-Ang):
   XX=    -0.5204   YY=    -0.5204   ZZ=     1.0408
   XY=     0.0000   XZ=     0.0000   YZ=     0.0000
 Octapole moment (field-independent basis, Debye-Ang**2):
  XXX=     0.0000  YYY=    -3.6675  ZZZ=     0.0000  XYY=     0.0000
  XXY=     3.6675  XXZ=     0.0000  XZZ=     0.0000  YZZ=     0.0000
  YYZ=     0.0000  XYZ=     0.0000
 Hexadecapole moment (field-independent basis, Debye-Ang**3):
 XXXX=  -307.0345 YYYY=  -307.0345 ZZZZ=   -78.3758 XXXY=     0.0000
 XXXZ=     0.0000 YYYX=     0.0000 YYYZ=     0.0000 ZZZX=     0.0000
 ZZZY=     0.0000 XXYY=  -102.3448 XXZZ=   -61.7422 YYZZ=   -61.7422
 XXYZ=     0.0000 YYXZ=     0.0000 ZZXY=     0.0000
 N-N= 1.355742995322D+02 E-N=-2.340524321063D+03  KE= 8.669758526938D+02
 Symmetry A1   KE= 5.037773616999D+02
 Symmetry A2   KE= 2.443076012889D+01
 Symmetry B1   KE= 2.880993867646D+02
 Symmetry B2   KE= 5.066834410045D+01
                          Isotropic Fermi Contact Couplings
        Atom                 a.u.       MegaHertz       Gauss      10(-4) cm-1
     1  Si(29)             0.16425     -72.98470     -26.04275     -24.34508
     2  Si(29)             0.16425     -72.98470     -26.04275     -24.34508
     3  Si(29)             0.16425     -72.98470     -26.04275     -24.34508
 --------------------------------------------------------
       Center         ----  Spin Dipole Couplings  ----
                      3XX-RR        3YY-RR        3ZZ-RR
 --------------------------------------------------------
     1   Atom        0.864159     -0.082102     -0.782057
     2   Atom        0.154463      0.627594     -0.782057
     3   Atom        0.154463      0.627594     -0.782057
 --------------------------------------------------------
                        XY            XZ            YZ
 --------------------------------------------------------
     1   Atom        0.000000      0.000000      0.000000
     2   Atom        0.409743      0.000000      0.000000
     3   Atom       -0.409743      0.000000      0.000000
 --------------------------------------------------------


 ---------------------------------------------------------------------------------
              Anisotropic Spin Dipole Couplings in Principal Axis System
 ---------------------------------------------------------------------------------

       Atom             a.u.   MegaHertz   Gauss  10(-4) cm-1        Axes

              Baa    -0.7821    82.964    29.604    27.674  0.0000  0.0000  1.0000
     1 Si(29) Bbb    -0.0821     8.710     3.108     2.905  0.0000  1.0000  0.0000
              Bcc     0.8642   -91.674   -32.711   -30.579  1.0000  0.0000  0.0000
 
              Baa    -0.7821    82.964    29.604    27.674  0.0000  0.0000  1.0000
     2 Si(29) Bbb    -0.0821     8.710     3.108     2.905  0.8660 -0.5000  0.0000
              Bcc     0.8642   -91.674   -32.711   -30.579  0.5000  0.8660  0.0000
 
              Baa    -0.7821    82.964    29.604    27.674  0.0000  0.0000  1.0000
     3 Si(29) Bbb    -0.0821     8.710     3.108     2.905  0.8660  0.5000  0.0000
              Bcc     0.8642   -91.674   -32.711   -30.579 -0.5000  0.8660  0.0000
 

 ---------------------------------------------------------------------------------

 ***** Axes restored to original set *****
 -------------------------------------------------------------------
 Center     Atomic                   Forces (Hartrees/Bohr)
 Number     Number              X              Y              Z
 -------------------------------------------------------------------
    1         14           0.000000000    0.000103084    0.000000000
    2         14           0.000089274   -0.000051542    0.000000000
    3         14          -0.000089274   -0.000051542    0.000000000
 -------------------------------------------------------------------
 Cartesian Forces:  Max     0.000103084 RMS     0.000059516

 GradGradGradGradGradGradGradGradGradGradGradGradGradGradGradGradGradGrad
 Berny optimization.
 Internal  Forces:  Max     0.000059516 RMS     0.000059516
 Search for a local minimum.
 Step number   1 out of a maximum of 100
 All quantities printed in internal units (Hartrees-Bohrs-Radians)
 Second derivative matrix not updated -- first step.
 The second derivative matrix:
                          R1        R2        R3
           R1           0.07130
           R2           0.00631   0.07130
           R3           0.00631   0.00631   0.07130
     Eigenvalues ---    0.06499   0.06499   0.08392
 RFO step:  Lambda=-1.26626342D-07.
 Linear search not attempted -- first point.
 Iteration  1 RMS(Cart)=  0.00040946 RMS(Int)=  0.00000000
 Iteration  2 RMS(Cart)=  0.00000000 RMS(Int)=  0.00000000
 Variable       Old X    -DE/DX   Delta X   Delta X   Delta X     New X
                                 (Linear)    (Quad)   (Total)
    R1        4.33711   0.00006   0.00000   0.00071   0.00071   4.33781
    R2        4.33711   0.00006   0.00000   0.00071   0.00071   4.33781
    R3        4.33711   0.00006   0.00000   0.00071   0.00071   4.33781
         Item               Value     Threshold  Converged?
 Maximum Force            0.000060     0.000450     YES
 RMS     Force            0.000060     0.000300     YES
 Maximum Displacement     0.000409     0.001800     YES
 RMS     Displacement     0.000409     0.001200     YES
 Predicted change in Energy=-6.331317D-08
 Optimization completed.
    -- Stationary point found.
                           ----------------------------
                           !   Optimized Parameters   !
                           ! (Angstroms and Degrees)  !
 --------------------------                            --------------------------
 ! Name  Definition              Value          Derivative Info.                !
 --------------------------------------------------------------------------------
 ! R1    R(1,2)                  2.2951         -DE/DX =    0.0001              !
 ! R2    R(1,3)                  2.2951         -DE/DX =    0.0001              !
 ! R3    R(2,3)                  2.2951         -DE/DX =    0.0001              !
 --------------------------------------------------------------------------------
 GradGradGradGradGradGradGradGradGradGradGradGradGradGradGradGradGradGrad

                          Input orientation:                          
 ---------------------------------------------------------------------
 Center     Atomic     Atomic              Coordinates (Angstroms)
 Number     Number      Type              X           Y           Z
 ---------------------------------------------------------------------
    1         14             0        0.000000    1.325075    0.000000
    2         14             0        1.147549   -0.662537    0.000000
    3         14             0       -1.147549   -0.662538    0.000000
 ---------------------------------------------------------------------
                    Distance matrix (angstroms):
                    1          2          3
     1  Si   0.000000
     2  Si   2.295097   0.000000
     3  Si   2.295097   2.295097   0.000000
 Stoichiometry    Si3(3)
 Framework group  D3H[3C2(Si)]
 Deg. of freedom     1
 Full point group                 D3H
 Largest Abelian subgroup         C2V     NOp   4
 Largest concise Abelian subgroup C2      NOp   2
                         Standard orientation:                         
 ---------------------------------------------------------------------
 Center     Atomic     Atomic              Coordinates (Angstroms)
 Number     Number      Type              X           Y           Z
 ---------------------------------------------------------------------
    1         14             0        0.000000    1.325075    0.000000
    2         14             0        1.147549   -0.662538    0.000000
    3         14             0       -1.147549   -0.662537    0.000000
 ---------------------------------------------------------------------
 Rotational constants (GHZ):      6.8587502      6.8587502      3.4293751

 **********************************************************************

            Population analysis using the SCF density.

 **********************************************************************

 Orbital symmetries:
 Alpha Orbitals:
       Occupied  (E') (E') (A1') (A1') (E') (E') (E') (E') (A2')
                 (A2") (E") (E") (A1') (E') (E') (A1') (E') (E')
                 (A1') (A2") (E') (E')
       Virtual   (E") (E") (A2') (E') (E') (A1') (A2") (A1') (E')
                 (E') (E") (E") (E') (E') (A2') (E') (E') (A1')
                 (E') (E') (A2") (E") (E") (E') (E') (A2') (A1')
                 (A2") (A1') (E") (E") (E') (E') (E') (E') (A1')
                 (A1") (E') (E') (E") (E") (A2') (E') (E') (A2")
                 (E') (E') (E") (E") (A2') (E') (E') (A1') (A1')
                 (E') (E') (A2") (E') (E') (E") (E") (A2') (E')
                 (E') (A1') (A1') (E') (E')
 Beta  Orbitals:
       Occupied  (E') (E') (A1') (A1') (E') (E') (A2") (E") (E")
                 (E') (E') (A1') (A2') (E') (E') (A1') (E') (E')
                 (A2") (A1')
       Virtual   (E') (E') (E") (E") (E') (E') (A1') (A2') (A2")
                 (A1') (E') (E') (E") (E") (E') (E') (A2') (E')
                 (E') (A1') (E') (E') (A2") (E") (E") (E') (E')
                 (A2') (A1') (A2") (A1') (E') (E') (E") (E") (E')
                 (E') (A1') (A1") (E') (E') (E") (E") (E') (E')
                 (A2') (A2") (E") (E") (E') (E') (A2') (E') (E')
                 (A1') (A1') (E') (E') (A2") (E') (E') (E") (E")
                 (A2') (E') (E') (A1') (A1') (E') (E')
 The electronic state is 3-A1'.
 Alpha  occ. eigenvalues --  -66.12623 -66.12623 -66.12622  -5.29625  -5.29613
 Alpha  occ. eigenvalues --   -5.29613  -3.65637  -3.65637  -3.65599  -3.65440
 Alpha  occ. eigenvalues --   -3.65429  -3.65429  -3.65298  -3.65206  -3.65206
 Alpha  occ. eigenvalues --   -0.60833  -0.41530  -0.41530  -0.25869  -0.25481
 Alpha  occ. eigenvalues --   -0.22964  -0.22964
 Alpha virt. eigenvalues --   -0.08773  -0.08773  -0.01033  -0.00728  -0.00728
 Alpha virt. eigenvalues --    0.01340   0.03260   0.03851   0.05221   0.05221
 Alpha virt. eigenvalues --    0.06909   0.06909   0.07751   0.07751   0.10096
 Alpha virt. eigenvalues --    0.11079   0.11079   0.20173   0.24203   0.24203
 Alpha virt. eigenvalues --    0.26641   0.29753   0.29753   0.29806   0.29806
 Alpha virt. eigenvalues --    0.33449   0.36619   0.42963   0.44897   0.49257
 Alpha virt. eigenvalues --    0.49257   0.50026   0.50026   0.54065   0.54065
 Alpha virt. eigenvalues --    0.65313   0.66622   0.67633   0.67633   0.74631
 Alpha virt. eigenvalues --    0.74631   0.96150   0.97062   0.97062   1.19649
 Alpha virt. eigenvalues --    1.22435   1.22435   1.23457   1.23457   1.32144
 Alpha virt. eigenvalues --    1.33796   1.33796   1.39889   5.19629   5.42880
 Alpha virt. eigenvalues --    5.42880  11.27150  11.27745  11.27745  11.28263
 Alpha virt. eigenvalues --   11.28263  11.30589  11.32689  11.32689  11.44528
 Alpha virt. eigenvalues --  140.60942 140.86084 140.86084
  Beta  occ. eigenvalues --  -66.12330 -66.12330 -66.12330  -5.29323  -5.29313
  Beta  occ. eigenvalues --   -5.29313  -3.65269  -3.65259  -3.65259  -3.64922
  Beta  occ. eigenvalues --   -3.64922  -3.64899  -3.64881  -3.64803  -3.64803
  Beta  occ. eigenvalues --   -0.58515  -0.37749  -0.37749  -0.24725  -0.23061
  Beta virt. eigenvalues --   -0.15107  -0.15107  -0.07831  -0.07831   0.00004
  Beta virt. eigenvalues --    0.00004   0.01800   0.02156   0.03292   0.03987
  Beta virt. eigenvalues --    0.05607   0.05607   0.07008   0.07008   0.08925
  Beta virt. eigenvalues --    0.08925   0.10775   0.11242   0.11242   0.20637
  Beta virt. eigenvalues --    0.25434   0.25434   0.26807   0.30022   0.30022
  Beta virt. eigenvalues --    0.31246   0.31246   0.34896   0.39057   0.44598
  Beta virt. eigenvalues --    0.47640   0.51033   0.51033   0.51607   0.51607
  Beta virt. eigenvalues --    0.56258   0.56258   0.66158   0.68887   0.70867
  Beta virt. eigenvalues --    0.70867   0.75935   0.75935   0.98235   0.98235
  Beta virt. eigenvalues --    0.99032   1.20046   1.23902   1.23902   1.24274
  Beta virt. eigenvalues --    1.24274   1.33969   1.35248   1.35248   1.40803
  Beta virt. eigenvalues --    5.20288   5.43581   5.43581  11.27380  11.28470
  Beta virt. eigenvalues --   11.28470  11.28502  11.28502  11.31550  11.33475
  Beta virt. eigenvalues --   11.33475  11.45084 140.61228 140.86370 140.86370
          Condensed to atoms (all electrons):
              1          2          3
     1  Si  13.568694   0.215653   0.215653
     2  Si   0.215653  13.568694   0.215653
     3  Si   0.215653   0.215653  13.568694
 Mulliken atomic charges:
              1
     1  Si   0.000000
     2  Si   0.000000
     3  Si   0.000000
 Sum of Mulliken charges=   0.00000
 Atomic charges with hydrogens summed into heavy atoms:
              1
     1  Si   0.000000
     2  Si   0.000000
     3  Si   0.000000
 Sum of Mulliken charges=   0.00000
          Atomic-Atomic Spin Densities.
              1          2          3
     1  Si   0.585996   0.040335   0.040335
     2  Si   0.040335   0.585996   0.040335
     3  Si   0.040335   0.040335   0.585996
 Mulliken atomic spin densities:
              1
     1  Si   0.666667
     2  Si   0.666667
     3  Si   0.666667
 Sum of Mulliken spin densities=   2.00000
 Electronic spatial extent (au):  <R**2>=   354.5667
 Charge=     0.0000 electrons
 Dipole moment (field-independent basis, Debye):
    X=     0.0000    Y=     0.0000    Z=     0.0000  Tot=     0.0000
 Quadrupole moment (field-independent basis, Debye-Ang):
   XX=   -41.4184   YY=   -41.4184   ZZ=   -39.8572
   XY=     0.0000   XZ=     0.0000   YZ=     0.0000
 Traceless Quadrupole moment (field-independent basis, Debye-Ang):
   XX=    -0.5204   YY=    -0.5204   ZZ=     1.0408
   XY=     0.0000   XZ=     0.0000   YZ=     0.0000
 Octapole moment (field-independent basis, Debye-Ang**2):
  XXX=     0.0000  YYY=    -3.6675  ZZZ=     0.0000  XYY=     0.0000
  XXY=     3.6675  XXZ=     0.0000  XZZ=     0.0000  YZZ=     0.0000
  YYZ=     0.0000  XYZ=     0.0000
 Hexadecapole moment (field-independent basis, Debye-Ang**3):
 XXXX=  -307.0345 YYYY=  -307.0345 ZZZZ=   -78.3758 XXXY=     0.0000
 XXXZ=     0.0000 YYYX=     0.0000 YYYZ=     0.0000 ZZZX=     0.0000
 ZZZY=     0.0000 XXYY=  -102.3448 XXZZ=   -61.7422 YYZZ=   -61.7422
 XXYZ=     0.0000 YYXZ=     0.0000 ZZXY=     0.0000
 N-N= 1.355742995322D+02 E-N=-2.340524321063D+03  KE= 8.669758526938D+02
 Symmetry A1   KE= 5.037773616999D+02
 Symmetry A2   KE= 2.443076012889D+01
 Symmetry B1   KE= 2.880993867646D+02
 Symmetry B2   KE= 5.066834410045D+01
                          Isotropic Fermi Contact Couplings
        Atom                 a.u.       MegaHertz       Gauss      10(-4) cm-1
     1  Si(29)             0.16425     -72.98470     -26.04275     -24.34508
     2  Si(29)             0.16425     -72.98470     -26.04275     -24.34508
     3  Si(29)             0.16425     -72.98470     -26.04275     -24.34508
 --------------------------------------------------------
       Center         ----  Spin Dipole Couplings  ----
                      3XX-RR        3YY-RR        3ZZ-RR
 --------------------------------------------------------
     1   Atom        0.864159     -0.082102     -0.782057
     2   Atom        0.154463      0.627594     -0.782057
     3   Atom        0.154463      0.627594     -0.782057
 --------------------------------------------------------
                        XY            XZ            YZ
 --------------------------------------------------------
     1   Atom        0.000000      0.000000      0.000000
     2   Atom        0.409743      0.000000      0.000000
     3   Atom       -0.409743      0.000000      0.000000
 --------------------------------------------------------


 ---------------------------------------------------------------------------------
              Anisotropic Spin Dipole Couplings in Principal Axis System
 ---------------------------------------------------------------------------------

       Atom             a.u.   MegaHertz   Gauss  10(-4) cm-1        Axes

              Baa    -0.7821    82.964    29.604    27.674  0.0000  0.0000  1.0000
     1 Si(29) Bbb    -0.0821     8.710     3.108     2.905  0.0000  1.0000  0.0000
              Bcc     0.8642   -91.674   -32.711   -30.579  1.0000  0.0000  0.0000
 
              Baa    -0.7821    82.964    29.604    27.674  0.0000  0.0000  1.0000
     2 Si(29) Bbb    -0.0821     8.710     3.108     2.905  0.8660 -0.5000  0.0000
              Bcc     0.8642   -91.674   -32.711   -30.579  0.5000  0.8660  0.0000
 
              Baa    -0.7821    82.964    29.604    27.674  0.0000  0.0000  1.0000
     3 Si(29) Bbb    -0.0821     8.710     3.108     2.905  0.8660  0.5000  0.0000
              Bcc     0.8642   -91.674   -32.711   -30.579 -0.5000  0.8660  0.0000
 

 ---------------------------------------------------------------------------------

 1\1\GINC-NODE193\FOpt\UB3LYP\6-311+G(d)\Si3(3)\TAM\18-Nov-2011\0\\# b3
 lyp/6-311+G(d) opt=(readfc,noeigentest,maxcycle=500) freq scfcyc=500 o
 ptcyc=500 scf=xqc geom=allcheck guess=read\\si3-n\\0,3\Si,-0.000000001
 ,1.325075,0.\Si,1.1475486124,-0.6625374992,0.\Si,-1.1475486114,-0.6625
 375008,0.\\Version=AM64L-G03RevE.01\State=3-A1'\HF=-868.42942\S2=2.004
 61\S2-1=0.\S2A=2.000012\RMSD=5.020e-09\RMSF=5.952e-05\Thermal=0.\Dipol
 e=0.,0.,0.\PG=D03H [3C2(Si1)]\\@


 SUCCESS IS COUNTED SWEETEST
 BY THOSE WHO NE'ER SUCCEED.
 TO COMPREHEND NECTAR
 REQUIRES SOREST NEED.
           EMILY DICKINSON
 Job cpu time:  0 days  0 hours  1 minutes 29.7 seconds.
 File lengths (MBytes):  RWF=     17 Int=      0 D2E=      0 Chk=      6 Scr=      1
 Normal termination of Gaussian 03 at Fri Nov 18 16:02:27 2011.
 Link1:  Proceeding to internal job step number  2.
 --------------------------------------------------------------------
 #N Geom=AllCheck Guess=Read SCRF=Check GenChk UB3LYP/6-311+G(d) Freq
 --------------------------------------------------------------------
 1/6=500,10=4,11=1,29=7,30=1,38=1,40=1,46=1/1,3;
 2/40=1/2;
 3/5=4,6=6,7=11,11=2,16=1,25=1,30=1,70=2,71=2,74=-5/1,2,3;
 4/5=1,7=2/1;
 5/5=2,7=500,8=3,13=1,38=6/2,8;
 8/6=4,10=90,11=11/1;
 11/6=1,8=1,9=11,15=111,16=1/1,2,10;
 10/6=1/2;
 6/7=2,8=2,9=2,10=2,18=1,28=1/1;
 7/8=1,10=1,25=1/1,2,3,16;
 1/6=500,10=4,11=1,30=1,46=1/3;
 99//99;
 -----
 si3-n
 -----
 Redundant internal coordinates taken from checkpoint file:
 S9L-ne-d-01.chk
 Charge =  0 Multiplicity = 3
 Si,0,-0.000000001,1.325075,0.
 Si,0,1.1475486124,-0.6625374992,0.
 Si,0,-1.1475486114,-0.6625375008,0.
 Recover connectivity data from disk.

 GradGradGradGradGradGradGradGradGradGradGradGradGradGradGradGradGradGrad
 Berny optimization.
 Initialization pass.
                           ----------------------------
                           !    Initial Parameters    !
                           ! (Angstroms and Degrees)  !
 --------------------------                            --------------------------
 ! Name  Definition              Value          Derivative Info.                !
 --------------------------------------------------------------------------------
 ! R1    R(1,2)                  2.2951         calculate D2E/DX2 analytically  !
 ! R2    R(1,3)                  2.2951         calculate D2E/DX2 analytically  !
 ! R3    R(2,3)                  2.2951         calculate D2E/DX2 analytically  !
 --------------------------------------------------------------------------------
 Trust Radius=3.00D-01 FncErr=1.00D-07 GrdErr=1.00D-07
 Number of steps in this run=   2 maximum allowed number of steps=   2.
 GradGradGradGradGradGradGradGradGradGradGradGradGradGradGradGradGradGrad

                          Input orientation:                          
 ---------------------------------------------------------------------
 Center     Atomic     Atomic              Coordinates (Angstroms)
 Number     Number      Type              X           Y           Z
 ---------------------------------------------------------------------
    1         14             0        0.000000    1.325075    0.000000
    2         14             0        1.147549   -0.662537    0.000000
    3         14             0       -1.147549   -0.662538    0.000000
 ---------------------------------------------------------------------
                    Distance matrix (angstroms):
                    1          2          3
     1  Si   0.000000
     2  Si   2.295097   0.000000
     3  Si   2.295097   2.295097   0.000000
 Stoichiometry    Si3(3)
 Framework group  D3H[3C2(Si)]
 Deg. of freedom     1
 Full point group                 D3H
 Largest Abelian subgroup         C2V     NOp   4
 Largest concise Abelian subgroup C2      NOp   2
                         Standard orientation:                         
 ---------------------------------------------------------------------
 Center     Atomic     Atomic              Coordinates (Angstroms)
 Number     Number      Type              X           Y           Z
 ---------------------------------------------------------------------
    1         14             0        0.000000    1.325075    0.000000
    2         14             0        1.147549   -0.662538    0.000000
    3         14             0       -1.147549   -0.662537    0.000000
 ---------------------------------------------------------------------
 Rotational constants (GHZ):      6.8587502      6.8587502      3.4293751
 Standard basis: 6-311+G(d) (5D, 7F)
 There are    37 symmetry adapted basis functions of A1  symmetry.
 There are     9 symmetry adapted basis functions of A2  symmetry.
 There are    29 symmetry adapted basis functions of B1  symmetry.
 There are    15 symmetry adapted basis functions of B2  symmetry.
 Integral buffers will be    131072 words long.
 Raffenetti 2 integral format.
 Two-electron integral symmetry is turned on.
    90 basis functions,   150 primitive gaussians,    93 cartesian basis functions
    22 alpha electrons       20 beta electrons
       nuclear repulsion energy       135.5742995322 Hartrees.
 NAtoms=    3 NActive=    3 NUniq=    1 SFac= 3.00D+00 NAtFMM=   80 NAOKFM=F Big=F
 One-electron integrals computed using PRISM.
 NBasis=    90 RedAO= T  NBF=    37     9    29    15
 NBsUse=    90 1.00D-06 NBFU=    37     9    29    15
 Initial guess read from the checkpoint file:
 S9L-ne-d-01.chk
 Initial guess orbital symmetries:
 Alpha Orbitals:
       Occupied  (E') (E') (A1') (A1') (E') (E') (E') (E') (A2')
                 (A2") (E") (E") (A1') (E') (E') (A1') (E') (E')
                 (A1') (A2") (E') (E')
       Virtual   (E") (E") (A2') (E') (E') (A1') (A2") (A1') (E')
                 (E') (E") (E") (E') (E') (A2') (E') (E') (A1')
                 (E') (E') (A2") (E") (E") (E') (E') (A2') (A1')
                 (A2") (A1') (E") (E") (E') (E') (E') (E') (A1')
                 (A1") (E') (E') (E") (E") (A2') (E') (E') (A2")
                 (E') (E') (E") (E") (A2') (E') (E') (A1') (A1')
                 (E') (E') (A2") (E') (E') (E") (E") (A2') (E')
                 (E') (A1') (A1') (E') (E')
 Beta  Orbitals:
       Occupied  (E') (E') (A1') (A1') (E') (E') (A2") (E") (E")
                 (E') (E') (A1') (A2') (E') (E') (A1') (E') (E')
                 (A2") (A1')
       Virtual   (E') (E') (E") (E") (E') (E') (A1') (A2') (A2")
                 (A1') (E') (E') (E") (E") (E') (E') (A2') (E')
                 (E') (A1') (E') (E') (A2") (E") (E") (E') (E')
                 (A2') (A1') (A2") (A1') (E') (E') (E") (E") (E')
                 (E') (A1') (A1") (E') (E') (E") (E") (E') (E')
                 (A2') (A2") (E") (E") (E') (E') (A2') (E') (E')
                 (A1') (A1') (E') (E') (A2") (E') (E') (E") (E")
                 (A2') (E') (E') (A1') (A1') (E') (E')
 <S**2> of initial guess= 2.0046
 Requested convergence on RMS density matrix=1.00D-08 within 128 cycles.
 Requested convergence on MAX density matrix=1.00D-06.
 Requested convergence on             energy=1.00D-06.
 No special actions if energy rises.
 Keep R1 and R2 integrals in memory in canonical form, NReq=    20917400.
 SCF Done:  E(UB+HF-LYP) =  -868.429419999     A.U. after    1 cycles
             Convg  =    0.4988D-09             -V/T =  2.0017
             S**2   =   2.0046
 Annihilation of the first spin contaminant:
 S**2 before annihilation     2.0046,   after     2.0000
 QCSCF skips out because SCF is already converged.
 Range of M.O.s used for correlation:     1    90
 NBasis=    90 NAE=    22 NBE=    20 NFC=     0 NFV=     0
 NROrb=     90 NOA=    22 NOB=    20 NVA=    68 NVB=    70

 **** Warning!!: The largest alpha MO coefficient is  0.19951067D+02


 **** Warning!!: The largest beta MO coefficient is  0.19855134D+02


 **** Warning!!: The smallest beta delta epsilon is  0.79535835D-01

 Symmetrizing basis deriv contribution to polar:
 IMax=3 JMax=2 DiffMx= 0.00D+00
 G2DrvN: will do    4 centers at a time, making    1 passes doing MaxLOS=2.
 FoFDir/FoFCou used for L=0 through L=2.
 DoAtom=TTT
          Differentiating once with respect to electric field.
                with respect to dipole field.
          Differentiating once with respect to nuclear coordinates.
          Store integrals in memory, NReq=    19932015.
          There are   6 degrees of freedom in the 1st order CPHF.
     6 vectors were produced by pass  0.
 AX will form   6 AO Fock derivatives at one time.
     6 vectors were produced by pass  1.
     6 vectors were produced by pass  2.
     6 vectors were produced by pass  3.
     6 vectors were produced by pass  4.
     6 vectors were produced by pass  5.
     6 vectors were produced by pass  6.
     6 vectors were produced by pass  7.
     6 vectors were produced by pass  8.
     3 vectors were produced by pass  9.
     2 vectors were produced by pass 10.
     2 vectors were produced by pass 11.
     1 vectors were produced by pass 12.
 Inv2:  IOpt= 1 Iter= 1 AM= 1.28D-15 Conv= 1.00D-12.
 Inverted reduced A of dimension   62 with in-core refinement.
 Isotropic polarizability for W=    0.000000       98.38 Bohr**3.
 End of Minotr Frequency-dependent properties file   721 does not exist.

 **********************************************************************

            Population analysis using the SCF density.

 **********************************************************************

 Orbital symmetries:
 Alpha Orbitals:
       Occupied  (E') (E') (A1') (A1') (E') (E') (E') (E') (A2')
                 (A2") (E") (E") (A1') (E') (E') (A1') (E') (E')
                 (A1') (A2") (E') (E')
       Virtual   (E") (E") (A2') (E') (E') (A1') (A2") (A1') (E')
                 (E') (E") (E") (E') (E') (A2') (E') (E') (A1')
                 (E') (E') (A2") (E") (E") (E') (E') (A2') (A1')
                 (A2") (A1') (E") (E") (E') (E') (E') (E') (A1')
                 (A1") (E') (E') (E") (E") (A2') (E') (E') (A2")
                 (E') (E') (E") (E") (A2') (E') (E') (A1') (A1')
                 (E') (E') (A2") (E') (E') (E") (E") (A2') (E')
                 (E') (A1') (A1') (E') (E')
 Beta  Orbitals:
       Occupied  (E') (E') (A1') (A1') (E') (E') (A2") (E") (E")
                 (E') (E') (A1') (A2') (E') (E') (A1') (E') (E')
                 (A2") (A1')
       Virtual   (E') (E') (E") (E") (E') (E') (A1') (A2') (A2")
                 (A1') (E') (E') (E") (E") (E') (E') (A2') (E')
                 (E') (A1') (E') (E') (A2") (E") (E") (E') (E')
                 (A2') (A1') (A2") (A1') (E') (E') (E") (E") (E')
                 (E') (A1') (A1") (E') (E') (E") (E") (E') (E')
                 (A2') (A2") (E") (E") (E') (E') (A2') (E') (E')
                 (A1') (A1') (E') (E') (A2") (E') (E') (E") (E")
                 (A2') (E') (E') (A1') (A1') (E') (E')
 The electronic state is 3-A1'.
 Alpha  occ. eigenvalues --  -66.12623 -66.12623 -66.12622  -5.29625  -5.29613
 Alpha  occ. eigenvalues --   -5.29613  -3.65637  -3.65637  -3.65599  -3.65440
 Alpha  occ. eigenvalues --   -3.65429  -3.65429  -3.65298  -3.65206  -3.65206
 Alpha  occ. eigenvalues --   -0.60833  -0.41530  -0.41530  -0.25869  -0.25481
 Alpha  occ. eigenvalues --   -0.22964  -0.22964
 Alpha virt. eigenvalues --   -0.08773  -0.08773  -0.01033  -0.00728  -0.00728
 Alpha virt. eigenvalues --    0.01340   0.03260   0.03851   0.05221   0.05221
 Alpha virt. eigenvalues --    0.06909   0.06909   0.07751   0.07751   0.10096
 Alpha virt. eigenvalues --    0.11079   0.11079   0.20173   0.24203   0.24203
 Alpha virt. eigenvalues --    0.26641   0.29753   0.29753   0.29806   0.29806
 Alpha virt. eigenvalues --    0.33449   0.36619   0.42963   0.44897   0.49257
 Alpha virt. eigenvalues --    0.49257   0.50026   0.50026   0.54065   0.54065
 Alpha virt. eigenvalues --    0.65313   0.66622   0.67633   0.67633   0.74631
 Alpha virt. eigenvalues --    0.74631   0.96150   0.97062   0.97062   1.19649
 Alpha virt. eigenvalues --    1.22435   1.22435   1.23457   1.23457   1.32144
 Alpha virt. eigenvalues --    1.33796   1.33796   1.39889   5.19629   5.42880
 Alpha virt. eigenvalues --    5.42880  11.27150  11.27745  11.27745  11.28263
 Alpha virt. eigenvalues --   11.28263  11.30589  11.32689  11.32689  11.44528
 Alpha virt. eigenvalues --  140.60942 140.86084 140.86084
  Beta  occ. eigenvalues --  -66.12330 -66.12330 -66.12330  -5.29323  -5.29313
  Beta  occ. eigenvalues --   -5.29313  -3.65269  -3.65259  -3.65259  -3.64922
  Beta  occ. eigenvalues --   -3.64922  -3.64899  -3.64881  -3.64803  -3.64803
  Beta  occ. eigenvalues --   -0.58515  -0.37749  -0.37749  -0.24725  -0.23061
  Beta virt. eigenvalues --   -0.15107  -0.15107  -0.07831  -0.07831   0.00004
  Beta virt. eigenvalues --    0.00004   0.01800   0.02156   0.03292   0.03987
  Beta virt. eigenvalues --    0.05607   0.05607   0.07008   0.07008   0.08925
  Beta virt. eigenvalues --    0.08925   0.10775   0.11242   0.11242   0.20637
  Beta virt. eigenvalues --    0.25434   0.25434   0.26807   0.30022   0.30022
  Beta virt. eigenvalues --    0.31246   0.31246   0.34896   0.39057   0.44598
  Beta virt. eigenvalues --    0.47640   0.51033   0.51033   0.51607   0.51607
  Beta virt. eigenvalues --    0.56258   0.56258   0.66158   0.68887   0.70867
  Beta virt. eigenvalues --    0.70867   0.75935   0.75935   0.98235   0.98235
  Beta virt. eigenvalues --    0.99032   1.20046   1.23902   1.23902   1.24274
  Beta virt. eigenvalues --    1.24274   1.33969   1.35248   1.35248   1.40803
  Beta virt. eigenvalues --    5.20288   5.43581   5.43581  11.27380  11.28470
  Beta virt. eigenvalues --   11.28470  11.28502  11.28502  11.31550  11.33475
  Beta virt. eigenvalues --   11.33475  11.45084 140.61228 140.86370 140.86370
          Condensed to atoms (all electrons):
              1          2          3
     1  Si  13.568694   0.215653   0.215653
     2  Si   0.215653  13.568694   0.215653
     3  Si   0.215653   0.215653  13.568694
 Mulliken atomic charges:
              1
     1  Si   0.000000
     2  Si   0.000000
     3  Si   0.000000
 Sum of Mulliken charges=   0.00000
 Atomic charges with hydrogens summed into heavy atoms:
              1
     1  Si   0.000000
     2  Si   0.000000
     3  Si   0.000000
 Sum of Mulliken charges=   0.00000
          Atomic-Atomic Spin Densities.
              1          2          3
     1  Si   0.585996   0.040335   0.040335
     2  Si   0.040335   0.585996   0.040335
     3  Si   0.040335   0.040335   0.585996
 Mulliken atomic spin densities:
              1
     1  Si   0.666667
     2  Si   0.666667
     3  Si   0.666667
 Sum of Mulliken spin densities=   2.00000
 APT atomic charges:
              1
     1  Si  -0.000057
     2  Si  -0.000014
     3  Si  -0.000014
 Sum of APT charges=  -0.00009
 APT Atomic charges with hydrogens summed into heavy atoms:
              1
     1  Si  -0.000057
     2  Si  -0.000014
     3  Si  -0.000014
 Sum of APT charges=  -0.00009
 Electronic spatial extent (au):  <R**2>=   354.5667
 Charge=     0.0000 electrons
 Dipole moment (field-independent basis, Debye):
    X=     0.0000    Y=     0.0000    Z=     0.0000  Tot=     0.0000
 Quadrupole moment (field-independent basis, Debye-Ang):
   XX=   -41.4184   YY=   -41.4184   ZZ=   -39.8572
   XY=     0.0000   XZ=     0.0000   YZ=     0.0000
 Traceless Quadrupole moment (field-independent basis, Debye-Ang):
   XX=    -0.5204   YY=    -0.5204   ZZ=     1.0408
   XY=     0.0000   XZ=     0.0000   YZ=     0.0000
 Octapole moment (field-independent basis, Debye-Ang**2):
  XXX=     0.0000  YYY=    -3.6675  ZZZ=     0.0000  XYY=     0.0000
  XXY=     3.6675  XXZ=     0.0000  XZZ=     0.0000  YZZ=     0.0000
  YYZ=     0.0000  XYZ=     0.0000
 Hexadecapole moment (field-independent basis, Debye-Ang**3):
 XXXX=  -307.0345 YYYY=  -307.0345 ZZZZ=   -78.3758 XXXY=     0.0000
 XXXZ=     0.0000 YYYX=     0.0000 YYYZ=     0.0000 ZZZX=     0.0000
 ZZZY=     0.0000 XXYY=  -102.3448 XXZZ=   -61.7422 YYZZ=   -61.7422
 XXYZ=     0.0000 YYXZ=     0.0000 ZZXY=     0.0000
 N-N= 1.355742995322D+02 E-N=-2.340524321172D+03  KE= 8.669758527429D+02
 Symmetry A1   KE= 5.037773617232D+02
 Symmetry A2   KE= 2.443076013152D+01
 Symmetry B1   KE= 2.880993867793D+02
 Symmetry B2   KE= 5.066834410890D+01
  Exact polarizability: 117.265   0.000 117.271   0.000   0.000  60.607
 Approx polarizability: 266.502   0.000 266.502   0.000   0.000  96.691
                          Isotropic Fermi Contact Couplings
        Atom                 a.u.       MegaHertz       Gauss      10(-4) cm-1
     1  Si(29)             0.16425     -72.98470     -26.04275     -24.34507
     2  Si(29)             0.16425     -72.98470     -26.04275     -24.34507
     3  Si(29)             0.16425     -72.98470     -26.04275     -24.34507
 --------------------------------------------------------
       Center         ----  Spin Dipole Couplings  ----
                      3XX-RR        3YY-RR        3ZZ-RR
 --------------------------------------------------------
     1   Atom        0.864159     -0.082102     -0.782057
     2   Atom        0.154463      0.627594     -0.782057
     3   Atom        0.154463      0.627594     -0.782057
 --------------------------------------------------------
                        XY            XZ            YZ
 --------------------------------------------------------
     1   Atom        0.000000      0.000000      0.000000
     2   Atom        0.409743      0.000000      0.000000
     3   Atom       -0.409743      0.000000      0.000000
 --------------------------------------------------------


 ---------------------------------------------------------------------------------
              Anisotropic Spin Dipole Couplings in Principal Axis System
 ---------------------------------------------------------------------------------

       Atom             a.u.   MegaHertz   Gauss  10(-4) cm-1        Axes

              Baa    -0.7821    82.964    29.604    27.674  0.0000  0.0000  1.0000
     1 Si(29) Bbb    -0.0821     8.710     3.108     2.905  0.0000  1.0000  0.0000
              Bcc     0.8642   -91.674   -32.711   -30.579  1.0000  0.0000  0.0000
 
              Baa    -0.7821    82.964    29.604    27.674  0.0000  0.0000  1.0000
     2 Si(29) Bbb    -0.0821     8.710     3.108     2.905  0.8660 -0.5000  0.0000
              Bcc     0.8642   -91.674   -32.711   -30.579  0.5000  0.8660  0.0000
 
              Baa    -0.7821    82.964    29.604    27.674  0.0000  0.0000  1.0000
     3 Si(29) Bbb    -0.0821     8.710     3.108     2.905  0.8660  0.5000  0.0000
              Bcc     0.8642   -91.674   -32.711   -30.579 -0.5000  0.8660  0.0000
 

 ---------------------------------------------------------------------------------

 Full mass-weighted force constant matrix:
 Low frequencies ---   -0.0204   -0.0203    0.0033    4.8957    4.8958   10.0060
 Low frequencies ---  311.7738  311.7738  489.2120
 Diagonal vibrational polarizability:
        0.1182236       0.1179732       0.0000000
 Harmonic frequencies (cm**-1), IR intensities (KM/Mole), Raman scattering
 activities (A**4/AMU), depolarization ratios for plane and unpolarized
 incident light, reduced masses (AMU), force constants (mDyne/A),
 and normal coordinates:
                     1                      2                      3
                    E'                     E'                     A1'
 Frequencies --   311.7738               311.7738               489.2120
 Red. masses --    27.9769                27.9769                27.9769
 Frc consts  --     1.6022                 1.6022                 3.9450
 IR Inten    --     0.4269                 0.4262                 0.0000
 Atom AN      X      Y      Z        X      Y      Z        X      Y      Z
   1  14     0.55   0.18   0.00    -0.18   0.55   0.00     0.00   0.58   0.00
   2  14    -0.43   0.39   0.00    -0.39  -0.43   0.00     0.50  -0.29   0.00
   3  14    -0.12  -0.56   0.00     0.56  -0.12   0.00    -0.50  -0.29   0.00

 -------------------
 - Thermochemistry -
 -------------------
 Temperature   298.150 Kelvin.  Pressure   1.00000 Atm.
 Atom  1 has atomic number 14 and mass  27.97693
 Atom  2 has atomic number 14 and mass  27.97693
 Atom  3 has atomic number 14 and mass  27.97693
 Molecular mass:    83.93079 amu.
 Principal axes and moments of inertia in atomic units:
                           1         2         3
     EIGENVALUES --   263.12975 263.12975 526.25950
           X           -0.60220   0.79835   0.00000
           Y            0.79835   0.60220   0.00000
           Z            0.00000   0.00000   1.00000
 This molecule is an oblate symmetric top.
 Rotational symmetry number  6.
 Rotational temperatures (Kelvin)      0.32917     0.32917     0.16458
 Rotational constants (GHZ):           6.85875     6.85875     3.42938
 Zero-point vibrational energy       6655.8 (Joules/Mol)
                                    1.59077 (Kcal/Mol)
 Warning -- explicit consideration of   3 degrees of freedom as
           vibrations may cause significant error
 Vibrational temperatures:    448.57   448.57   703.87
          (Kelvin)
 
 Zero-point correction=                           0.002535 (Hartree/Particle)
 Thermal correction to Energy=                    0.006411
 Thermal correction to Enthalpy=                  0.007355
 Thermal correction to Gibbs Free Energy=        -0.024152
 Sum of electronic and zero-point Energies=           -868.426885
 Sum of electronic and thermal Energies=              -868.423009
 Sum of electronic and thermal Enthalpies=            -868.422065
 Sum of electronic and thermal Free Energies=         -868.453572
 
                     E (Thermal)             CV                S
                      KCal/Mol        Cal/Mol-Kelvin    Cal/Mol-Kelvin
 Total                    4.023             10.538             66.313
 Electronic               0.000              0.000              2.183
 Translational            0.889              2.981             39.196
 Rotational               0.889              2.981             21.542
 Vibrational              2.246              4.576              3.391
 Vibration  1             0.700              1.651              1.353
 Vibration  2             0.700              1.651              1.353
 Vibration  3             0.845              1.274              0.686
                       Q            Log10(Q)             Ln(Q)
 Total Bot       0.128558D+12         11.109100         25.579647
 Total V=0       0.188426D+13         12.275141         28.264556
 Vib (Bot)       0.124502D+00         -0.904824         -2.083434
 Vib (Bot)  1    0.605881D+00         -0.217613         -0.501072
 Vib (Bot)  2    0.605881D+00         -0.217613         -0.501072
 Vib (Bot)  3    0.339158D+00         -0.469598         -1.081290
 Vib (V=0)       0.182481D+01          0.261217          0.601475
 Vib (V=0)  1    0.128555D+01          0.109090          0.251188
 Vib (V=0)  2    0.128555D+01          0.109090          0.251188
 Vib (V=0)  3    0.110418D+01          0.043038          0.099099
 Electronic      0.300000D+01          0.477121          1.098612
 Translational   0.302230D+08          7.480337         17.224113
 Rotational      0.113885D+05          4.056465          9.340356
 ***** Axes restored to original set *****
 -------------------------------------------------------------------
 Center     Atomic                   Forces (Hartrees/Bohr)
 Number     Number              X              Y              Z
 -------------------------------------------------------------------
    1         14           0.000000000    0.000103084    0.000000000
    2         14           0.000089274   -0.000051542    0.000000000
    3         14          -0.000089274   -0.000051542    0.000000000
 -------------------------------------------------------------------
 Cartesian Forces:  Max     0.000103084 RMS     0.000059516

 GradGradGradGradGradGradGradGradGradGradGradGradGradGradGradGradGradGrad
 Berny optimization.
 Internal  Forces:  Max     0.000059516 RMS     0.000059516
 Search for a local minimum.
 Step number   1 out of a maximum of   2
 All quantities printed in internal units (Hartrees-Bohrs-Radians)
 Second derivative matrix not updated -- analytic derivatives used.
 The second derivative matrix:
                          R1        R2        R3
           R1           0.07390
           R2           0.00528   0.07390
           R3           0.00528   0.00528   0.07390
     Eigenvalues ---    0.06862   0.06862   0.08446
 Angle between quadratic step and forces=   0.00 degrees.
 Linear search not attempted -- first point.
 Iteration  1 RMS(Cart)=  0.00040682 RMS(Int)=  0.00000000
 Iteration  2 RMS(Cart)=  0.00000000 RMS(Int)=  0.00000000
 Variable       Old X    -DE/DX   Delta X   Delta X   Delta X     New X
                                 (Linear)    (Quad)   (Total)
    R1        4.33711   0.00006   0.00000   0.00070   0.00070   4.33781
    R2        4.33711   0.00006   0.00000   0.00070   0.00070   4.33781
    R3        4.33711   0.00006   0.00000   0.00070   0.00070   4.33781
         Item               Value     Threshold  Converged?
 Maximum Force            0.000060     0.000450     YES
 RMS     Force            0.000060     0.000300     YES
 Maximum Displacement     0.000407     0.001800     YES
 RMS     Displacement     0.000407     0.001200     YES
 Predicted change in Energy=-6.290590D-08
 Optimization completed.
    -- Stationary point found.
                           ----------------------------
                           !   Optimized Parameters   !
                           ! (Angstroms and Degrees)  !
 --------------------------                            --------------------------
 ! Name  Definition              Value          Derivative Info.                !
 --------------------------------------------------------------------------------
 ! R1    R(1,2)                  2.2951         -DE/DX =    0.0001              !
 ! R2    R(1,3)                  2.2951         -DE/DX =    0.0001              !
 ! R3    R(2,3)                  2.2951         -DE/DX =    0.0001              !
 --------------------------------------------------------------------------------
 GradGradGradGradGradGradGradGradGradGradGradGradGradGradGradGradGradGrad

 1\1\GINC-NODE193\Freq\UB3LYP\6-311+G(d)\Si3(3)\TAM\18-Nov-2011\0\\#N G
 eom=AllCheck Guess=Read SCRF=Check GenChk UB3LYP/6-311+G(d) Freq\\si3-
 n\\0,3\Si,-0.000000001,1.325075,0.\Si,1.1475486124,-0.6625374992,0.\Si
 ,-1.1475486114,-0.6625375008,0.\\Version=AM64L-G03RevE.01\State=3-A1'\
 HF=-868.42942\S2=2.00461\S2-1=0.\S2A=2.000012\RMSD=4.988e-10\RMSF=5.95
 2e-05\ZeroPoint=0.0025351\Thermal=0.0064111\Dipole=0.,0.,0.\DipoleDeri
 v=-0.0639579,0.,0.,0.,0.0637913,0.,0.,0.,-0.0000052,0.0319164,-0.05530
 22,0.,-0.0553474,-0.0319582,0.,0.,0.,-0.0000013,0.0319165,0.0553022,0.
 ,0.0553474,-0.0319582,0.,0.,0.,-0.0000013\Polar=117.2647564,0.,117.271
 1929,0.,0.,60.6069796\PG=D03H [3C2(Si1)]\NImag=0\\0.03434423,0.,0.1187
 6245,0.,0.,0.00001692,-0.01716873,0.04344024,0.,0.09765790,0.02967982,
 -0.05938462,0.,-0.03655416,0.05544879,0.,0.,-0.00000846,0.,0.,0.000016
 92,-0.01716873,-0.04344024,0.,-0.08049256,0.00688021,0.,0.09765790,-0.
 02967982,-0.05938462,0.,-0.00688021,0.00393922,0.,0.03655416,0.0554487
 9,0.,0.,-0.00000846,0.,0.,-0.00000846,0.,0.,0.00001692\\0.,-0.00010308
 ,0.,-0.00008927,0.00005154,0.,0.00008927,0.00005154,0.\\\@


 Sometimes the fool who rushes in gets the job done.
                                    -- Al Bernstein
 Job cpu time:  0 days  0 hours  2 minutes  5.3 seconds.
 File lengths (MBytes):  RWF=     19 Int=      0 D2E=      0 Chk=      6 Scr=      1
 Normal termination of Gaussian 03 at Fri Nov 18 16:03:46 2011.
