 Entering Gaussian System, Link 0=g03
 Initial command:
 /usr/local/chem/g03E01/l1.exe /temp0/tam/Gau-9604.inp -scrdir=/temp0/tam/
 Entering Link 1 = /usr/local/chem/g03E01/l1.exe PID=      9605.
  
 Copyright (c) 1988,1990,1992,1993,1995,1998,2003,2004,2007, Gaussian, Inc.
                  All Rights Reserved.
  
 This is the Gaussian(R) 03 program.  It is based on the
 the Gaussian(R) 98 system (copyright 1998, Gaussian, Inc.),
 the Gaussian(R) 94 system (copyright 1995, Gaussian, Inc.),
 the Gaussian 92(TM) system (copyright 1992, Gaussian, Inc.),
 the Gaussian 90(TM) system (copyright 1990, Gaussian, Inc.),
 the Gaussian 88(TM) system (copyright 1988, Gaussian, Inc.),
 the Gaussian 86(TM) system (copyright 1986, Carnegie Mellon
 University), and the Gaussian 82(TM) system (copyright 1983,
 Carnegie Mellon University). Gaussian is a federally registered
 trademark of Gaussian, Inc.
  
 This software contains proprietary and confidential information,
 including trade secrets, belonging to Gaussian, Inc.
  
 This software is provided under written license and may be
 used, copied, transmitted, or stored only in accord with that
 written license.
  
 The following legend is applicable only to US Government
 contracts under FAR:
  
                    RESTRICTED RIGHTS LEGEND
  
 Use, reproduction and disclosure by the US Government is
 subject to restrictions as set forth in subparagraphs (a)
 and (c) of the Commercial Computer Software - Restricted
 Rights clause in FAR 52.227-19.
  
 Gaussian, Inc.
 340 Quinnipiac St., Bldg. 40, Wallingford CT 06492
  
  
 ---------------------------------------------------------------
 Warning -- This program may not be used in any manner that
 competes with the business of Gaussian, Inc. or will provide
 assistance to any competitor of Gaussian, Inc.  The licensee
 of this program is prohibited from giving any competitor of
 Gaussian, Inc. access to this program.  By using this program,
 the user acknowledges that Gaussian, Inc. is engaged in the
 business of creating and licensing software in the field of
 computational chemistry and represents and warrants to the
 licensee that it is not a competitor of Gaussian, Inc. and that
 it will not use this program in any manner prohibited above.
 ---------------------------------------------------------------
  

 Cite this work as:
 Gaussian 03, Revision E.01,
 M. J. Frisch, G. W. Trucks, H. B. Schlegel, G. E. Scuseria, 
 M. A. Robb, J. R. Cheeseman, J. A. Montgomery, Jr., T. Vreven, 
 K. N. Kudin, J. C. Burant, J. M. Millam, S. S. Iyengar, J. Tomasi, 
 V. Barone, B. Mennucci, M. Cossi, G. Scalmani, N. Rega, 
 G. A. Petersson, H. Nakatsuji, M. Hada, M. Ehara, K. Toyota, 
 R. Fukuda, J. Hasegawa, M. Ishida, T. Nakajima, Y. Honda, O. Kitao, 
 H. Nakai, M. Klene, X. Li, J. E. Knox, H. P. Hratchian, J. B. Cross, 
 V. Bakken, C. Adamo, J. Jaramillo, R. Gomperts, R. E. Stratmann, 
 O. Yazyev, A. J. Austin, R. Cammi, C. Pomelli, J. W. Ochterski, 
 P. Y. Ayala, K. Morokuma, G. A. Voth, P. Salvador, J. J. Dannenberg, 
 V. G. Zakrzewski, S. Dapprich, A. D. Daniels, M. C. Strain, 
 O. Farkas, D. K. Malick, A. D. Rabuck, K. Raghavachari, 
 J. B. Foresman, J. V. Ortiz, Q. Cui, A. G. Baboul, S. Clifford, 
 J. Cioslowski, B. B. Stefanov, G. Liu, A. Liashenko, P. Piskorz, 
 I. Komaromi, R. L. Martin, D. J. Fox, T. Keith, M. A. Al-Laham, 
 C. Y. Peng, A. Nanayakkara, M. Challacombe, P. M. W. Gill, 
 B. Johnson, W. Chen, M. W. Wong, C. Gonzalez, and J. A. Pople, 
 Gaussian, Inc., Wallingford CT, 2004.
 
 ******************************************
 Gaussian 03:  AM64L-G03RevE.01 11-Sep-2007
                 6-Apr-2011 
 ******************************************
 %NprocShared=4
 Will use up to    4 processors via shared memory.
 %mem=3750MB
 %chk=S9L-ne-d-01
 ----------------------------------------------------------------------
 # b3lyp/LANL2DZ opt=(calcall,noeigentest,maxcycle=500) scfcyc=500 scf=
 xqc
 ----------------------------------------------------------------------
 1/6=500,10=4,11=1,14=-1,18=20,26=3,38=1/1,3;
 2/9=110,17=6,18=5,40=1/2;
 3/5=6,6=3,11=2,16=1,25=1,30=1,74=-5/1,2,3;
 4//1;
 5/5=2,7=500,8=3,13=1,38=5/2,8;
 8/6=4,10=90,11=11/1;
 11/6=1,8=1,9=11,15=111,16=1/1,2,10;
 10/6=1/2;
 6/7=2,8=2,9=2,10=2,18=1,28=1/1;
 7/10=1,25=1/1,2,3,16;
 1/6=500,10=4,11=1,14=-1,18=20/3(3);
 2/9=110/2;
 7/8=1,9=1,25=1,44=-1/16;
 99//99;
 2/9=110/2;
 3/5=6,6=3,11=2,16=1,25=1,30=1,74=-5/1,2,3;
 4/5=5,16=3/1;
 5/5=2,7=500,8=3,13=1,38=5/2,8;
 8/6=4,10=90,11=11/1;
 11/6=1,8=1,9=11,15=111,16=1/1,2,10;
 10/6=1/2;
 7/10=1,25=1/1,2,3,16;
 1/6=500,10=4,11=1,14=-1,18=20/3(-8);
 2/9=110/2;
 6/7=2,8=2,9=2,10=2,18=1,19=2,28=1/1;
 7/8=1,9=1,25=1,44=-1/16;
 99//99;
 -----
 si3-n
 -----
 Symbolic Z-matrix:
 Charge = -1 Multiplicity = 2
 Si                    0.        1.20514  -0.44697 
 Si                    0.       -1.20514  -0.44697 
 Si                    0.        0.        1.45613 
 

 GradGradGradGradGradGradGradGradGradGradGradGradGradGradGradGradGradGrad
 Berny optimization.
 Initialization pass.
                           ----------------------------
                           !    Initial Parameters    !
                           ! (Angstroms and Degrees)  !
 --------------------------                            --------------------------
 ! Name  Definition              Value          Derivative Info.                !
 --------------------------------------------------------------------------------
 ! R1    R(1,2)                  2.4103         calculate D2E/DX2 analytically  !
 ! R2    R(1,3)                  2.2526         calculate D2E/DX2 analytically  !
 ! R3    R(2,3)                  2.2526         calculate D2E/DX2 analytically  !
 --------------------------------------------------------------------------------
 Trust Radius=3.00D-01 FncErr=1.00D-07 GrdErr=1.00D-06
 Number of steps in this run= 100 maximum allowed number of steps= 100.
 GradGradGradGradGradGradGradGradGradGradGradGradGradGradGradGradGradGrad

                          Input orientation:                          
 ---------------------------------------------------------------------
 Center     Atomic     Atomic              Coordinates (Angstroms)
 Number     Number      Type              X           Y           Z
 ---------------------------------------------------------------------
    1         14             0        0.000000    1.205142   -0.446974
    2         14             0        0.000000   -1.205142   -0.446974
    3         14             0        0.000000    0.000000    1.456126
 ---------------------------------------------------------------------
                    Distance matrix (angstroms):
                    1          2          3
     1  Si   0.000000
     2  Si   2.410284   0.000000
     3  Si   2.252589   2.252589   0.000000
 Stoichiometry    Si3(1-,2)
 Framework group  C2V[C2(Si),SGV(Si2)]
 Deg. of freedom     2
 Full point group                 C2V
 Largest Abelian subgroup         C2V     NOp   4
 Largest concise Abelian subgroup C2      NOp   2
                         Standard orientation:                         
 ---------------------------------------------------------------------
 Center     Atomic     Atomic              Coordinates (Angstroms)
 Number     Number      Type              X           Y           Z
 ---------------------------------------------------------------------
    1         14             0        0.000000    1.205142   -0.634367
    2         14             0        0.000000   -1.205142   -0.634367
    3         14             0        0.000000    0.000000    1.268733
 ---------------------------------------------------------------------
 Rotational constants (GHZ):      7.4814401      6.2188592      3.3959859
 Standard basis: LANL2DZ (5D, 7F)
 There are    10 symmetry adapted basis functions of A1  symmetry.
 There are     2 symmetry adapted basis functions of A2  symmetry.
 There are     4 symmetry adapted basis functions of B1  symmetry.
 There are     8 symmetry adapted basis functions of B2  symmetry.
 Integral buffers will be    131072 words long.
 Raffenetti 2 integral format.
 Two-electron integral symmetry is turned on.
    24 basis functions,    36 primitive gaussians,    24 cartesian basis functions
     7 alpha electrons        6 beta electrons
       nuclear repulsion energy        11.0302217870 Hartrees.
 NAtoms=    3 NActive=    3 NUniq=    2 SFac= 1.69D+00 NAtFMM=   80 NAOKFM=F Big=F
 One-electron integrals computed using PRISM.
   4 Symmetry operations used in ECPInt.
 ECPInt:  NShTT=      78 NPrTT=     177 LenC2=      79 LenP2D=     177.
 LDataN:  DoStor=F MaxTD1= 3 Len=   28
 LDataN:  DoStor=T MaxTD1= 3 Len=   28
 NBasis=    24 RedAO= T  NBF=    10     2     4     8
 NBsUse=    24 1.00D-06 NBFU=    10     2     4     8
 Harris functional with IExCor=  402 diagonalized for initial guess.
 ExpMin= 8.85D-02 ExpMax= 2.58D+00 ExpMxC= 2.58D+00 IAcc=2 IRadAn=         4 AccDes= 0.00D+00
 HarFok:  IExCor= 402 AccDes= 0.00D+00 IRadAn=         4 IDoV=1
 ScaDFX=  1.000000  1.000000  1.000000  1.000000
 Initial guess orbital symmetries:
 Alpha Orbitals:
       Occupied  (A1) (B2) (A1) (A1) (B1) (B2) (A1)
       Virtual   (A2) (B1) (B2) (B2) (A1) (A1) (B2) (B1) (A1) (B2)
                 (A1) (A2) (B1) (B2) (A1) (B2) (A1)
 Beta  Orbitals:
       Occupied  (A1) (B2) (A1) (A1) (B1) (B2)
       Virtual   (A1) (A2) (B1) (B2) (B2) (A1) (A1) (B2) (B1) (A1)
                 (B2) (A1) (A2) (B1) (B2) (A1) (B2) (A1)
 The electronic state of the initial guess is 2-A1.
 <S**2> of initial guess= 0.7500
 Requested convergence on RMS density matrix=1.00D-08 within 128 cycles.
 Requested convergence on MAX density matrix=1.00D-06.
 Requested convergence on             energy=1.00D-06.
 No special actions if energy rises.
 Keep R1 and R2 integrals in memory in canonical form, NReq=     1790961.
 Integral accuracy reduced to 1.0D-05 until final iterations.
 Initial convergence to 1.0D-05 achieved.  Increase integral accuracy.
 SCF Done:  E(UB+HF-LYP) =  -11.5785783189     A.U. after   16 cycles
             Convg  =    0.9918D-08             -V/T =  3.5419
             S**2   =   0.7537
 Annihilation of the first spin contaminant:
 S**2 before annihilation     0.7537,   after     0.7500
 QCSCF skips out because SCF is already converged.
 Range of M.O.s used for correlation:     1    24
 NBasis=    24 NAE=     7 NBE=     6 NFC=     0 NFV=     0
 NROrb=     24 NOA=     7 NOB=     6 NVA=    17 NVB=    18

 **** Warning!!: The smallest beta delta epsilon is  0.59478088D-01

   4 Symmetry operations used in ECPInt.
 ECPInt:  NShTT=      78 NPrTT=     177 LenC2=      79 LenP2D=     177.
 LDataN:  DoStor=F MaxTD1= 4 Len=   56
 LDataN:  DoStor=T MaxTD1= 4 Len=   56
 Symmetrizing basis deriv contribution to polar:
 IMax=3 JMax=2 DiffMx= 0.00D+00
 G2DrvN: will do    4 centers at a time, making    1 passes doing MaxLOS=1.
 FoFDir/FoFCou used for L=0 through L=1.
 DoAtom=TTT
          Differentiating once with respect to electric field.
                with respect to dipole field.
          Differentiating once with respect to nuclear coordinates.
          Store integrals in memory, NReq=      891307.
          There are   9 degrees of freedom in the 1st order CPHF.
     9 vectors were produced by pass  0.
 AX will form   9 AO Fock derivatives at one time.
     9 vectors were produced by pass  1.
     9 vectors were produced by pass  2.
     9 vectors were produced by pass  3.
     9 vectors were produced by pass  4.
     9 vectors were produced by pass  5.
     9 vectors were produced by pass  6.
     6 vectors were produced by pass  7.
     4 vectors were produced by pass  8.
     2 vectors were produced by pass  9.
 Inv2:  IOpt= 1 Iter= 1 AM= 2.06D-15 Conv= 1.00D-12.
 Inverted reduced A of dimension   75 with in-core refinement.
 Isotropic polarizability for W=    0.000000       94.48 Bohr**3.
 End of Minotr Frequency-dependent properties file   721 does not exist.

 **********************************************************************

            Population analysis using the SCF density.

 **********************************************************************

 Orbital symmetries:
 Alpha Orbitals:
       Occupied  (A1) (B2) (A1) (B1) (A1) (A1) (B2)
       Virtual   (A2) (B1) (B2) (B2) (A1) (A1) (B2) (A1) (B1) (A2)
                 (B1) (B2) (A1) (B2) (A1) (B2) (A1)
 Beta  Orbitals:
       Occupied  (A1) (B2) (A1) (B1) (A1) (B2)
       Virtual   (A1) (A2) (B1) (B2) (B2) (A1) (A1) (B2) (B1) (A1)
                 (A2) (B1) (B2) (A1) (B2) (A1) (B2) (A1)
 The electronic state is 2-A1.
 Alpha  occ. eigenvalues --   -0.41088  -0.20699  -0.18616  -0.06138  -0.04820
 Alpha  occ. eigenvalues --   -0.02032  -0.01456
 Alpha virt. eigenvalues --    0.10029   0.11322   0.18947   0.21456   0.22404
 Alpha virt. eigenvalues --    0.45040   0.47903   0.49265   0.49708   0.52772
 Alpha virt. eigenvalues --    0.53474   0.53657   0.56468   0.59624   5.60437
 Alpha virt. eigenvalues --    8.85498   9.03778
  Beta  occ. eigenvalues --   -0.40123  -0.18965  -0.16634  -0.05696  -0.03118
  Beta  occ. eigenvalues --   -0.00950
  Beta virt. eigenvalues --    0.04998   0.10514   0.11907   0.20622   0.22333
  Beta virt. eigenvalues --    0.23182   0.45829   0.48125   0.49991   0.50855
  Beta virt. eigenvalues --    0.53028   0.53798   0.54708   0.57807   0.60535
  Beta virt. eigenvalues --    5.60724   8.85578   9.03963
          Condensed to atoms (all electrons):
              1          2          3
     1  Si   3.988392   0.127325   0.206148
     2  Si   0.127325   3.988392   0.206148
     3  Si   0.206148   0.206148   3.943973
 Mulliken atomic charges:
              1
     1  Si  -0.321865
     2  Si  -0.321865
     3  Si  -0.356270
 Sum of Mulliken charges=  -1.00000
 Atomic charges with hydrogens summed into heavy atoms:
              1
     1  Si  -0.321865
     2  Si  -0.321865
     3  Si  -0.356270
 Sum of Mulliken charges=  -1.00000
          Atomic-Atomic Spin Densities.
              1          2          3
     1  Si   0.316254   0.060812  -0.027170
     2  Si   0.060812   0.316254  -0.027170
     3  Si  -0.027170  -0.027170   0.354547
 Mulliken atomic spin densities:
              1
     1  Si   0.349897
     2  Si   0.349897
     3  Si   0.300207
 Sum of Mulliken spin densities=   1.00000
 APT atomic charges:
              1
     1  Si  -0.359146
     2  Si  -0.359146
     3  Si  -0.281708
 Sum of APT charges=  -1.00000
 APT Atomic charges with hydrogens summed into heavy atoms:
              1
     1  Si  -0.359146
     2  Si  -0.359146
     3  Si  -0.281708
 Sum of APT charges=  -1.00000
 Electronic spatial extent (au):  <R**2>=   184.7098
 Charge=    -1.0000 electrons
 Dipole moment (field-independent basis, Debye):
    X=     0.0000    Y=     0.0000    Z=     0.6329  Tot=     0.6329
 Quadrupole moment (field-independent basis, Debye-Ang):
   XX=   -40.1133   YY=   -53.7345   ZZ=   -52.3953
   XY=     0.0000   XZ=     0.0000   YZ=     0.0000
 Traceless Quadrupole moment (field-independent basis, Debye-Ang):
   XX=     8.6344   YY=    -4.9868   ZZ=    -3.6476
   XY=     0.0000   XZ=     0.0000   YZ=     0.0000
 Octapole moment (field-independent basis, Debye-Ang**2):
  XXX=     0.0000  YYY=     0.0000  ZZZ=    -4.9421  XYY=     0.0000
  XXY=     0.0000  XXZ=     0.0671  XZZ=     0.0000  YZZ=     0.0000
  YYZ=    14.7191  XYZ=     0.0000
 Hexadecapole moment (field-independent basis, Debye-Ang**3):
 XXXX=   -86.6058 YYYY=  -389.5918 ZZZZ=  -336.1149 XXXY=     0.0000
 XXXZ=     0.0000 YYYX=     0.0000 YYYZ=     0.0000 ZZZX=     0.0000
 ZZZY=     0.0000 XXYY=   -70.7258 XXZZ=   -64.4543 YYZZ=  -129.4435
 XXYZ=     0.0000 YYXZ=     0.0000 ZZXY=     0.0000
 N-N= 1.103022178705D+01 E-N=-4.590058463552D+01  KE= 4.555129437149D+00
 Symmetry A1   KE= 2.391218450794D+00
 Symmetry A2   KE=-7.810882944263D-35
 Symmetry B1   KE= 6.317134343051D-01
 Symmetry B2   KE= 1.532197552050D+00
  Exact polarizability:  39.342   0.000 127.052   0.000   0.000 117.043
 Approx polarizability:  56.611   0.000 260.648   0.000   0.000 291.783
                          Isotropic Fermi Contact Couplings
        Atom                 a.u.       MegaHertz       Gauss      10(-4) cm-1
     1  Si(29)             0.00000      -0.00043      -0.00015      -0.00014
     2  Si(29)             0.00000      -0.00043      -0.00015      -0.00014
     3  Si(29)             0.00000       0.00011       0.00004       0.00004
 --------------------------------------------------------
       Center         ----  Spin Dipole Couplings  ----
                      3XX-RR        3YY-RR        3ZZ-RR
 --------------------------------------------------------
     1   Atom       -0.026210      0.012549      0.013660
     2   Atom       -0.026210      0.012549      0.013660
     3   Atom       -0.022771     -0.017969      0.040740
 --------------------------------------------------------
                        XY            XZ            YZ
 --------------------------------------------------------
     1   Atom        0.000000      0.000000      0.034756
     2   Atom        0.000000      0.000000     -0.034756
     3   Atom        0.000000      0.000000      0.000000
 --------------------------------------------------------


 ---------------------------------------------------------------------------------
              Anisotropic Spin Dipole Couplings in Principal Axis System
 ---------------------------------------------------------------------------------

       Atom             a.u.   MegaHertz   Gauss  10(-4) cm-1        Axes

              Baa    -0.0262     2.780     0.992     0.927  1.0000  0.0000  0.0000
     1 Si(29) Bbb    -0.0217     2.297     0.820     0.766  0.0000  0.7127 -0.7014
              Bcc     0.0479    -5.078    -1.812    -1.694  0.0000  0.7014  0.7127
 
              Baa    -0.0262     2.780     0.992     0.927  1.0000  0.0000  0.0000
     2 Si(29) Bbb    -0.0217     2.297     0.820     0.766  0.0000  0.7127  0.7014
              Bcc     0.0479    -5.078    -1.812    -1.694  0.0000 -0.7014  0.7127
 
              Baa    -0.0228     2.416     0.862     0.806  1.0000  0.0000  0.0000
     3 Si(29) Bbb    -0.0180     1.906     0.680     0.636  0.0000  1.0000  0.0000
              Bcc     0.0407    -4.322    -1.542    -1.442  0.0000  0.0000  1.0000
 

 ---------------------------------------------------------------------------------

   4 Symmetry operations used in ECPInt.
 ECPInt:  NShTT=      78 NPrTT=     177 LenC2=      79 LenP2D=     177.
 LDataN:  DoStor=F MaxTD1= 5 Len=  102
 LDataN:  DoStor=T MaxTD1= 5 Len=  102
 ***** Axes restored to original set *****
 -------------------------------------------------------------------
 Center     Atomic                   Forces (Hartrees/Bohr)
 Number     Number              X              Y              Z
 -------------------------------------------------------------------
    1         14           0.000000000    0.026054846   -0.011862930
    2         14           0.000000000   -0.026054846   -0.011862930
    3         14           0.000000000    0.000000000    0.023725860
 -------------------------------------------------------------------
 Cartesian Forces:  Max     0.026054846 RMS     0.015642125

 GradGradGradGradGradGradGradGradGradGradGradGradGradGradGradGradGradGrad
 Berny optimization.
 Internal  Forces:  Max     0.018542622 RMS     0.015686024
 Search for a local minimum.
 Step number   1 out of a maximum of 100
 All quantities printed in internal units (Hartrees-Bohrs-Radians)
 Second derivative matrix not updated -- analytic derivatives used.
 The second derivative matrix:
                          R1        R2        R3
           R1           0.06143
           R2           0.00431   0.09087
           R3           0.00431   0.02146   0.09087
     Eigenvalues ---    0.06071   0.06941   0.11305
 RFO step:  Lambda=-7.74833144D-03.
 Linear search not attempted -- first point.
 Iteration  1 RMS(Cart)=  0.08700478 RMS(Int)=  0.03163631
 Iteration  2 RMS(Cart)=  0.02392674 RMS(Int)=  0.00010054
 Iteration  3 RMS(Cart)=  0.00006956 RMS(Int)=  0.00000000
 Iteration  4 RMS(Cart)=  0.00000000 RMS(Int)=  0.00000000
 Variable       Old X    -DE/DX   Delta X   Delta X   Delta X     New X
                                 (Linear)    (Quad)   (Total)
    R1        4.55478   0.01854   0.00000   0.25460   0.25460   4.80938
    R2        4.25678   0.01404   0.00000   0.10780   0.10780   4.36458
    R3        4.25678   0.01404   0.00000   0.10780   0.10780   4.36458
         Item               Value     Threshold  Converged?
 Maximum Force            0.018543     0.000450     NO 
 RMS     Force            0.015686     0.000300     NO 
 Maximum Displacement     0.127299     0.001800     NO 
 RMS     Displacement     0.106183     0.001200     NO 
 Predicted change in Energy=-4.215340D-03
 GradGradGradGradGradGradGradGradGradGradGradGradGradGradGradGradGradGrad

                          Input orientation:                          
 ---------------------------------------------------------------------
 Center     Atomic     Atomic              Coordinates (Angstroms)
 Number     Number      Type              X           Y           Z
 ---------------------------------------------------------------------
    1         14             0        0.000000    1.272506   -0.455098
    2         14             0        0.000000   -1.272506   -0.455098
    3         14             0        0.000000    0.000000    1.472373
 ---------------------------------------------------------------------
                    Distance matrix (angstroms):
                    1          2          3
     1  Si   0.000000
     2  Si   2.545012   0.000000
     3  Si   2.309635   2.309635   0.000000
 Stoichiometry    Si3(1-,2)
 Framework group  C2V[C2(Si),SGV(Si2)]
 Deg. of freedom     2
 Full point group                 C2V
 Largest Abelian subgroup         C2V     NOp   4
 Largest concise Abelian subgroup C2      NOp   2
                         Standard orientation:                         
 ---------------------------------------------------------------------
 Center     Atomic     Atomic              Coordinates (Angstroms)
 Number     Number      Type              X           Y           Z
 ---------------------------------------------------------------------
    1         14             0        0.000000    1.272506   -0.642490
    2         14             0        0.000000   -1.272506   -0.642490
    3         14             0        0.000000    0.000000    1.284981
 ---------------------------------------------------------------------
 Rotational constants (GHZ):      7.2934450      5.5778587      3.1606593
 Standard basis: LANL2DZ (5D, 7F)
 There are    10 symmetry adapted basis functions of A1  symmetry.
 There are     2 symmetry adapted basis functions of A2  symmetry.
 There are     4 symmetry adapted basis functions of B1  symmetry.
 There are     8 symmetry adapted basis functions of B2  symmetry.
 Integral buffers will be    131072 words long.
 Raffenetti 2 integral format.
 Two-electron integral symmetry is turned on.
    24 basis functions,    36 primitive gaussians,    24 cartesian basis functions
     7 alpha electrons        6 beta electrons
       nuclear repulsion energy        10.6585855973 Hartrees.
 NAtoms=    3 NActive=    3 NUniq=    2 SFac= 1.69D+00 NAtFMM=   80 NAOKFM=F Big=F
 One-electron integrals computed using PRISM.
   4 Symmetry operations used in ECPInt.
 ECPInt:  NShTT=      78 NPrTT=     177 LenC2=      79 LenP2D=     177.
 LDataN:  DoStor=F MaxTD1= 3 Len=   28
 LDataN:  DoStor=T MaxTD1= 3 Len=   28
 NBasis=    24 RedAO= T  NBF=    10     2     4     8
 NBsUse=    24 1.00D-06 NBFU=    10     2     4     8
 Initial guess read from the read-write file:
 Initial guess orbital symmetries:
 Alpha Orbitals:
       Occupied  (A1) (B2) (A1) (B1) (A1) (A1) (B2)
       Virtual   (A2) (B1) (B2) (B2) (A1) (A1) (B2) (A1) (B1) (A2)
                 (B1) (B2) (A1) (B2) (A1) (B2) (A1)
 Beta  Orbitals:
       Occupied  (A1) (B2) (A1) (B1) (A1) (B2)
       Virtual   (A1) (A2) (B1) (B2) (B2) (A1) (A1) (B2) (B1) (A1)
                 (A2) (B1) (B2) (A1) (B2) (A1) (B2) (A1)
 <S**2> of initial guess= 0.7539
 Harris functional with IExCor=  402 diagonalized for initial guess.
 ExpMin= 8.85D-02 ExpMax= 2.58D+00 ExpMxC= 2.58D+00 IAcc=2 IRadAn=         4 AccDes= 0.00D+00
 HarFok:  IExCor= 402 AccDes= 0.00D+00 IRadAn=         4 IDoV=1
 ScaDFX=  1.000000  1.000000  1.000000  1.000000
 Requested convergence on RMS density matrix=1.00D-08 within 128 cycles.
 Requested convergence on MAX density matrix=1.00D-06.
 Requested convergence on             energy=1.00D-06.
 No special actions if energy rises.
 Keep R1 and R2 integrals in memory in canonical form, NReq=     1790961.
 Integral accuracy reduced to 1.0D-05 until final iterations.
 Initial convergence to 1.0D-05 achieved.  Increase integral accuracy.
 SCF Done:  E(UB+HF-LYP) =  -11.5831725162     A.U. after   17 cycles
             Convg  =    0.3421D-08             -V/T =  3.5904
             S**2   =   0.7545
 Annihilation of the first spin contaminant:
 S**2 before annihilation     0.7545,   after     0.7500
 QCSCF skips out because SCF is already converged.
 Range of M.O.s used for correlation:     1    24
 NBasis=    24 NAE=     7 NBE=     6 NFC=     0 NFV=     0
 NROrb=     24 NOA=     7 NOB=     6 NVA=    17 NVB=    18

 **** Warning!!: The smallest beta delta epsilon is  0.64141378D-01

   4 Symmetry operations used in ECPInt.
 ECPInt:  NShTT=      78 NPrTT=     177 LenC2=      79 LenP2D=     177.
 LDataN:  DoStor=F MaxTD1= 4 Len=   56
 LDataN:  DoStor=T MaxTD1= 4 Len=   56
 Symmetrizing basis deriv contribution to polar:
 IMax=3 JMax=2 DiffMx= 0.00D+00
 G2DrvN: will do    4 centers at a time, making    1 passes doing MaxLOS=1.
 FoFDir/FoFCou used for L=0 through L=1.
 DoAtom=TTT
          Differentiating once with respect to electric field.
                with respect to dipole field.
          Differentiating once with respect to nuclear coordinates.
          Store integrals in memory, NReq=      891307.
          There are   9 degrees of freedom in the 1st order CPHF.
     9 vectors were produced by pass  0.
 AX will form   9 AO Fock derivatives at one time.
     9 vectors were produced by pass  1.
     9 vectors were produced by pass  2.
     9 vectors were produced by pass  3.
     9 vectors were produced by pass  4.
     9 vectors were produced by pass  5.
     9 vectors were produced by pass  6.
     8 vectors were produced by pass  7.
     4 vectors were produced by pass  8.
     1 vectors were produced by pass  9.
 Inv2:  IOpt= 1 Iter= 1 AM= 1.73D-15 Conv= 1.00D-12.
 Inverted reduced A of dimension   76 with in-core refinement.
 Isotropic polarizability for W=    0.000000       96.37 Bohr**3.
 End of Minotr Frequency-dependent properties file   721 does not exist.
   4 Symmetry operations used in ECPInt.
 ECPInt:  NShTT=      78 NPrTT=     177 LenC2=      79 LenP2D=     177.
 LDataN:  DoStor=F MaxTD1= 5 Len=  102
 LDataN:  DoStor=T MaxTD1= 5 Len=  102
 ***** Axes restored to original set *****
 -------------------------------------------------------------------
 Center     Atomic                   Forces (Hartrees/Bohr)
 Number     Number              X              Y              Z
 -------------------------------------------------------------------
    1         14           0.000000000    0.006335402   -0.001857504
    2         14           0.000000000   -0.006335402   -0.001857504
    3         14           0.000000000    0.000000000    0.003715008
 -------------------------------------------------------------------
 Cartesian Forces:  Max     0.006335402 RMS     0.003349570

 GradGradGradGradGradGradGradGradGradGradGradGradGradGradGradGradGradGrad
 Berny optimization.
 Internal  Forces:  Max     0.005109087 RMS     0.003464636
 Search for a local minimum.
 Step number   2 out of a maximum of 100
 All quantities printed in internal units (Hartrees-Bohrs-Radians)
 Second derivative matrix not updated -- analytic derivatives used.
 Trust test= 1.09D+00 RLast= 2.97D-01 DXMaxT set to 4.24D-01
 The second derivative matrix:
                          R1        R2        R3
           R1           0.04012
           R2           0.00266   0.08067
           R3           0.00266   0.01061   0.08067
     Eigenvalues ---    0.03984   0.07006   0.09156
 RFO step:  Lambda=-1.16204622D-04.
 Quintic linear search produced a step of  0.37760.
 Iteration  1 RMS(Cart)=  0.05514092 RMS(Int)=  0.00039241
 Iteration  2 RMS(Cart)=  0.00029858 RMS(Int)=  0.00000002
 Iteration  3 RMS(Cart)=  0.00000001 RMS(Int)=  0.00000000
 Variable       Old X    -DE/DX   Delta X   Delta X   Delta X     New X
                                 (Linear)    (Quad)   (Total)
    R1        4.80938   0.00511   0.09614   0.03742   0.13355   4.94293
    R2        4.36458   0.00223   0.04071  -0.01922   0.02149   4.38607
    R3        4.36458   0.00223   0.04071  -0.01922   0.02149   4.38607
         Item               Value     Threshold  Converged?
 Maximum Force            0.005109     0.000450     NO 
 RMS     Force            0.003465     0.000300     NO 
 Maximum Displacement     0.066777     0.001800     NO 
 RMS     Displacement     0.055250     0.001200     NO 
 Predicted change in Energy=-3.627722D-04
 GradGradGradGradGradGradGradGradGradGradGradGradGradGradGradGradGradGrad

                          Input orientation:                          
 ---------------------------------------------------------------------
 Center     Atomic     Atomic              Coordinates (Angstroms)
 Number     Number      Type              X           Y           Z
 ---------------------------------------------------------------------
    1         14             0        0.000000    1.307843   -0.451757
    2         14             0        0.000000   -1.307843   -0.451757
    3         14             0        0.000000    0.000000    1.465693
 ---------------------------------------------------------------------
                    Distance matrix (angstroms):
                    1          2          3
     1  Si   0.000000
     2  Si   2.615686   0.000000
     3  Si   2.321006   2.321006   0.000000
 Stoichiometry    Si3(1-,2)
 Framework group  C2V[C2(Si),SGV(Si2)]
 Deg. of freedom     2
 Full point group                 C2V
 Largest Abelian subgroup         C2V     NOp   4
 Largest concise Abelian subgroup C2      NOp   2
                         Standard orientation:                         
 ---------------------------------------------------------------------
 Center     Atomic     Atomic              Coordinates (Angstroms)
 Number     Number      Type              X           Y           Z
 ---------------------------------------------------------------------
    1         14             0        0.000000    1.307843   -0.639150
    2         14             0        0.000000   -1.307843   -0.639150
    3         14             0        0.000000    0.000000    1.278300
 ---------------------------------------------------------------------
 Rotational constants (GHZ):      7.3698781      5.2805102      3.0763258
 Standard basis: LANL2DZ (5D, 7F)
 There are    10 symmetry adapted basis functions of A1  symmetry.
 There are     2 symmetry adapted basis functions of A2  symmetry.
 There are     4 symmetry adapted basis functions of B1  symmetry.
 There are     8 symmetry adapted basis functions of B2  symmetry.
 Integral buffers will be    131072 words long.
 Raffenetti 2 integral format.
 Two-electron integral symmetry is turned on.
    24 basis functions,    36 primitive gaussians,    24 cartesian basis functions
     7 alpha electrons        6 beta electrons
       nuclear repulsion energy        10.5327789232 Hartrees.
 NAtoms=    3 NActive=    3 NUniq=    2 SFac= 1.69D+00 NAtFMM=   80 NAOKFM=F Big=F
 One-electron integrals computed using PRISM.
   4 Symmetry operations used in ECPInt.
 ECPInt:  NShTT=      78 NPrTT=     177 LenC2=      79 LenP2D=     177.
 LDataN:  DoStor=F MaxTD1= 3 Len=   28
 LDataN:  DoStor=T MaxTD1= 3 Len=   28
 NBasis=    24 RedAO= T  NBF=    10     2     4     8
 NBsUse=    24 1.00D-06 NBFU=    10     2     4     8
 Initial guess read from the read-write file:
 Initial guess orbital symmetries:
 Alpha Orbitals:
       Occupied  (A1) (B2) (A1) (B1) (A1) (B2) (A1)
       Virtual   (A2) (B1) (B2) (B2) (A1) (A1) (B2) (B1) (A1) (B2)
                 (A2) (B1) (A1) (B2) (A1) (B2) (A1)
 Beta  Orbitals:
       Occupied  (A1) (B2) (A1) (B1) (A1) (B2)
       Virtual   (A1) (A2) (B1) (B2) (B2) (A1) (A1) (B2) (B1) (A1)
                 (B2) (A2) (B1) (A1) (B2) (A1) (B2) (A1)
 <S**2> of initial guess= 0.7546
 Harris functional with IExCor=  402 diagonalized for initial guess.
 ExpMin= 8.85D-02 ExpMax= 2.58D+00 ExpMxC= 2.58D+00 IAcc=2 IRadAn=         4 AccDes= 0.00D+00
 HarFok:  IExCor= 402 AccDes= 0.00D+00 IRadAn=         4 IDoV=1
 ScaDFX=  1.000000  1.000000  1.000000  1.000000
 Requested convergence on RMS density matrix=1.00D-08 within 128 cycles.
 Requested convergence on MAX density matrix=1.00D-06.
 Requested convergence on             energy=1.00D-06.
 No special actions if energy rises.
 Keep R1 and R2 integrals in memory in canonical form, NReq=     1790961.
 Integral accuracy reduced to 1.0D-05 until final iterations.
 Initial convergence to 1.0D-05 achieved.  Increase integral accuracy.
 SCF Done:  E(UB+HF-LYP) =  -11.5835596492     A.U. after   15 cycles
             Convg  =    0.4931D-08             -V/T =  3.6054
             S**2   =   0.7552
 Annihilation of the first spin contaminant:
 S**2 before annihilation     0.7552,   after     0.7500
 QCSCF skips out because SCF is already converged.
 Range of M.O.s used for correlation:     1    24
 NBasis=    24 NAE=     7 NBE=     6 NFC=     0 NFV=     0
 NROrb=     24 NOA=     7 NOB=     6 NVA=    17 NVB=    18

 **** Warning!!: The smallest beta delta epsilon is  0.67984143D-01

   4 Symmetry operations used in ECPInt.
 ECPInt:  NShTT=      78 NPrTT=     177 LenC2=      79 LenP2D=     177.
 LDataN:  DoStor=F MaxTD1= 4 Len=   56
 LDataN:  DoStor=T MaxTD1= 4 Len=   56
 Symmetrizing basis deriv contribution to polar:
 IMax=3 JMax=2 DiffMx= 0.00D+00
 G2DrvN: will do    4 centers at a time, making    1 passes doing MaxLOS=1.
 FoFDir/FoFCou used for L=0 through L=1.
 DoAtom=TTT
          Differentiating once with respect to electric field.
                with respect to dipole field.
          Differentiating once with respect to nuclear coordinates.
          Store integrals in memory, NReq=      891307.
          There are   9 degrees of freedom in the 1st order CPHF.
     9 vectors were produced by pass  0.
 AX will form   9 AO Fock derivatives at one time.
     9 vectors were produced by pass  1.
     9 vectors were produced by pass  2.
     9 vectors were produced by pass  3.
     9 vectors were produced by pass  4.
     9 vectors were produced by pass  5.
     9 vectors were produced by pass  6.
     8 vectors were produced by pass  7.
     4 vectors were produced by pass  8.
     1 vectors were produced by pass  9.
 Inv2:  IOpt= 1 Iter= 1 AM= 1.13D-15 Conv= 1.00D-12.
 Inverted reduced A of dimension   76 with in-core refinement.
 Isotropic polarizability for W=    0.000000       97.33 Bohr**3.
 End of Minotr Frequency-dependent properties file   721 does not exist.
   4 Symmetry operations used in ECPInt.
 ECPInt:  NShTT=      78 NPrTT=     177 LenC2=      79 LenP2D=     177.
 LDataN:  DoStor=F MaxTD1= 5 Len=  102
 LDataN:  DoStor=T MaxTD1= 5 Len=  102
 ***** Axes restored to original set *****
 -------------------------------------------------------------------
 Center     Atomic                   Forces (Hartrees/Bohr)
 Number     Number              X              Y              Z
 -------------------------------------------------------------------
    1         14           0.000000000    0.000147937   -0.000011346
    2         14           0.000000000   -0.000147937   -0.000011346
    3         14           0.000000000    0.000000000    0.000022692
 -------------------------------------------------------------------
 Cartesian Forces:  Max     0.000147937 RMS     0.000070351

 GradGradGradGradGradGradGradGradGradGradGradGradGradGradGradGradGradGrad
 Berny optimization.
 Internal  Forces:  Max     0.000140199 RMS     0.000081717
 Search for a local minimum.
 Step number   3 out of a maximum of 100
 All quantities printed in internal units (Hartrees-Bohrs-Radians)
 Second derivative matrix not updated -- analytic derivatives used.
 Trust test= 1.07D+00 RLast= 1.37D-01 DXMaxT set to 4.24D-01
 The second derivative matrix:
                          R1        R2        R3
           R1           0.03321
           R2           0.00155   0.08158
           R3           0.00155   0.00714   0.08158
     Eigenvalues ---    0.03312   0.07443   0.08881
 RFO step:  Lambda=-5.57461699D-08.
 Quintic linear search produced a step of  0.02798.
 Iteration  1 RMS(Cart)=  0.00184149 RMS(Int)=  0.00000059
 Iteration  2 RMS(Cart)=  0.00000041 RMS(Int)=  0.00000000
 Variable       Old X    -DE/DX   Delta X   Delta X   Delta X     New X
                                 (Linear)    (Quad)   (Total)
    R1        4.94293   0.00014   0.00374   0.00049   0.00423   4.94716
    R2        4.38607   0.00001   0.00060  -0.00053   0.00007   4.38614
    R3        4.38607   0.00001   0.00060  -0.00053   0.00007   4.38614
         Item               Value     Threshold  Converged?
 Maximum Force            0.000140     0.000450     YES
 RMS     Force            0.000082     0.000300     YES
 Maximum Displacement     0.002116     0.001800     NO 
 RMS     Displacement     0.001842     0.001200     NO 
 Predicted change in Energy=-2.965389D-07
 GradGradGradGradGradGradGradGradGradGradGradGradGradGradGradGradGradGrad

                          Input orientation:                          
 ---------------------------------------------------------------------
 Center     Atomic     Atomic              Coordinates (Angstroms)
 Number     Number      Type              X           Y           Z
 ---------------------------------------------------------------------
    1         14             0        0.000000    1.308963   -0.451519
    2         14             0        0.000000   -1.308963   -0.451519
    3         14             0        0.000000    0.000000    1.465215
 ---------------------------------------------------------------------
                    Distance matrix (angstroms):
                    1          2          3
     1  Si   0.000000
     2  Si   2.617925   0.000000
     3  Si   2.321045   2.321045   0.000000
 Stoichiometry    Si3(1-,2)
 Framework group  C2V[C2(Si),SGV(Si2)]
 Deg. of freedom     2
 Full point group                 C2V
 Largest Abelian subgroup         C2V     NOp   4
 Largest concise Abelian subgroup C2      NOp   2
                         Standard orientation:                         
 ---------------------------------------------------------------------
 Center     Atomic     Atomic              Coordinates (Angstroms)
 Number     Number      Type              X           Y           Z
 ---------------------------------------------------------------------
    1         14             0        0.000000    1.308963   -0.638911
    2         14             0        0.000000   -1.308963   -0.638911
    3         14             0        0.000000    0.000000    1.277822
 ---------------------------------------------------------------------
 Rotational constants (GHZ):      7.3753886      5.2714807      3.0742169
 Standard basis: LANL2DZ (5D, 7F)
 There are    10 symmetry adapted basis functions of A1  symmetry.
 There are     2 symmetry adapted basis functions of A2  symmetry.
 There are     4 symmetry adapted basis functions of B1  symmetry.
 There are     8 symmetry adapted basis functions of B2  symmetry.
 Integral buffers will be    131072 words long.
 Raffenetti 2 integral format.
 Two-electron integral symmetry is turned on.
    24 basis functions,    36 primitive gaussians,    24 cartesian basis functions
     7 alpha electrons        6 beta electrons
       nuclear repulsion energy        10.5298863911 Hartrees.
 NAtoms=    3 NActive=    3 NUniq=    2 SFac= 1.69D+00 NAtFMM=   80 NAOKFM=F Big=F
 One-electron integrals computed using PRISM.
   4 Symmetry operations used in ECPInt.
 ECPInt:  NShTT=      78 NPrTT=     177 LenC2=      79 LenP2D=     177.
 LDataN:  DoStor=F MaxTD1= 3 Len=   28
 LDataN:  DoStor=T MaxTD1= 3 Len=   28
 NBasis=    24 RedAO= T  NBF=    10     2     4     8
 NBsUse=    24 1.00D-06 NBFU=    10     2     4     8
 Initial guess read from the read-write file:
 Initial guess orbital symmetries:
 Alpha Orbitals:
       Occupied  (A1) (B2) (A1) (B1) (A1) (B2) (A1)
       Virtual   (A2) (B1) (B2) (B2) (A1) (A1) (B2) (B1) (B2) (A1)
                 (A2) (B1) (A1) (B2) (A1) (B2) (A1)
 Beta  Orbitals:
       Occupied  (A1) (B2) (A1) (B1) (A1) (B2)
       Virtual   (A1) (A2) (B1) (B2) (B2) (A1) (A1) (B2) (B1) (B2)
                 (A2) (A1) (B1) (A1) (B2) (A1) (B2) (A1)
 <S**2> of initial guess= 0.7552
 Requested convergence on RMS density matrix=1.00D-08 within 128 cycles.
 Requested convergence on MAX density matrix=1.00D-06.
 Requested convergence on             energy=1.00D-06.
 No special actions if energy rises.
 Keep R1 and R2 integrals in memory in canonical form, NReq=     1790961.
 SCF Done:  E(UB+HF-LYP) =  -11.5835599463     A.U. after   10 cycles
             Convg  =    0.5232D-08             -V/T =  3.6057
             S**2   =   0.7552
 Annihilation of the first spin contaminant:
 S**2 before annihilation     0.7552,   after     0.7500
 QCSCF skips out because SCF is already converged.
 Range of M.O.s used for correlation:     1    24
 NBasis=    24 NAE=     7 NBE=     6 NFC=     0 NFV=     0
 NROrb=     24 NOA=     7 NOB=     6 NVA=    17 NVB=    18

 **** Warning!!: The smallest beta delta epsilon is  0.68132585D-01

   4 Symmetry operations used in ECPInt.
 ECPInt:  NShTT=      78 NPrTT=     177 LenC2=      79 LenP2D=     177.
 LDataN:  DoStor=F MaxTD1= 4 Len=   56
 LDataN:  DoStor=T MaxTD1= 4 Len=   56
 Symmetrizing basis deriv contribution to polar:
 IMax=3 JMax=2 DiffMx= 0.00D+00
 G2DrvN: will do    4 centers at a time, making    1 passes doing MaxLOS=1.
 FoFDir/FoFCou used for L=0 through L=1.
 DoAtom=TTT
          Differentiating once with respect to electric field.
                with respect to dipole field.
          Differentiating once with respect to nuclear coordinates.
          Store integrals in memory, NReq=      891307.
          There are   9 degrees of freedom in the 1st order CPHF.
     9 vectors were produced by pass  0.
 AX will form   9 AO Fock derivatives at one time.
     9 vectors were produced by pass  1.
     9 vectors were produced by pass  2.
     9 vectors were produced by pass  3.
     9 vectors were produced by pass  4.
     9 vectors were produced by pass  5.
     9 vectors were produced by pass  6.
     8 vectors were produced by pass  7.
     4 vectors were produced by pass  8.
     1 vectors were produced by pass  9.
 Inv2:  IOpt= 1 Iter= 1 AM= 1.38D-15 Conv= 1.00D-12.
 Inverted reduced A of dimension   76 with in-core refinement.
 Isotropic polarizability for W=    0.000000       97.36 Bohr**3.
 End of Minotr Frequency-dependent properties file   721 does not exist.
   4 Symmetry operations used in ECPInt.
 ECPInt:  NShTT=      78 NPrTT=     177 LenC2=      79 LenP2D=     177.
 LDataN:  DoStor=F MaxTD1= 5 Len=  102
 LDataN:  DoStor=T MaxTD1= 5 Len=  102
 ***** Axes restored to original set *****
 -------------------------------------------------------------------
 Center     Atomic                   Forces (Hartrees/Bohr)
 Number     Number              X              Y              Z
 -------------------------------------------------------------------
    1         14           0.000000000    0.000000207   -0.000000535
    2         14           0.000000000   -0.000000207   -0.000000535
    3         14           0.000000000    0.000000000    0.000001071
 -------------------------------------------------------------------
 Cartesian Forces:  Max     0.000001071 RMS     0.000000448

 GradGradGradGradGradGradGradGradGradGradGradGradGradGradGradGradGradGrad
 Berny optimization.
 Internal  Forces:  Max     0.000000648 RMS     0.000000537
 Search for a local minimum.
 Step number   4 out of a maximum of 100
 All quantities printed in internal units (Hartrees-Bohrs-Radians)
 Second derivative matrix not updated -- analytic derivatives used.
 Trust test= 1.00D+00 RLast= 4.23D-03 DXMaxT set to 4.24D-01
 The second derivative matrix:
                          R1        R2        R3
           R1           0.03302
           R2           0.00151   0.08171
           R3           0.00151   0.00705   0.08171
     Eigenvalues ---    0.03294   0.07466   0.08885
 RFO step:  Lambda= 0.00000000D+00.
 Quintic linear search produced a step of -0.00097.
 Iteration  1 RMS(Cart)=  0.00000557 RMS(Int)=  0.00000000
 Iteration  2 RMS(Cart)=  0.00000000 RMS(Int)=  0.00000000
 Variable       Old X    -DE/DX   Delta X   Delta X   Delta X     New X
                                 (Linear)    (Quad)   (Total)
    R1        4.94716   0.00000   0.00000   0.00000  -0.00001   4.94716
    R2        4.38614   0.00000   0.00000   0.00001   0.00001   4.38615
    R3        4.38614   0.00000   0.00000   0.00001   0.00001   4.38615
         Item               Value     Threshold  Converged?
 Maximum Force            0.000001     0.000450     YES
 RMS     Force            0.000001     0.000300     YES
 Maximum Displacement     0.000007     0.001800     YES
 RMS     Displacement     0.000006     0.001200     YES
 Predicted change in Energy=-5.230772D-12
 Optimization completed.
    -- Stationary point found.
                           ----------------------------
                           !   Optimized Parameters   !
                           ! (Angstroms and Degrees)  !
 --------------------------                            --------------------------
 ! Name  Definition              Value          Derivative Info.                !
 --------------------------------------------------------------------------------
 ! R1    R(1,2)                  2.6179         -DE/DX =    0.0                 !
 ! R2    R(1,3)                  2.321          -DE/DX =    0.0                 !
 ! R3    R(2,3)                  2.321          -DE/DX =    0.0                 !
 --------------------------------------------------------------------------------
 GradGradGradGradGradGradGradGradGradGradGradGradGradGradGradGradGradGrad

                          Input orientation:                          
 ---------------------------------------------------------------------
 Center     Atomic     Atomic              Coordinates (Angstroms)
 Number     Number      Type              X           Y           Z
 ---------------------------------------------------------------------
    1         14             0        0.000000    1.308963   -0.451519
    2         14             0        0.000000   -1.308963   -0.451519
    3         14             0        0.000000    0.000000    1.465215
 ---------------------------------------------------------------------
                    Distance matrix (angstroms):
                    1          2          3
     1  Si   0.000000
     2  Si   2.617925   0.000000
     3  Si   2.321045   2.321045   0.000000
 Stoichiometry    Si3(1-,2)
 Framework group  C2V[C2(Si),SGV(Si2)]
 Deg. of freedom     2
 Full point group                 C2V
 Largest Abelian subgroup         C2V     NOp   4
 Largest concise Abelian subgroup C2      NOp   2
                         Standard orientation:                         
 ---------------------------------------------------------------------
 Center     Atomic     Atomic              Coordinates (Angstroms)
 Number     Number      Type              X           Y           Z
 ---------------------------------------------------------------------
    1         14             0        0.000000    1.308963   -0.638911
    2         14             0        0.000000   -1.308963   -0.638911
    3         14             0        0.000000    0.000000    1.277822
 ---------------------------------------------------------------------
 Rotational constants (GHZ):      7.3753886      5.2714807      3.0742169

 **********************************************************************

            Population analysis using the SCF density.

 **********************************************************************

 Orbital symmetries:
 Alpha Orbitals:
       Occupied  (A1) (B2) (A1) (B1) (A1) (B2) (A1)
       Virtual   (A2) (B1) (B2) (B2) (A1) (A1) (B2) (B1) (B2) (A1)
                 (A2) (B1) (A1) (B2) (A1) (B2) (A1)
 Beta  Orbitals:
       Occupied  (A1) (B2) (A1) (B1) (A1) (B2)
       Virtual   (A1) (A2) (B1) (B2) (B2) (A1) (A1) (B2) (B1) (B2)
                 (A2) (A1) (B1) (A1) (B2) (A1) (B2) (A1)
 The electronic state is 2-A1.
 Alpha  occ. eigenvalues --   -0.38646  -0.21583  -0.18109  -0.05212  -0.04830
 Alpha  occ. eigenvalues --   -0.02259  -0.01628
 Alpha virt. eigenvalues --    0.08909   0.11251   0.16229   0.20575   0.21814
 Alpha virt. eigenvalues --    0.46645   0.48149   0.50095   0.50952   0.51362
 Alpha virt. eigenvalues --    0.52389   0.53336   0.55063   0.58436   5.39141
 Alpha virt. eigenvalues --    8.51436   8.79248
  Beta  occ. eigenvalues --   -0.37684  -0.20059  -0.16108  -0.04793  -0.03329
  Beta  occ. eigenvalues --   -0.01577
  Beta virt. eigenvalues --    0.05236   0.09371   0.11802   0.17917   0.21467
  Beta virt. eigenvalues --    0.22607   0.47599   0.48360   0.50376   0.51826
  Beta virt. eigenvalues --    0.52635   0.52954   0.53630   0.56214   0.59296
  Beta virt. eigenvalues --    5.39478   8.51533   8.79457
          Condensed to atoms (all electrons):
              1          2          3
     1  Si   3.957686   0.126110   0.235616
     2  Si   0.126110   3.957686   0.235616
     3  Si   0.235616   0.235616   3.889942
 Mulliken atomic charges:
              1
     1  Si  -0.319413
     2  Si  -0.319413
     3  Si  -0.361175
 Sum of Mulliken charges=  -1.00000
 Atomic charges with hydrogens summed into heavy atoms:
              1
     1  Si  -0.319413
     2  Si  -0.319413
     3  Si  -0.361175
 Sum of Mulliken charges=  -1.00000
          Atomic-Atomic Spin Densities.
              1          2          3
     1  Si   0.326408   0.059726  -0.029088
     2  Si   0.059726   0.326408  -0.029088
     3  Si  -0.029088  -0.029088   0.344084
 Mulliken atomic spin densities:
              1
     1  Si   0.357046
     2  Si   0.357046
     3  Si   0.285908
 Sum of Mulliken spin densities=   1.00000
 APT atomic charges:
              1
     1  Si  -0.314186
     2  Si  -0.314186
     3  Si  -0.371629
 Sum of APT charges=  -1.00000
 APT Atomic charges with hydrogens summed into heavy atoms:
              1
     1  Si  -0.314186
     2  Si  -0.314186
     3  Si  -0.371629
 Sum of APT charges=  -1.00000
 Electronic spatial extent (au):  <R**2>=   193.7654
 Charge=    -1.0000 electrons
 Dipole moment (field-independent basis, Debye):
    X=     0.0000    Y=     0.0000    Z=     0.4553  Tot=     0.4553
 Quadrupole moment (field-independent basis, Debye-Ang):
   XX=   -40.8105   YY=   -54.4681   ZZ=   -52.4477
   XY=     0.0000   XZ=     0.0000   YZ=     0.0000
 Traceless Quadrupole moment (field-independent basis, Debye-Ang):
   XX=     8.4316   YY=    -5.2260   ZZ=    -3.2056
   XY=     0.0000   XZ=     0.0000   YZ=     0.0000
 Octapole moment (field-independent basis, Debye-Ang**2):
  XXX=     0.0000  YYY=     0.0000  ZZZ=    -4.6511  XYY=     0.0000
  XXY=     0.0000  XXZ=    -0.2166  XZZ=     0.0000  YZZ=     0.0000
  YYZ=    14.6557  XYZ=     0.0000
 Hexadecapole moment (field-independent basis, Debye-Ang**3):
 XXXX=   -89.3922 YYYY=  -440.9566 ZZZZ=  -340.3970 XXXY=     0.0000
 XXXZ=     0.0000 YYYX=     0.0000 YYYZ=     0.0000 ZZZX=     0.0000
 ZZZY=     0.0000 XXYY=   -78.2307 XXZZ=   -65.9040 YYZZ=  -137.2520
 XXYZ=     0.0000 YYXZ=     0.0000 ZZXY=     0.0000
 N-N= 1.052988639110D+01 E-N=-4.487228522458D+01  KE= 4.445459125738D+00
 Symmetry A1   KE= 2.323738669728D+00
 Symmetry A2   KE= 1.102941751745D-33
 Symmetry B1   KE= 6.208939797905D-01
 Symmetry B2   KE= 1.500826476219D+00
  Exact polarizability:  39.554   0.000 134.926   0.000   0.000 117.586
 Approx polarizability:  56.639   0.000 329.885   0.000   0.000 298.091
                          Isotropic Fermi Contact Couplings
        Atom                 a.u.       MegaHertz       Gauss      10(-4) cm-1
     1  Si(29)             0.00000      -0.00065      -0.00023      -0.00022
     2  Si(29)             0.00000      -0.00065      -0.00023      -0.00022
     3  Si(29)             0.00000      -0.00010      -0.00004      -0.00003
 --------------------------------------------------------
       Center         ----  Spin Dipole Couplings  ----
                      3XX-RR        3YY-RR        3ZZ-RR
 --------------------------------------------------------
     1   Atom       -0.024792      0.001879      0.022914
     2   Atom       -0.024792      0.001879      0.022914
     3   Atom       -0.022286     -0.019516      0.041802
 --------------------------------------------------------
                        XY            XZ            YZ
 --------------------------------------------------------
     1   Atom        0.000000      0.000000      0.032459
     2   Atom        0.000000      0.000000     -0.032459
     3   Atom        0.000000      0.000000      0.000000
 --------------------------------------------------------


 ---------------------------------------------------------------------------------
              Anisotropic Spin Dipole Couplings in Principal Axis System
 ---------------------------------------------------------------------------------

       Atom             a.u.   MegaHertz   Gauss  10(-4) cm-1        Axes

              Baa    -0.0248     2.630     0.938     0.877  1.0000  0.0000  0.0000
     1 Si(29) Bbb    -0.0217     2.305     0.822     0.769  0.0000  0.8088 -0.5881
              Bcc     0.0465    -4.935    -1.761    -1.646  0.0000  0.5881  0.8088
 
              Baa    -0.0248     2.630     0.938     0.877  1.0000  0.0000  0.0000
     2 Si(29) Bbb    -0.0217     2.305     0.822     0.769  0.0000  0.8088  0.5881
              Bcc     0.0465    -4.935    -1.761    -1.646  0.0000 -0.5881  0.8088
 
              Baa    -0.0223     2.364     0.844     0.789  1.0000  0.0000  0.0000
     3 Si(29) Bbb    -0.0195     2.070     0.739     0.691  0.0000  1.0000  0.0000
              Bcc     0.0418    -4.434    -1.582    -1.479  0.0000  0.0000  1.0000
 

 ---------------------------------------------------------------------------------

 Rotating derivatives to standard orientation.
 Full mass-weighted force constant matrix:
 Low frequencies ---   -8.1712   -4.6769   -0.0001    0.0001    0.0001    6.9898
 Low frequencies ---  223.5181  339.6648  462.4156
 Diagonal vibrational polarizability:
        0.0000000       0.0016292       0.6735975
 Harmonic frequencies (cm**-1), IR intensities (KM/Mole), Raman scattering
 activities (A**4/AMU), depolarization ratios for plane and unpolarized
 incident light, reduced masses (AMU), force constants (mDyne/A),
 and normal coordinates:
                     1                      2                      3
                    A1                     B2                     A1
 Frequencies --   223.5181               339.6647               462.4156
 Red. masses --    27.9769                27.9769                27.9769
 Frc consts  --     0.8235                 1.9017                 3.5246
 IR Inten    --     0.4355                 0.0070                 3.4883
 Atom AN      X      Y      Z        X      Y      Z        X      Y      Z
   1  14     0.00   0.61   0.21     0.00  -0.31   0.46     0.00  -0.36   0.35
   2  14     0.00  -0.61   0.21     0.00  -0.31  -0.46     0.00   0.36   0.35
   3  14     0.00   0.00  -0.41     0.00   0.62   0.00     0.00   0.00  -0.70

 -------------------
 - Thermochemistry -
 -------------------
 Temperature   298.150 Kelvin.  Pressure   1.00000 Atm.
 Atom  1 has atomic number 14 and mass  27.97693
 Atom  2 has atomic number 14 and mass  27.97693
 Atom  3 has atomic number 14 and mass  27.97693
 Molecular mass:    83.93079 amu.
 Principal axes and moments of inertia in atomic units:
                           1         2         3
     EIGENVALUES --   244.69778 342.35944 587.05722
           X            0.00000   0.00000   1.00000
           Y            1.00000   0.00000   0.00000
           Z            0.00000   1.00000   0.00000
 This molecule is an asymmetric top.
 Rotational symmetry number  2.
 Rotational temperatures (Kelvin)      0.35396     0.25299     0.14754
 Rotational constants (GHZ):           7.37539     5.27148     3.07422
 Zero-point vibrational energy       6134.4 (Joules/Mol)
                                    1.46617 (Kcal/Mol)
 Warning -- explicit consideration of   3 degrees of freedom as
           vibrations may cause significant error
 Vibrational temperatures:    321.59   488.70   665.31
          (Kelvin)
 
 Zero-point correction=                           0.002336 (Hartree/Particle)
 Thermal correction to Energy=                    0.006320
 Thermal correction to Enthalpy=                  0.007264
 Thermal correction to Gibbs Free Energy=        -0.025282
 Sum of electronic and zero-point Energies=            -11.581223
 Sum of electronic and thermal Energies=               -11.577240
 Sum of electronic and thermal Enthalpies=             -11.576296
 Sum of electronic and thermal Free Energies=          -11.608842
 
                     E (Thermal)             CV                S
                      KCal/Mol        Cal/Mol-Kelvin    Cal/Mol-Kelvin
 Total                    3.966             10.697             68.500
 Electronic               0.000              0.000              1.377
 Translational            0.889              2.981             39.196
 Rotational               0.889              2.981             24.023
 Vibrational              2.188              4.735              3.903
 Vibration  1             0.649              1.805              1.930
 Vibration  2             0.720              1.596              1.214
 Vibration  3             0.820              1.333              0.759
                       Q            Log10(Q)             Ln(Q)
 Total Bot       0.425546D+12         11.628947         26.776639
 Total V=0       0.505421D+13         12.703653         29.251242
 Vib (Bot)       0.177365D+00         -0.751133         -1.729548
 Vib (Bot)  1    0.883642D+00         -0.053723         -0.123703
 Vib (Bot)  2    0.546787D+00         -0.262181         -0.603695
 Vib (Bot)  3    0.367089D+00         -0.435228         -1.002150
 Vib (V=0)       0.210656D+01          0.323573          0.745055
 Vib (V=0)  1    0.151529D+01          0.180497          0.415610
 Vib (V=0)  2    0.124093D+01          0.093747          0.215861
 Vib (V=0)  3    0.112029D+01          0.049329          0.113584
 Electronic      0.200000D+01          0.301030          0.693147
 Translational   0.302230D+08          7.480337         17.224113
 Rotational      0.396929D+05          4.598713         10.588927
 ***** Axes restored to original set *****
 -------------------------------------------------------------------
 Center     Atomic                   Forces (Hartrees/Bohr)
 Number     Number              X              Y              Z
 -------------------------------------------------------------------
    1         14           0.000000000    0.000000207   -0.000000535
    2         14           0.000000000   -0.000000207   -0.000000535
    3         14           0.000000000    0.000000000    0.000001071
 -------------------------------------------------------------------
 Cartesian Forces:  Max     0.000001071 RMS     0.000000448
 1\1\GINC-NODE33\Freq\UB3LYP\LANL2DZ\Si3(1-,2)\TAM\06-Apr-2011\0\\# b3l
 yp/LANL2DZ opt=(calcall,noeigentest,maxcycle=500) scfcyc=500 scf=xqc\\
 si3-n\\-1,2\Si,0.,1.3089627072,-0.4515185369\Si,0.,-1.3089627072,-0.45
 15185369\Si,0.,0.,1.465215073\\Version=AM64L-G03RevE.01\State=2-A1\HF=
 -11.5835599\S2=0.755179\S2-1=0.\S2A=0.750016\RMSD=5.232e-09\RMSF=4.480
 e-07\ZeroPoint=0.0023365\Thermal=0.0063201\Dipole=0.,0.,0.1791179\Dipo
 leDeriv=-0.3580544,0.,0.,0.,-0.3392309,-0.1817608,0.,-0.0275886,-0.245
 2713,-0.3580544,0.,0.,0.,-0.3392309,0.1817608,0.,0.0275886,-0.2452712,
 -0.2838913,0.,0.,0.,-0.3215382,0.,0.,0.,-0.5094575\Polar=39.554336,0.,
 134.9260084,0.,0.,117.5862751\PG=C02V [C2(Si1),SGV(Si2)]\NImag=0\\-0.0
 0000296,0.,0.06072525,0.,-0.03930867,0.05565880,0.00002020,0.,0.,-0.00
 000296,0.,-0.03696041,0.00452700,0.,0.06072525,0.,-0.00452700,0.004874
 28,0.,0.03930867,0.05565880,-0.00001724,0.,0.,-0.00001724,0.,0.,0.0000
 3448,0.,-0.02376484,0.03478166,0.,-0.02376483,-0.03478166,0.,0.0475296
 7,0.,0.04383567,-0.06053308,0.,-0.04383567,-0.06053307,0.,0.,0.1210661
 6\\0.,-0.00000021,0.00000054,0.,0.00000021,0.00000054,0.,0.,-0.0000010
 7\\\@


 THE LENGTH OF A MEETING IS PROPORTIONAL TO THE
 SQUARE OF THE PARTICIPANTS.
 Job cpu time:  0 days  0 hours  2 minutes 37.0 seconds.
 File lengths (MBytes):  RWF=     13 Int=      0 D2E=      0 Chk=      6 Scr=      1
 Normal termination of Gaussian 03 at Wed Apr  6 16:49:03 2011.
 Initial command:
 /usr/local/chem/g03E01/l1.exe /temp0/tam/Gau-9604.inp -scrdir=/temp0/tam/
 Entering Link 1 = /usr/local/chem/g03E01/l1.exe PID=      9834.
  
 Copyright (c) 1988,1990,1992,1993,1995,1998,2003,2004,2007, Gaussian, Inc.
                  All Rights Reserved.
  
 This is the Gaussian(R) 03 program.  It is based on the
 the Gaussian(R) 98 system (copyright 1998, Gaussian, Inc.),
 the Gaussian(R) 94 system (copyright 1995, Gaussian, Inc.),
 the Gaussian 92(TM) system (copyright 1992, Gaussian, Inc.),
 the Gaussian 90(TM) system (copyright 1990, Gaussian, Inc.),
 the Gaussian 88(TM) system (copyright 1988, Gaussian, Inc.),
 the Gaussian 86(TM) system (copyright 1986, Carnegie Mellon
 University), and the Gaussian 82(TM) system (copyright 1983,
 Carnegie Mellon University). Gaussian is a federally registered
 trademark of Gaussian, Inc.
  
 This software contains proprietary and confidential information,
 including trade secrets, belonging to Gaussian, Inc.
  
 This software is provided under written license and may be
 used, copied, transmitted, or stored only in accord with that
 written license.
  
 The following legend is applicable only to US Government
 contracts under FAR:
  
                    RESTRICTED RIGHTS LEGEND
  
 Use, reproduction and disclosure by the US Government is
 subject to restrictions as set forth in subparagraphs (a)
 and (c) of the Commercial Computer Software - Restricted
 Rights clause in FAR 52.227-19.
  
 Gaussian, Inc.
 340 Quinnipiac St., Bldg. 40, Wallingford CT 06492
  
  
 ---------------------------------------------------------------
 Warning -- This program may not be used in any manner that
 competes with the business of Gaussian, Inc. or will provide
 assistance to any competitor of Gaussian, Inc.  The licensee
 of this program is prohibited from giving any competitor of
 Gaussian, Inc. access to this program.  By using this program,
 the user acknowledges that Gaussian, Inc. is engaged in the
 business of creating and licensing software in the field of
 computational chemistry and represents and warrants to the
 licensee that it is not a competitor of Gaussian, Inc. and that
 it will not use this program in any manner prohibited above.
 ---------------------------------------------------------------
  

 Cite this work as:
 Gaussian 03, Revision E.01,
 M. J. Frisch, G. W. Trucks, H. B. Schlegel, G. E. Scuseria, 
 M. A. Robb, J. R. Cheeseman, J. A. Montgomery, Jr., T. Vreven, 
 K. N. Kudin, J. C. Burant, J. M. Millam, S. S. Iyengar, J. Tomasi, 
 V. Barone, B. Mennucci, M. Cossi, G. Scalmani, N. Rega, 
 G. A. Petersson, H. Nakatsuji, M. Hada, M. Ehara, K. Toyota, 
 R. Fukuda, J. Hasegawa, M. Ishida, T. Nakajima, Y. Honda, O. Kitao, 
 H. Nakai, M. Klene, X. Li, J. E. Knox, H. P. Hratchian, J. B. Cross, 
 V. Bakken, C. Adamo, J. Jaramillo, R. Gomperts, R. E. Stratmann, 
 O. Yazyev, A. J. Austin, R. Cammi, C. Pomelli, J. W. Ochterski, 
 P. Y. Ayala, K. Morokuma, G. A. Voth, P. Salvador, J. J. Dannenberg, 
 V. G. Zakrzewski, S. Dapprich, A. D. Daniels, M. C. Strain, 
 O. Farkas, D. K. Malick, A. D. Rabuck, K. Raghavachari, 
 J. B. Foresman, J. V. Ortiz, Q. Cui, A. G. Baboul, S. Clifford, 
 J. Cioslowski, B. B. Stefanov, G. Liu, A. Liashenko, P. Piskorz, 
 I. Komaromi, R. L. Martin, D. J. Fox, T. Keith, M. A. Al-Laham, 
 C. Y. Peng, A. Nanayakkara, M. Challacombe, P. M. W. Gill, 
 B. Johnson, W. Chen, M. W. Wong, C. Gonzalez, and J. A. Pople, 
 Gaussian, Inc., Wallingford CT, 2004.
 
 ******************************************
 Gaussian 03:  AM64L-G03RevE.01 11-Sep-2007
                 6-Apr-2011 
 ******************************************
 %NprocShared=4
 Will use up to    4 processors via shared memory.
 %mem=3750MB
 %chk=S9L-ne-d-01
 ----------------------------------------------------------------------
 # b3lyp/6-311G(d) opt=(readfc,noeigentest,maxcycle=500) freq scfcyc=50
 0 optcyc=500 geom=allcheck guess=read scf=xqc
 ----------------------------------------------------------------------
 1/6=500,10=3,11=1,14=-1,18=20,26=3,29=7,38=1/1,3;
 2/9=110,40=1/2;
 3/5=4,6=6,7=1,11=2,16=1,25=1,30=1,74=-5/1,2,3;
 4/5=1/1;
 5/5=2,7=500,8=3,13=1,38=6/2,8;
 6/7=2,8=2,9=2,10=2,28=1/1;
 7//1,2,3,16;
 1/6=500,11=1,14=-1,18=20/3(3);
 2/9=110/2;
 6/7=2,8=2,9=2,10=2,19=2,28=1/1;
 99//99;
 2/9=110/2;
 3/5=4,6=6,7=1,11=2,16=1,25=1,30=1,74=-5/1,2,3;
 4/5=5,16=3/1;
 5/5=2,7=500,8=3,13=1,38=5/2,8;
 7//1,2,3,16;
 1/6=500,11=1,14=-1,18=20/3(-5);
 2/9=110/2;
 6/7=2,8=2,9=2,10=2,19=2,28=1/1;
 99/9=1/99;
 -----
 si3-n
 -----
 Redundant internal coordinates taken from checkpoint file:
 S9L-ne-d-01.chk
 Charge = -1 Multiplicity = 2
 Si,0,0.,1.3089627072,-0.4515185369
 Si,0,0.,-1.3089627072,-0.4515185369
 Si,0,0.,0.,1.465215073
 Recover connectivity data from disk.

 GradGradGradGradGradGradGradGradGradGradGradGradGradGradGradGradGradGrad
 Berny optimization.
 Initialization pass.
 Force constant matrix read from checkpoint file:
 S9L-ne-d-01.chk
                           ----------------------------
                           !    Initial Parameters    !
                           ! (Angstroms and Degrees)  !
 --------------------------                            --------------------------
 ! Name  Definition              Value          Derivative Info.                !
 --------------------------------------------------------------------------------
 ! R1    R(1,2)                  2.6179         D2E/DX2 =    0.033              !
 ! R2    R(1,3)                  2.321          D2E/DX2 =    0.0817             !
 ! R3    R(2,3)                  2.321          D2E/DX2 =    0.0817             !
 --------------------------------------------------------------------------------
 Trust Radius=3.00D-01 FncErr=1.00D-07 GrdErr=1.00D-06
 Number of steps in this run= 100 maximum allowed number of steps= 100.
 GradGradGradGradGradGradGradGradGradGradGradGradGradGradGradGradGradGrad

                          Input orientation:                          
 ---------------------------------------------------------------------
 Center     Atomic     Atomic              Coordinates (Angstroms)
 Number     Number      Type              X           Y           Z
 ---------------------------------------------------------------------
    1         14             0        0.000000    1.308963   -0.451519
    2         14             0        0.000000   -1.308963   -0.451519
    3         14             0        0.000000    0.000000    1.465215
 ---------------------------------------------------------------------
                    Distance matrix (angstroms):
                    1          2          3
     1  Si   0.000000
     2  Si   2.617925   0.000000
     3  Si   2.321045   2.321045   0.000000
 Stoichiometry    Si3(1-,2)
 Framework group  C2V[C2(Si),SGV(Si2)]
 Deg. of freedom     2
 Full point group                 C2V
 Largest Abelian subgroup         C2V     NOp   4
 Largest concise Abelian subgroup C2      NOp   2
                         Standard orientation:                         
 ---------------------------------------------------------------------
 Center     Atomic     Atomic              Coordinates (Angstroms)
 Number     Number      Type              X           Y           Z
 ---------------------------------------------------------------------
    1         14             0        0.000000    1.308963   -0.638911
    2         14             0        0.000000   -1.308963   -0.638911
    3         14             0        0.000000    0.000000    1.277822
 ---------------------------------------------------------------------
 Rotational constants (GHZ):      7.3753886      5.2714807      3.0742169
 Standard basis: 6-311G(d) (5D, 7F)
 There are    32 symmetry adapted basis functions of A1  symmetry.
 There are     8 symmetry adapted basis functions of A2  symmetry.
 There are    13 symmetry adapted basis functions of B1  symmetry.
 There are    25 symmetry adapted basis functions of B2  symmetry.
 Integral buffers will be    131072 words long.
 Raffenetti 2 integral format.
 Two-electron integral symmetry is turned on.
    78 basis functions,   138 primitive gaussians,    81 cartesian basis functions
    22 alpha electrons       21 beta electrons
       nuclear repulsion energy       128.9911082910 Hartrees.
 NAtoms=    3 NActive=    3 NUniq=    2 SFac= 1.69D+00 NAtFMM=   80 NAOKFM=F Big=F
 One-electron integrals computed using PRISM.
 NBasis=    78 RedAO= T  NBF=    32     8    13    25
 NBsUse=    78 1.00D-06 NBFU=    32     8    13    25
 Initial guess read from the checkpoint file:
 S9L-ne-d-01.chk
 Initial guess orbital symmetries:
 Alpha Orbitals:
       Occupied  (A1) (B2) (A1) (B1) (A1) (B2) (A1) (A2) (B1) (B2)
                 (B2) (A1) (A1) (B2) (B1) (B2) (A1) (A2) (B1) (A1)
                 (B2) (A1)
       Virtual   (B2) (A1) (A1) (A1) (A1) (A1) (A1) (A1) (A1) (A1)
                 (A1) (A1) (A1) (A1) (A1) (A1) (A1) (A1) (A1) (A1)
                 (A1) (A1) (A1) (A1) (A2) (A2) (A2) (A2) (A2) (A2)
                 (B1) (B1) (B1) (B1) (B1) (B1) (B1) (B1) (B1) (B2)
                 (B2) (B2) (B2) (B2) (B2) (B2) (B2) (B2) (B2) (B2)
                 (B2) (B2) (B2) (B2) (B2) (B2)
 Beta  Orbitals:
       Occupied  (A1) (B2) (A1) (B1) (A1) (B2) (A1) (A2) (B1) (B2)
                 (B2) (A1) (A1) (B2) (B1) (B2) (A2) (A1) (B1) (A1)
                 (B2)
       Virtual   (A1) (B2) (A1) (A1) (A1) (A1) (A1) (A1) (A1) (A1)
                 (A1) (A1) (A1) (A1) (A1) (A1) (A1) (A1) (A1) (A1)
                 (A1) (A1) (A1) (A1) (A1) (A2) (A2) (A2) (A2) (A2)
                 (A2) (B1) (B1) (B1) (B1) (B1) (B1) (B1) (B1) (B1)
                 (B2) (B2) (B2) (B2) (B2) (B2) (B2) (B2) (B2) (B2)
                 (B2) (B2) (B2) (B2) (B2) (B2) (B2)
 <S**2> of initial guess= 0.7500
 Requested convergence on RMS density matrix=1.00D-08 within 128 cycles.
 Requested convergence on MAX density matrix=1.00D-06.
 Requested convergence on             energy=1.00D-06.
 No special actions if energy rises.
 Keep R1 and R2 integrals in memory in canonical form, NReq=    12818469.
 Restarting incremental Fock formation.
 SCF Done:  E(UB+HF-LYP) =  -868.503465171     A.U. after   20 cycles
             Convg  =    0.7015D-08             -V/T =  2.0018
             S**2   =   0.7568
 Annihilation of the first spin contaminant:
 S**2 before annihilation     0.7568,   after     0.7500
 QCSCF skips out because SCF is already converged.

 **********************************************************************

            Population analysis using the SCF density.

 **********************************************************************

 Orbital symmetries:
 Alpha Orbitals:
       Occupied  (B2) (A1) (A1) (B2) (A1) (A1) (A1) (B1) (A2) (B2)
                 (A1) (B2) (B1) (A1) (B2) (A1) (B2) (A1) (A1) (B1)
                 (B2) (A1)
       Virtual   (A2) (B1) (B2) (A1) (B2) (A1) (B2) (B1) (A1) (A2)
                 (B2) (B1) (A1) (B2) (A1) (B2) (A1) (A1) (B1) (A2)
                 (B2) (A1) (B1) (A1) (B2) (A2) (A1) (A2) (B1) (B2)
                 (A1) (B2) (B1) (A1) (A2) (B1) (B2) (A1) (B2) (B2)
                 (A1) (A1) (B2) (A1) (B1) (B2) (A1) (A2) (B1) (B2)
                 (A1) (B2) (A1) (A1) (B2) (A1)
 Beta  Orbitals:
       Occupied  (B2) (A1) (A1) (B2) (A1) (A1) (B1) (A2) (A1) (B2)
                 (A1) (B2) (B1) (B2) (A1) (A1) (B2) (A1) (B1) (A1)
                 (B2)
       Virtual   (A1) (A2) (B1) (B2) (A1) (B2) (A1) (B2) (B1) (A1)
                 (A2) (B2) (B1) (A1) (B2) (A1) (B2) (A1) (A1) (B1)
                 (A2) (B2) (A1) (B1) (A1) (B2) (A2) (A2) (A1) (B1)
                 (B2) (A1) (B2) (B1) (A1) (A2) (B1) (B2) (A1) (B2)
                 (B2) (A1) (A1) (B2) (A1) (B1) (B2) (A1) (A2) (B1)
                 (B2) (A1) (B2) (A1) (A1) (B2) (A1)
 The electronic state is 2-A1.
 Alpha  occ. eigenvalues --  -65.91974 -65.91973 -65.89907  -5.08824  -5.08819
 Alpha  occ. eigenvalues --   -5.07018  -3.44792  -3.44789  -3.44788  -3.44783
 Alpha  occ. eigenvalues --   -3.44274  -3.44265  -3.42994  -3.42846  -3.42552
 Alpha  occ. eigenvalues --   -0.37072  -0.21858  -0.18752  -0.05104  -0.04707
 Alpha  occ. eigenvalues --   -0.02212  -0.01635
 Alpha virt. eigenvalues --    0.08647   0.10836   0.14676   0.17895   0.18176
 Alpha virt. eigenvalues --    0.26816   0.29743   0.30856   0.31046   0.34745
 Alpha virt. eigenvalues --    0.35282   0.35999   0.37805   0.40668   0.42050
 Alpha virt. eigenvalues --    0.57879   0.60577   0.64996   0.65914   0.70345
 Alpha virt. eigenvalues --    0.72784   0.72954   0.74044   0.80252   0.81932
 Alpha virt. eigenvalues --    0.83964   0.91585   0.91599   0.94339   0.99934
 Alpha virt. eigenvalues --    1.12389   1.14658   1.28116   1.32226   1.33508
 Alpha virt. eigenvalues --    1.34685   1.34981   1.42714   1.44610   1.48346
 Alpha virt. eigenvalues --    1.49114   5.25550   5.48327   5.57656  11.38600
 Alpha virt. eigenvalues --   11.40112  11.40826  11.41565  11.42968  11.44790
 Alpha virt. eigenvalues --   11.45609  11.48340  11.56945 140.63740 140.88981
 Alpha virt. eigenvalues --  140.99516
  Beta  occ. eigenvalues --  -65.91838 -65.91838 -65.89814  -5.08688  -5.08682
  Beta  occ. eigenvalues --   -5.06919  -3.44709  -3.44707  -3.44376  -3.44362
  Beta  occ. eigenvalues --   -3.44158  -3.44154  -3.42946  -3.42544  -3.42506
  Beta  occ. eigenvalues --   -0.36080  -0.20456  -0.16931  -0.04379  -0.03901
  Beta  occ. eigenvalues --   -0.01594
  Beta virt. eigenvalues --    0.05166   0.09055   0.11256   0.15781   0.18440
  Beta virt. eigenvalues --    0.19168   0.27042   0.29943   0.30954   0.32232
  Beta virt. eigenvalues --    0.34916   0.35980   0.36161   0.38874   0.41338
  Beta virt. eigenvalues --    0.42977   0.58324   0.61023   0.66382   0.66620
  Beta virt. eigenvalues --    0.70679   0.73635   0.74646   0.75807   0.80566
  Beta virt. eigenvalues --    0.84088   0.85279   0.91606   0.92557   0.95081
  Beta virt. eigenvalues --    1.00740   1.13122   1.15311   1.28307   1.33599
  Beta virt. eigenvalues --    1.33727   1.34881   1.35704   1.43550   1.45313
  Beta virt. eigenvalues --    1.48632   1.49717   5.25833   5.48656   5.57914
  Beta virt. eigenvalues --   11.38711  11.40349  11.41332  11.41681  11.43038
  Beta virt. eigenvalues --   11.45259  11.46078  11.48369  11.57182 140.63858
  Beta virt. eigenvalues --  140.89111 140.99622
          Condensed to atoms (all electrons):
              1          2          3
     1  Si  13.878318   0.165386   0.277016
     2  Si   0.165386  13.878318   0.277016
     3  Si   0.277016   0.277016  13.804530
 Mulliken atomic charges:
              1
     1  Si  -0.320719
     2  Si  -0.320719
     3  Si  -0.358562
 Sum of Mulliken charges=  -1.00000
 Atomic charges with hydrogens summed into heavy atoms:
              1
     1  Si  -0.320719
     2  Si  -0.320719
     3  Si  -0.358562
 Sum of Mulliken charges=  -1.00000
          Atomic-Atomic Spin Densities.
              1          2          3
     1  Si   0.351050   0.074999  -0.035624
     2  Si   0.074999   0.351050  -0.035624
     3  Si  -0.035624  -0.035624   0.290398
 Mulliken atomic spin densities:
              1
     1  Si   0.390425
     2  Si   0.390425
     3  Si   0.219150
 Sum of Mulliken spin densities=   1.00000
 Electronic spatial extent (au):  <R**2>=   413.1236
 Charge=    -1.0000 electrons
 Dipole moment (field-independent basis, Debye):
    X=     0.0000    Y=     0.0000    Z=     0.3496  Tot=     0.3496
 Quadrupole moment (field-independent basis, Debye-Ang):
   XX=   -45.7664   YY=   -58.1765   ZZ=   -56.5908
   XY=     0.0000   XZ=     0.0000   YZ=     0.0000
 Traceless Quadrupole moment (field-independent basis, Debye-Ang):
   XX=     7.7448   YY=    -4.6653   ZZ=    -3.0795
   XY=     0.0000   XZ=     0.0000   YZ=     0.0000
 Octapole moment (field-independent basis, Debye-Ang**2):
  XXX=     0.0000  YYY=     0.0000  ZZZ=    -3.7810  XYY=     0.0000
  XXY=     0.0000  XXZ=     0.0735  XZZ=     0.0000  YZZ=     0.0000
  YYZ=    13.9337  XYZ=     0.0000
 Hexadecapole moment (field-independent basis, Debye-Ang**3):
 XXXX=  -100.6201 YYYY=  -484.8161 ZZZZ=  -381.3647 XXXY=     0.0000
 XXXZ=     0.0000 YYYX=     0.0000 YYYZ=     0.0000 ZZZX=     0.0000
 ZZZY=     0.0000 XXYY=   -88.0273 XXZZ=   -74.2697 YYZZ=  -152.7574
 XXYZ=     0.0000 YYXZ=     0.0000 ZZXY=     0.0000
 N-N= 1.289911082910D+02 E-N=-2.336236501983D+03  KE= 8.669392224341D+02
 Symmetry A1   KE= 5.030130955179D+02
 Symmetry A2   KE= 2.442899009041D+01
 Symmetry B1   KE= 5.044371188053D+01
 Symmetry B2   KE= 2.890534249453D+02
                          Isotropic Fermi Contact Couplings
        Atom                 a.u.       MegaHertz       Gauss      10(-4) cm-1
     1  Si(29)             0.02004     -17.80633      -6.35374      -5.93955
     2  Si(29)             0.02004     -17.80633      -6.35374      -5.93955
     3  Si(29)             0.10940     -97.22647     -34.69282     -32.43126
 --------------------------------------------------------
       Center         ----  Spin Dipole Couplings  ----
                      3XX-RR        3YY-RR        3ZZ-RR
 --------------------------------------------------------
     1   Atom       -0.368984     -0.059429      0.428414
     2   Atom       -0.368984     -0.059429      0.428414
     3   Atom       -0.260997     -0.358361      0.619357
 --------------------------------------------------------
                        XY            XZ            YZ
 --------------------------------------------------------
     1   Atom        0.000000      0.000000      0.567755
     2   Atom        0.000000      0.000000     -0.567755
     3   Atom        0.000000      0.000000      0.000000
 --------------------------------------------------------


 ---------------------------------------------------------------------------------
              Anisotropic Spin Dipole Couplings in Principal Axis System
 ---------------------------------------------------------------------------------

       Atom             a.u.   MegaHertz   Gauss  10(-4) cm-1        Axes

              Baa    -0.4334    45.981    16.407    15.338  0.0000  0.8351 -0.5501
     1 Si(29) Bbb    -0.3690    39.143    13.967    13.057  1.0000  0.0000  0.0000
              Bcc     0.8024   -85.125   -30.375   -28.395  0.0000  0.5501  0.8351
 
              Baa    -0.4334    45.981    16.407    15.338  0.0000  0.8351  0.5501
[...]


 **** Warning!!: The largest beta MO coefficient is  0.20183698D+02


 **** Warning!!: The smallest beta delta epsilon is  0.61242651D-01

 Symmetrizing basis deriv contribution to polar:
 IMax=3 JMax=2 DiffMx= 0.00D+00
 G2DrvN: will do    4 centers at a time, making    1 passes doing MaxLOS=2.
 FoFDir/FoFCou used for L=0 through L=2.
 DoAtom=TTT
          Differentiating once with respect to electric field.
                with respect to dipole field.
          Differentiating once with respect to nuclear coordinates.
          Store integrals in memory, NReq=    19931679.
          There are   9 degrees of freedom in the 1st order CPHF.
     9 vectors were produced by pass  0.
 AX will form   9 AO Fock derivatives at one time.
     9 vectors were produced by pass  1.
     9 vectors were produced by pass  2.
     9 vectors were produced by pass  3.
     9 vectors were produced by pass  4.
     9 vectors were produced by pass  5.
     9 vectors were produced by pass  6.
     9 vectors were produced by pass  7.
     8 vectors were produced by pass  8.
     4 vectors were produced by pass  9.
     2 vectors were produced by pass 10.
     1 vectors were produced by pass 11.
 Inv2:  IOpt= 1 Iter= 1 AM= 1.52D-15 Conv= 1.00D-12.
 Inverted reduced A of dimension   87 with in-core refinement.
 Isotropic polarizability for W=    0.000000      146.53 Bohr**3.
 End of Minotr Frequency-dependent properties file   721 does not exist.

 **********************************************************************

            Population analysis using the SCF density.

 **********************************************************************

 Orbital symmetries:
 Alpha Orbitals:
       Occupied  (B2) (A1) (A1) (A1) (B2) (A1) (A1) (B2) (B1) (A2)
                 (A1) (B2) (B1) (A1) (B2) (A1) (B2) (A1) (A1) (B1)
                 (A1) (B2)
       Virtual   (A2) (B1) (B2) (A1) (A1) (B1) (B2) (B2) (A1) (A1)
                 (A2) (B1) (B2) (A1) (B2) (B2) (A1) (A1) (B2) (A1)
                 (B1) (A2) (B2) (B1) (A1) (B2) (A1) (B1) (A1) (B2)
                 (A1) (A2) (B1) (A1) (B2) (A1) (B2) (A2) (A1) (A2)
                 (B1) (B2) (A1) (B2) (B1) (A1) (A2) (B1) (B2) (A1)
                 (B2) (B2) (A1) (A1) (B2) (A1) (B1) (B2) (A2) (A1)
                 (B1) (B2) (A1) (B2) (A1) (A1) (B2) (A1)
 Beta  Orbitals:
       Occupied  (B2) (A1) (A1) (A1) (B2) (A1) (B1) (A2) (A1) (B2)
                 (A1) (B2) (B1) (A1) (B2) (A1) (B2) (A1) (B1) (A1)
                 (B2)
       Virtual   (A1) (A2) (B1) (B2) (A1) (A1) (B1) (B2) (B2) (A1)
                 (A1) (A2) (B1) (B2) (B2) (A1) (B2) (A1) (A1) (B2)
                 (A1) (B1) (A2) (B1) (B2) (A1) (B2) (A1) (B1) (A1)
                 (B2) (A2) (A1) (B1) (A1) (B2) (A1) (B2) (A2) (A1)
                 (A2) (B1) (B2) (A1) (B2) (B1) (A2) (A1) (B1) (B2)
                 (B2) (A1) (B2) (A1) (A1) (B2) (A1) (B1) (B2) (A2)
                 (A1) (B1) (B2) (A1) (B2) (A1) (A1) (B2) (A1)
 The electronic state is 2-A1.
 Alpha  occ. eigenvalues --  -65.92284 -65.92284 -65.90504  -5.09253  -5.09252
 Alpha  occ. eigenvalues --   -5.07723  -3.45233  -3.45213  -3.45205  -3.45202
 Alpha  occ. eigenvalues --   -3.44714  -3.44694  -3.43700  -3.43559  -3.43225
 Alpha  occ. eigenvalues --   -0.39401  -0.21963  -0.19852  -0.06266  -0.06117
 Alpha  occ. eigenvalues --   -0.02734  -0.02505
 Alpha virt. eigenvalues --    0.08412   0.09791   0.12055   0.12519   0.14008
 Alpha virt. eigenvalues --    0.15238   0.15968   0.16773   0.16876   0.17440
 Alpha virt. eigenvalues --    0.18380   0.18848   0.21437   0.23302   0.23312
 Alpha virt. eigenvalues --    0.23648   0.24272   0.35539   0.39482   0.40468
 Alpha virt. eigenvalues --    0.42269   0.44880   0.45526   0.45606   0.46994
 Alpha virt. eigenvalues --    0.49661   0.56072   0.63807   0.65471   0.66816
 Alpha virt. eigenvalues --    0.69176   0.69345   0.71616   0.72843   0.74899
 Alpha virt. eigenvalues --    0.84402   0.84634   0.85845   0.92059   0.93415
 Alpha virt. eigenvalues --    0.96132   1.08790   1.18958   1.19855   1.38186
 Alpha virt. eigenvalues --    1.41506   1.42142   1.42658   1.43430   1.51438
 Alpha virt. eigenvalues --    1.51462   1.55166   1.58554   5.40986   5.59282
 Alpha virt. eigenvalues --    5.66213  11.47021  11.47039  11.48551  11.49267
 Alpha virt. eigenvalues --   11.49750  11.51740  11.53703  11.54350  11.65231
 Alpha virt. eigenvalues --  140.82622 141.02129 141.10096
  Beta  occ. eigenvalues --  -65.92139 -65.92139 -65.90408  -5.09107  -5.09107
  Beta  occ. eigenvalues --   -5.07619  -3.45119  -3.45116  -3.44780  -3.44749
  Beta  occ. eigenvalues --   -3.44600  -3.44592  -3.43649  -3.43224  -3.43205
  Beta  occ. eigenvalues --   -0.38367  -0.20416  -0.17954  -0.05777  -0.04991
  Beta  occ. eigenvalues --   -0.01999
  Beta virt. eigenvalues --    0.04125   0.08801   0.10163   0.12232   0.12657
  Beta virt. eigenvalues --    0.14176   0.15248   0.16645   0.17005   0.17308
  Beta virt. eigenvalues --    0.17557   0.18462   0.18952   0.22456   0.23451
  Beta virt. eigenvalues --    0.23491   0.23976   0.24950   0.35794   0.39703
  Beta virt. eigenvalues --    0.41599   0.42361   0.45022   0.45775   0.46226
  Beta virt. eigenvalues --    0.47967   0.50273   0.57142   0.64561   0.66568
  Beta virt. eigenvalues --    0.67236   0.69658   0.69768   0.73480   0.74494
  Beta virt. eigenvalues --    0.75712   0.84723   0.86767   0.87239   0.93061
  Beta virt. eigenvalues --    0.93476   0.96904   1.09747   1.19661   1.20519
  Beta virt. eigenvalues --    1.38393   1.42356   1.42746   1.42838   1.44052
  Beta virt. eigenvalues --    1.52243   1.52510   1.55454   1.59024   5.41288
  Beta virt. eigenvalues --    5.59637   5.66488  11.47141  11.47399  11.48675
  Beta virt. eigenvalues --   11.49733  11.49821  11.52132  11.54231  11.54394
  Beta virt. eigenvalues --   11.65483 140.82748 141.02269 141.10208
          Condensed to atoms (all electrons):
              1          2          3
     1  Si  14.032795   0.099644   0.186194
     2  Si   0.099644  14.032795   0.186194
     3  Si   0.186194   0.186194  13.990347
 Mulliken atomic charges:
              1
     1  Si  -0.318633
     2  Si  -0.318633
     3  Si  -0.362734
 Sum of Mulliken charges=  -1.00000
 Atomic charges with hydrogens summed into heavy atoms:
              1
     1  Si  -0.318633
     2  Si  -0.318633
     3  Si  -0.362734
 Sum of Mulliken charges=  -1.00000
          Atomic-Atomic Spin Densities.
              1          2          3
     1  Si   0.354685   0.085267  -0.041109
     2  Si   0.085267   0.354685  -0.041109
     3  Si  -0.041109  -0.041109   0.284529
 Mulliken atomic spin densities:
              1
     1  Si   0.398844
     2  Si   0.398844
     3  Si   0.202312
 Sum of Mulliken spin densities=   1.00000
 APT atomic charges:
              1
     1  Si  -0.325586
     2  Si  -0.325586
     3  Si  -0.348827
 Sum of APT charges=  -1.00000
 APT Atomic charges with hydrogens summed into heavy atoms:
              1
     1  Si  -0.325586
     2  Si  -0.325586
     3  Si  -0.348827
 Sum of APT charges=  -1.00000
 Electronic spatial extent (au):  <R**2>=   393.7245
 Charge=    -1.0000 electrons
 Dipole moment (field-independent basis, Debye):
    X=     0.0000    Y=     0.0000    Z=     0.4440  Tot=     0.4440
 Quadrupole moment (field-independent basis, Debye-Ang):
   XX=   -46.9369   YY=   -59.5371   ZZ=   -58.4834
   XY=     0.0000   XZ=     0.0000   YZ=     0.0000
 Traceless Quadrupole moment (field-independent basis, Debye-Ang):
   XX=     8.0489   YY=    -4.5513   ZZ=    -3.4976
   XY=     0.0000   XZ=     0.0000   YZ=     0.0000
 Octapole moment (field-independent basis, Debye-Ang**2):
  XXX=     0.0000  YYY=     0.0000  ZZZ=    -3.1602  XYY=     0.0000
  XXY=     0.0000  XXZ=     0.4190  XZZ=     0.0000  YZZ=     0.0000
  YYZ=    13.4772  XYZ=     0.0000
 Hexadecapole moment (field-independent basis, Debye-Ang**3):
 XXXX=  -115.1636 YYYY=  -481.5446 ZZZZ=  -415.3286 XXXY=     0.0000
 XXXZ=     0.0000 YYYX=     0.0000 YYYZ=     0.0000 ZZZX=     0.0000
 ZZZY=     0.0000 XXYY=   -91.8370 XXZZ=   -82.7616 YYZZ=  -160.3741
 XXYZ=     0.0000 YYXZ=     0.0000 ZZXY=     0.0000
 N-N= 1.339205795989D+02 E-N=-2.345911413001D+03  KE= 8.670297046738D+02
 Symmetry A1   KE= 5.030720041162D+02
 Symmetry A2   KE= 2.442519816913D+01
 Symmetry B1   KE= 5.047726226532D+01
 Symmetry B2   KE= 2.890552401232D+02
  Exact polarizability:  85.350   0.000 181.478   0.000   0.000 172.760
 Approx polarizability: 130.100   0.000 339.855   0.000   0.000 336.682
                          Isotropic Fermi Contact Couplings
        Atom                 a.u.       MegaHertz       Gauss      10(-4) cm-1
     1  Si(29)             0.02747     -24.41208      -8.71084      -8.14299
     2  Si(29)             0.02747     -24.41208      -8.71084      -8.14299
     3  Si(29)             0.12991    -115.45798     -41.19828     -38.51264
 --------------------------------------------------------
       Center         ----  Spin Dipole Couplings  ----
                      3XX-RR        3YY-RR        3ZZ-RR
 --------------------------------------------------------
     1   Atom       -0.392446      0.082039      0.310406
     2   Atom       -0.392446      0.082039      0.310406
     3   Atom       -0.260884     -0.333899      0.594783
 --------------------------------------------------------
                        XY            XZ            YZ
 --------------------------------------------------------
     1   Atom        0.000000      0.000000      0.606756
     2   Atom        0.000000      0.000000     -0.606756
     3   Atom        0.000000      0.000000      0.000000
 --------------------------------------------------------


 ---------------------------------------------------------------------------------
              Anisotropic Spin Dipole Couplings in Principal Axis System
 ---------------------------------------------------------------------------------

       Atom             a.u.   MegaHertz   Gauss  10(-4) cm-1        Axes

              Baa    -0.4212    44.681    15.943    14.904  0.0000  0.7697 -0.6384
     1 Si(29) Bbb    -0.3924    41.632    14.855    13.887  1.0000  0.0000  0.0000
              Bcc     0.8136   -86.313   -30.799   -28.791  0.0000  0.6384  0.7697
 
              Baa    -0.4212    44.681    15.943    14.904  0.0000  0.7697  0.6384
     2 Si(29) Bbb    -0.3924    41.632    14.855    13.887  1.0000  0.0000  0.0000
              Bcc     0.8136   -86.313   -30.799   -28.791  0.0000 -0.6384  0.7697
 
              Baa    -0.3339    35.421    12.639    11.815  0.0000  1.0000  0.0000
     3 Si(29) Bbb    -0.2609    27.676     9.875     9.232  1.0000  0.0000  0.0000
              Bcc     0.5948   -63.097   -22.515   -21.047  0.0000  0.0000  1.0000
 

 ---------------------------------------------------------------------------------

 Full mass-weighted force constant matrix:
 Low frequencies ---  -10.1230   -7.5851   -7.4160   -0.0014   -0.0008    0.0010
 Low frequencies ---  281.0976  311.7917  507.0254
 Diagonal vibrational polarizability:
        0.0000000       0.2772023       0.3907014
 Harmonic frequencies (cm**-1), IR intensities (KM/Mole), Raman scattering
 activities (A**4/AMU), depolarization ratios for plane and unpolarized
 incident light, reduced masses (AMU), force constants (mDyne/A),
 and normal coordinates:
                     1                      2                      3
                    A1                     B2                     A1
 Frequencies --   281.0976               311.7915               507.0254
 Red. masses --    27.9769                27.9769                27.9769
 Frc consts  --     1.3025                 1.6024                 4.2375
 IR Inten    --     0.0141                 1.0014                 3.6865
 Atom AN      X      Y      Z        X      Y      Z        X      Y      Z
   1  14     0.00   0.61   0.21     0.00  -0.30   0.47     0.00  -0.36   0.35
   2  14     0.00  -0.61   0.21     0.00  -0.30  -0.47     0.00   0.36   0.35
   3  14     0.00   0.00  -0.42     0.00   0.61   0.00     0.00   0.00  -0.70

 -------------------
 - Thermochemistry -
 -------------------
 Temperature   298.150 Kelvin.  Pressure   1.00000 Atm.
 Atom  1 has atomic number 14 and mass  27.97693
 Atom  2 has atomic number 14 and mass  27.97693
 Atom  3 has atomic number 14 and mass  27.97693
 Molecular mass:    83.93079 amu.
 Principal axes and moments of inertia in atomic units:
                           1         2         3
     EIGENVALUES --   240.87717 300.84147 541.71864
           X            0.00000   0.00000   1.00000
           Y            1.00000   0.00000   0.00000
           Z            0.00000   1.00000   0.00000
 This molecule is an asymmetric top.
 Rotational symmetry number  2.
 Rotational temperatures (Kelvin)      0.35958     0.28791     0.15989
 Rotational constants (GHZ):           7.49237     5.99898     3.33151
 Zero-point vibrational energy       6579.0 (Joules/Mol)
                                    1.57241 (Kcal/Mol)
 Warning -- explicit consideration of   3 degrees of freedom as
           vibrations may cause significant error
 Vibrational temperatures:    404.44   448.60   729.50
          (Kelvin)
 
 Zero-point correction=                           0.002506 (Hartree/Particle)
 Thermal correction to Energy=                    0.006407
 Thermal correction to Enthalpy=                  0.007351
 Thermal correction to Gibbs Free Energy=        -0.024907
 Sum of electronic and zero-point Energies=           -868.511334
 Sum of electronic and thermal Energies=              -868.507433
 Sum of electronic and thermal Enthalpies=            -868.506489
 Sum of electronic and thermal Free Energies=         -868.538747
 
                     E (Thermal)             CV                S
                      KCal/Mol        Cal/Mol-Kelvin    Cal/Mol-Kelvin
 Total                    4.021             10.556             67.893
 Electronic               0.000              0.000              1.377
 Translational            0.889              2.981             39.196
 Rotational               0.889              2.981             23.799
 Vibrational              2.243              4.594              3.521
 Vibration  1             0.681              1.709              1.527
 Vibration  2             0.700              1.651              1.353
 Vibration  3             0.862              1.234              0.641
                       Q            Log10(Q)             Ln(Q)
 Total Bot       0.285959D+12         11.456304         26.379114
 Total V=0       0.406335D+13         12.608884         29.033029
 Vib (Bot)       0.133403D+00         -0.874833         -2.014378
 Vib (Bot)  1    0.683571D+00         -0.165216         -0.380424
 Vib (Bot)  2    0.605840D+00         -0.217642         -0.501139
 Vib (Bot)  3    0.322125D+00         -0.491976         -1.132816
 Vib (V=0)       0.189560D+01          0.277747          0.639537
 Vib (V=0)  1    0.134692D+01          0.129341          0.297819
 Vib (V=0)  2    0.128552D+01          0.109079          0.251164
 Vib (V=0)  3    0.109478D+01          0.039327          0.090554
 Electronic      0.200000D+01          0.301030          0.693147
 Translational   0.302230D+08          7.480337         17.224113
 Rotational      0.354625D+05          4.549770         10.476232
 ***** Axes restored to original set *****
 -------------------------------------------------------------------
 Center     Atomic                   Forces (Hartrees/Bohr)
 Number     Number              X              Y              Z
 -------------------------------------------------------------------
    1         14           0.000000000    0.000018758    0.000001087
    2         14           0.000000000   -0.000018758    0.000001087
    3         14           0.000000000    0.000000000   -0.000002173
 -------------------------------------------------------------------
 Cartesian Forces:  Max     0.000018758 RMS     0.000008887

 GradGradGradGradGradGradGradGradGradGradGradGradGradGradGradGradGradGrad
 Berny optimization.
 Internal  Forces:  Max     0.000019459 RMS     0.000011284
 Search for a local minimum.
 Step number   1 out of a maximum of   2
 All quantities printed in internal units (Hartrees-Bohrs-Radians)
 Second derivative matrix not updated -- analytic derivatives used.
 The second derivative matrix:
                          R1        R2        R3
           R1           0.05105
           R2          -0.00011   0.08505
           R3          -0.00011   0.02023   0.08505
     Eigenvalues ---    0.05105   0.06482   0.10529
 Angle between quadratic step and forces=   2.84 degrees.
 Linear search not attempted -- first point.
 Iteration  1 RMS(Cart)=  0.00016849 RMS(Int)=  0.00000001
 Iteration  2 RMS(Cart)=  0.00000000 RMS(Int)=  0.00000000
 Variable       Old X    -DE/DX   Delta X   Delta X   Delta X     New X
                                 (Linear)    (Quad)   (Total)
    R1        4.63750   0.00002   0.00000   0.00038   0.00038   4.63788
    R2        4.27684   0.00000   0.00000  -0.00001  -0.00001   4.27683
    R3        4.27684   0.00000   0.00000  -0.00001  -0.00001   4.27683
         Item               Value     Threshold  Converged?
 Maximum Force            0.000019     0.000450     YES
 RMS     Force            0.000011     0.000300     YES
 Maximum Displacement     0.000191     0.001800     YES
 RMS     Displacement     0.000168     0.001200     YES
 Predicted change in Energy=-3.723631D-09
 Optimization completed.
    -- Stationary point found.
                           ----------------------------
                           !   Optimized Parameters   !
                           ! (Angstroms and Degrees)  !
 --------------------------                            --------------------------
 ! Name  Definition              Value          Derivative Info.                !
 --------------------------------------------------------------------------------
 ! R1    R(1,2)                  2.4541         -DE/DX =    0.0                 !
 ! R2    R(1,3)                  2.2632         -DE/DX =    0.0                 !
 ! R3    R(2,3)                  2.2632         -DE/DX =    0.0                 !
 --------------------------------------------------------------------------------
 GradGradGradGradGradGradGradGradGradGradGradGradGradGradGradGradGradGrad

 1\1\GINC-NODE33\Freq\UB3LYP\6-311+G(d)\Si3(1-,2)\TAM\06-Apr-2011\0\\#N
  Geom=AllCheck Guess=Read SCRF=Check GenChk UB3LYP/6-311+G(d) Freq\\si
 3-n\\-1,2\Si,0.,1.227029397,-0.4465110691\Si,0.,-1.227029397,-0.446511
 0691\Si,0.,0.,1.455200135\\Version=AM64L-G03RevE.01\State=2-A1\HF=-868
 .51384\S2=0.755829\S2-1=0.\S2A=0.750025\RMSD=1.084e-09\RMSF=8.887e-06\
 ZeroPoint=0.0025058\Thermal=0.0064073\Dipole=0.,0.,0.1746967\DipoleDer
 iv=-0.3576034,0.,0.,0.,-0.3958052,-0.1296559,0.,0.0588356,-0.2233499,-
 0.3576034,0.,0.,0.,-0.3958052,0.1296558,0.,-0.0588356,-0.2233499,-0.28
 47933,0.,0.,0.,-0.2083896,0.000001,0.,-0.0000001,-0.5532989\Polar=85.3
 500141,0.0000005,181.4781674,0.0000002,0.0000092,172.760296\PG=C02V [C
 2(Si1),SGV(Si2)]\NImag=0\\-0.00004720,0.,0.07594821,0.,-0.03866342,0.0
 5998210,0.00001103,0.,0.,-0.00004720,0.,-0.05686854,0.00912362,0.,0.07
 594821,0.,-0.00912362,0.01435711,0.,0.03866342,0.05998210,0.00003616,0
 .,0.,0.00003617,0.,0.,-0.00007233,0.,-0.01907968,0.02953980,0.,-0.0190
 7967,-0.02953980,0.,0.03815935,0.,0.04778704,-0.07433921,0.,-0.0477870
 4,-0.07433921,0.,0.,0.14867842\\0.,-0.00001876,-0.00000109,0.,0.000018
 76,-0.00000109,0.,0.,0.00000217\\\@


 GETTING A SIMPLE ANSWER FROM A PROFESSOR IS LIKE
 GETTING A THIMBLE OF WATER FROM A FIRE HYDRANT.
     -- PROF. LEN SHAPIRO, NDSU
 Job cpu time:  0 days  0 hours  1 minutes 28.2 seconds.
 File lengths (MBytes):  RWF=     22 Int=      0 D2E=      0 Chk=      6 Scr=      1
 Normal termination of Gaussian 03 at Wed Apr  6 16:53:20 2011.
