 Entering Gaussian System, Link 0=g03
 Initial command:
 /usr/local/chem/g03E01/l1.exe /temp0/tam/Gau-12744.inp -scrdir=/temp0/tam/
 Entering Link 1 = /usr/local/chem/g03E01/l1.exe PID=     12745.
  
 Copyright (c) 1988,1990,1992,1993,1995,1998,2003,2004,2007, Gaussian, Inc.
                  All Rights Reserved.
  
 This is the Gaussian(R) 03 program.  It is based on the
 the Gaussian(R) 98 system (copyright 1998, Gaussian, Inc.),
 the Gaussian(R) 94 system (copyright 1995, Gaussian, Inc.),
 the Gaussian 92(TM) system (copyright 1992, Gaussian, Inc.),
 the Gaussian 90(TM) system (copyright 1990, Gaussian, Inc.),
 the Gaussian 88(TM) system (copyright 1988, Gaussian, Inc.),
 the Gaussian 86(TM) system (copyright 1986, Carnegie Mellon
 University), and the Gaussian 82(TM) system (copyright 1983,
 Carnegie Mellon University). Gaussian is a federally registered
 trademark of Gaussian, Inc.
  
 This software contains proprietary and confidential information,
 including trade secrets, belonging to Gaussian, Inc.
  
 This software is provided under written license and may be
 used, copied, transmitted, or stored only in accord with that
 written license.
  
 The following legend is applicable only to US Government
 contracts under FAR:
  
                    RESTRICTED RIGHTS LEGEND
  
 Use, reproduction and disclosure by the US Government is
 subject to restrictions as set forth in subparagraphs (a)
 and (c) of the Commercial Computer Software - Restricted
 Rights clause in FAR 52.227-19.
  
 Gaussian, Inc.
 340 Quinnipiac St., Bldg. 40, Wallingford CT 06492
  
  
 ---------------------------------------------------------------
 Warning -- This program may not be used in any manner that
 competes with the business of Gaussian, Inc. or will provide
 assistance to any competitor of Gaussian, Inc.  The licensee
 of this program is prohibited from giving any competitor of
 Gaussian, Inc. access to this program.  By using this program,
 the user acknowledges that Gaussian, Inc. is engaged in the
 business of creating and licensing software in the field of
 computational chemistry and represents and warrants to the
 licensee that it is not a competitor of Gaussian, Inc. and that
 it will not use this program in any manner prohibited above.
 ---------------------------------------------------------------
  

 Cite this work as:
 Gaussian 03, Revision E.01,
 M. J. Frisch, G. W. Trucks, H. B. Schlegel, G. E. Scuseria, 
 M. A. Robb, J. R. Cheeseman, J. A. Montgomery, Jr., T. Vreven, 
 K. N. Kudin, J. C. Burant, J. M. Millam, S. S. Iyengar, J. Tomasi, 
 V. Barone, B. Mennucci, M. Cossi, G. Scalmani, N. Rega, 
 G. A. Petersson, H. Nakatsuji, M. Hada, M. Ehara, K. Toyota, 
 R. Fukuda, J. Hasegawa, M. Ishida, T. Nakajima, Y. Honda, O. Kitao, 
 H. Nakai, M. Klene, X. Li, J. E. Knox, H. P. Hratchian, J. B. Cross, 
 V. Bakken, C. Adamo, J. Jaramillo, R. Gomperts, R. E. Stratmann, 
 O. Yazyev, A. J. Austin, R. Cammi, C. Pomelli, J. W. Ochterski, 
 P. Y. Ayala, K. Morokuma, G. A. Voth, P. Salvador, J. J. Dannenberg, 
 V. G. Zakrzewski, S. Dapprich, A. D. Daniels, M. C. Strain, 
 O. Farkas, D. K. Malick, A. D. Rabuck, K. Raghavachari, 
 J. B. Foresman, J. V. Ortiz, Q. Cui, A. G. Baboul, S. Clifford, 
 J. Cioslowski, B. B. Stefanov, G. Liu, A. Liashenko, P. Piskorz, 
 I. Komaromi, R. L. Martin, D. J. Fox, T. Keith, M. A. Al-Laham, 
 C. Y. Peng, A. Nanayakkara, M. Challacombe, P. M. W. Gill, 
 B. Johnson, W. Chen, M. W. Wong, C. Gonzalez, and J. A. Pople, 
 Gaussian, Inc., Wallingford CT, 2004.
 
 ******************************************
 Gaussian 03:  AM64L-G03RevE.01 11-Sep-2007
                17-Jun-2011 
 ******************************************
 %NprocShared=4
 Will use up to    4 processors via shared memory.
 %mem=3750MB
 %chk=S9L-ne-d-01
 --------------------------------------
 # hf/6-311G(d) freq scfcyc=500 scf=xqc
 --------------------------------------
 1/10=4,30=1,38=1/1,3;
 2/17=6,18=5,40=1/2;
 3/5=4,6=6,7=1,11=9,16=1,25=1,30=1/1,2,3;
 4//1;
 5/5=2,7=500,8=3,13=1,38=5/2,8;
 8/6=4,10=90,11=11/1;
 10/13=10/2;
 11/6=2,8=1,9=11,15=111,16=1/1,2,10;
 10/6=1/2;
 6/7=2,8=2,9=2,10=2,18=1,28=1/1;
 7/8=1,10=1,25=1/1,2,3,16;
 1/10=4,30=1/3;
 99//99;
 -----
 si3-c
 -----
 Symbolic Z-matrix:
 Charge =  1 Multiplicity = 2
 Si                    0.        0.       -1.21424 
 Si                    0.        1.98604  -0.00001 
 Si                    0.        0.        1.21426 
 Si                    0.       -1.98604  -0.00001 
 

 GradGradGradGradGradGradGradGradGradGradGradGradGradGradGradGradGradGrad
 Berny optimization.
 Initialization pass.
 Trust Radius=3.00D-01 FncErr=1.00D-07 GrdErr=1.00D-07
 Number of steps in this run=   2 maximum allowed number of steps=   2.
 GradGradGradGradGradGradGradGradGradGradGradGradGradGradGradGradGradGrad

                          Input orientation:                          
 ---------------------------------------------------------------------
 Center     Atomic     Atomic              Coordinates (Angstroms)
 Number     Number      Type              X           Y           Z
 ---------------------------------------------------------------------
    1         14             0        0.000000    0.000000   -1.214243
    2         14             0        0.000000    1.986043   -0.000008
    3         14             0        0.000000    0.000000    1.214259
    4         14             0        0.000000   -1.986043   -0.000008
 ---------------------------------------------------------------------
                    Distance matrix (angstroms):
                    1          2          3          4
     1  Si   0.000000
     2  Si   2.327817   0.000000
     3  Si   2.428502   2.327834   0.000000
     4  Si   2.327817   3.972086   2.327834   0.000000
 Stoichiometry    Si4(1+,2)
 Framework group  C2V[C2(SiSi),SGV(Si2)]
 Deg. of freedom     3
 Full point group                 C2V
 Largest Abelian subgroup         C2V     NOp   4
 Largest concise Abelian subgroup C2      NOp   2
                         Standard orientation:                         
 ---------------------------------------------------------------------
 Center     Atomic     Atomic              Coordinates (Angstroms)
 Number     Number      Type              X           Y           Z
 ---------------------------------------------------------------------
    1         14             0        0.000000    0.000000   -1.214243
    2         14             0        0.000000    1.986043   -0.000008
    3         14             0        0.000000    0.000000    1.214259
    4         14             0        0.000000   -1.986043   -0.000008
 ---------------------------------------------------------------------
 Rotational constants (GHZ):      6.1259046      2.2898650      1.6668107
 Standard basis: 6-311G(d) (5D, 7F)
 There are    45 symmetry adapted basis functions of A1  symmetry.
 There are     9 symmetry adapted basis functions of A2  symmetry.
 There are    19 symmetry adapted basis functions of B1  symmetry.
 There are    31 symmetry adapted basis functions of B2  symmetry.
 Integral buffers will be    131072 words long.
 Raffenetti 2 integral format.
 Two-electron integral symmetry is turned on.
   104 basis functions,   184 primitive gaussians,   108 cartesian basis functions
    28 alpha electrons       27 beta electrons
       nuclear repulsion energy       247.0450679225 Hartrees.
 NAtoms=    4 NActive=    4 NUniq=    3 SFac= 1.33D+00 NAtFMM=   80 NAOKFM=F Big=F
 One-electron integrals computed using PRISM.
 NBasis=   104 RedAO= T  NBF=    45     9    19    31
 NBsUse=   104 1.00D-06 NBFU=    45     9    19    31
 Harris functional with IExCor=  205 diagonalized for initial guess.
 ExpMin= 6.54D-02 ExpMax= 6.94D+04 ExpMxC= 2.33D+03 IAcc=2 IRadAn=         4 AccDes= 0.00D+00
 HarFok:  IExCor= 205 AccDes= 0.00D+00 IRadAn=         4 IDoV=1
 ScaDFX=  1.000000  1.000000  1.000000  1.000000
 Initial guess orbital symmetries:
 Alpha Orbitals:
       Occupied  (A1) (A1) (B2) (A1) (A1) (A1) (B2) (A1) (B2) (B2)
                 (A1) (A1) (B1) (B1) (A1) (B2) (A1) (B2) (B1) (A2)
                 (A1) (B2) (A1) (A1) (B2) (B1) (A1) (B2)
       Virtual   (A2) (B1) (A1) (B1) (A1) (A1) (B2) (B2) (A1) (B2)
                 (B2) (B1) (A1) (A1) (A2) (B2) (B1) (A1) (A1) (B1)
                 (B2) (A1) (A1) (A2) (B2) (B1) (A2) (A1) (A1) (B2)
                 (B2) (B1) (A1) (B2) (A1) (B1) (B1) (A2) (A2) (A1)
                 (A1) (B2) (B2) (A1) (B1) (A2) (B1) (B2) (B1) (A1)
                 (B2) (A1) (B2) (A1) (A1) (B2) (A1) (A1) (B2) (A1)
                 (A1) (B1) (B2) (A2) (B1) (B2) (B1) (A1) (A1) (B2)
                 (B2) (A1) (A1) (A1) (B2) (A1)
 Beta  Orbitals:
       Occupied  (A1) (A1) (B2) (A1) (A1) (A1) (B2) (A1) (B2) (B2)
                 (A1) (A1) (B1) (B1) (A1) (B2) (A1) (B2) (B1) (A2)
                 (A1) (B2) (A1) (A1) (B2) (B1) (A1)
       Virtual   (B2) (A2) (B1) (A1) (B1) (A1) (A1) (B2) (B2) (A1)
                 (B2) (B2) (B1) (A1) (A1) (A2) (B2) (B1) (A1) (A1)
                 (B1) (B2) (A1) (A1) (A2) (B2) (B1) (A2) (A1) (A1)
                 (B2) (B2) (B1) (A1) (B2) (A1) (B1) (B1) (A2) (A2)
                 (A1) (A1) (B2) (B2) (A1) (B1) (A2) (B1) (B2) (B1)
                 (A1) (B2) (A1) (B2) (A1) (A1) (B2) (A1) (A1) (B2)
                 (A1) (A1) (B1) (B2) (A2) (B1) (B2) (B1) (A1) (A1)
                 (B2) (B2) (A1) (A1) (A1) (B2) (A1)
 The electronic state of the initial guess is 2-B2.
 <S**2> of initial guess= 0.7500
 Requested convergence on RMS density matrix=1.00D-08 within 128 cycles.
 Requested convergence on MAX density matrix=1.00D-06.
 Requested convergence on             energy=1.00D-06.
 No special actions if energy rises.
 Keep R1 and R2 integrals in memory in canonical form, NReq=    36177830.
 Restarting incremental Fock formation.
 SCF Done:  E(UHF) =  -1155.33994448     A.U. after   21 cycles
             Convg  =    0.5960D-08             -V/T =  2.0001
             S**2   =   0.8265
 Annihilation of the first spin contaminant:
 S**2 before annihilation     0.8265,   after     0.7514
 QCSCF skips out because SCF is already converged.
 Range of M.O.s used for correlation:     1   104
 NBasis=   104 NAE=    28 NBE=    27 NFC=     0 NFV=     0
 NROrb=    104 NOA=    28 NOB=    27 NVA=    76 NVB=    77
          Differentiating once with respect to electric field.
                with respect to dipole field.
          Electric field/nuclear overlap derivatives assumed to be zero.
          Store integrals in memory, NReq=    35472047.
          There are   3 degrees of freedom in the 1st order CPHF.
     3 vectors were produced by pass  0.
 AX will form   3 AO Fock derivatives at one time.
     3 vectors were produced by pass  1.
     3 vectors were produced by pass  2.
     3 vectors were produced by pass  3.
     3 vectors were produced by pass  4.
     3 vectors were produced by pass  5.
     3 vectors were produced by pass  6.
     3 vectors were produced by pass  7.
     3 vectors were produced by pass  8.
     3 vectors were produced by pass  9.
     3 vectors were produced by pass 10.
     2 vectors were produced by pass 11.
     2 vectors were produced by pass 12.
     2 vectors were produced by pass 13.
     2 vectors were produced by pass 14.
 Inv2:  IOpt= 1 Iter= 1 AM= 3.32D-13 Conv= 1.00D-12.
 Inverted reduced A of dimension   41 with in-core refinement.
 End of Minotr Frequency-dependent properties file   721 does not exist.
 Symmetrizing basis deriv contribution to polar:
 IMax=3 JMax=2 DiffMx= 0.00D+00
 G2DrvN: will do    5 centers at a time, making    1 passes doing MaxLOS=2.
 FoFDir/FoFCou used for L=0 through L=2.
 DoAtom=TTTT
          Differentiating once with respect to electric field.
                with respect to dipole field.
          Differentiating once with respect to nuclear coordinates.
          Store integrals in memory, NReq=    35472131.
          There are  12 degrees of freedom in the 1st order CPHF.
    12 vectors were produced by pass  0.
 AX will form  12 AO Fock derivatives at one time.
    12 vectors were produced by pass  1.
    12 vectors were produced by pass  2.
    12 vectors were produced by pass  3.
    12 vectors were produced by pass  4.
    12 vectors were produced by pass  5.
    12 vectors were produced by pass  6.
    12 vectors were produced by pass  7.
    11 vectors were produced by pass  8.
     9 vectors were produced by pass  9.
     3 vectors were produced by pass 10.
     2 vectors were produced by pass 11.
     2 vectors were produced by pass 12.
     1 vectors were produced by pass 13.
 Inv2:  IOpt= 1 Iter= 1 AM= 2.56D-13 Conv= 1.00D-12.
 Inverted reduced A of dimension  124 with in-core refinement.
 Isotropic polarizability for W=    0.000000      136.28 Bohr**3.
 End of Minotr Frequency-dependent properties file   721 does not exist.

 **********************************************************************

            Population analysis using the SCF density.

 **********************************************************************

 Orbital symmetries:
 Alpha Orbitals:
       Occupied  (B2) (A1) (A1) (A1) (B2) (A1) (A1) (A1) (A1) (B2)
                 (B1) (A2) (B2) (A1) (B2) (B2) (A1) (B1) (A1) (B1)
                 (A1) (B2) (A1) (A1) (B2) (B2) (B1) (A1)
       Virtual   (A2) (A1) (B1) (B1) (A1) (A1) (B2) (B2) (A1) (B2)
                 (B1) (B2) (A1) (A2) (A1) (B1) (B2) (A1) (B1) (A1)
                 (B2) (B2) (A1) (A1) (A2) (B1) (A2) (B2) (A1) (A1)
                 (B2) (B1) (A1) (B2) (B1) (A1) (A2) (B1) (A2) (A1)
                 (A1) (B2) (B2) (A1) (B1) (A2) (B2) (B1) (A1) (B1)
                 (B2) (A1) (A1) (B2) (A1) (B2) (A1) (B2) (A1) (A1)
                 (A2) (B1) (B2) (A1) (B2) (A1) (B1) (B1) (A1) (B2)
                 (B2) (A1) (A1) (B2) (A1) (A1)
 Beta  Orbitals:
       Occupied  (B2) (A1) (A1) (A1) (B2) (A1) (A1) (A1) (B1) (A2)
                 (A1) (B2) (A1) (B2) (A1) (A1) (B1) (B1) (B2) (B2)
                 (A1) (B2) (A1) (A1) (B2) (B1) (A1)
       Virtual   (B2) (A2) (A1) (B1) (B1) (A1) (A1) (B2) (B2) (A1)
                 (B2) (B1) (B2) (A2) (A1) (B1) (A1) (A1) (B1) (B2)
                 (A1) (B2) (A1) (B2) (A1) (A2) (B1) (A2) (A1) (B2)
                 (A1) (B1) (B2) (A1) (B2) (B1) (A1) (A2) (B1) (A2)
                 (A1) (A1) (B2) (A1) (B2) (B1) (A2) (B2) (B1) (A1)
                 (B1) (B2) (A1) (A1) (B2) (A1) (B2) (A1) (B2) (A1)
                 (A1) (A2) (B1) (A1) (B2) (B2) (A1) (B1) (B1) (A1)
                 (B2) (B2) (A1) (A1) (B2) (A1) (A1)
 The electronic state is 2-B2.
 Alpha  occ. eigenvalues --  -69.04889 -69.04889 -68.98110 -68.98109  -6.39008
 Alpha  occ. eigenvalues --   -6.39005  -6.32733  -6.32723  -4.49694  -4.49694
 Alpha  occ. eigenvalues --   -4.49004  -4.49004  -4.48902  -4.48902  -4.43192
 Alpha  occ. eigenvalues --   -4.43188  -4.42982  -4.42939  -4.42936  -4.42934
 Alpha  occ. eigenvalues --   -1.01286  -0.85988  -0.73108  -0.67463  -0.55156
 Alpha  occ. eigenvalues --   -0.53236  -0.49760  -0.47744
 Alpha virt. eigenvalues --   -0.22459  -0.17002  -0.14905  -0.10007  -0.06795
 Alpha virt. eigenvalues --   -0.05939  -0.03653  -0.01733   0.04384   0.05722
 Alpha virt. eigenvalues --    0.07784   0.09686   0.10698   0.12455   0.15434
 Alpha virt. eigenvalues --    0.15460   0.16662   0.17382   0.18227   0.19464
 Alpha virt. eigenvalues --    0.24161   0.38806   0.38807   0.41100   0.43439
 Alpha virt. eigenvalues --    0.46972   0.47858   0.50396   0.50945   0.52787
 Alpha virt. eigenvalues --    0.58834   0.59407   0.63939   0.65586   0.71015
 Alpha virt. eigenvalues --    0.71046   0.75716   0.77484   0.80119   0.94711
 Alpha virt. eigenvalues --    0.95720   0.98942   0.99431   1.00227   1.14952
 Alpha virt. eigenvalues --    1.17500   1.21691   1.23077   1.23268   1.23979
 Alpha virt. eigenvalues --    1.27977   1.29434   1.37597   1.38408   1.40533
 Alpha virt. eigenvalues --    1.44864   5.33827   5.63633   5.68779   5.71937
 Alpha virt. eigenvalues --   11.85676  11.85717  11.87333  11.87875  11.88972
 Alpha virt. eigenvalues --   11.91044  11.92878  11.93529  11.95400  12.03040
 Alpha virt. eigenvalues --   12.05838  12.09514 143.06315 143.38594 143.44327
 Alpha virt. eigenvalues --  143.47933
  Beta  occ. eigenvalues --  -69.04555 -69.04555 -68.98059 -68.98058  -6.38623
  Beta  occ. eigenvalues --   -6.38621  -6.32703  -6.32693  -4.48813  -4.48813
  Beta  occ. eigenvalues --   -4.48786  -4.48786  -4.48094  -4.48094  -4.43075
  Beta  occ. eigenvalues --   -4.43025  -4.42940  -4.42934  -4.42666  -4.42662
  Beta  occ. eigenvalues --   -0.99482  -0.81687  -0.72078  -0.57743  -0.51673
  Beta  occ. eigenvalues --   -0.49811  -0.47760
  Beta virt. eigenvalues --   -0.24904  -0.21545  -0.16698  -0.15007  -0.08854
  Beta virt. eigenvalues --   -0.05304  -0.04046  -0.03208   0.01022   0.05093
  Beta virt. eigenvalues --    0.07471   0.07871   0.09966   0.12596   0.12904
  Beta virt. eigenvalues --    0.15444   0.15454   0.17592   0.18146   0.19328
  Beta virt. eigenvalues --    0.21640   0.25285   0.39107   0.39590   0.41522
  Beta virt. eigenvalues --    0.47141   0.48043   0.48414   0.51073   0.53435
  Beta virt. eigenvalues --    0.54775   0.59545   0.60573   0.64584   0.66042
  Beta virt. eigenvalues --    0.72568   0.72586   0.76310   0.77237   0.81339
  Beta virt. eigenvalues --    0.94297   0.97030   1.00383   1.00769   1.01760
  Beta virt. eigenvalues --    1.15138   1.17959   1.22242   1.23081   1.24079
  Beta virt. eigenvalues --    1.24171   1.29533   1.31754   1.37650   1.39777
  Beta virt. eigenvalues --    1.40810   1.45484   5.34238   5.64181   5.68863
  Beta virt. eigenvalues --    5.72144  11.85839  11.85864  11.87918  11.88457
  Beta virt. eigenvalues --   11.89073  11.92216  11.92884  11.93556  11.95387
  Beta virt. eigenvalues --   12.03494  12.06538  12.09642 143.06444 143.38797
  Beta virt. eigenvalues --  143.44336 143.48017
          Condensed to atoms (all electrons):
              1          2          3          4
     1  Si  13.544374   0.198740   0.087070   0.198740
     2  Si   0.198740  13.082892   0.198706  -0.009238
     3  Si   0.087070   0.198706  13.544394   0.198706
     4  Si   0.198740  -0.009238   0.198706  13.082892
 Mulliken atomic charges:
              1
     1  Si  -0.028923
     2  Si   0.528900
     3  Si  -0.028877
     4  Si   0.528900
 Sum of Mulliken charges=   1.00000
 Atomic charges with hydrogens summed into heavy atoms:
              1
     1  Si  -0.028923
     2  Si   0.528900
     3  Si  -0.028877
     4  Si   0.528900
 Sum of Mulliken charges=   1.00000
          Atomic-Atomic Spin Densities.
              1          2          3          4
     1  Si  -0.106047   0.131062  -0.124965   0.131062
     2  Si   0.131062   0.250006   0.131111  -0.043366
     3  Si  -0.124965   0.131111  -0.105997   0.131111
     4  Si   0.131062  -0.043366   0.131111   0.250006
 Mulliken atomic spin densities:
              1
     1  Si   0.031112
     2  Si   0.468813
     3  Si   0.031261
     4  Si   0.468813
 Sum of Mulliken spin densities=   1.00000
 APT atomic charges:
              1
     1  Si  -0.631038
     2  Si   1.130848
     3  Si  -0.630653
     4  Si   1.130847
 Sum of APT charges=   1.00000
 APT Atomic charges with hydrogens summed into heavy atoms:
              1
     1  Si  -0.631038
     2  Si   1.130848
     3  Si  -0.630653
     4  Si   1.130847
 Sum of APT charges=   1.00000
 Electronic spatial extent (au):  <R**2>=   632.5375
 Charge=     1.0000 electrons
 Dipole moment (field-independent basis, Debye):
    X=     0.0000    Y=     0.0000    Z=    -0.0003  Tot=     0.0003
 Quadrupole moment (field-independent basis, Debye-Ang):
   XX=   -46.0381   YY=   -25.7058   ZZ=   -50.2714
   XY=     0.0000   XZ=     0.0000   YZ=     0.0000
 Traceless Quadrupole moment (field-independent basis, Debye-Ang):
   XX=    -5.3663   YY=    14.9659   ZZ=    -9.5996
   XY=     0.0000   XZ=     0.0000   YZ=     0.0000
 Octapole moment (field-independent basis, Debye-Ang**2):
  XXX=     0.0000  YYY=     0.0000  ZZZ=    -0.0012  XYY=     0.0000
  XXY=     0.0000  XXZ=    -0.0003  XZZ=     0.0000  YZZ=     0.0000
  YYZ=    -0.0025  XYZ=     0.0000
 Hexadecapole moment (field-independent basis, Debye-Ang**3):
 XXXX=   -79.8027 YYYY=  -498.8405 ZZZZ=  -332.0174 XXXY=     0.0000
 XXXZ=     0.0000 YYYX=     0.0000 YYYZ=     0.0000 ZZZX=     0.0000
 ZZZY=     0.0000 XXYY=  -104.5154 XXZZ=   -65.6325 YYZZ=  -155.9239
 XXYZ=     0.0000 YYXZ=     0.0000 ZZXY=     0.0000
 N-N= 2.470450679225D+02 E-N=-3.240110603368D+03  KE= 1.155274228019D+03
 Symmetry A1   KE= 7.412898841474D+02
 Symmetry A2   KE= 2.436772561023D+01
 Symmetry B1   KE= 7.463527455227D+01
 Symmetry B2   KE= 3.149813437095D+02
  Exact polarizability:  54.858   0.000 189.625   0.000   0.000 164.356
 Approx polarizability:  61.600   0.000 232.985   0.000   0.000 168.897
                          Isotropic Fermi Contact Couplings
        Atom                 a.u.       MegaHertz       Gauss      10(-4) cm-1
     1  Si(29)            -0.11195      99.49020      35.50058      33.18636
     2  Si(29)             0.07335     -65.18626     -23.26008     -21.74379
     3  Si(29)            -0.11210      99.62675      35.54930      33.23191
     4  Si(29)             0.07335     -65.18626     -23.26008     -21.74379
 --------------------------------------------------------
       Center         ----  Spin Dipole Couplings  ----
                      3XX-RR        3YY-RR        3ZZ-RR
 --------------------------------------------------------
     1   Atom       -0.175495      0.452942     -0.277446
     2   Atom       -0.530626      1.147460     -0.616833
     3   Atom       -0.175695      0.453290     -0.277596
     4   Atom       -0.530626      1.147460     -0.616833
 --------------------------------------------------------
                        XY            XZ            YZ
 --------------------------------------------------------
     1   Atom        0.000000      0.000000      0.000000
     2   Atom        0.000000      0.000000     -0.000238
     3   Atom        0.000000      0.000000      0.000000
     4   Atom        0.000000      0.000000      0.000238
 --------------------------------------------------------


 ---------------------------------------------------------------------------------
              Anisotropic Spin Dipole Couplings in Principal Axis System
 ---------------------------------------------------------------------------------

       Atom             a.u.   MegaHertz   Gauss  10(-4) cm-1        Axes

              Baa    -0.2774    29.433    10.502     9.818  0.0000  0.0000  1.0000
     1 Si(29) Bbb    -0.1755    18.617     6.643     6.210  1.0000  0.0000  0.0000
              Bcc     0.4529   -48.050   -17.145   -16.028  0.0000  1.0000  0.0000
 
              Baa    -0.6168    65.436    23.349    21.827  0.0000  0.0001  1.0000
     2 Si(29) Bbb    -0.5306    56.291    20.086    18.777  1.0000  0.0000  0.0000
              Bcc     1.1475  -121.727   -43.435   -40.604  0.0000  1.0000 -0.0001
 
              Baa    -0.2776    29.448    10.508     9.823  0.0000  0.0000  1.0000
     3 Si(29) Bbb    -0.1757    18.638     6.651     6.217  1.0000  0.0000  0.0000
              Bcc     0.4533   -48.087   -17.159   -16.040  0.0000  1.0000  0.0000
 
              Baa    -0.6168    65.436    23.349    21.827  0.0000 -0.0001  1.0000
     4 Si(29) Bbb    -0.5306    56.291    20.086    18.777  1.0000  0.0000  0.0000
              Bcc     1.1475  -121.727   -43.435   -40.604  0.0000  1.0000  0.0001
 

 ---------------------------------------------------------------------------------

 Full mass-weighted force constant matrix:
 Low frequencies --- -407.2147  -84.3793   -0.0139    0.0026    0.0032   46.1593
 Low frequencies ---   76.3602  159.5182  197.9554
 ******    1 imaginary frequencies (negative Signs) ****** 
 Diagonal vibrational polarizability:
        4.4030960      45.0667084      71.9564911
 Diagonal vibrational hyperpolarizability:
        0.0000000      -0.4659308     105.1404499
 Harmonic frequencies (cm**-1), IR intensities (KM/Mole), Raman scattering
 activities (A**4/AMU), depolarization ratios for plane and unpolarized
 incident light, reduced masses (AMU), force constants (mDyne/A),
 and normal coordinates:
                     1                      2                      3
                    A1                     B1                     B2
 Frequencies --  -407.2147               159.5182               197.9554
 Red. masses --    27.9769                27.9769                27.9769
 Frc consts  --     2.7334                 0.4194                 0.6459
 IR Inten    --   443.3879                 4.1634                65.6232
 Raman Activ --     0.9395                 0.0000                 0.0082
 Depolar (P) --     0.3742                 0.7500                 0.6222
 Depolar (U) --     0.5446                 0.8571                 0.7671
 Atom AN      X      Y      Z        X      Y      Z        X      Y      Z
   1  14     0.00   0.00  -0.50     0.50   0.00   0.00     0.00   0.50   0.00
   2  14     0.00   0.00   0.50    -0.50   0.00   0.00     0.00  -0.50   0.00
   3  14     0.00   0.00  -0.50     0.50   0.00   0.00     0.00   0.50   0.00
   4  14     0.00   0.00   0.50    -0.50   0.00   0.00     0.00  -0.50   0.00
                     4                      5                      6
                    A1                     B2                     A1
 Frequencies --   339.1686               439.3196               472.6389
 Red. masses --    27.9769                27.9769                27.9769
 Frc consts  --     1.8962                 3.1813                 3.6822
 IR Inten    --     0.0000                 0.0000                 0.0000
 Raman Activ -- 26211.0487              2325.7218              1736.4487
 Depolar (P) --     0.3338                 0.7500                 0.1397
 Depolar (U) --     0.5006                 0.8571                 0.2451
 Atom AN      X      Y      Z        X      Y      Z        X      Y      Z
   1  14     0.00   0.00   0.35     0.00   0.60   0.00     0.00   0.00   0.61
   2  14     0.00   0.61   0.00     0.00   0.00  -0.37     0.00  -0.35   0.00
   3  14     0.00   0.00  -0.35     0.00  -0.60   0.00     0.00   0.00  -0.61
   4  14     0.00  -0.61   0.00     0.00   0.00   0.37     0.00   0.35   0.00

 -------------------
 - Thermochemistry -
 -------------------
 Temperature   298.150 Kelvin.  Pressure   1.00000 Atm.
 Atom  1 has atomic number 14 and mass  27.97693
 Atom  2 has atomic number 14 and mass  27.97693
 Atom  3 has atomic number 14 and mass  27.97693
 Atom  4 has atomic number 14 and mass  27.97693
 Molecular mass:   111.90771 amu.
 Principal axes and moments of inertia in atomic units:
                           1         2         3
     EIGENVALUES --   294.60811 788.143071082.75118
           X            0.00000   0.00000   1.00000
           Y            1.00000   0.00000   0.00000
           Z            0.00000   1.00000   0.00000
 This molecule is an asymmetric top.
 Rotational symmetry number  2.
 Rotational temperatures (Kelvin)      0.29400     0.10990     0.07999
 Rotational constants (GHZ):           6.12590     2.28986     1.66681
    1 imaginary frequencies ignored.
 Zero-point vibrational energy       9621.6 (Joules/Mol)
                                    2.29961 (Kcal/Mol)
 Warning -- explicit consideration of   5 degrees of freedom as
           vibrations may cause significant error
 Vibrational temperatures:    229.51   284.81   487.99   632.08   680.02
          (Kelvin)
 
 Zero-point correction=                           0.003665 (Hartree/Particle)
 Thermal correction to Energy=                    0.008580
 Thermal correction to Enthalpy=                  0.009524
 Thermal correction to Gibbs Free Energy=        -0.025901
 Sum of electronic and zero-point Energies=          -1155.336280
 Sum of electronic and thermal Energies=             -1155.331365
 Sum of electronic and thermal Enthalpies=           -1155.330421
 Sum of electronic and thermal Free Energies=        -1155.365845
 
                     E (Thermal)             CV                S
                      KCal/Mol        Cal/Mol-Kelvin    Cal/Mol-Kelvin
 Total                    5.384             13.989             74.558
 Electronic               0.000              0.000              1.377
 Translational            0.889              2.981             40.053
 Rotational               0.889              2.981             25.644
 Vibrational              3.606              8.027              7.483
 Vibration  1             0.621              1.892              2.556
 Vibration  2             0.637              1.843              2.152
 Vibration  3             0.719              1.597              1.216
 Vibration  4             0.799              1.384              0.829
 Vibration  5             0.830              1.311              0.730
                       Q            Log10(Q)             Ln(Q)
 Total Bot       0.819493D+12         11.913545         27.431951
 Total V=0       0.397346D+14         13.599169         31.313244
 Vib (Bot)       0.981215D-01         -1.008236         -2.321548
 Vib (Bot)  1    0.126754D+01          0.102961          0.237077
 Vib (Bot)  2    0.100806D+01          0.003485          0.008025
 Vib (Bot)  3    0.547759D+00         -0.261411         -0.601920
 Vib (Bot)  4    0.393710D+00         -0.404823         -0.932140
 Vib (Bot)  5    0.356083D+00         -0.448448         -1.032591
 Vib (V=0)       0.475760D+01          0.677388          1.559744
 Vib (V=0)  1    0.186259D+01          0.270117          0.621969
 Vib (V=0)  2    0.162525D+01          0.210919          0.485660
 Vib (V=0)  3    0.124165D+01          0.093998          0.216438
 Vib (V=0)  4    0.113640D+01          0.055532          0.127867
 Vib (V=0)  5    0.111384D+01          0.046821          0.107810
 Electronic      0.200000D+01          0.301030          0.693147
 Translational   0.465313D+08          7.667745         17.655636
 Rotational      0.897440D+05          4.953006         11.404717
 ***** Axes restored to original set *****
 -------------------------------------------------------------------
 Center     Atomic                   Forces (Hartrees/Bohr)
 Number     Number              X              Y              Z
 -------------------------------------------------------------------
    1         14           0.000000000    0.000000000   -0.017305523
    2         14           0.000000000   -0.023172184   -0.000002636
    3         14           0.000000000    0.000000000    0.017310794
    4         14           0.000000000    0.023172184   -0.000002636
 -------------------------------------------------------------------
 Cartesian Forces:  Max     0.023172184 RMS     0.011807642
 ------------------------------------------------------------------------
           Internal Coordinate Forces (Hartree/Bohr or radian)
 Cent Atom N1     Length/X     N2     Alpha/Y      N3      Beta/Z       J
 ------------------------------------------------------------------------
   1  Si        0.000000(   1)      0.000000(   5)     -0.017306(   9)
   2  Si        0.000000(   2)     -0.023172(   6)     -0.000003(  10)
   3  Si        0.000000(   3)      0.000000(   7)      0.017311(  11)
   4  Si        0.000000(   4)      0.023172(   8)     -0.000003(  12)
 ------------------------------------------------------------------------
 Internal  Forces:  Max     0.023172184 RMS     0.011807642

 GradGradGradGradGradGradGradGradGradGradGradGradGradGradGradGradGradGrad
 Berny optimization.
 Search for a local minimum.
 Step number   1 out of a maximum of   2
 All quantities printed in internal units (Hartrees-Bohrs-Radians)
 Second derivative matrix not updated -- analytic derivatives used.
 The second derivative matrix:
                          X1        Y1        Z1        X2        Y2
           X1           0.00297
           Y1           0.00000   0.08234
           Z1           0.00000   0.00000   0.06012
           X2          -0.00674   0.00000   0.00000   0.00982
           Y2           0.00000  -0.01036  -0.02481   0.00000   0.08548
           Z2           0.00000  -0.04631   0.04391   0.00000   0.00004
           X3           0.01050   0.00000   0.00000  -0.00673   0.00000
           Y3           0.00000  -0.06161   0.00000   0.00000  -0.01038
           Z3           0.00000   0.00000  -0.14793   0.00000   0.02472
           X4          -0.00674   0.00000   0.00000   0.00365   0.00000
           Y4           0.00000  -0.01036   0.02481   0.00000  -0.06474
           Z4           0.00000   0.04631   0.04390   0.00000   0.00005
                          Z2        X3        Y3        Z3        X4
           Z2          -0.01249
           X3           0.00000   0.00296
           Y3           0.04632   0.00000   0.08237
           Z3           0.04388   0.00000   0.00000   0.06017
           X4           0.00000  -0.00673   0.00000   0.00000   0.00982
           Y4          -0.00005   0.00000  -0.01038  -0.02472   0.00000
           Z4          -0.07530   0.00000  -0.04632   0.04388   0.00000
                          Y4        Z4
           Y4           0.08548
           Z4          -0.00004  -0.01249
     Eigenvalues ---   -0.17557   0.02694   0.04149   0.12179   0.20434
     Eigenvalues ---    0.23651
 Eigenvalue   1 out of range, new value =    0.175565 Eigenvector:
                           1
           X1           0.00000
           Y1           0.00000
           Z1          -0.50011
           X2           0.00000
           Y2          -0.00031
           Z2           0.50000
           X3           0.00000
           Y3           0.00000
           Z3          -0.49989
           X4           0.00000
           Y4           0.00031
           Z4           0.50000
 Quadratic step=3.341D-01 exceeds max=3.000D-01 adjusted using Lamda=-1.359D-02.
 Angle between NR and scaled steps=   0.18 degrees.
 Angle between quadratic step and forces=   3.15 degrees.
 Linear search not attempted -- first point.
 TrRot=  0.000000  0.000000  0.000000  0.000000  0.000000  0.000000
 Variable       Old X    -DE/DX   Delta X   Delta X   Delta X     New X
                                 (Linear)    (Quad)   (Total)
    X1        0.00000   0.00000   0.00000   0.00000   0.00000   0.00000
    Y1        0.00000   0.00000   0.00000   0.00000   0.00000   0.00000
    Z1       -2.29459  -0.01731   0.00000  -0.11760  -0.11760  -2.41219
    X2        0.00000   0.00000   0.00000   0.00000   0.00000   0.00000
    Y2        3.75308  -0.02317   0.00000  -0.17702  -0.17702   3.57606
    Z2       -0.00002   0.00000   0.00000  -0.00003  -0.00003  -0.00005
    X3        0.00000   0.00000   0.00000   0.00000   0.00000   0.00000
    Y3        0.00000   0.00000   0.00000   0.00000   0.00000   0.00000
    Z3        2.29462   0.01731   0.00000   0.11767   0.11767   2.41228
    X4        0.00000   0.00000   0.00000   0.00000   0.00000   0.00000
    Y4       -3.75308   0.02317   0.00000   0.17702   0.17702  -3.57606
    Z4       -0.00002   0.00000   0.00000  -0.00003  -0.00003  -0.00005
         Item               Value     Threshold  Converged?
 Maximum Force            0.023172     0.000450     NO 
 RMS     Force            0.011808     0.000300     NO 
 Maximum Displacement     0.177020     0.001800     NO 
 RMS     Displacement     0.086770     0.001200     NO 
 Predicted change in Energy=-6.751937D-03
 GradGradGradGradGradGradGradGradGradGradGradGradGradGradGradGradGradGrad

 1\1\GINC-NODE24\Freq\UHF\6-311G(d)\Si4(1+,2)\TAM\17-Jun-2011\0\\# hf/6
 -311G(d) freq scfcyc=500 scf=xqc\\si3-c\\1,2\Si,0.,0.,-1.214243\Si,0.,
 1.986043,-0.000008\Si,0.,0.,1.214259\Si,0.,-1.986043,-0.000008\\Versio
 n=AM64L-G03RevE.01\State=2-B2\HF=-1155.3399445\S2=0.826469\S2-1=0.\S2A
 =0.751428\RMSD=5.960e-09\RMSF=1.181e-02\ZeroPoint=0.0036647\Thermal=0.
 0085797\Dipole=0.,0.,-0.0001074\DipoleDeriv=0.0771873,0.,0.,0.,-0.4362
 859,0.0000038,0.,-0.0000323,-1.5340167,0.4228314,0.,0.,0.,0.9361434,-0
 .0012945,0.,0.00015,2.0335686,0.0771585,0.,0.,0.,-0.4360269,-0.0000263
 ,0.,0.0000062,-1.5330908,0.4228314,0.,0.,0.,0.9361694,0.0013345,0.,-0.
 0001192,2.0335389\Polar=54.8584114,0.,189.6254453,0.,0.0002437,164.356
 0623\PolarDeriv=0.,-0.0000901,0.,-23.8235564,0.,0.,-0.0001816,0.,0.013
 959,0.,121.296419,0.1853204,-0.8088584,0.,-68.8836308,0.,0.1174934,195
 .1059604,0.,17.9618607,0.,0.003361,0.,0.,0.8439436,0.,38.6008188,0.,-0
 .1302259,606.1172449,-0.006907,0.,-0.1821222,0.,-71.306416,2.8678826,0
 .,-0.0007329,0.,23.8158839,0.,0.,-0.000182,0.,-0.0024076,0.,-120.99820
 64,0.170757,0.8226725,0.,69.2331259,0.,0.1295562,-200.8498034,0.,-17.9
 61482,0.,0.0033523,0.,0.,-0.8439436,0.,-38.6176731,0.,-0.1692121,-606.
 2466957,-0.006907,0.,-0.1683731,0.,71.3133947,2.8705331\HyperPolar=0.,
 0.0063894,0.,0.8069828,0.1895418,0.,7.0958285,0.,4.5014903,-81.6539072
 \PG=C02V [C2(Si1Si1),SGV(Si2)]\NImag=1\\0.00297113,0.,0.08234254,0.,0.
 00000081,0.06012089,-0.00673770,0.,0.,0.00982198,0.,-0.01036419,-0.024
 81314,0.,0.08548470,0.,-0.04631373,0.04390510,0.,0.00004405,-0.0124868
 7,0.01050424,0.,0.,-0.00673274,0.,0.,0.00296110,0.,-0.06161346,0.00000
 013,0.,-0.01037928,0.04632145,0.,0.08237274,0.,-0.00000024,-0.14793041
 ,0.,0.02471744,0.04387814,0.,-0.00000093,0.06017482,-0.00673764,0.,0.,
 0.00364856,0.,0.,-0.00673281,0.,0.,0.00982198,0.,-0.01036490,0.0248140
 6,0.,-0.06474052,-0.00005256,0.,-0.01037999,-0.02471652,0.,0.08548470,
 0.,0.04631293,0.04390442,0.,0.00005256,-0.07529568,0.,-0.04632225,0.04
 387745,0.,-0.00004405,-0.01248687\\0.,0.,0.01730552,0.,0.02317218,0.00
 000264,0.,0.,-0.01731079,0.,-0.02317218,0.00000264\\\@


 Not by the face shall a man be known, but by the mask.
                               -- Karen Blixen
 Job cpu time:  0 days  0 hours  1 minutes 58.1 seconds.
 File lengths (MBytes):  RWF=     30 Int=      0 D2E=      0 Chk=      8 Scr=      1
 Normal termination of Gaussian 03 at Fri Jun 17 16:10:38 2011.
 Initial command:
 /usr/local/chem/g03E01/l1.exe /temp0/tam/Gau-12744.inp -scrdir=/temp0/tam/
 Entering Link 1 = /usr/local/chem/g03E01/l1.exe PID=     12815.
  
 Copyright (c) 1988,1990,1992,1993,1995,1998,2003,2004,2007, Gaussian, Inc.
                  All Rights Reserved.
  
 This is the Gaussian(R) 03 program.  It is based on the
 the Gaussian(R) 98 system (copyright 1998, Gaussian, Inc.),
 the Gaussian(R) 94 system (copyright 1995, Gaussian, Inc.),
 the Gaussian 92(TM) system (copyright 1992, Gaussian, Inc.),
 the Gaussian 90(TM) system (copyright 1990, Gaussian, Inc.),
 the Gaussian 88(TM) system (copyright 1988, Gaussian, Inc.),
 the Gaussian 86(TM) system (copyright 1986, Carnegie Mellon
 University), and the Gaussian 82(TM) system (copyright 1983,
 Carnegie Mellon University). Gaussian is a federally registered
 trademark of Gaussian, Inc.
  
 This software contains proprietary and confidential information,
 including trade secrets, belonging to Gaussian, Inc.
  
 This software is provided under written license and may be
 used, copied, transmitted, or stored only in accord with that
 written license.
  
 The following legend is applicable only to US Government
 contracts under FAR:
  
                    RESTRICTED RIGHTS LEGEND
  
 Use, reproduction and disclosure by the US Government is
 subject to restrictions as set forth in subparagraphs (a)
 and (c) of the Commercial Computer Software - Restricted
 Rights clause in FAR 52.227-19.
  
 Gaussian, Inc.
 340 Quinnipiac St., Bldg. 40, Wallingford CT 06492
  
  
 ---------------------------------------------------------------
 Warning -- This program may not be used in any manner that
 competes with the business of Gaussian, Inc. or will provide
 assistance to any competitor of Gaussian, Inc.  The licensee
 of this program is prohibited from giving any competitor of
 Gaussian, Inc. access to this program.  By using this program,
 the user acknowledges that Gaussian, Inc. is engaged in the
 business of creating and licensing software in the field of
 computational chemistry and represents and warrants to the
 licensee that it is not a competitor of Gaussian, Inc. and that
 it will not use this program in any manner prohibited above.
 ---------------------------------------------------------------
  

 Cite this work as:
 Gaussian 03, Revision E.01,
 M. J. Frisch, G. W. Trucks, H. B. Schlegel, G. E. Scuseria, 
 M. A. Robb, J. R. Cheeseman, J. A. Montgomery, Jr., T. Vreven, 
 K. N. Kudin, J. C. Burant, J. M. Millam, S. S. Iyengar, J. Tomasi, 
 V. Barone, B. Mennucci, M. Cossi, G. Scalmani, N. Rega, 
 G. A. Petersson, H. Nakatsuji, M. Hada, M. Ehara, K. Toyota, 
 R. Fukuda, J. Hasegawa, M. Ishida, T. Nakajima, Y. Honda, O. Kitao, 
 H. Nakai, M. Klene, X. Li, J. E. Knox, H. P. Hratchian, J. B. Cross, 
 V. Bakken, C. Adamo, J. Jaramillo, R. Gomperts, R. E. Stratmann, 
 O. Yazyev, A. J. Austin, R. Cammi, C. Pomelli, J. W. Ochterski, 
 P. Y. Ayala, K. Morokuma, G. A. Voth, P. Salvador, J. J. Dannenberg, 
 V. G. Zakrzewski, S. Dapprich, A. D. Daniels, M. C. Strain, 
 O. Farkas, D. K. Malick, A. D. Rabuck, K. Raghavachari, 
 J. B. Foresman, J. V. Ortiz, Q. Cui, A. G. Baboul, S. Clifford, 
 J. Cioslowski, B. B. Stefanov, G. Liu, A. Liashenko, P. Piskorz, 
 I. Komaromi, R. L. Martin, D. J. Fox, T. Keith, M. A. Al-Laham, 
 C. Y. Peng, A. Nanayakkara, M. Challacombe, P. M. W. Gill, 
 B. Johnson, W. Chen, M. W. Wong, C. Gonzalez, and J. A. Pople, 
 Gaussian, Inc., Wallingford CT, 2004.
 
 ******************************************
 Gaussian 03:  AM64L-G03RevE.01 11-Sep-2007
                17-Jun-2011 
 ******************************************
 %NprocShared=4
 Will use up to    4 processors via shared memory.
 %mem=3750MB
 %chk=S9L-ne-d-01
 ----------------------------------------------------------------------
 # b3lyp/6-311+G(d) opt=(readfc,noeigentest,maxcycle=500) freq scfcyc=5
 00 optcyc=500 scf=xqc geom=allcheck guess=read
 ----------------------------------------------------------------------
 1/6=500,10=3,11=1,14=-1,18=20,26=3,29=7,38=1/1,3;
 2/9=110,40=1/2;
 3/5=4,6=6,7=11,11=2,16=1,25=1,30=1,74=-5/1,2,3;
 4/5=1/1;
 5/5=2,7=500,8=3,13=1,38=6/2,8;
 6/7=2,8=2,9=2,10=2,28=1/1;
 7//1,2,3,16;
 1/6=500,11=1,14=-1,18=20/3(3);
 2/9=110/2;
 6/7=2,8=2,9=2,10=2,19=2,28=1/1;
 99//99;
 2/9=110/2;
 3/5=4,6=6,7=11,11=2,16=1,25=1,30=1,74=-5/1,2,3;
 4/5=5,16=3/1;
 5/5=2,7=500,8=3,13=1,38=5/2,8;
 7//1,2,3,16;
 1/6=500,11=1,14=-1,18=20/3(-5);
 2/9=110/2;
 6/7=2,8=2,9=2,10=2,19=2,28=1/1;
 99/9=1/99;
 -----
 si3-c
 -----
 No Z-matrix found on checkpoint file.
 Cartesian coordinates read from the checkpoint file:
 S9L-ne-d-01.chk
 Charge =  1 Multiplicity = 2
  Si                                                0.000000000000      0.000000000000     -1.214243000000
  Si                                                0.000000000000      1.986043000000     -0.000008000000
  Si                                                0.000000000000      0.000000000000      1.214259000000
  Si                                                0.000000000000     -1.986043000000     -0.000008000000
 Recover connectivity data from disk.

 GradGradGradGradGradGradGradGradGradGradGradGradGradGradGradGradGradGrad
 Berny optimization.
 Initialization pass.
 No redundant coordinates on chk file, so ReadFC converted to ReadCartesianFC.
 Cartesian force constants read from checkpoint file:
 S9L-ne-d-01.chk
                           ----------------------------
                           !    Initial Parameters    !
                           ! (Angstroms and Degrees)  !
 --------------------------                            --------------------------
 ! Name  Definition              Value          Derivative Info.                !
 --------------------------------------------------------------------------------
 ! R1    R(1,2)                  2.3278         D2E/DX2 =    0.0274             !
 ! R2    R(1,3)                  2.4285         D2E/DX2 =    0.0737             !
 ! R3    R(1,4)                  2.3278         D2E/DX2 =    0.0274             !
 ! R4    R(2,3)                  2.3278         D2E/DX2 =    0.0273             !
 ! R5    R(3,4)                  2.3278         D2E/DX2 =    0.0273             !
 ! A1    A(2,1,4)              117.1181         D2E/DX2 =   -0.0068             !
 ! A2    A(2,3,4)              117.1168         D2E/DX2 =   -0.0068             !
 --------------------------------------------------------------------------------
 Trust Radius=3.00D-01 FncErr=1.00D-07 GrdErr=1.00D-06
 Number of steps in this run= 100 maximum allowed number of steps= 100.
 GradGradGradGradGradGradGradGradGradGradGradGradGradGradGradGradGradGrad

                          Input orientation:                          
 ---------------------------------------------------------------------
 Center     Atomic     Atomic              Coordinates (Angstroms)
 Number     Number      Type              X           Y           Z
 ---------------------------------------------------------------------
    1         14             0        0.000000    0.000000   -1.214243
    2         14             0        0.000000    1.986043   -0.000008
    3         14             0        0.000000    0.000000    1.214259
    4         14             0        0.000000   -1.986043   -0.000008
 ---------------------------------------------------------------------
                    Distance matrix (angstroms):
                    1          2          3          4
     1  Si   0.000000
     2  Si   2.327817   0.000000
     3  Si   2.428502   2.327834   0.000000
     4  Si   2.327817   3.972086   2.327834   0.000000
 Stoichiometry    Si4(1+,2)
 Framework group  C2V[C2(SiSi),SGV(Si2)]
 Deg. of freedom     3
 Full point group                 C2V
 Largest Abelian subgroup         C2V     NOp   4
 Largest concise Abelian subgroup C2      NOp   2
                         Standard orientation:                         
 ---------------------------------------------------------------------
 Center     Atomic     Atomic              Coordinates (Angstroms)
 Number     Number      Type              X           Y           Z
 ---------------------------------------------------------------------
    1         14             0        0.000000    0.000000   -1.214243
    2         14             0        0.000000    1.986043   -0.000008
    3         14             0        0.000000    0.000000    1.214259
    4         14             0        0.000000   -1.986043   -0.000008
 ---------------------------------------------------------------------
 Rotational constants (GHZ):      6.1259046      2.2898650      1.6668107
 Standard basis: 6-311+G(d) (5D, 7F)
 There are    52 symmetry adapted basis functions of A1  symmetry.
 There are    10 symmetry adapted basis functions of A2  symmetry.
 There are    22 symmetry adapted basis functions of B1  symmetry.
 There are    36 symmetry adapted basis functions of B2  symmetry.
 Integral buffers will be    131072 words long.
 Raffenetti 2 integral format.
 Two-electron integral symmetry is turned on.
   120 basis functions,   200 primitive gaussians,   124 cartesian basis functions
    28 alpha electrons       27 beta electrons
       nuclear repulsion energy       247.0450679225 Hartrees.
 NAtoms=    4 NActive=    4 NUniq=    3 SFac= 1.33D+00 NAtFMM=   80 NAOKFM=F Big=F
 One-electron integrals computed using PRISM.
 NBasis=   120 RedAO= T  NBF=    52    10    22    36
 NBsUse=   120 1.00D-06 NBFU=    52    10    22    36
 Initial guess read from the checkpoint file:
 S9L-ne-d-01.chk
 Initial guess orbital symmetries:
 Alpha Orbitals:
       Occupied  (B2) (A1) (A1) (A1) (B2) (A1) (A1) (A1) (A1) (B2)
                 (B1) (A2) (B2) (A1) (B2) (B2) (A1) (B1) (A1) (B1)
                 (A1) (B2) (A1) (A1) (B2) (B2) (B1) (A1)
       Virtual   (A2) (A1) (B1) (B1) (A1) (A1) (B2) (B2) (A1) (B2)
                 (B1) (B2) (A1) (A2) (A1) (B1) (B2) (A1) (B1) (A1)
                 (B2) (B2) (A1) (A1) (A2) (B1) (A2) (B2) (A1) (A1)
                 (B2) (B1) (A1) (B2) (B1) (A1) (A2) (B1) (A2) (A1)
                 (A1) (B2) (B2) (A1) (B1) (A2) (B2) (B1) (A1) (B1)
                 (B2) (A1) (A1) (B2) (A1) (B2) (A1) (B2) (A1) (A1)
                 (A2) (B1) (B2) (A1) (B2) (A1) (B1) (B1) (A1) (B2)
                 (B2) (A1) (A1) (B2) (A1) (A1) (A1) (A1) (A1) (A1)
                 (A1) (A1) (A1) (A2) (B1) (B1) (B1) (B2) (B2) (B2)
                 (B2) (B2)
 Beta  Orbitals:
       Occupied  (B2) (A1) (A1) (A1) (B2) (A1) (A1) (A1) (B1) (A2)
                 (A1) (B2) (A1) (B2) (A1) (A1) (B1) (B1) (B2) (B2)
                 (A1) (B2) (A1) (A1) (B2) (B1) (A1)
       Virtual   (B2) (A2) (A1) (B1) (B1) (A1) (A1) (B2) (B2) (A1)
                 (B2) (B1) (B2) (A2) (A1) (B1) (A1) (A1) (B1) (B2)
                 (A1) (B2) (A1) (B2) (A1) (A2) (B1) (A2) (A1) (B2)
                 (A1) (B1) (B2) (A1) (B2) (B1) (A1) (A2) (B1) (A2)
                 (A1) (A1) (B2) (A1) (B2) (B1) (A2) (B2) (B1) (A1)
                 (B1) (B2) (A1) (A1) (B2) (A1) (B2) (A1) (B2) (A1)
                 (A1) (A2) (B1) (A1) (B2) (B2) (A1) (B1) (B1) (A1)
                 (B2) (B2) (A1) (A1) (B2) (A1) (A1) (A1) (A1) (A1)
                 (A1) (A1) (A1) (A1) (A2) (B1) (B1) (B1) (B2) (B2)
                 (B2) (B2) (B2)
 <S**2> of initial guess= 0.8265
 Requested convergence on RMS density matrix=1.00D-08 within 128 cycles.
 Requested convergence on MAX density matrix=1.00D-06.
 Requested convergence on             energy=1.00D-06.
 No special actions if energy rises.
 Keep R1 and R2 integrals in memory in canonical form, NReq=    61972086.
 SCF Done:  E(UB+HF-LYP) =  -1157.67725904     A.U. after   13 cycles
             Convg  =    0.8940D-08             -V/T =  2.0017
             S**2   =   0.7610
 Annihilation of the first spin contaminant:
 S**2 before annihilation     0.7610,   after     0.7500
 QCSCF skips out because SCF is already converged.

 **********************************************************************

            Population analysis using the SCF density.

 **********************************************************************

 Orbital symmetries:
 Alpha Orbitals:
       Occupied  (B2) (A1) (A1) (A1) (B2) (A1) (A1) (A1) (B1) (A2)
                 (B2) (A1) (B2) (A1) (B1) (B1) (B2) (B2) (A1) (A1)
                 (A1) (B2) (A1) (A1) (B2) (B1) (B2) (A1)
       Virtual   (A2) (A1) (B1) (B1) (A1) (A1) (B2) (A1) (B2) (B1)
                 (A1) (B2) (B2) (B2) (A1) (A1) (A2) (B1) (A1) (B1)
                 (A1) (B2) (A1) (B2) (B2) (A1) (B2) (B1) (A1) (A2)
                 (B2) (B1) (A1) (A1) (B1) (B2) (A2) (A1) (B1) (A2)
                 (A1) (A1) (B2) (A1) (A1) (B2) (B1) (B2) (B2) (A1)
                 (B1) (A1) (A2) (B1) (A2) (A1) (A1) (B2) (B2) (A1)
                 (B1) (A2) (B2) (B1) (B1) (A1) (B2) (A1) (A1) (B2)
                 (A1) (B2) (A1) (B2) (A1) (A1) (A2) (B1) (B2) (A1)
                 (B2) (B1) (A1) (B1) (A1) (B2) (B2) (A1) (A1) (B2)
                 (A1) (A1)
 Beta  Orbitals:
       Occupied  (B2) (A1) (A1) (A1) (B2) (A1) (A1) (A1) (B1) (A2)
                 (B2) (A1) (B2) (A1) (B1) (B1) (A1) (A1) (B2) (B2)
                 (A1) (B2) (A1) (A1) (B2) (B1) (A1)
       Virtual   (B2) (A2) (A1) (B1) (B1) (A1) (A1) (B2) (A1) (B2)
                 (B1) (A1) (B2) (B2) (B2) (A1) (A2) (A1) (B1) (A1)
                 (B1) (A1) (B2) (A1) (B2) (B2) (A1) (B2) (B1) (A1)
                 (A2) (B1) (A1) (B2) (A1) (B1) (B2) (A1) (A2) (B1)
                 (A2) (A1) (A1) (B2) (A1) (A1) (B1) (B2) (B2) (B2)
                 (A1) (B1) (A1) (A2) (B1) (A2) (A1) (A1) (B2) (A1)
                 (B2) (B1) (A2) (B1) (B2) (B1) (A1) (B2) (A1) (A1)
                 (B2) (A1) (B2) (A1) (B2) (A1) (A1) (A2) (B1) (B2)
                 (A1) (B2) (B1) (A1) (B1) (A1) (B2) (B2) (A1) (A1)
                 (B2) (A1) (A1)
 The electronic state is 2-B2.
 Alpha  occ. eigenvalues --  -66.35728 -66.35728 -66.30337 -66.30337  -5.52326
 Alpha  occ. eigenvalues --   -5.52323  -5.47449  -5.47446  -3.88276  -3.88276
 Alpha  occ. eigenvalues --   -3.88190  -3.88190  -3.87892  -3.87892  -3.83389
 Alpha  occ. eigenvalues --   -3.83386  -3.83157  -3.83154  -3.83098  -3.83057
 Alpha  occ. eigenvalues --   -0.81696  -0.70040  -0.60255  -0.55498  -0.45525
 Alpha  occ. eigenvalues --   -0.45002  -0.44653  -0.41397
 Alpha virt. eigenvalues --   -0.33218  -0.27642  -0.26553  -0.23089  -0.18909
 Alpha virt. eigenvalues --   -0.16855  -0.14022  -0.13912  -0.13599  -0.09098
 Alpha virt. eigenvalues --   -0.08333  -0.07634  -0.06574  -0.06154  -0.05864
 Alpha virt. eigenvalues --   -0.05731  -0.05728  -0.04749  -0.02282  -0.01954
 Alpha virt. eigenvalues --   -0.01796  -0.00592   0.00867   0.01582   0.06509
 Alpha virt. eigenvalues --    0.07626   0.09520   0.11822   0.12334   0.13972
 Alpha virt. eigenvalues --    0.14263   0.14693   0.14890   0.15268   0.17043
 Alpha virt. eigenvalues --    0.21121   0.23326   0.23775   0.26146   0.26727
 Alpha virt. eigenvalues --    0.28229   0.30689   0.32710   0.33689   0.35084
 Alpha virt. eigenvalues --    0.37017   0.37079   0.41085   0.45188   0.47925
 Alpha virt. eigenvalues --    0.49001   0.50342   0.51632   0.54623   0.56673
 Alpha virt. eigenvalues --    0.72713   0.75061   0.75431   0.77749   0.78168
 Alpha virt. eigenvalues --    1.00265   1.02645   1.06006   1.06262   1.07680
 Alpha virt. eigenvalues --    1.08431   1.12940   1.14661   1.20502   1.20958
 Alpha virt. eigenvalues --    1.22081   1.25771   5.00173   5.19591   5.22209
 Alpha virt. eigenvalues --    5.25792  11.05111  11.05247  11.05538  11.06809
 Alpha virt. eigenvalues --   11.07841  11.10631  11.10660  11.11388  11.14050
 Alpha virt. eigenvalues --   11.21337  11.25866  11.29160 140.41237 140.61885
 Alpha virt. eigenvalues --  140.65222 140.69227
  Beta  occ. eigenvalues --  -66.35517 -66.35516 -66.30294 -66.30294  -5.52100
  Beta  occ. eigenvalues --   -5.52097  -5.47409  -5.47406  -3.88135  -3.88135
  Beta  occ. eigenvalues --   -3.87764  -3.87764  -3.87556  -3.87556  -3.83377
  Beta  occ. eigenvalues --   -3.83374  -3.83096  -3.83056  -3.82963  -3.82960
  Beta  occ. eigenvalues --   -0.80731  -0.68352  -0.59811  -0.52236  -0.44830
  Beta  occ. eigenvalues --   -0.44791  -0.41220
  Beta virt. eigenvalues --   -0.36971  -0.32502  -0.27101  -0.26534  -0.22292
  Beta virt. eigenvalues --   -0.17060  -0.16458  -0.13775  -0.13687  -0.12223
  Beta virt. eigenvalues --   -0.09091  -0.08052  -0.07276  -0.06094  -0.06024
  Beta virt. eigenvalues --   -0.05807  -0.05711  -0.05356  -0.04756  -0.02266
  Beta virt. eigenvalues --   -0.01920  -0.01742  -0.00477   0.00938   0.01734
  Beta virt. eigenvalues --    0.07260   0.07805   0.09669   0.11879   0.12985
  Beta virt. eigenvalues --    0.14150   0.14691   0.14961   0.15373   0.15406
  Beta virt. eigenvalues --    0.17137   0.21502   0.24488   0.25312   0.26811
  Beta virt. eigenvalues --    0.27230   0.28733   0.31381   0.33054   0.34449
  Beta virt. eigenvalues --    0.35418   0.37420   0.38590   0.42231   0.45613
  Beta virt. eigenvalues --    0.48119   0.50384   0.51636   0.52115   0.54591
  Beta virt. eigenvalues --    0.57713   0.72844   0.75861   0.76439   0.78722
  Beta virt. eigenvalues --    0.79105   1.00478   1.03019   1.06282   1.06379
  Beta virt. eigenvalues --    1.07799   1.08933   1.14019   1.15934   1.20565
  Beta virt. eigenvalues --    1.21798   1.22449   1.26211   5.00498   5.20086
  Beta virt. eigenvalues --    5.22317   5.26035  11.05301  11.05423  11.06202
  Beta virt. eigenvalues --   11.06914  11.08014  11.10649  11.11364  11.11423
  Beta virt. eigenvalues --   11.14119  11.21584  11.26298  11.29318 140.41388
  Beta virt. eigenvalues --  140.62098 140.65261 140.69328
          Condensed to atoms (all electrons):
              1          2          3          4
     1  Si  13.292431   0.253597   0.146384   0.253597
     2  Si   0.253597  13.038834   0.253594   0.007970
     3  Si   0.146384   0.253594  13.292427   0.253594
     4  Si   0.253597   0.007970   0.253594  13.038834
 Mulliken atomic charges:
              1
     1  Si   0.053991
     2  Si   0.446004
     3  Si   0.054000
     4  Si   0.446004
 Sum of Mulliken charges=   1.00000
 Atomic charges with hydrogens summed into heavy atoms:
              1
     1  Si   0.053991
     2  Si   0.446004
     3  Si   0.054000
     4  Si   0.446004
 Sum of Mulliken charges=   1.00000
          Atomic-Atomic Spin Densities.
              1          2          3          4
     1  Si  -0.018146   0.063596  -0.037815   0.063596
     2  Si   0.063596   0.331520   0.063595  -0.029947
     3  Si  -0.037815   0.063595  -0.018134   0.063595
     4  Si   0.063596  -0.029947   0.063595   0.331520
 Mulliken atomic spin densities:
              1
     1  Si   0.071231
     2  Si   0.428765
     3  Si   0.071240
     4  Si   0.428765
 Sum of Mulliken spin densities=   1.00000
 Electronic spatial extent (au):  <R**2>=   629.9794
 Charge=     1.0000 electrons
 Dipole moment (field-independent basis, Debye):
    X=     0.0000    Y=     0.0000    Z=     0.0000  Tot=     0.0000
 Quadrupole moment (field-independent basis, Debye-Ang):
   XX=   -44.6637   YY=   -26.1368   ZZ=   -47.7741
   XY=     0.0000   XZ=     0.0000   YZ=     0.0000
 Traceless Quadrupole moment (field-independent basis, Debye-Ang):
   XX=    -5.1389   YY=    13.3881   ZZ=    -8.2492
   XY=     0.0000   XZ=     0.0000   YZ=     0.0000
 Octapole moment (field-independent basis, Debye-Ang**2):
  XXX=     0.0000  YYY=     0.0000  ZZZ=    -0.0002  XYY=     0.0000
  XXY=     0.0000  XXZ=     0.0000  XZZ=     0.0000  YZZ=     0.0000
  YYZ=    -0.0004  XYZ=     0.0000
 Hexadecapole moment (field-independent basis, Debye-Ang**3):
 XXXX=   -72.5497 YYYY=  -492.9761 ZZZZ=  -313.4275 XXXY=     0.0000
 XXXZ=     0.0000 YYYX=     0.0000 YYYZ=     0.0000 ZZZX=     0.0000
 ZZZY=     0.0000 XXYY=  -103.8408 XXZZ=   -61.7473 YYZZ=  -152.6911
 XXYZ=     0.0000 YYXZ=     0.0000 ZZXY=     0.0000
 N-N= 2.470450679225D+02 E-N=-3.241825960460D+03  KE= 1.155744451196D+03
 Symmetry A1   KE= 7.409599326026D+02
 Symmetry A2   KE= 2.443722652477D+01
 Symmetry B1   KE= 7.512911354477D+01
 Symmetry B2   KE= 3.152181785241D+02
                          Isotropic Fermi Contact Couplings
        Atom                 a.u.       MegaHertz       Gauss      10(-4) cm-1
     1  Si(29)            -0.04559      40.51553      14.45695      13.51453
     2  Si(29)             0.24829    -220.65961     -78.73683     -73.60412
     3  Si(29)            -0.04559      40.51414      14.45645      13.51406
     4  Si(29)             0.24829    -220.65961     -78.73683     -73.60412
 --------------------------------------------------------
       Center         ----  Spin Dipole Couplings  ----
                      3XX-RR        3YY-RR        3ZZ-RR
 --------------------------------------------------------
     1   Atom       -0.174016      0.371220     -0.197204
     2   Atom       -0.482124      0.994509     -0.512385
     3   Atom       -0.174023      0.371232     -0.197210
     4   Atom       -0.482124      0.994509     -0.512385
 --------------------------------------------------------
                        XY            XZ            YZ
 --------------------------------------------------------
     1   Atom        0.000000      0.000000      0.000000
     2   Atom        0.000000      0.000000     -0.000021
     3   Atom        0.000000      0.000000      0.000000
     4   Atom        0.000000      0.000000      0.000021
 --------------------------------------------------------


 ---------------------------------------------------------------------------------
              Anisotropic Spin Dipole Couplings in Principal Axis System
 ---------------------------------------------------------------------------------

       Atom             a.u.   MegaHertz   Gauss  10(-4) cm-1        Axes

              Baa    -0.1972    20.920     7.465     6.978  0.0000  0.0000  1.0000
     1 Si(29) Bbb    -0.1740    18.460     6.587     6.158  1.0000  0.0000  0.0000
              Bcc     0.3712   -39.380   -14.052   -13.136  0.0000  1.0000  0.0000
 
              Baa    -0.5124    54.356    19.396    18.131  0.0000  0.0000  1.0000
     2 Si(29) Bbb    -0.4821    51.146    18.250    17.060  1.0000  0.0000  0.0000
              Bcc     0.9945  -105.502   -37.646   -35.192  0.0000  1.0000  0.0000
 
              Baa    -0.1972    20.921     7.465     6.978  0.0000  0.0000  1.0000
     3 Si(29) Bbb    -0.1740    18.461     6.587     6.158  1.0000  0.0000  0.0000
              Bcc     0.3712   -39.382   -14.052   -13.136  0.0000  1.0000  0.0000
 
              Baa    -0.5124    54.356    19.396    18.131  0.0000  0.0000  1.0000
     4 Si(29) Bbb    -0.4821    51.146    18.250    17.060  1.0000  0.0000  0.0000
              Bcc     0.9945  -105.502   -37.646   -35.192  0.0000  1.0000  0.0000
 

 ---------------------------------------------------------------------------------

 ***** Axes restored to original set *****
 -------------------------------------------------------------------
 Center     Atomic                   Forces (Hartrees/Bohr)
 Number     Number              X              Y              Z
 -------------------------------------------------------------------
    1         14           0.000000000    0.000000000   -0.027007783
    2         14           0.000000000   -0.017664255    0.000000672
    3         14           0.000000000    0.000000000    0.027006440
    4         14           0.000000000    0.017664255    0.000000672
 -------------------------------------------------------------------
 Cartesian Forces:  Max     0.027007783 RMS     0.013174533

 GradGradGradGradGradGradGradGradGradGradGradGradGradGradGradGradGradGrad
 Berny optimization.
 Internal  Forces:  Max     0.031961155 RMS     0.014994669
 Search for a local minimum.
 Step number   1 out of a maximum of 100
 All quantities printed in internal units (Hartrees-Bohrs-Radians)
 Second derivative matrix not updated -- first step.
 The second derivative matrix:
                          R1        R2        R3        R4        R5
           R1           0.02736
           R2          -0.00422   0.07369
           R3          -0.03271  -0.00422   0.02736
           R4           0.02648  -0.00417   0.07269   0.02729
           R5           0.07269  -0.00417   0.02648  -0.03280   0.02729
           A1           0.02708  -0.02078   0.02708  -0.01184  -0.01184
           A2          -0.01179  -0.02082  -0.01179   0.02708   0.02708
                          A1        A2
           A1          -0.00682
           A2           0.02212  -0.00678
     Eigenvalues ---   -0.13352   0.01387   0.07471   0.10629   0.10804
     Eigenvalues --- 1000.000001000.00000
 RFO step:  Lambda=-1.33521370D-01.
 Linear search not attempted -- first point.
 Maximum step size (   0.300) exceeded in Quadratic search.
    -- Step size scaled by   0.000
 Iteration  1 RMS(Cart)=  0.09614679 RMS(Int)=  0.00435241
 Iteration  2 RMS(Cart)=  0.00358166 RMS(Int)=  0.00073402
 Iteration  3 RMS(Cart)=  0.00000111 RMS(Int)=  0.00073402
 Iteration  4 RMS(Cart)=  0.00000000 RMS(Int)=  0.00073402
 Variable       Old X    -DE/DX   Delta X   Delta X   Delta X     New X
                                 (Linear)    (Quad)   (Total)
    R1        4.39894  -0.00883   0.00000   0.13271   0.13250   4.53144
    R2        4.58920   0.03196   0.00000   0.00008   0.00076   4.58996
    R3        4.39894  -0.00883   0.00000   0.13271   0.13250   4.53144
    R4        4.39897  -0.00883   0.00000  -0.13282  -0.13297   4.26600
    R5        4.39897  -0.00883   0.00000  -0.13282  -0.13297   4.26600
    A1        2.04410  -0.01097   0.00000  -0.09877  -0.09754   1.94655
    A2        2.04407  -0.01097   0.00000   0.09869   0.09999   2.14406
         Item               Value     Threshold  Converged?
 Maximum Force            0.031961     0.000450     NO 
 RMS     Force            0.014995     0.000300     NO 
 Maximum Displacement     0.127584     0.001800     NO 
 RMS     Displacement     0.096227     0.001200     NO 
 Predicted change in Energy=-6.013312D-03
 GradGradGradGradGradGradGradGradGradGradGradGradGradGradGradGradGradGrad

                          Input orientation:                          
 ---------------------------------------------------------------------
 Center     Atomic     Atomic              Coordinates (Angstroms)
 Number     Number      Type              X           Y           Z
 ---------------------------------------------------------------------
    1         14             0        0.000000    0.000000   -1.281757
    2         14             0        0.000000    1.982453    0.067306
    3         14             0        0.000000    0.000000    1.147145
    4         14             0        0.000000   -1.982453    0.067306
 ---------------------------------------------------------------------
                    Distance matrix (angstroms):
                    1          2          3          4
     1  Si   0.000000
     2  Si   2.397935   0.000000
     3  Si   2.428903   2.257470   0.000000
     4  Si   2.397935   3.964905   2.257470   0.000000
 Stoichiometry    Si4(1+,2)
 Framework group  C2V[C2(SiSi),SGV(Si2)]
 Deg. of freedom     3
 Full point group                 C2V
 Largest Abelian subgroup         C2V     NOp   4
 Largest concise Abelian subgroup C2      NOp   2
                         Standard orientation:                         
 ---------------------------------------------------------------------
 Center     Atomic     Atomic              Coordinates (Angstroms)
 Number     Number      Type              X           Y           Z
 ---------------------------------------------------------------------
    1         14             0        0.000000    0.000000    1.281757
    2         14             0        0.000000    1.982453   -0.067306
    3         14             0        0.000000    0.000000   -1.147145
    4         14             0        0.000000   -1.982453   -0.067306
 ---------------------------------------------------------------------
 Rotational constants (GHZ):      6.0864936      2.2981665      1.6682579
 Standard basis: 6-311+G(d) (5D, 7F)
 There are    52 symmetry adapted basis functions of A1  symmetry.
 There are    10 symmetry adapted basis functions of A2  symmetry.
 There are    22 symmetry adapted basis functions of B1  symmetry.
 There are    36 symmetry adapted basis functions of B2  symmetry.
 Integral buffers will be    131072 words long.
 Raffenetti 2 integral format.
 Two-electron integral symmetry is turned on.
   120 basis functions,   200 primitive gaussians,   124 cartesian basis functions
    28 alpha electrons       27 beta electrons
       nuclear repulsion energy       247.2571447338 Hartrees.
 NAtoms=    4 NActive=    4 NUniq=    3 SFac= 1.33D+00 NAtFMM=   80 NAOKFM=F Big=F
 One-electron integrals computed using PRISM.
 NBasis=   120 RedAO= T  NBF=    52    10    22    36
 NBsUse=   120 1.00D-06 NBFU=    52    10    22    36
 Initial guess read from the read-write file:
 Initial guess orbital symmetries:
 Alpha Orbitals:
       Occupied  (B2) (A1) (A1) (A1) (B2) (A1) (A1) (A1) (B1) (A2)
                 (B2) (A1) (B2) (A1) (B1) (B1) (B2) (B2) (A1) (A1)
                 (A1) (B2) (A1) (A1) (B2) (B1) (B2) (A1)
       Virtual   (A2) (A1) (B1) (B1) (A1) (A1) (B2) (A1) (B2) (B1)
                 (A1) (B2) (B2) (B2) (A1) (A1) (A2) (B1) (A1) (B1)
                 (A1) (B2) (A1) (B2) (B2) (A1) (B2) (B1) (A1) (A2)
                 (B2) (B1) (A1) (A1) (B1) (B2) (A2) (A1) (B1) (A2)
                 (A1) (A1) (B2) (A1) (A1) (B2) (B1) (B2) (B2) (A1)
                 (B1) (A1) (A2) (B1) (A2) (A1) (A1) (B2) (B2) (A1)
                 (B1) (A2) (B2) (B1) (B1) (A1) (B2) (A1) (A1) (B2)
                 (A1) (B2) (A1) (B2) (A1) (A1) (A2) (B1) (B2) (A1)
                 (B2) (B1) (A1) (B1) (A1) (B2) (B2) (A1) (A1) (B2)
                 (A1) (A1)
 Beta  Orbitals:
       Occupied  (B2) (A1) (A1) (A1) (B2) (A1) (A1) (A1) (B1) (A2)
                 (B2) (A1) (B2) (A1) (B1) (B1) (A1) (A1) (B2) (B2)
                 (A1) (B2) (A1) (A1) (B2) (B1) (A1)
       Virtual   (B2) (A2) (A1) (B1) (B1) (A1) (A1) (B2) (A1) (B2)
                 (B1) (A1) (B2) (B2) (B2) (A1) (A2) (A1) (B1) (A1)
                 (B1) (A1) (B2) (A1) (B2) (B2) (A1) (B2) (B1) (A1)
                 (A2) (B1) (A1) (B2) (A1) (B1) (B2) (A1) (A2) (B1)
                 (A2) (A1) (A1) (B2) (A1) (A1) (B1) (B2) (B2) (B2)
                 (A1) (B1) (A1) (A2) (B1) (A2) (A1) (A1) (B2) (A1)
                 (B2) (B1) (A2) (B1) (B2) (B1) (A1) (B2) (A1) (A1)
                 (B2) (A1) (B2) (A1) (B2) (A1) (A1) (A2) (B1) (B2)
                 (A1) (B2) (B1) (A1) (B1) (A1) (B2) (B2) (A1) (A1)
                 (B2) (A1) (A1)
 <S**2> of initial guess= 0.7678
 Harris functional with IExCor=  402 diagonalized for initial guess.
 ExpMin= 3.31D-02 ExpMax= 6.94D+04 ExpMxC= 2.33D+03 IAcc=3 IRadAn=         5 AccDes= 0.00D+00
 HarFok:  IExCor= 402 AccDes= 0.00D+00 IRadAn=         5 IDoV=1
 ScaDFX=  1.000000  1.000000  1.000000  1.000000
 Requested convergence on RMS density matrix=1.00D-08 within 128 cycles.
 Requested convergence on MAX density matrix=1.00D-06.
 Requested convergence on             energy=1.00D-06.
 No special actions if energy rises.
 Keep R1 and R2 integrals in memory in canonical form, NReq=    61972086.
 SCF Done:  E(UB+HF-LYP) =  -1157.67596883     A.U. after   17 cycles
             Convg  =    0.7620D-08             -V/T =  2.0016
             S**2   =   0.7613
 Annihilation of the first spin contaminant:
 S**2 before annihilation     0.7613,   after     0.7500
 QCSCF skips out because SCF is already converged.
 ***** Axes restored to original set *****
 -------------------------------------------------------------------
 Center     Atomic                   Forces (Hartrees/Bohr)
 Number     Number              X              Y              Z
 -------------------------------------------------------------------
    1         14           0.000000000    0.000000000   -0.021468938
    2         14           0.000000000   -0.013793325   -0.006140987
    3         14           0.000000000    0.000000000    0.033750913
    4         14           0.000000000    0.013793325   -0.006140987
 -------------------------------------------------------------------
 Cartesian Forces:  Max     0.033750913 RMS     0.013089355

 GradGradGradGradGradGradGradGradGradGradGradGradGradGradGradGradGradGrad
 Berny optimization.
 Internal  Forces:  Max     0.030949594 RMS     0.014325010
 Search for a local minimum.
 Step number   2 out of a maximum of 100
 All quantities printed in internal units (Hartrees-Bohrs-Radians)
 Update second derivatives using D2CorX and points  2  1
 Trust test=-2.15D-01 RLast= 3.00D-01 DXMaxT set to 1.50D-01
 The second derivative matrix:
                          R1        R2        R3        R4        R5
           R1           0.05455
           R2          -0.00357   0.07407
           R3          -0.00551  -0.00358   0.05455
           R4          -0.00327  -0.00632   0.04294   0.06558
           R5           0.04294  -0.00632  -0.00327   0.00549   0.06558
           A1           0.00482  -0.02246   0.00482   0.01708   0.01708
           A2           0.00954  -0.01969   0.00954   0.00127   0.00127
                          A1        A2
           A1           0.01504
           A2           0.00269   0.01102
 Energy Rises -- skip Quadratic search.
 Quartic linear search produced a step of -0.99751.
 Iteration  1 RMS(Cart)=  0.09604519 RMS(Int)=  0.00426884
 Iteration  2 RMS(Cart)=  0.00356310 RMS(Int)=  0.00000213
 Iteration  3 RMS(Cart)=  0.00000073 RMS(Int)=  0.00000182
 Variable       Old X    -DE/DX   Delta X   Delta X   Delta X     New X
                                 (Linear)    (Quad)   (Total)
    R1        4.53144  -0.01053  -0.13217   0.00000  -0.13217   4.39927
    R2        4.58996   0.03095  -0.00076   0.00000  -0.00076   4.58920
    R3        4.53144  -0.01053  -0.13217   0.00000  -0.13217   4.39927
    R4        4.26600  -0.00309   0.13264   0.00000   0.13264   4.39864
    R5        4.26600  -0.00309   0.13264   0.00000   0.13264   4.39864
    A1        1.94655  -0.00649   0.09730   0.00000   0.09730   2.04385
    A2        2.14406  -0.01398  -0.09974   0.00000  -0.09975   2.04432
         Item               Value     Threshold  Converged?
 Maximum Force            0.030950     0.000450     NO 
 RMS     Force            0.014325     0.000300     NO 
 Maximum Displacement     0.127267     0.001800     NO 
 RMS     Displacement     0.095987     0.001200     NO 
 Predicted change in Energy=-6.220507D-05
 GradGradGradGradGradGradGradGradGradGradGradGradGradGradGradGradGradGrad

                          Input orientation:                          
 ---------------------------------------------------------------------
 Center     Atomic     Atomic              Coordinates (Angstroms)
 Number     Number      Type              X           Y           Z
 ---------------------------------------------------------------------
    1         14             0        0.000000    0.000000   -1.214411
    2         14             0        0.000000    1.986043    0.000160
    3         14             0        0.000000    0.000000    1.214091
    4         14             0        0.000000   -1.986043    0.000160
 ---------------------------------------------------------------------
                    Distance matrix (angstroms):
                    1          2          3          4
     1  Si   0.000000
     2  Si   2.327992   0.000000
     3  Si   2.428502   2.327659   0.000000
     4  Si   2.327992   3.972086   2.327659   0.000000
 Stoichiometry    Si4(1+,2)
 Framework group  C2V[C2(SiSi),SGV(Si2)]
 Deg. of freedom     3
 Full point group                 C2V
 Largest Abelian subgroup         C2V     NOp   4
 Largest concise Abelian subgroup C2      NOp   2
                         Standard orientation:                         
 ---------------------------------------------------------------------
 Center     Atomic     Atomic              Coordinates (Angstroms)
 Number     Number      Type              X           Y           Z
 ---------------------------------------------------------------------
    1         14             0        0.000000    0.000000    1.214411
    2         14             0        0.000000    1.986043   -0.000160
    3         14             0        0.000000    0.000000   -1.214091
    4         14             0        0.000000   -1.986043   -0.000160
 ---------------------------------------------------------------------
 Rotational constants (GHZ):      6.1259038      2.2898653      1.6668108
 Standard basis: 6-311+G(d) (5D, 7F)
 There are    52 symmetry adapted basis functions of A1  symmetry.
 There are    10 symmetry adapted basis functions of A2  symmetry.
 There are    22 symmetry adapted basis functions of B1  symmetry.
 There are    36 symmetry adapted basis functions of B2  symmetry.
 Integral buffers will be    131072 words long.
 Raffenetti 2 integral format.
 Two-electron integral symmetry is turned on.
   120 basis functions,   200 primitive gaussians,   124 cartesian basis functions
    28 alpha electrons       27 beta electrons
       nuclear repulsion energy       247.0450745276 Hartrees.
 NAtoms=    4 NActive=    4 NUniq=    3 SFac= 1.33D+00 NAtFMM=   80 NAOKFM=F Big=F
 One-electron integrals computed using PRISM.
 NBasis=   120 RedAO= T  NBF=    52    10    22    36
 NBsUse=   120 1.00D-06 NBFU=    52    10    22    36
 Initial guess read from the read-write file:
 Initial guess orbital symmetries:
 Alpha Orbitals:
       Occupied  (B2) (A1) (A1) (A1) (B2) (A1) (A1) (A1) (B1) (A2)
                 (B2) (A1) (B2) (A1) (B1) (B2) (A1) (B1) (A1) (B2)
                 (A1) (B2) (A1) (A1) (B2) (B1) (B2) (A1)
       Virtual   (A2) (A1) (B1) (B1) (A1) (A1) (B2) (A1) (B2) (B1)
                 (A1) (B2) (B2) (A1) (B2) (A1) (A2) (B1) (A1) (B1)
                 (A1) (B2) (A1) (B2) (B2) (A1) (B2) (B1) (A1) (A2)
                 (B2) (B1) (A1) (A1) (B1) (B2) (A2) (A1) (B1) (A2)
                 (A1) (A1) (B2) (A1) (A1) (B2) (B1) (B2) (B2) (A1)
                 (B1) (A1) (A2) (B1) (A2) (A1) (B2) (A1) (B2) (A1)
                 (B1) (A2) (B2) (B1) (B1) (A1) (B2) (A1) (A1) (B2)
                 (A1) (B2) (A1) (B2) (A1) (A1) (A2) (B1) (B2) (A1)
                 (B2) (B1) (A1) (B1) (A1) (B2) (B2) (A1) (A1) (B2)
                 (A1) (A1)
 Beta  Orbitals:
       Occupied  (B2) (A1) (A1) (A1) (B2) (A1) (A1) (A1) (B1) (A2)
                 (B2) (A1) (B2) (A1) (B1) (A1) (B2) (B1) (A1) (B2)
                 (A1) (B2) (A1) (A1) (B1) (B2) (A1)
       Virtual   (B2) (A2) (A1) (B1) (B1) (A1) (A1) (B2) (A1) (B2)
                 (B1) (A1) (B2) (B2) (A1) (B2) (A2) (A1) (B1) (A1)
                 (B1) (A1) (B2) (A1) (B2) (B2) (A1) (B2) (B1) (A1)
                 (A2) (B1) (A1) (B2) (A1) (B1) (B2) (A1) (A2) (B1)
                 (A2) (A1) (A1) (B2) (A1) (A1) (B1) (B2) (B2) (B2)
                 (A1) (B1) (A2) (A1) (B1) (A2) (A1) (A1) (B2) (B2)
                 (A1) (B1) (A2) (B2) (B1) (B1) (A1) (B2) (A1) (A1)
                 (B2) (A1) (B2) (A1) (B2) (A1) (A1) (A2) (B1) (B2)
                 (A1) (B2) (B1) (A1) (B1) (A1) (B2) (B2) (A1) (A1)
                 (B2) (A1) (A1)
 <S**2> of initial guess= 0.7614
 Harris functional with IExCor=  402 diagonalized for initial guess.
 ExpMin= 3.31D-02 ExpMax= 6.94D+04 ExpMxC= 2.33D+03 IAcc=3 IRadAn=         5 AccDes= 0.00D+00
 HarFok:  IExCor= 402 AccDes= 0.00D+00 IRadAn=         5 IDoV=1
 ScaDFX=  1.000000  1.000000  1.000000  1.000000
 Requested convergence on RMS density matrix=1.00D-08 within 128 cycles.
 Requested convergence on MAX density matrix=1.00D-06.
 Requested convergence on             energy=1.00D-06.
 No special actions if energy rises.
 Keep R1 and R2 integrals in memory in canonical form, NReq=    61972086.
 SCF Done:  E(UB+HF-LYP) =  -1157.67725905     A.U. after   15 cycles
             Convg  =    0.1967D-08             -V/T =  2.0017
             S**2   =   0.7610
 Annihilation of the first spin contaminant:
 S**2 before annihilation     0.7610,   after     0.7500
 QCSCF skips out because SCF is already converged.
 ***** Axes restored to original set *****
 -------------------------------------------------------------------
 Center     Atomic                   Forces (Hartrees/Bohr)
 Number     Number              X              Y              Z
 -------------------------------------------------------------------
    1         14           0.000000000    0.000000000   -0.026993267
    2         14           0.000000000   -0.017664203   -0.000013837
    3         14           0.000000000    0.000000000    0.027020940
    4         14           0.000000000    0.017664203   -0.000013837
 -------------------------------------------------------------------
 Cartesian Forces:  Max     0.027020940 RMS     0.013174522

 GradGradGradGradGradGradGradGradGradGradGradGradGradGradGradGradGradGrad
 Berny optimization.
 Internal  Forces:  Max     0.031961126 RMS     0.014994649
 Search for a local minimum.
 Step number   3 out of a maximum of 100
 All quantities printed in internal units (Hartrees-Bohrs-Radians)
 Update second derivatives using D2CorX and points  2  3
 The second derivative matrix:
                          R1        R2        R3        R4        R5
           R1           0.05455
           R2          -0.00357   0.07407
           R3          -0.00552  -0.00358   0.05455
           R4          -0.00327  -0.00633   0.04295   0.06560
           R5           0.04295  -0.00633  -0.00327   0.00551   0.06560
           A1           0.00483  -0.02246   0.00483   0.01709   0.01709
           A2           0.00953  -0.01969   0.00953   0.00126   0.00126
                          A1        A2
           A1           0.01505
           A2           0.00269   0.01101
[...]
 Alpha virt. eigenvalues --   11.19440  11.22938  11.23672 140.41325 140.60693
 Alpha virt. eigenvalues --  140.63125 140.73635
  Beta  occ. eigenvalues --  -66.34113 -66.34113 -66.31580 -66.31579  -5.50847
  Beta  occ. eigenvalues --   -5.50844  -5.48572  -5.48572  -3.86881  -3.86880
  Beta  occ. eigenvalues --   -3.86560  -3.86560  -3.86229  -3.86229  -3.84539
  Beta  occ. eigenvalues --   -3.84538  -3.84307  -3.84295  -3.84075  -3.84074
  Beta  occ. eigenvalues --   -0.80104  -0.67505  -0.62208  -0.50248  -0.46036
  Beta  occ. eigenvalues --   -0.44553  -0.42756
  Beta virt. eigenvalues --   -0.34883  -0.31865  -0.28469  -0.27946  -0.21177
  Beta virt. eigenvalues --   -0.18633  -0.15704  -0.14286  -0.12740  -0.11189
  Beta virt. eigenvalues --   -0.09106  -0.08156  -0.07499  -0.06747  -0.06718
  Beta virt. eigenvalues --   -0.05650  -0.05375  -0.05135  -0.04571  -0.02849
  Beta virt. eigenvalues --   -0.01907  -0.01642  -0.00919   0.01533   0.02041
  Beta virt. eigenvalues --    0.07796   0.08034   0.08505   0.12020   0.13347
  Beta virt. eigenvalues --    0.14122   0.14302   0.14672   0.14805   0.15372
  Beta virt. eigenvalues --    0.17375   0.22320   0.23874   0.25431   0.25758
  Beta virt. eigenvalues --    0.26890   0.27243   0.30823   0.33168   0.35347
  Beta virt. eigenvalues --    0.35592   0.37667   0.39022   0.41289   0.45834
  Beta virt. eigenvalues --    0.46137   0.51588   0.52989   0.54570   0.56906
  Beta virt. eigenvalues --    0.57507   0.63162   0.74343   0.78116   0.80293
  Beta virt. eigenvalues --    0.80696   1.00265   1.03325   1.05455   1.08257
  Beta virt. eigenvalues --    1.08359   1.10058   1.11506   1.12964   1.20544
  Beta virt. eigenvalues --    1.20834   1.22017   1.24926   5.00571   5.18208
  Beta virt. eigenvalues --    5.21024   5.30004  11.06317  11.06507  11.07383
  Beta virt. eigenvalues --   11.07716  11.09801  11.10073  11.10218  11.12293
  Beta virt. eigenvalues --   11.16963  11.19686  11.23422  11.23958 140.41471
  Beta virt. eigenvalues --  140.60734 140.63334 140.73740
          Condensed to atoms (all electrons):
              1          2          3          4
     1  Si  13.302236   0.188233   0.203707   0.188233
     2  Si   0.188233  13.198469   0.188233   0.042649
     3  Si   0.203707   0.188233  13.302254   0.188233
     4  Si   0.188233   0.042649   0.188233  13.198469
 Mulliken atomic charges:
              1
     1  Si   0.117592
     2  Si   0.382417
     3  Si   0.117574
     4  Si   0.382417
 Sum of Mulliken charges=   1.00000
 Atomic charges with hydrogens summed into heavy atoms:
              1
     1  Si   0.117592
     2  Si   0.382417
     3  Si   0.117574
     4  Si   0.382417
 Sum of Mulliken charges=   1.00000
          Atomic-Atomic Spin Densities.
              1          2          3          4
     1  Si  -0.050667   0.098495  -0.068948   0.098495
     2  Si   0.098495   0.288829   0.098500  -0.063195
     3  Si  -0.068948   0.098500  -0.050685   0.098500
     4  Si   0.098495  -0.063195   0.098500   0.288829
 Mulliken atomic spin densities:
              1
     1  Si   0.077375
     2  Si   0.422629
     3  Si   0.077367
     4  Si   0.422629
 Sum of Mulliken spin densities=   1.00000
 APT atomic charges:
              1
     1  Si   0.064763
     2  Si   0.435254
     3  Si   0.064728
     4  Si   0.435254
 Sum of APT charges=   1.00000
 APT Atomic charges with hydrogens summed into heavy atoms:
              1
     1  Si   0.064763
     2  Si   0.435254
     3  Si   0.064728
     4  Si   0.435254
 Sum of APT charges=   1.00000
 Electronic spatial extent (au):  <R**2>=   621.8941
 Charge=     1.0000 electrons
 Dipole moment (field-independent basis, Debye):
    X=     0.0000    Y=     0.0000    Z=     0.0000  Tot=     0.0000
 Quadrupole moment (field-independent basis, Debye-Ang):
   XX=   -44.7499   YY=   -32.4784   ZZ=   -43.9620
   XY=     0.0000   XZ=     0.0000   YZ=     0.0000
 Traceless Quadrupole moment (field-independent basis, Debye-Ang):
   XX=    -4.3531   YY=     7.9184   ZZ=    -3.5652
   XY=     0.0000   XZ=     0.0000   YZ=     0.0000
 Octapole moment (field-independent basis, Debye-Ang**2):
  XXX=     0.0000  YYY=     0.0000  ZZZ=    -0.0001  XYY=     0.0000
  XXY=     0.0000  XXZ=     0.0001  XZZ=     0.0000  YZZ=     0.0000
  YYZ=    -0.0003  XYZ=     0.0000
 Hexadecapole moment (field-independent basis, Debye-Ang**3):
 XXXX=   -72.9792 YYYY=  -500.5155 ZZZZ=  -337.3946 XXXY=     0.0000
 XXXZ=     0.0000 YYYX=     0.0000 YYYZ=     0.0000 ZZZX=     0.0000
 ZZZY=     0.0000 XXYY=   -98.6631 XXZZ=   -67.0573 YYZZ=  -150.4766
 XXYZ=     0.0000 YYXZ=     0.0000 ZZXY=     0.0000
 N-N= 2.462013900314D+02 E-N=-3.240186144229D+03  KE= 1.155762510919D+03
 Symmetry A1   KE= 7.409110147844D+02
 Symmetry A2   KE= 2.443174612621D+01
 Symmetry B1   KE= 7.512037391141D+01
 Symmetry B2   KE= 3.152993760967D+02
  Exact polarizability:  63.466   0.000 162.271   0.000   0.000 124.896
 Approx polarizability: 109.323   0.000 506.240   0.000   0.000 373.150
                          Isotropic Fermi Contact Couplings
        Atom                 a.u.       MegaHertz       Gauss      10(-4) cm-1
     1  Si(29)            -0.03727      33.12371      11.81936      11.04888
     2  Si(29)             0.20113    -178.74564     -63.78088     -59.62313
     3  Si(29)            -0.03727      33.12632      11.82029      11.04975
     4  Si(29)             0.20113    -178.74564     -63.78088     -59.62313
 --------------------------------------------------------
       Center         ----  Spin Dipole Couplings  ----
                      3XX-RR        3YY-RR        3ZZ-RR
 --------------------------------------------------------
     1   Atom       -0.174548      0.364540     -0.189991
     2   Atom       -0.502715      1.035930     -0.533215
     3   Atom       -0.174545      0.364532     -0.189987
     4   Atom       -0.502715      1.035930     -0.533215
 --------------------------------------------------------
                        XY            XZ            YZ
 --------------------------------------------------------
     1   Atom        0.000000      0.000000      0.000000
     2   Atom        0.000000      0.000000     -0.000019
     3   Atom        0.000000      0.000000      0.000000
     4   Atom        0.000000      0.000000      0.000019
 --------------------------------------------------------


 ---------------------------------------------------------------------------------
              Anisotropic Spin Dipole Couplings in Principal Axis System
 ---------------------------------------------------------------------------------

       Atom             a.u.   MegaHertz   Gauss  10(-4) cm-1        Axes

              Baa    -0.1900    20.155     7.192     6.723  0.0000  0.0000  1.0000
     1 Si(29) Bbb    -0.1745    18.517     6.607     6.177  1.0000  0.0000  0.0000
              Bcc     0.3645   -38.672   -13.799   -12.900  0.0000  1.0000  0.0000
 
              Baa    -0.5332    56.566    20.184    18.868  0.0000  0.0000  1.0000
     2 Si(29) Bbb    -0.5027    53.330    19.029    17.789  1.0000  0.0000  0.0000
              Bcc     1.0359  -109.896   -39.213   -36.657  0.0000  1.0000  0.0000
 
              Baa    -0.1900    20.155     7.192     6.723  0.0000  0.0000  1.0000
     3 Si(29) Bbb    -0.1745    18.516     6.607     6.176  1.0000  0.0000  0.0000
              Bcc     0.3645   -38.671   -13.799   -12.899  0.0000  1.0000  0.0000
 
              Baa    -0.5332    56.566    20.184    18.868  0.0000  0.0000  1.0000
     4 Si(29) Bbb    -0.5027    53.330    19.029    17.789  1.0000  0.0000  0.0000
              Bcc     1.0359  -109.896   -39.213   -36.657  0.0000  1.0000  0.0000
 

 ---------------------------------------------------------------------------------

 Full mass-weighted force constant matrix:
 Low frequencies ---  -10.5590   -8.9720   -8.7871   -0.0040   -0.0021   -0.0020
 Low frequencies ---  110.3053  269.6319  278.8681
 Diagonal vibrational polarizability:
        0.0392751       5.6314272       0.1005918
 Harmonic frequencies (cm**-1), IR intensities (KM/Mole), Raman scattering
 activities (A**4/AMU), depolarization ratios for plane and unpolarized
 incident light, reduced masses (AMU), force constants (mDyne/A),
 and normal coordinates:
                     1                      2                      3
                    B1                     A1                     A1
 Frequencies --   110.3053               269.6319               278.8681
 Red. masses --    27.9769                27.9769                27.9769
 Frc consts  --     0.2006                 1.1984                 1.2819
 IR Inten    --     0.0178                 0.2718                 0.0000
 Atom AN      X      Y      Z        X      Y      Z        X      Y      Z
   1  14     0.50   0.00   0.00     0.00   0.00  -0.50     0.00   0.00   0.55
   2  14    -0.50   0.00   0.00     0.00   0.00   0.50     0.00  -0.45   0.00
   3  14     0.50   0.00   0.00     0.00   0.00  -0.50     0.00   0.00  -0.54
   4  14    -0.50   0.00   0.00     0.00   0.00   0.50     0.00   0.45   0.00
                     4                      5                      6
                    B2                     A1                     B2
 Frequencies --   426.7541               436.0395               445.6858
 Red. masses --    27.9769                27.9769                27.9769
 Frc consts  --     3.0020                 3.1340                 3.2742
 IR Inten    --    38.1101                 0.0000                 0.0000
 Atom AN      X      Y      Z        X      Y      Z        X      Y      Z
   1  14     0.00   0.50   0.00     0.00   0.00   0.45     0.00   0.57   0.00
   2  14     0.00  -0.50   0.00     0.00   0.55   0.00     0.00   0.00   0.41
   3  14     0.00   0.50   0.00     0.00   0.00  -0.45     0.00  -0.58   0.00
   4  14     0.00  -0.50   0.00     0.00  -0.55   0.00     0.00   0.00  -0.41

 -------------------
 - Thermochemistry -
 -------------------
 Temperature   298.150 Kelvin.  Pressure   1.00000 Atm.
 Atom  1 has atomic number 14 and mass  27.97693
 Atom  2 has atomic number 14 and mass  27.97693
 Atom  3 has atomic number 14 and mass  27.97693
 Atom  4 has atomic number 14 and mass  27.97693
 Molecular mass:   111.90771 amu.
 Principal axes and moments of inertia in atomic units:
                           1         2         3
     EIGENVALUES --   359.56653 703.141081062.70761
           X            0.00000   0.00000   1.00000
           Y            1.00000   0.00000   0.00000
           Z            0.00000   1.00000   0.00000
 This molecule is an asymmetric top.
 Rotational symmetry number  2.
 Rotational temperatures (Kelvin)      0.24088     0.12318     0.08150
 Rotational constants (GHZ):           5.01921     2.56668     1.69825
 Zero-point vibrational energy      11767.0 (Joules/Mol)
                                    2.81237 (Kcal/Mol)
 Warning -- explicit consideration of   6 degrees of freedom as
           vibrations may cause significant error
 Vibrational temperatures:    158.70   387.94   401.23   614.00   627.36
          (Kelvin)            641.24
 
 Zero-point correction=                           0.004482 (Hartree/Particle)
 Thermal correction to Energy=                    0.009764
 Thermal correction to Enthalpy=                  0.010708
 Thermal correction to Gibbs Free Energy=        -0.025431
 Sum of electronic and zero-point Energies=          -1157.682260
 Sum of electronic and thermal Energies=             -1157.676978
 Sum of electronic and thermal Enthalpies=           -1157.676033
 Sum of electronic and thermal Free Energies=        -1157.712173
 
                     E (Thermal)             CV                S
                      KCal/Mol        Cal/Mol-Kelvin    Cal/Mol-Kelvin
 Total                    6.127             15.518             76.061
 Electronic               0.000              0.000              1.377
 Translational            0.889              2.981             40.053
 Rotational               0.889              2.981             25.710
 Vibrational              4.349              9.557              8.920
 Vibration  1             0.606              1.941              3.264
 Vibration  2             0.674              1.729              1.599
 Vibration  3             0.679              1.713              1.541
 Vibration  4             0.788              1.412              0.869
 Vibration  5             0.796              1.392              0.839
 Vibration  6             0.805              1.370              0.809
                       Q            Log10(Q)             Ln(Q)
 Total Bot       0.498298D+12         11.697489         26.934464
 Total V=0       0.574079D+14         13.758972         31.681203
 Vib (Bot)       0.577138D-01         -1.238720         -2.852259
 Vib (Bot)  1    0.185665D+01          0.268730          0.618775
 Vib (Bot)  2    0.716895D+00         -0.144544         -0.332826
 Vib (Bot)  3    0.689847D+00         -0.161247         -0.371285
 Vib (Bot)  4    0.409320D+00         -0.387937         -0.893258
 Vib (Bot)  5    0.397704D+00         -0.400440         -0.922047
 Vib (Bot)  6    0.386116D+00         -0.413283         -0.951618
 Vib (V=0)       0.664909D+01          0.822762          1.894480
 Vib (V=0)  1    0.242280D+01          0.384317          0.884923
 Vib (V=0)  2    0.137404D+01          0.137998          0.317752
 Vib (V=0)  3    0.135199D+01          0.130974          0.301579
 Vib (V=0)  4    0.114618D+01          0.059251          0.136431
 Vib (V=0)  5    0.113888D+01          0.056478          0.130046
 Vib (V=0)  6    0.113173D+01          0.053744          0.123749
 Electronic      0.200000D+01          0.301030          0.693147
 Translational   0.465313D+08          7.667745         17.655636
 Rotational      0.927757D+05          4.967434         11.437940
 ***** Axes restored to original set *****
 -------------------------------------------------------------------
 Center     Atomic                   Forces (Hartrees/Bohr)
 Number     Number              X              Y              Z
 -------------------------------------------------------------------
    1         14           0.000000000    0.000000000   -0.000009316
    2         14           0.000000000   -0.000001120   -0.000001873
    3         14           0.000000000    0.000000000    0.000013062
    4         14           0.000000000    0.000001120   -0.000001873
 -------------------------------------------------------------------
 Cartesian Forces:  Max     0.000013062 RMS     0.000004716

 GradGradGradGradGradGradGradGradGradGradGradGradGradGradGradGradGradGrad
 Berny optimization.
 Internal  Forces:  Max     0.000010312 RMS     0.000004355
 Search for a local minimum.
 Step number   1 out of a maximum of   2
 All quantities printed in internal units (Hartrees-Bohrs-Radians)
 Second derivative matrix not updated -- analytic derivatives used.
 The second derivative matrix:
                          R1        R2        R3        R4        R5
           R1           0.07962
           R2          -0.00682   0.04381
           R3          -0.00938  -0.00682   0.07962
           R4           0.00750  -0.00682   0.02365   0.07963
           R5           0.02365  -0.00682   0.00750  -0.00938   0.07963
           A1           0.00397  -0.01459   0.00397   0.01652   0.01652
           A2           0.01652  -0.01459   0.01652   0.00397   0.00397
                          A1        A2
           A1           0.01151
           A2           0.00345   0.01150
     Eigenvalues ---    0.04472   0.04716   0.07286   0.10515   0.11544
     Eigenvalues --- 1000.000001000.00000
 Angle between quadratic step and forces=  13.42 degrees.
 Linear search not attempted -- first point.
 Iteration  1 RMS(Cart)=  0.00006551 RMS(Int)=  0.00000000
 Iteration  2 RMS(Cart)=  0.00000000 RMS(Int)=  0.00000000
 Variable       Old X    -DE/DX   Delta X   Delta X   Delta X     New X
                                 (Linear)    (Quad)   (Total)
    R1        4.35808   0.00000   0.00000  -0.00001  -0.00001   4.35807
    R2        5.06996   0.00001   0.00000   0.00021   0.00021   5.07018
    R3        4.35808   0.00000   0.00000  -0.00001  -0.00001   4.35807
    R4        4.35802   0.00000   0.00000   0.00005   0.00005   4.35807
    R5        4.35802   0.00000   0.00000   0.00005   0.00005   4.35807
    A1        1.89999   0.00000   0.00000  -0.00003  -0.00003   1.89996
    A2        1.90003   0.00000   0.00000  -0.00007  -0.00007   1.89996
         Item               Value     Threshold  Converged?
 Maximum Force            0.000010     0.000450     YES
 RMS     Force            0.000004     0.000300     YES
 Maximum Displacement     0.000132     0.001800     YES
 RMS     Displacement     0.000066     0.001200     YES
 Predicted change in Energy=-1.345373D-09
 Optimization completed.
    -- Stationary point found.
                           ----------------------------
                           !   Optimized Parameters   !
                           ! (Angstroms and Degrees)  !
 --------------------------                            --------------------------
 ! Name  Definition              Value          Derivative Info.                !
 --------------------------------------------------------------------------------
 ! R1    R(1,2)                  2.3062         -DE/DX =    0.0                 !
 ! R2    R(1,3)                  2.6829         -DE/DX =    0.0                 !
 ! R3    R(1,4)                  2.3062         -DE/DX =    0.0                 !
 ! R4    R(2,3)                  2.3062         -DE/DX =    0.0                 !
 ! R5    R(3,4)                  2.3062         -DE/DX =    0.0                 !
 ! A1    A(2,1,4)              108.8616         -DE/DX =    0.0                 !
 ! A2    A(2,3,4)              108.8637         -DE/DX =    0.0                 !
 --------------------------------------------------------------------------------
 GradGradGradGradGradGradGradGradGradGradGradGradGradGradGradGradGradGrad

 1\1\GINC-NODE24\Freq\UB3LYP\6-311+G(d)\Si4(1+,2)\TAM\17-Jun-2011\0\\#N
  Geom=AllCheck Guess=Read SCRF=Check GenChk UB3LYP/6-311+G(d) Freq\\si
 3-c\\1,2\Si,0.,0.,-1.3414668005\Si,0.,1.8758899365,0.0000129028\Si,0.,
 0.,1.3414409663\Si,0.,-1.8758899365,0.0000129028\\Version=AM64L-G03Rev
 E.01\State=2-B2\HF=-1157.6867415\S2=0.759226\S2-1=0.\S2A=0.750026\RMSD
 =2.029e-09\RMSF=4.716e-06\ZeroPoint=0.0044818\Thermal=0.0097639\Dipole
 =0.,0.,0.0000043\DipoleDeriv=0.2612861,0.,0.,0.,-0.27287,0.,0.,0.,0.20
 58743,0.2387129,0.,0.,0.,0.7728953,0.0000045,0.,-0.0000115,0.2941551,0
 .2612881,0.,0.,0.,-0.2729207,0.,0.,0.,0.2058156,0.2387129,0.,0.,0.,0.7
 728953,-0.0000045,0.,0.0000115,0.2941551\Polar=63.4657519,0.0000002,16
 2.2705396,0.,0.000001,124.8957763\PG=C02V [C2(Si1Si1),SGV(Si2)]\NImag=
 0\\0.00317853,0.,0.11773020,0.,0.,0.08454023,-0.00322082,0.,0.,0.00317
 963,0.,-0.04820022,-0.02920443,0.,0.12472371,0.,-0.04978479,-0.0192423
 8,0.,-0.00000516,0.05480222,0.00326312,0.,0.,-0.00322019,0.,0.,0.00317
 725,0.,-0.02132977,0.,0.,-0.04820863,0.04978998,0.,0.11774704,0.,0.,-0
 .04605547,0.,0.02920956,-0.01924374,0.,0.,0.08454296,-0.00322082,0.,0.
 ,0.00326138,0.,0.,-0.00322019,0.,0.,0.00317963,0.,-0.04820022,0.029204
 43,0.,-0.02831486,-0.00000003,0.,-0.04820863,-0.02920956,0.,0.12472371
 ,0.,0.04978479,-0.01924238,0.,0.00000003,-0.01631610,0.,-0.04978998,-0
 .01924374,0.,0.00000516,0.05480222\\0.,0.,0.00000932,0.,0.00000112,0.0
 0000187,0.,0.,-0.00001306,0.,-0.00000112,0.00000187\\\@


     "IF I COULD JUST GET IT ON PAPER"
 LIFE AND INK, THEY RUN OUT AT THE SAME TIME,
 OR SO SAID MY OLD FRIEND THE SQUID.
     -- JIMMY BUFFETT, 1981
 Job cpu time:  0 days  0 hours  2 minutes 53.4 seconds.
 File lengths (MBytes):  RWF=     35 Int=      0 D2E=      0 Chk=      8 Scr=      1
 Normal termination of Gaussian 03 at Fri Jun 17 16:16:27 2011.
