 Entering Gaussian System, Link 0=g03
 Initial command:
 /usr/local/chem/g03E01/l1.exe /temp0/tam/Gau-21589.inp -scrdir=/temp0/tam/
 Entering Link 1 = /usr/local/chem/g03E01/l1.exe PID=     21590.
  
 Copyright (c) 1988,1990,1992,1993,1995,1998,2003,2004,2007, Gaussian, Inc.
                  All Rights Reserved.
  
 This is the Gaussian(R) 03 program.  It is based on the
 the Gaussian(R) 98 system (copyright 1998, Gaussian, Inc.),
 the Gaussian(R) 94 system (copyright 1995, Gaussian, Inc.),
 the Gaussian 92(TM) system (copyright 1992, Gaussian, Inc.),
 the Gaussian 90(TM) system (copyright 1990, Gaussian, Inc.),
 the Gaussian 88(TM) system (copyright 1988, Gaussian, Inc.),
 the Gaussian 86(TM) system (copyright 1986, Carnegie Mellon
 University), and the Gaussian 82(TM) system (copyright 1983,
 Carnegie Mellon University). Gaussian is a federally registered
 trademark of Gaussian, Inc.
  
 This software contains proprietary and confidential information,
 including trade secrets, belonging to Gaussian, Inc.
  
 This software is provided under written license and may be
 used, copied, transmitted, or stored only in accord with that
 written license.
  
 The following legend is applicable only to US Government
 contracts under FAR:
  
                    RESTRICTED RIGHTS LEGEND
  
 Use, reproduction and disclosure by the US Government is
 subject to restrictions as set forth in subparagraphs (a)
 and (c) of the Commercial Computer Software - Restricted
 Rights clause in FAR 52.227-19.
  
 Gaussian, Inc.
 340 Quinnipiac St., Bldg. 40, Wallingford CT 06492
  
  
 ---------------------------------------------------------------
 Warning -- This program may not be used in any manner that
 competes with the business of Gaussian, Inc. or will provide
 assistance to any competitor of Gaussian, Inc.  The licensee
 of this program is prohibited from giving any competitor of
 Gaussian, Inc. access to this program.  By using this program,
 the user acknowledges that Gaussian, Inc. is engaged in the
 business of creating and licensing software in the field of
 computational chemistry and represents and warrants to the
 licensee that it is not a competitor of Gaussian, Inc. and that
 it will not use this program in any manner prohibited above.
 ---------------------------------------------------------------
  

 Cite this work as:
 Gaussian 03, Revision E.01,
 M. J. Frisch, G. W. Trucks, H. B. Schlegel, G. E. Scuseria, 
 M. A. Robb, J. R. Cheeseman, J. A. Montgomery, Jr., T. Vreven, 
 K. N. Kudin, J. C. Burant, J. M. Millam, S. S. Iyengar, J. Tomasi, 
 V. Barone, B. Mennucci, M. Cossi, G. Scalmani, N. Rega, 
 G. A. Petersson, H. Nakatsuji, M. Hada, M. Ehara, K. Toyota, 
 R. Fukuda, J. Hasegawa, M. Ishida, T. Nakajima, Y. Honda, O. Kitao, 
 H. Nakai, M. Klene, X. Li, J. E. Knox, H. P. Hratchian, J. B. Cross, 
 V. Bakken, C. Adamo, J. Jaramillo, R. Gomperts, R. E. Stratmann, 
 O. Yazyev, A. J. Austin, R. Cammi, C. Pomelli, J. W. Ochterski, 
 P. Y. Ayala, K. Morokuma, G. A. Voth, P. Salvador, J. J. Dannenberg, 
 V. G. Zakrzewski, S. Dapprich, A. D. Daniels, M. C. Strain, 
 O. Farkas, D. K. Malick, A. D. Rabuck, K. Raghavachari, 
 J. B. Foresman, J. V. Ortiz, Q. Cui, A. G. Baboul, S. Clifford, 
 J. Cioslowski, B. B. Stefanov, G. Liu, A. Liashenko, P. Piskorz, 
 I. Komaromi, R. L. Martin, D. J. Fox, T. Keith, M. A. Al-Laham, 
 C. Y. Peng, A. Nanayakkara, M. Challacombe, P. M. W. Gill, 
 B. Johnson, W. Chen, M. W. Wong, C. Gonzalez, and J. A. Pople, 
 Gaussian, Inc., Wallingford CT, 2004.
 
 ******************************************
 Gaussian 03:  AM64L-G03RevE.01 11-Sep-2007
                 6-Apr-2011 
 ******************************************
 %NprocShared=4
 Will use up to    4 processors via shared memory.
 %mem=3750MB
 %chk=S9L-ne-d-01
 ----------------------------------------------------------------------
 # b3lyp/LANL2DZ opt=(calcall,noeigentest,maxcycle=500) scfcyc=500 scf=
 xqc
 ----------------------------------------------------------------------
 1/6=500,10=4,11=1,14=-1,18=20,26=3,38=1/1,3;
 2/9=110,17=6,18=5,40=1/2;
 3/5=6,6=3,11=2,16=1,25=1,30=1,74=-5/1,2,3;
 4//1;
 5/5=2,7=500,8=3,13=1,38=5/2,8;
 8/6=4,10=90,11=11/1;
 11/6=1,8=1,9=11,15=111,16=1/1,2,10;
 10/6=1/2;
 6/7=2,8=2,9=2,10=2,18=1,28=1/1;
 7/10=1,25=1/1,2,3,16;
 1/6=500,10=4,11=1,14=-1,18=20/3(3);
 2/9=110/2;
 7/8=1,9=1,25=1,44=-1/16;
 99//99;
 2/9=110/2;
 3/5=6,6=3,11=2,16=1,25=1,30=1,74=-5/1,2,3;
 4/5=5,16=3/1;
 5/5=2,7=500,8=3,13=1,38=5/2,8;
 8/6=4,10=90,11=11/1;
 11/6=1,8=1,9=11,15=111,16=1/1,2,10;
 10/6=1/2;
 7/10=1,25=1/1,2,3,16;
 1/6=500,10=4,11=1,14=-1,18=20/3(-8);
 2/9=110/2;
 6/7=2,8=2,9=2,10=2,18=1,19=2,28=1/1;
 7/8=1,9=1,25=1,44=-1/16;
 99//99;
 -----
 si5-n
 -----
 Symbolic Z-matrix:
 Charge = -1 Multiplicity = 2
 Si                   -1.11316   1.08652   0. 
 Si                    1.49683   0.65532   0. 
 Si                    0.04361  -1.55513   0. 
 Si                    0.04361   0.01929   1.7612 
 Si                    0.04361   0.01929  -1.7612 
 

 GradGradGradGradGradGradGradGradGradGradGradGradGradGradGradGradGradGrad
 Berny optimization.
 Initialization pass.
                           ----------------------------
                           !    Initial Parameters    !
                           ! (Angstroms and Degrees)  !
 --------------------------                            --------------------------
 ! Name  Definition              Value          Derivative Info.                !
 --------------------------------------------------------------------------------
 ! R1    R(1,2)                  2.6454         calculate D2E/DX2 analytically  !
 ! R2    R(1,3)                  2.8838         calculate D2E/DX2 analytically  !
 ! R3    R(1,4)                  2.362          calculate D2E/DX2 analytically  !
 ! R4    R(1,5)                  2.362          calculate D2E/DX2 analytically  !
 ! R5    R(2,3)                  2.6454         calculate D2E/DX2 analytically  !
 ! R6    R(2,4)                  2.3703         calculate D2E/DX2 analytically  !
 ! R7    R(2,5)                  2.3703         calculate D2E/DX2 analytically  !
 ! R8    R(3,4)                  2.3623         calculate D2E/DX2 analytically  !
 ! R9    R(3,5)                  2.3623         calculate D2E/DX2 analytically  !
 ! A1    A(4,1,5)               96.4297         calculate D2E/DX2 analytically  !
 ! A2    A(4,2,5)               95.9815         calculate D2E/DX2 analytically  !
 ! A3    A(4,3,5)               96.4097         calculate D2E/DX2 analytically  !
 --------------------------------------------------------------------------------
 Trust Radius=3.00D-01 FncErr=1.00D-07 GrdErr=1.00D-06
 Number of steps in this run= 100 maximum allowed number of steps= 100.
 GradGradGradGradGradGradGradGradGradGradGradGradGradGradGradGradGradGrad

                          Input orientation:                          
 ---------------------------------------------------------------------
 Center     Atomic     Atomic              Coordinates (Angstroms)
 Number     Number      Type              X           Y           Z
 ---------------------------------------------------------------------
    1         14             0       -1.113157    1.086520    0.000000
    2         14             0        1.496830    0.655319    0.000000
    3         14             0        0.043611   -1.555133    0.000000
    4         14             0        0.043611    0.019294    1.761201
    5         14             0        0.043611    0.019294   -1.761201
 ---------------------------------------------------------------------
                    Distance matrix (angstroms):
                    1          2          3          4          5
     1  Si   0.000000
     2  Si   2.645367   0.000000
     3  Si   2.883824   2.645363   0.000000
     4  Si   2.361972   2.370275   2.362340   0.000000
     5  Si   2.361972   2.370275   2.362340   3.522402   0.000000
 Stoichiometry    Si5(1-,2)
 Framework group  CS[SG(Si3),X(Si2)]
 Deg. of freedom     6
 Full point group                 CS
 Largest Abelian subgroup         CS      NOp   2
 Largest concise Abelian subgroup CS      NOp   2
                         Standard orientation:                         
 ---------------------------------------------------------------------
 Center     Atomic     Atomic              Coordinates (Angstroms)
 Number     Number      Type              X           Y           Z
 ---------------------------------------------------------------------
    1         14             0       -1.441659   -0.696462    0.000000
    2         14             0       -0.000169    1.521662    0.000000
    3         14             0        1.442166   -0.695907    0.000000
    4         14             0       -0.000169   -0.064646    1.761201
    5         14             0       -0.000169   -0.064646   -1.761201
 ---------------------------------------------------------------------
 Rotational constants (GHZ):      2.4242666      1.9021250      1.7433261
 Standard basis: LANL2DZ (5D, 7F)
 There are    26 symmetry adapted basis functions of A'  symmetry.
 There are    14 symmetry adapted basis functions of A"  symmetry.
 Integral buffers will be    131072 words long.
 Raffenetti 2 integral format.
 Two-electron integral symmetry is turned on.
    40 basis functions,    60 primitive gaussians,    40 cartesian basis functions
    11 alpha electrons       10 beta electrons
       nuclear repulsion energy        33.2225974702 Hartrees.
 NAtoms=    5 NActive=    5 NUniq=    4 SFac= 1.17D+00 NAtFMM=   80 NAOKFM=F Big=F
 One-electron integrals computed using PRISM.
   2 Symmetry operations used in ECPInt.
 ECPInt:  NShTT=     210 NPrTT=     475 LenC2=     211 LenP2D=     474.
 LDataN:  DoStor=F MaxTD1= 3 Len=   28
 LDataN:  DoStor=T MaxTD1= 3 Len=   28
 NBasis=    40 RedAO= T  NBF=    26    14
 NBsUse=    40 1.00D-06 NBFU=    26    14
 Harris functional with IExCor=  402 diagonalized for initial guess.
 ExpMin= 8.85D-02 ExpMax= 2.58D+00 ExpMxC= 2.58D+00 IAcc=2 IRadAn=         4 AccDes= 0.00D+00
 HarFok:  IExCor= 402 AccDes= 0.00D+00 IRadAn=         4 IDoV=1
 ScaDFX=  1.000000  1.000000  1.000000  1.000000
 Initial guess orbital symmetries:
 Alpha Orbitals:
       Occupied  (A') (A") (A') (A') (A') (A") (A') (A") (A') (A')
                 (A")
       Virtual   (A') (A') (A') (A') (A') (A") (A") (A") (A') (A')
                 (A") (A') (A") (A') (A") (A') (A') (A') (A") (A')
                 (A') (A') (A") (A") (A') (A') (A') (A') (A")
 Beta  Orbitals:
       Occupied  (A') (A") (A') (A') (A') (A") (A') (A") (A') (A')
       Virtual   (A") (A') (A') (A') (A') (A') (A") (A") (A") (A')
                 (A') (A") (A') (A") (A') (A") (A') (A') (A') (A")
                 (A') (A') (A') (A") (A") (A') (A') (A') (A') (A")
 The electronic state of the initial guess is 2-A".
 <S**2> of initial guess= 0.7500
 Requested convergence on RMS density matrix=1.00D-08 within 128 cycles.
 Requested convergence on MAX density matrix=1.00D-06.
 Requested convergence on             energy=1.00D-06.
 No special actions if energy rises.
 Keep R1 and R2 integrals in memory in canonical form, NReq=     2394517.
 Integral accuracy reduced to 1.0D-05 until final iterations.
 Initial convergence to 1.0D-05 achieved.  Increase integral accuracy.
 SCF Done:  E(UB+HF-LYP) =  -19.3366364633     A.U. after   19 cycles
             Convg  =    0.6786D-08             -V/T =  3.5425
             S**2   =   0.7562
 Annihilation of the first spin contaminant:
 S**2 before annihilation     0.7562,   after     0.7500
 QCSCF skips out because SCF is already converged.
 Range of M.O.s used for correlation:     1    40
 NBasis=    40 NAE=    11 NBE=    10 NFC=     0 NFV=     0
 NROrb=     40 NOA=    11 NOB=    10 NVA=    29 NVB=    30

 **** Warning!!: The smallest beta delta epsilon is  0.55802039D-01

   2 Symmetry operations used in ECPInt.
 ECPInt:  NShTT=     210 NPrTT=     475 LenC2=     211 LenP2D=     474.
 LDataN:  DoStor=F MaxTD1= 4 Len=   56
 LDataN:  DoStor=T MaxTD1= 4 Len=   56
 Symmetrizing basis deriv contribution to polar:
 IMax=3 JMax=2 DiffMx= 0.00D+00
 G2DrvN: will do    6 centers at a time, making    1 passes doing MaxLOS=1.
 FoFDir/FoFCou used for L=0 through L=1.
 DoAtom=TTTTT
          Differentiating once with respect to electric field.
                with respect to dipole field.
          Differentiating once with respect to nuclear coordinates.
          Store integrals in memory, NReq=     1474711.
          There are  15 degrees of freedom in the 1st order CPHF.
    15 vectors were produced by pass  0.
 AX will form  15 AO Fock derivatives at one time.
    15 vectors were produced by pass  1.
    15 vectors were produced by pass  2.
    15 vectors were produced by pass  3.
    15 vectors were produced by pass  4.
    15 vectors were produced by pass  5.
    15 vectors were produced by pass  6.
    13 vectors were produced by pass  7.
     3 vectors were produced by pass  8.
     3 vectors were produced by pass  9.
 Inv2:  IOpt= 1 Iter= 1 AM= 1.34D-15 Conv= 1.00D-12.
 Inverted reduced A of dimension  124 with in-core refinement.
 Isotropic polarizability for W=    0.000000      164.51 Bohr**3.
 End of Minotr Frequency-dependent properties file   721 does not exist.

 **********************************************************************

            Population analysis using the SCF density.

 **********************************************************************

 Orbital symmetries:
 Alpha Orbitals:
       Occupied  (A') (A") (A') (A') (A') (A") (A') (A") (A") (A')
                 (A')
       Virtual   (A') (A') (A') (A') (A') (A") (A") (A") (A') (A")
                 (A") (A') (A") (A') (A') (A') (A') (A') (A') (A')
                 (A') (A") (A") (A") (A') (A') (A') (A') (A")
 Beta  Orbitals:
       Occupied  (A') (A") (A') (A') (A') (A") (A') (A") (A') (A')
       Virtual   (A") (A') (A') (A') (A') (A') (A") (A") (A") (A')
                 (A") (A") (A') (A") (A') (A') (A') (A') (A') (A')
                 (A') (A') (A") (A") (A") (A') (A') (A') (A') (A")
 The electronic state is 2-A".
 Alpha  occ. eigenvalues --   -0.51397  -0.34653  -0.29571  -0.26758  -0.17260
 Alpha  occ. eigenvalues --   -0.11501  -0.09746  -0.09664  -0.06990  -0.05894
 Alpha  occ. eigenvalues --   -0.05197
 Alpha virt. eigenvalues --    0.06721   0.09272   0.12588   0.14088   0.14668
 Alpha virt. eigenvalues --    0.16980   0.18994   0.20206   0.20722   0.43248
 Alpha virt. eigenvalues --    0.43394   0.44246   0.44489   0.45131   0.47300
 Alpha virt. eigenvalues --    0.49645   0.49771   0.51724   0.52201   0.52880
 Alpha virt. eigenvalues --    0.53145   0.53561   0.56570   0.57705   8.13615
 Alpha virt. eigenvalues --   10.45504  10.53922  10.76626  11.32365
  Beta  occ. eigenvalues --   -0.50826  -0.33349  -0.29337  -0.26595  -0.13571
  Beta  occ. eigenvalues --   -0.10898  -0.09238  -0.09127  -0.05869  -0.05132
  Beta virt. eigenvalues --    0.00448   0.07010   0.09675   0.12901   0.14252
  Beta virt. eigenvalues --    0.15051   0.17326   0.19560   0.21075   0.21964
  Beta virt. eigenvalues --    0.43506   0.44639   0.45148   0.45591   0.45887
  Beta virt. eigenvalues --    0.47319   0.49612   0.49937   0.52090   0.52648
  Beta virt. eigenvalues --    0.53104   0.53551   0.54241   0.56879   0.58099
  Beta virt. eigenvalues --    8.13689  10.45633  10.54046  10.76782  11.32451
          Condensed to atoms (all electrons):
              1          2          3          4          5
     1  Si   3.976263  -0.055818  -0.050230   0.175088   0.175088
     2  Si  -0.055818   4.080623  -0.055690   0.129219   0.129219
     3  Si  -0.050230  -0.055690   3.976280   0.175014   0.175014
     4  Si   0.175088   0.129219   0.175014   3.879424  -0.192910
     5  Si   0.175088   0.129219   0.175014  -0.192910   3.879424
 Mulliken atomic charges:
              1
     1  Si  -0.220392
     2  Si  -0.227552
     3  Si  -0.220388
     4  Si  -0.165834
     5  Si  -0.165834
 Sum of Mulliken charges=  -1.00000
 Atomic charges with hydrogens summed into heavy atoms:
              1
     1  Si  -0.220392
     2  Si  -0.227552
     3  Si  -0.220388
     4  Si  -0.165834
     5  Si  -0.165834
 Sum of Mulliken charges=  -1.00000
          Atomic-Atomic Spin Densities.
              1          2          3          4          5
     1  Si  -0.024570  -0.014702  -0.017774   0.028628   0.028628
     2  Si  -0.014702  -0.037872  -0.014692   0.022613   0.022613
     3  Si  -0.017774  -0.014692  -0.024502   0.028604   0.028604
     4  Si   0.028628   0.022613   0.028604   0.522860  -0.091907
     5  Si   0.028628   0.022613   0.028604  -0.091907   0.522860
 Mulliken atomic spin densities:
              1
     1  Si   0.000210
     2  Si  -0.022042
     3  Si   0.000238
     4  Si   0.510797
     5  Si   0.510797
 Sum of Mulliken spin densities=   1.00000
 APT atomic charges:
              1
     1  Si  -0.215330
     2  Si  -0.220483
     3  Si  -0.215100
     4  Si  -0.174544
     5  Si  -0.174544
 Sum of APT charges=  -1.00000
 APT Atomic charges with hydrogens summed into heavy atoms:
              1
     1  Si  -0.215330
     2  Si  -0.220483
     3  Si  -0.215100
     4  Si  -0.174544
     5  Si  -0.174544
 Sum of APT charges=  -1.00000
 Electronic spatial extent (au):  <R**2>=   365.6961
 Charge=    -1.0000 electrons
 Dipole moment (field-independent basis, Debye):
    X=    -0.0003    Y=    -0.2039    Z=     0.0000  Tot=     0.2039
 Quadrupole moment (field-independent basis, Debye-Ang):
   XX=   -76.1854   YY=   -78.4396   ZZ=   -74.8970
   XY=     0.0013   XZ=     0.0000   YZ=     0.0000
 Traceless Quadrupole moment (field-independent basis, Debye-Ang):
   XX=     0.3219   YY=    -1.9323   ZZ=     1.6104
   XY=     0.0013   XZ=     0.0000   YZ=     0.0000
 Octapole moment (field-independent basis, Debye-Ang**2):
  XXX=    -0.0112  YYY=   -17.0862  ZZZ=     0.0000  XYY=     0.0071
  XXY=    15.0424  XXZ=     0.0000  XZZ=     0.0001  YZZ=     0.9625
  YYZ=     0.0000  XYZ=     0.0000
 Hexadecapole moment (field-independent basis, Debye-Ang**3):
 XXXX=  -533.9787 YYYY=  -480.2018 ZZZZ=  -691.3653 XXXY=    -0.0045
 XXXZ=     0.0000 YYYX=    -0.0001 YYYZ=     0.0000 ZZZX=     0.0000
 ZZZY=     0.0000 XXYY=  -166.5455 XXZZ=  -182.2106 YYZZ=  -175.9681
 XXYZ=     0.0000 YYXZ=     0.0000 ZZXY=     0.0021
 N-N= 3.322259747018D+01 E-N=-1.052977060472D+02  KE= 7.605501170398D+00
 Symmetry A'   KE= 4.792472383717D+00
 Symmetry A"   KE= 2.813028786680D+00
  Exact polarizability: 159.715   0.002 146.438   0.000   0.000 187.391
 Approx polarizability: 472.070   0.041 364.660   0.000   0.000 535.018
                          Isotropic Fermi Contact Couplings
        Atom                 a.u.       MegaHertz       Gauss      10(-4) cm-1
     1  Si(29)             0.00000      -0.00007      -0.00002      -0.00002
     2  Si(29)             0.00000      -0.00001       0.00000       0.00000
     3  Si(29)             0.00000      -0.00007      -0.00002      -0.00002
     4  Si(29)             0.00000      -0.00100      -0.00036      -0.00033
     5  Si(29)             0.00000      -0.00100      -0.00036      -0.00033
 --------------------------------------------------------
       Center         ----  Spin Dipole Couplings  ----
                      3XX-RR        3YY-RR        3ZZ-RR
 --------------------------------------------------------
     1   Atom       -0.002972     -0.010673      0.013645
     2   Atom       -0.009472      0.000815      0.008657
     3   Atom       -0.002966     -0.010673      0.013640
     4   Atom       -0.028151     -0.027851      0.056002
     5   Atom       -0.028151     -0.027851      0.056002
 --------------------------------------------------------
                        XY            XZ            YZ
 --------------------------------------------------------
     1   Atom        0.004159      0.000000      0.000000
     2   Atom       -0.000001      0.000000      0.000000
     3   Atom       -0.004154      0.000000      0.000000
     4   Atom       -0.000001     -0.000010      0.003971
     5   Atom       -0.000001      0.000010     -0.003971
 --------------------------------------------------------


 ---------------------------------------------------------------------------------
              Anisotropic Spin Dipole Couplings in Principal Axis System
 ---------------------------------------------------------------------------------

       Atom             a.u.   MegaHertz   Gauss  10(-4) cm-1        Axes

              Baa    -0.0125     1.325     0.473     0.442 -0.4004  0.9163  0.0000
     1 Si(29) Bbb    -0.0012     0.123     0.044     0.041  0.9163  0.4004  0.0000
              Bcc     0.0136    -1.448    -0.517    -0.483  0.0000  0.0000  1.0000
 
              Baa    -0.0095     1.005     0.359     0.335  1.0000  0.0001  0.0000
     2 Si(29) Bbb     0.0008    -0.086    -0.031    -0.029 -0.0001  1.0000  0.0000
              Bcc     0.0087    -0.918    -0.328    -0.306  0.0000  0.0000  1.0000
 
              Baa    -0.0125     1.325     0.473     0.442  0.3999  0.9165  0.0000
     3 Si(29) Bbb    -0.0012     0.122     0.044     0.041  0.9165 -0.3999  0.0000
              Bcc     0.0136    -1.447    -0.516    -0.483  0.0000  0.0000  1.0000
 
              Baa    -0.0282     2.986     1.066     0.996  1.0000  0.0033  0.0000
     4 Si(29) Bbb    -0.0280     2.974     1.061     0.992 -0.0033  0.9989 -0.0472
              Bcc     0.0562    -5.961    -2.127    -1.988 -0.0001  0.0472  0.9989
 
              Baa    -0.0282     2.986     1.066     0.996  1.0000  0.0033  0.0000
     5 Si(29) Bbb    -0.0280     2.974     1.061     0.992 -0.0033  0.9989  0.0472
              Bcc     0.0562    -5.961    -2.127    -1.988  0.0001 -0.0472  0.9989
 

 ---------------------------------------------------------------------------------

   2 Symmetry operations used in ECPInt.
 ECPInt:  NShTT=     210 NPrTT=     475 LenC2=     211 LenP2D=     475.
 LDataN:  DoStor=F MaxTD1= 5 Len=  102
 LDataN:  DoStor=T MaxTD1= 5 Len=  102
 ***** Axes restored to original set *****
 -------------------------------------------------------------------
 Center     Atomic                   Forces (Hartrees/Bohr)
 Number     Number              X              Y              Z
 -------------------------------------------------------------------
    1         14          -0.030566018    0.011286050    0.000000000
    2         14           0.044394558    0.019435090    0.000000000
    3         14          -0.012431773   -0.030059712    0.000000000
    4         14          -0.000698384   -0.000330714    0.014090102
    5         14          -0.000698384   -0.000330714   -0.014090102
 -------------------------------------------------------------------
 Cartesian Forces:  Max     0.044394558 RMS     0.018012306

 GradGradGradGradGradGradGradGradGradGradGradGradGradGradGradGradGradGrad
 Berny optimization.
 Internal  Forces:  Max     0.023264875 RMS     0.010685623
 Search for a local minimum.
 Step number   1 out of a maximum of 100
 All quantities printed in internal units (Hartrees-Bohrs-Radians)
 Second derivative matrix not updated -- analytic derivatives used.
 The second derivative matrix:
                          R1        R2        R3        R4        R5
           R1           0.04998
           R2          -0.00262   0.04635
           R3          -0.00132  -0.00668   0.06642
           R4          -0.00132  -0.00668  -0.00371   0.06642
           R5          -0.00228  -0.00263  -0.00491  -0.00491   0.04996
           R6           0.00041  -0.00411   0.00538   0.00546   0.00042
           R7           0.00041  -0.00411   0.00546   0.00538   0.00042
           R8          -0.00490  -0.00668   0.00866   0.00796  -0.00131
           R9          -0.00490  -0.00668   0.00796   0.00866  -0.00131
           A1          -0.00578  -0.00801   0.00005   0.00005  -0.00397
           A2          -0.00659  -0.00923   0.01296   0.01296  -0.00659
           A3          -0.00398  -0.00800   0.01160   0.01160  -0.00577
                          R6        R7        R8        R9        A1
           R6           0.06258
           R7          -0.00534   0.06258
           R8           0.00536   0.00546   0.06631
           R9           0.00546   0.00536  -0.00370   0.06631
           A1           0.00864   0.00864   0.01158   0.01158   0.00808
           A2          -0.00292  -0.00292   0.01295   0.01295   0.00376
           A3           0.00865   0.00865   0.00005   0.00005   0.00230
                          A2        A3
           A2           0.01163
           A3           0.00377   0.00809
     Eigenvalues ---    0.03897   0.04665   0.04889   0.05743   0.05793
     Eigenvalues ---    0.06792   0.06937   0.07077   0.106801000.00000
     Eigenvalues --- 1000.000001000.00000
 RFO step:  Lambda=-2.02904289D-02.
 Linear search not attempted -- first point.
 Maximum step size (   0.300) exceeded in Quadratic search.
    -- Step size scaled by   0.542
 Iteration  1 RMS(Cart)=  0.05756936 RMS(Int)=  0.00120427
 Iteration  2 RMS(Cart)=  0.00093683 RMS(Int)=  0.00044165
 Iteration  3 RMS(Cart)=  0.00000034 RMS(Int)=  0.00044165
 Variable       Old X    -DE/DX   Delta X   Delta X   Delta X     New X
                                 (Linear)    (Quad)   (Total)
    R1        4.99902   0.02326   0.00000   0.19046   0.19020   5.18922
    R2        5.44964   0.00086   0.00000   0.03870   0.03839   5.48803
    R3        4.46348   0.00686   0.00000   0.05357   0.05376   4.51724
    R4        4.46348   0.00686   0.00000   0.05357   0.05376   4.51724
    R5        4.99901   0.02326   0.00000   0.19050   0.19024   5.18925
    R6        4.47917   0.00655   0.00000   0.03633   0.03642   4.51559
    R7        4.47917   0.00655   0.00000   0.03633   0.03642   4.51559
    R8        4.46418   0.00682   0.00000   0.05331   0.05350   4.51768
    R9        4.46418   0.00682   0.00000   0.05331   0.05350   4.51768
    A1        1.68302  -0.00224   0.00000  -0.02766  -0.02837   1.65464
    A2        1.67519  -0.00206   0.00000  -0.01880  -0.01976   1.65543
    A3        1.68267  -0.00223   0.00000  -0.02752  -0.02824   1.65443
         Item               Value     Threshold  Converged?
 Maximum Force            0.023265     0.000450     NO 
 RMS     Force            0.010686     0.000300     NO 
 Maximum Displacement     0.103910     0.001800     NO 
 RMS     Displacement     0.057519     0.001200     NO 
 Predicted change in Energy=-8.928853D-03
 GradGradGradGradGradGradGradGradGradGradGradGradGradGradGradGradGradGrad

                          Input orientation:                          
 ---------------------------------------------------------------------
 Center     Atomic     Atomic              Coordinates (Angstroms)
 Number     Number      Type              X           Y           Z
 ---------------------------------------------------------------------
    1         14             0       -1.168144    1.073577    0.000000
    2         14             0        1.549283    0.678347    0.000000
    3         14             0       -0.003236   -1.586687    0.000000
    4         14             0        0.068301    0.030029    1.759637
    5         14             0        0.068301    0.030029   -1.759637
 ---------------------------------------------------------------------
                    Distance matrix (angstroms):
                    1          2          3          4          5
     1  Si   0.000000
     2  Si   2.746018   0.000000
     3  Si   2.904138   2.746033   0.000000
     4  Si   2.390421   2.389550   2.390651   0.000000
     5  Si   2.390421   2.389550   2.390651   3.519275   0.000000
 Stoichiometry    Si5(1-,2)
 Framework group  CS[SG(Si3),X(Si2)]
 Deg. of freedom     6
 Full point group                 CS
 Largest Abelian subgroup         CS      NOp   2
 Largest concise Abelian subgroup CS      NOp   2
                         Standard orientation:                         
 ---------------------------------------------------------------------
 Center     Atomic     Atomic              Coordinates (Angstroms)
 Number     Number      Type              X           Y           Z
 ---------------------------------------------------------------------
    1         14             0       -1.451909   -0.751908    0.000000
    2         14             0       -0.000107    1.578947    0.000000
    3         14             0        1.452229   -0.751593    0.000000
    4         14             0       -0.000107   -0.037723    1.759637
    5         14             0       -0.000107   -0.037723   -1.759637
 ---------------------------------------------------------------------
 Rotational constants (GHZ):      2.3031625      1.8397448      1.7353247
 Standard basis: LANL2DZ (5D, 7F)
 There are    26 symmetry adapted basis functions of A'  symmetry.
 There are    14 symmetry adapted basis functions of A"  symmetry.
 Integral buffers will be    131072 words long.
 Raffenetti 2 integral format.
 Two-electron integral symmetry is turned on.
    40 basis functions,    60 primitive gaussians,    40 cartesian basis functions
    11 alpha electrons       10 beta electrons
       nuclear repulsion energy        32.7417056593 Hartrees.
 NAtoms=    5 NActive=    5 NUniq=    4 SFac= 1.17D+00 NAtFMM=   80 NAOKFM=F Big=F
 One-electron integrals computed using PRISM.
   2 Symmetry operations used in ECPInt.
 ECPInt:  NShTT=     210 NPrTT=     475 LenC2=     211 LenP2D=     474.
 LDataN:  DoStor=F MaxTD1= 3 Len=   28
 LDataN:  DoStor=T MaxTD1= 3 Len=   28
 NBasis=    40 RedAO= T  NBF=    26    14
 NBsUse=    40 1.00D-06 NBFU=    26    14
 Initial guess read from the read-write file:
 Initial guess orbital symmetries:
 Alpha Orbitals:
       Occupied  (A') (A") (A') (A') (A') (A") (A') (A") (A") (A')
                 (A')
       Virtual   (A') (A') (A') (A') (A') (A") (A") (A") (A') (A")
                 (A") (A') (A") (A') (A') (A') (A') (A') (A') (A')
                 (A') (A") (A") (A") (A') (A') (A') (A') (A")
 Beta  Orbitals:
       Occupied  (A') (A") (A') (A') (A') (A") (A') (A") (A') (A')
       Virtual   (A") (A') (A') (A') (A') (A') (A") (A") (A") (A')
                 (A") (A") (A') (A") (A') (A') (A') (A') (A') (A')
                 (A') (A') (A") (A") (A") (A') (A') (A') (A') (A")
 <S**2> of initial guess= 0.7563
 Harris functional with IExCor=  402 diagonalized for initial guess.
 ExpMin= 8.85D-02 ExpMax= 2.58D+00 ExpMxC= 2.58D+00 IAcc=2 IRadAn=         4 AccDes= 0.00D+00
 HarFok:  IExCor= 402 AccDes= 0.00D+00 IRadAn=         4 IDoV=1
 ScaDFX=  1.000000  1.000000  1.000000  1.000000
 Requested convergence on RMS density matrix=1.00D-08 within 128 cycles.
 Requested convergence on MAX density matrix=1.00D-06.
 Requested convergence on             energy=1.00D-06.
 No special actions if energy rises.
 Keep R1 and R2 integrals in memory in canonical form, NReq=     2394517.
 Integral accuracy reduced to 1.0D-05 until final iterations.
 Initial convergence to 1.0D-05 achieved.  Increase integral accuracy.
 SCF Done:  E(UB+HF-LYP) =  -19.3456536456     A.U. after   18 cycles
             Convg  =    0.6108D-08             -V/T =  3.5704
             S**2   =   0.7561
 Annihilation of the first spin contaminant:
 S**2 before annihilation     0.7561,   after     0.7500
 QCSCF skips out because SCF is already converged.
 Range of M.O.s used for correlation:     1    40
 NBasis=    40 NAE=    11 NBE=    10 NFC=     0 NFV=     0
 NROrb=     40 NOA=    11 NOB=    10 NVA=    29 NVB=    30

 **** Warning!!: The smallest beta delta epsilon is  0.64794698D-01

   2 Symmetry operations used in ECPInt.
 ECPInt:  NShTT=     210 NPrTT=     475 LenC2=     211 LenP2D=     474.
 LDataN:  DoStor=F MaxTD1= 4 Len=   56
 LDataN:  DoStor=T MaxTD1= 4 Len=   56
 Symmetrizing basis deriv contribution to polar:
 IMax=3 JMax=2 DiffMx= 0.00D+00
 G2DrvN: will do    6 centers at a time, making    1 passes doing MaxLOS=1.
 FoFDir/FoFCou used for L=0 through L=1.
 DoAtom=TTTTT
          Differentiating once with respect to electric field.
                with respect to dipole field.
          Differentiating once with respect to nuclear coordinates.
          Store integrals in memory, NReq=     1474711.
          There are  15 degrees of freedom in the 1st order CPHF.
    15 vectors were produced by pass  0.
 AX will form  15 AO Fock derivatives at one time.
    15 vectors were produced by pass  1.
    15 vectors were produced by pass  2.
    15 vectors were produced by pass  3.
    15 vectors were produced by pass  4.
    15 vectors were produced by pass  5.
    15 vectors were produced by pass  6.
    14 vectors were produced by pass  7.
     3 vectors were produced by pass  8.
     3 vectors were produced by pass  9.
 Inv2:  IOpt= 1 Iter= 1 AM= 1.24D-15 Conv= 1.00D-12.
 Inverted reduced A of dimension  125 with in-core refinement.
 Isotropic polarizability for W=    0.000000      167.44 Bohr**3.
 End of Minotr Frequency-dependent properties file   721 does not exist.
   2 Symmetry operations used in ECPInt.
 ECPInt:  NShTT=     210 NPrTT=     475 LenC2=     211 LenP2D=     475.
 LDataN:  DoStor=F MaxTD1= 5 Len=  102
 LDataN:  DoStor=T MaxTD1= 5 Len=  102
 ***** Axes restored to original set *****
 -------------------------------------------------------------------
 Center     Atomic                   Forces (Hartrees/Bohr)
 Number     Number              X              Y              Z
 -------------------------------------------------------------------
    1         14          -0.020240379    0.007372483    0.000000000
    2         14           0.029127585    0.012752616    0.000000000
    3         14          -0.008305612   -0.019839218    0.000000000
    4         14          -0.000290797   -0.000142940    0.008915910
    5         14          -0.000290797   -0.000142940   -0.008915910
 -------------------------------------------------------------------
 Cartesian Forces:  Max     0.029127585 RMS     0.011823272

 GradGradGradGradGradGradGradGradGradGradGradGradGradGradGradGradGradGrad
 Berny optimization.
 Internal  Forces:  Max     0.014985067 RMS     0.006907323
 Search for a local minimum.
 Step number   2 out of a maximum of 100
 All quantities printed in internal units (Hartrees-Bohrs-Radians)
 Second derivative matrix not updated -- analytic derivatives used.
 Trust test= 1.01D+00 RLast= 3.00D-01 DXMaxT set to 4.24D-01
 The second derivative matrix:
                          R1        R2        R3        R4        R5
           R1           0.04508
           R2          -0.00267   0.04318
           R3          -0.00246  -0.00593   0.06043
           R4          -0.00246  -0.00593  -0.00091   0.06043
           R5          -0.00166  -0.00267  -0.00381  -0.00381   0.04507
           R6          -0.00219  -0.00307   0.00552   0.00458  -0.00219
           R7          -0.00219  -0.00307   0.00458   0.00552  -0.00219
           R8          -0.00380  -0.00593   0.00771   0.00607  -0.00245
           R9          -0.00380  -0.00593   0.00607   0.00771  -0.00245
           A1          -0.00571  -0.00666  -0.00021  -0.00021  -0.00505
           A2          -0.00584  -0.00805   0.01170   0.01170  -0.00584
           A3          -0.00506  -0.00666   0.01080   0.01080  -0.00570
                          R6        R7        R8        R9        A1
           R6           0.06058
           R7          -0.00211   0.06058
           R8           0.00551   0.00457   0.06037
           R9           0.00457   0.00551  -0.00090   0.06037
           A1           0.00951   0.00951   0.01079   0.01079   0.00798
           A2          -0.00214  -0.00214   0.01169   0.01169   0.00330
           A3           0.00951   0.00951  -0.00021  -0.00021   0.00268
                          A2        A3
           A2           0.00998
           A3           0.00331   0.00798
 Maximum step size (   0.424) exceeded in linear search.
    -- Step size scaled by   0.707
 Quintic linear search produced a step of  1.41427.
 Iteration  1 RMS(Cart)=  0.05973907 RMS(Int)=  0.02773862
 Iteration  2 RMS(Cart)=  0.02177804 RMS(Int)=  0.00127898
 Iteration  3 RMS(Cart)=  0.00014824 RMS(Int)=  0.00126420
 Iteration  4 RMS(Cart)=  0.00000007 RMS(Int)=  0.00126420
 Variable       Old X    -DE/DX   Delta X   Delta X   Delta X     New X
                                 (Linear)    (Quad)   (Total)
    R1        5.18922   0.01499   0.26900   0.00000   0.26821   5.45744
    R2        5.48803   0.00112   0.05429   0.00000   0.05349   5.54151
    R3        4.51724   0.00440   0.07603   0.00000   0.07658   4.59382
    R4        4.51724   0.00440   0.07603   0.00000   0.07658   4.59382
    R5        5.18925   0.01498   0.26905   0.00000   0.26826   5.45751
    R6        4.51559   0.00432   0.05151   0.00000   0.05184   4.56743
    R7        4.51559   0.00432   0.05151   0.00000   0.05184   4.56743
    R8        4.51768   0.00438   0.07566   0.00000   0.07621   4.59389
    R9        4.51768   0.00438   0.07566   0.00000   0.07621   4.59389
    A1        1.65464  -0.00163  -0.04013   0.00000  -0.04209   1.61255
    A2        1.65543  -0.00160  -0.02794   0.00000  -0.03080   1.62464
    A3        1.65443  -0.00162  -0.03993   0.00000  -0.04191   1.61252
         Item               Value     Threshold  Converged?
 Maximum Force            0.014985     0.000450     NO 
 RMS     Force            0.006907     0.000300     NO 
 Maximum Displacement     0.142539     0.001800     NO 
 RMS     Displacement     0.079369     0.001200     NO 
 Predicted change in Energy=-6.449914D-03
 GradGradGradGradGradGradGradGradGradGradGradGradGradGradGradGradGradGrad

                          Input orientation:                          
 ---------------------------------------------------------------------
 Center     Atomic     Atomic              Coordinates (Angstroms)
 Number     Number      Type              X           Y           Z
 ---------------------------------------------------------------------
    1         14             0       -1.243572    1.056067    0.000000
    2         14             0        1.623692    0.711014    0.000000
    3         14             0       -0.067325   -1.630132    0.000000
    4         14             0        0.100856    0.044172    1.754447
    5         14             0        0.100856    0.044172   -1.754447
 ---------------------------------------------------------------------
                    Distance matrix (angstroms):
                    1          2          3          4          5
     1  Si   0.000000
     2  Si   2.887952   0.000000
     3  Si   2.932443   2.887992   0.000000
     4  Si   2.430947   2.416980   2.430979   0.000000
     5  Si   2.430947   2.416980   2.430979   3.508893   0.000000
 Stoichiometry    Si5(1-,2)
 Framework group  CS[SG(Si3),X(Si2)]
 Deg. of freedom     6
 Full point group                 CS
 Largest Abelian subgroup         CS      NOp   2
 Largest concise Abelian subgroup CS      NOp   2
                         Standard orientation:                         
 ---------------------------------------------------------------------
 Center     Atomic     Atomic              Coordinates (Angstroms)
 Number     Number      Type              X           Y           Z
 ---------------------------------------------------------------------
    1         14             0        0.001939   -1.683783    0.000000
    2         14             0       -1.446625    0.814602    0.000000
    3         14             0        1.440809    0.871383    0.000000
    4         14             0        0.001939   -0.001101    1.754447
    5         14             0        0.001939   -0.001101   -1.754447
 ---------------------------------------------------------------------
 Rotational constants (GHZ):      2.1436837      1.7566589      1.7276701
 Standard basis: LANL2DZ (5D, 7F)
 There are    26 symmetry adapted basis functions of A'  symmetry.
 There are    14 symmetry adapted basis functions of A"  symmetry.
 Integral buffers will be    131072 words long.
 Raffenetti 2 integral format.
 Two-electron integral symmetry is turned on.
    40 basis functions,    60 primitive gaussians,    40 cartesian basis functions
    11 alpha electrons       10 beta electrons
       nuclear repulsion energy        32.1015626395 Hartrees.
 NAtoms=    5 NActive=    5 NUniq=    4 SFac= 1.17D+00 NAtFMM=   80 NAOKFM=F Big=F
 One-electron integrals computed using PRISM.
   2 Symmetry operations used in ECPInt.
 ECPInt:  NShTT=     210 NPrTT=     475 LenC2=     211 LenP2D=     474.
 LDataN:  DoStor=F MaxTD1= 3 Len=   28
 LDataN:  DoStor=T MaxTD1= 3 Len=   28
 NBasis=    40 RedAO= T  NBF=    26    14
 NBsUse=    40 1.00D-06 NBFU=    26    14
 Initial guess read from the read-write file:
 Initial guess orbital symmetries:
 Alpha Orbitals:
       Occupied  (A') (A") (A') (A') (A') (A") (A') (A") (A") (A')
                 (A')
       Virtual   (A') (A') (A') (A') (A') (A") (A") (A") (A') (A")
                 (A") (A") (A') (A') (A') (A') (A') (A') (A') (A')
                 (A") (A') (A") (A") (A') (A') (A') (A') (A")
 Beta  Orbitals:
       Occupied  (A') (A") (A') (A') (A') (A") (A") (A') (A') (A')
       Virtual   (A") (A') (A') (A') (A') (A') (A") (A") (A") (A')
                 (A") (A") (A') (A") (A') (A') (A') (A') (A') (A')
                 (A') (A") (A') (A") (A") (A') (A') (A') (A') (A")
 <S**2> of initial guess= 0.7596
 Harris functional with IExCor=  402 diagonalized for initial guess.
 ExpMin= 8.85D-02 ExpMax= 2.58D+00 ExpMxC= 2.58D+00 IAcc=2 IRadAn=         4 AccDes= 0.00D+00
 HarFok:  IExCor= 402 AccDes= 0.00D+00 IRadAn=         4 IDoV=1
 ScaDFX=  1.000000  1.000000  1.000000  1.000000
 Requested convergence on RMS density matrix=1.00D-08 within 128 cycles.
 Requested convergence on MAX density matrix=1.00D-06.
 Requested convergence on             energy=1.00D-06.
 No special actions if energy rises.
 Keep R1 and R2 integrals in memory in canonical form, NReq=     2394517.
 Integral accuracy reduced to 1.0D-05 until final iterations.
 Initial convergence to 1.0D-05 achieved.  Increase integral accuracy.
 SCF Done:  E(UB+HF-LYP) =  -19.3523143326     A.U. after   20 cycles
             Convg  =    0.6567D-08             -V/T =  3.6058
             S**2   =   0.7559
 Annihilation of the first spin contaminant:
 S**2 before annihilation     0.7559,   after     0.7500
 QCSCF skips out because SCF is already converged.
 Range of M.O.s used for correlation:     1    40
 NBasis=    40 NAE=    11 NBE=    10 NFC=     0 NFV=     0
 NROrb=     40 NOA=    11 NOB=    10 NVA=    29 NVB=    30

 **** Warning!!: The smallest beta delta epsilon is  0.75500832D-01

   2 Symmetry operations used in ECPInt.
 ECPInt:  NShTT=     210 NPrTT=     475 LenC2=     211 LenP2D=     474.
 LDataN:  DoStor=F MaxTD1= 4 Len=   56
 LDataN:  DoStor=T MaxTD1= 4 Len=   56
 Symmetrizing basis deriv contribution to polar:
 IMax=3 JMax=2 DiffMx= 0.00D+00
 G2DrvN: will do    6 centers at a time, making    1 passes doing MaxLOS=1.
 FoFDir/FoFCou used for L=0 through L=1.
 DoAtom=TTTTT
          Differentiating once with respect to electric field.
                with respect to dipole field.
          Differentiating once with respect to nuclear coordinates.
          Store integrals in memory, NReq=     1474711.
          There are  15 degrees of freedom in the 1st order CPHF.
    15 vectors were produced by pass  0.
 AX will form  15 AO Fock derivatives at one time.
    15 vectors were produced by pass  1.
    15 vectors were produced by pass  2.
    15 vectors were produced by pass  3.
    15 vectors were produced by pass  4.
    15 vectors were produced by pass  5.
    15 vectors were produced by pass  6.
    15 vectors were produced by pass  7.
     3 vectors were produced by pass  8.
     3 vectors were produced by pass  9.
 Inv2:  IOpt= 1 Iter= 1 AM= 1.23D-15 Conv= 1.00D-12.
 Inverted reduced A of dimension  126 with in-core refinement.
 Isotropic polarizability for W=    0.000000      171.41 Bohr**3.
 End of Minotr Frequency-dependent properties file   721 does not exist.
   2 Symmetry operations used in ECPInt.
 ECPInt:  NShTT=     210 NPrTT=     475 LenC2=     211 LenP2D=     475.
 LDataN:  DoStor=F MaxTD1= 5 Len=  102
 LDataN:  DoStor=T MaxTD1= 5 Len=  102
 ***** Axes restored to original set *****
 -------------------------------------------------------------------
 Center     Atomic                   Forces (Hartrees/Bohr)
 Number     Number              X              Y              Z
 -------------------------------------------------------------------
    1         14          -0.007080873    0.003175818    0.000000000
    2         14           0.011184996    0.004897816    0.000000000
    3         14          -0.002458423   -0.007325769    0.000000000
    4         14          -0.000822850   -0.000373933    0.003560585
    5         14          -0.000822850   -0.000373933   -0.003560585
 -------------------------------------------------------------------
 Cartesian Forces:  Max     0.011184996 RMS     0.004442352

 GradGradGradGradGradGradGradGradGradGradGradGradGradGradGradGradGradGrad
 Berny optimization.
 Internal  Forces:  Max     0.004889166 RMS     0.002442394
 Search for a local minimum.
 Step number   3 out of a maximum of 100
 All quantities printed in internal units (Hartrees-Bohrs-Radians)
 Second derivative matrix not updated -- analytic derivatives used.
 The second derivative matrix:
                          R1        R2        R3        R4        R5
           R1           0.04013
           R2          -0.00248   0.03902
           R3          -0.00431  -0.00491   0.05288
           R4          -0.00431  -0.00491   0.00268   0.05288
           R5          -0.00210  -0.00246  -0.00230  -0.00230   0.04019
           R6          -0.00442  -0.00232   0.00602   0.00367  -0.00445
           R7          -0.00442  -0.00232   0.00367   0.00602  -0.00445
           R8          -0.00228  -0.00492   0.00627   0.00373  -0.00434
           R9          -0.00228  -0.00492   0.00373   0.00627  -0.00434
           A1          -0.00531  -0.00531  -0.00034  -0.00034  -0.00625
           A2          -0.00531  -0.00656   0.01018   0.01018  -0.00533
           A3          -0.00623  -0.00531   0.01000   0.01000  -0.00532
                          R6        R7        R8        R9        A1
           R6           0.05611
           R7           0.00203   0.05611
           R8           0.00602   0.00367   0.05288
           R9           0.00367   0.00602   0.00271   0.05288
           A1           0.01027   0.01027   0.01001   0.01001   0.00787
           A2          -0.00081  -0.00081   0.01019   0.01019   0.00307
           A3           0.01027   0.01027  -0.00034  -0.00034   0.00318
                          A2        A3
           A2           0.00816
           A3           0.00306   0.00787
     Eigenvalues ---    0.03065   0.04095   0.04124   0.04765   0.05001
     Eigenvalues ---    0.05128   0.05388   0.05680   0.094521000.00000
     Eigenvalues --- 1000.000001000.00000
 RFO step:  Lambda=-2.00701286D-04.
 Quintic linear search produced a step of  0.60530.
 Iteration  1 RMS(Cart)=  0.04201019 RMS(Int)=  0.00046689
 Iteration  2 RMS(Cart)=  0.00028596 RMS(Int)=  0.00033587
 Iteration  3 RMS(Cart)=  0.00000002 RMS(Int)=  0.00033587
 Variable       Old X    -DE/DX   Delta X   Delta X   Delta X     New X
                                 (Linear)    (Quad)   (Total)
    R1        5.45744   0.00489   0.16235  -0.00113   0.16100   5.61844
    R2        5.54151   0.00150   0.03238   0.04938   0.08155   5.62306
    R3        4.59382   0.00138   0.04635  -0.00260   0.04388   4.63771
    R4        4.59382   0.00138   0.04635  -0.00260   0.04388   4.63771
    R5        5.45751   0.00488   0.16238  -0.00130   0.16087   5.61838
    R6        4.56743   0.00254   0.03138   0.02927   0.06077   4.62820
    R7        4.56743   0.00254   0.03138   0.02927   0.06077   4.62820
    R8        4.59389   0.00136   0.04613  -0.00295   0.04331   4.63719
    R9        4.59389   0.00136   0.04613  -0.00295   0.04331   4.63719
    A1        1.61255  -0.00040  -0.02548   0.00247  -0.02360   1.58895
    A2        1.62464  -0.00094  -0.01864  -0.01223  -0.03150   1.59313
    A3        1.61252  -0.00039  -0.02537   0.00262  -0.02335   1.58917
         Item               Value     Threshold  Converged?
 Maximum Force            0.004889     0.000450     NO 
 RMS     Force            0.002442     0.000300     NO 
 Maximum Displacement     0.094067     0.001800     NO 
 RMS     Displacement     0.042090     0.001200     NO 
 Predicted change in Energy=-1.082642D-03
 GradGradGradGradGradGradGradGradGradGradGradGradGradGradGradGradGradGrad

                          Input orientation:                          
 ---------------------------------------------------------------------
 Center     Atomic     Atomic              Coordinates (Angstroms)
 Number     Number      Type              X           Y           Z
 ---------------------------------------------------------------------
    1         14             0       -1.281273    1.063225    0.000000
    2         14             0        1.673470    0.732885    0.000000
    3         14             0       -0.087679   -1.662486    0.000000
    4         14             0        0.104994    0.045835    1.751035
    5         14             0        0.104994    0.045835   -1.751035
 ---------------------------------------------------------------------
                    Distance matrix (angstroms):
                    1          2          3          4          5
     1  Si   0.000000
     2  Si   2.973152   0.000000
     3  Si   2.975596   2.973121   0.000000
     4  Si   2.454169   2.449138   2.453897   0.000000
     5  Si   2.454169   2.449138   2.453897   3.502070   0.000000
 Stoichiometry    Si5(1-,2)
 Framework group  CS[SG(Si3),X(Si2)]
 Deg. of freedom     6
 Full point group                 CS
 Largest Abelian subgroup         CS      NOp   2
 Largest concise Abelian subgroup CS      NOp   2
                         Standard orientation:                         
 ---------------------------------------------------------------------
 Center     Atomic     Atomic              Coordinates (Angstroms)
 Number     Number      Type              X           Y           Z
 ---------------------------------------------------------------------
    1         14             0       -1.489565    0.856621    0.000000
    2         14             0        1.483586    0.859513    0.000000
    3         14             0        0.001993   -1.718146    0.000000
    4         14             0        0.001993    0.001006    1.751035
    5         14             0        0.001993    0.001006   -1.751035
 ---------------------------------------------------------------------
 Rotational constants (GHZ):      2.0424297      1.7123060      1.7107269
 Standard basis: LANL2DZ (5D, 7F)
 There are    26 symmetry adapted basis functions of A'  symmetry.
 There are    14 symmetry adapted basis functions of A"  symmetry.
 Integral buffers will be    131072 words long.
 Raffenetti 2 integral format.
 Two-electron integral symmetry is turned on.
    40 basis functions,    60 primitive gaussians,    40 cartesian basis functions
    11 alpha electrons       10 beta electrons
       nuclear repulsion energy        31.6734728497 Hartrees.
 NAtoms=    5 NActive=    5 NUniq=    4 SFac= 1.17D+00 NAtFMM=   80 NAOKFM=F Big=F
 One-electron integrals computed using PRISM.
   2 Symmetry operations used in ECPInt.
 ECPInt:  NShTT=     210 NPrTT=     475 LenC2=     211 LenP2D=     474.
 LDataN:  DoStor=F MaxTD1= 3 Len=   28
 LDataN:  DoStor=T MaxTD1= 3 Len=   28
 NBasis=    40 RedAO= T  NBF=    26    14
 NBsUse=    40 1.00D-06 NBFU=    26    14
 Initial guess read from the read-write file:
 Initial guess orbital symmetries:
 Alpha Orbitals:
       Occupied  (A') (A") (A') (A') (A') (A') (A") (A") (A') (A')
                 (A")
       Virtual   (A') (A') (A') (A') (A') (A") (A") (A") (A') (A")
                 (A') (A') (A") (A") (A') (A') (A') (A') (A') (A")
                 (A') (A') (A") (A") (A') (A') (A') (A") (A')
 Beta  Orbitals:
       Occupied  (A') (A") (A') (A') (A') (A") (A") (A') (A') (A')
       Virtual   (A") (A') (A') (A') (A') (A') (A") (A") (A") (A')
                 (A') (A') (A") (A") (A") (A') (A') (A') (A') (A')
                 (A') (A") (A') (A") (A") (A') (A') (A') (A") (A')
 <S**2> of initial guess= 0.7713
 Harris functional with IExCor=  402 diagonalized for initial guess.
 ExpMin= 8.85D-02 ExpMax= 2.58D+00 ExpMxC= 2.58D+00 IAcc=2 IRadAn=         4 AccDes= 0.00D+00
 HarFok:  IExCor= 402 AccDes= 0.00D+00 IRadAn=         4 IDoV=1
 ScaDFX=  1.000000  1.000000  1.000000  1.000000
 Requested convergence on RMS density matrix=1.00D-08 within 128 cycles.
 Requested convergence on MAX density matrix=1.00D-06.
 Requested convergence on             energy=1.00D-06.
 No special actions if energy rises.
 Keep R1 and R2 integrals in memory in canonical form, NReq=     2394517.
 Integral accuracy reduced to 1.0D-05 until final iterations.
 Initial convergence to 1.0D-05 achieved.  Increase integral accuracy.
 SCF Done:  E(UB+HF-LYP) =  -19.3534482579     A.U. after   19 cycles
             Convg  =    0.6775D-08             -V/T =  3.6285
             S**2   =   0.7557
 Annihilation of the first spin contaminant:
 S**2 before annihilation     0.7557,   after     0.7500
 QCSCF skips out because SCF is already converged.
 Range of M.O.s used for correlation:     1    40
 NBasis=    40 NAE=    11 NBE=    10 NFC=     0 NFV=     0
 NROrb=     40 NOA=    11 NOB=    10 NVA=    29 NVB=    30

 **** Warning!!: The smallest beta delta epsilon is  0.81930369D-01

   2 Symmetry operations used in ECPInt.
 ECPInt:  NShTT=     210 NPrTT=     475 LenC2=     211 LenP2D=     474.
 LDataN:  DoStor=F MaxTD1= 4 Len=   56
 LDataN:  DoStor=T MaxTD1= 4 Len=   56
 Symmetrizing basis deriv contribution to polar:
 IMax=3 JMax=2 DiffMx= 0.00D+00
 G2DrvN: will do    6 centers at a time, making    1 passes doing MaxLOS=1.
 FoFDir/FoFCou used for L=0 through L=1.
 DoAtom=TTTTT
          Differentiating once with respect to electric field.
                with respect to dipole field.
          Differentiating once with respect to nuclear coordinates.
          Store integrals in memory, NReq=     1474711.
          There are  15 degrees of freedom in the 1st order CPHF.
    15 vectors were produced by pass  0.
 AX will form  15 AO Fock derivatives at one time.
    15 vectors were produced by pass  1.
    15 vectors were produced by pass  2.
    15 vectors were produced by pass  3.
    15 vectors were produced by pass  4.
    15 vectors were produced by pass  5.
    15 vectors were produced by pass  6.
    15 vectors were produced by pass  7.
     3 vectors were produced by pass  8.
     3 vectors were produced by pass  9.
 Inv2:  IOpt= 1 Iter= 1 AM= 1.36D-15 Conv= 1.00D-12.
 Inverted reduced A of dimension  126 with in-core refinement.
 Isotropic polarizability for W=    0.000000      174.06 Bohr**3.
 End of Minotr Frequency-dependent properties file   721 does not exist.
   2 Symmetry operations used in ECPInt.
 ECPInt:  NShTT=     210 NPrTT=     475 LenC2=     211 LenP2D=     475.
 LDataN:  DoStor=F MaxTD1= 5 Len=  102
 LDataN:  DoStor=T MaxTD1= 5 Len=  102
 ***** Axes restored to original set *****
 -------------------------------------------------------------------
 Center     Atomic                   Forces (Hartrees/Bohr)
 Number     Number              X              Y              Z
 -------------------------------------------------------------------
    1         14           0.000142306   -0.000171772    0.000000000
    2         14           0.000529605    0.000234686    0.000000000
    3         14          -0.000038954    0.000157588    0.000000000
    4         14          -0.000316478   -0.000110251    0.000396885
    5         14          -0.000316478   -0.000110251   -0.000396885
 -------------------------------------------------------------------
 Cartesian Forces:  Max     0.000529605 RMS     0.000251837

 GradGradGradGradGradGradGradGradGradGradGradGradGradGradGradGradGradGrad
 Berny optimization.
 Internal  Forces:  Max     0.000455182 RMS     0.000203106
 Search for a local minimum.
 Step number   4 out of a maximum of 100
 All quantities printed in internal units (Hartrees-Bohrs-Radians)
 Second derivative matrix not updated -- analytic derivatives used.
 Trust test= 1.05D+00 RLast= 2.75D-01 DXMaxT set to 6.00D-01
 The second derivative matrix:
                          R1        R2        R3        R4        R5
           R1           0.03723
           R2          -0.00239   0.03691
           R3          -0.00516  -0.00505   0.04905
           R4          -0.00516  -0.00505   0.00482   0.04905
           R5          -0.00242  -0.00241  -0.00157  -0.00157   0.03720
           R6          -0.00513  -0.00167   0.00615   0.00295  -0.00512
           R7          -0.00513  -0.00167   0.00295   0.00615  -0.00512
           R8          -0.00159  -0.00504   0.00605   0.00285  -0.00513
           R9          -0.00159  -0.00504   0.00285   0.00605  -0.00513
           A1          -0.00492  -0.00487  -0.00015  -0.00015  -0.00648
           A2          -0.00495  -0.00638   0.00972   0.00972  -0.00494
           A3          -0.00649  -0.00488   0.00973   0.00973  -0.00492
                          R6        R7        R8        R9        A1
           R6           0.05006
           R7           0.00466   0.05006
           R8           0.00615   0.00296   0.04908
           R9           0.00296   0.00615   0.00479   0.04908
           A1           0.00988   0.00988   0.00973   0.00973   0.00755
           A2          -0.00016  -0.00016   0.00972   0.00972   0.00315
           A3           0.00988   0.00988  -0.00015  -0.00015   0.00322
                          A2        A3
           A2           0.00752
           A3           0.00315   0.00756
     Eigenvalues ---    0.02730   0.03731   0.03733   0.04107   0.04180
     Eigenvalues ---    0.05105   0.05163   0.05174   0.091121000.00000
     Eigenvalues --- 1000.000001000.00000
 RFO step:  Lambda=-7.99082074D-06.
 Quintic linear search produced a step of  0.01305.
 Iteration  1 RMS(Cart)=  0.00263041 RMS(Int)=  0.00000339
 Iteration  2 RMS(Cart)=  0.00000240 RMS(Int)=  0.00000129
 Iteration  3 RMS(Cart)=  0.00000000 RMS(Int)=  0.00000129
 Variable       Old X    -DE/DX   Delta X   Delta X   Delta X     New X
                                 (Linear)    (Quad)   (Total)
    R1        5.61844  -0.00004   0.00210  -0.00116   0.00094   5.61938
    R2        5.62306  -0.00015   0.00106  -0.00449  -0.00342   5.61964
    R3        4.63771   0.00000   0.00057  -0.00207  -0.00149   4.63621
    R4        4.63771   0.00000   0.00057  -0.00207  -0.00149   4.63621
    R5        5.61838  -0.00004   0.00210  -0.00088   0.00122   5.61960
    R6        4.62820   0.00046   0.00079   0.00713   0.00792   4.63612
    R7        4.62820   0.00046   0.00079   0.00713   0.00792   4.63612
    R8        4.63719   0.00004   0.00057  -0.00124  -0.00067   4.63652
    R9        4.63719   0.00004   0.00057  -0.00124  -0.00067   4.63652
    A1        1.58895   0.00017  -0.00031   0.00277   0.00246   1.59141
    A2        1.59313  -0.00003  -0.00041  -0.00128  -0.00169   1.59145
    A3        1.58917   0.00015  -0.00030   0.00241   0.00210   1.59127
         Item               Value     Threshold  Converged?
 Maximum Force            0.000455     0.000450     NO 
 RMS     Force            0.000203     0.000300     YES
 Maximum Displacement     0.003929     0.001800     NO 
 RMS     Displacement     0.002630     0.001200     NO 
 Predicted change in Energy=-4.200940D-06
 GradGradGradGradGradGradGradGradGradGradGradGradGradGradGradGradGradGrad

                          Input orientation:                          
 ---------------------------------------------------------------------
 Center     Atomic     Atomic              Coordinates (Angstroms)
 Number     Number      Type              X           Y           Z
 ---------------------------------------------------------------------
    1         14             0       -1.279846    1.062701    0.000000
    2         14             0        1.675549    0.733713    0.000000
    3         14             0       -0.087055   -1.661386    0.000000
    4         14             0        0.102929    0.045133    1.752586
    5         14             0        0.102929    0.045133   -1.752586
 ---------------------------------------------------------------------
                    Distance matrix (angstroms):
                    1          2          3          4          5
     1  Si   0.000000
     2  Si   2.973649   0.000000
     3  Si   2.973785   2.973765   0.000000
     4  Si   2.453378   2.453331   2.453540   0.000000
     5  Si   2.453378   2.453331   2.453540   3.505172   0.000000
 Stoichiometry    Si5(1-,2)
 Framework group  CS[SG(Si3),X(Si2)]
 Deg. of freedom     6
 Full point group                 CS
 Largest Abelian subgroup         CS      NOp   2
 Largest concise Abelian subgroup CS      NOp   2
                         Standard orientation:                         
 ---------------------------------------------------------------------
 Center     Atomic     Atomic              Coordinates (Angstroms)
 Number     Number      Type              X           Y           Z
 ---------------------------------------------------------------------
    1         14             0       -0.000076   -1.716853    0.000000
    2         14             0       -1.486768    0.858480    0.000000
    3         14             0        1.486997    0.858417    0.000000
    4         14             0       -0.000076   -0.000022    1.752586
    5         14             0       -0.000076   -0.000022   -1.752586
 ---------------------------------------------------------------------
 Rotational constants (GHZ):      2.0427405      1.7099052      1.7098238
 Standard basis: LANL2DZ (5D, 7F)
 There are    26 symmetry adapted basis functions of A'  symmetry.
 There are    14 symmetry adapted basis functions of A"  symmetry.
 Integral buffers will be    131072 words long.
 Raffenetti 2 integral format.
 Two-electron integral symmetry is turned on.
    40 basis functions,    60 primitive gaussians,    40 cartesian basis functions
    11 alpha electrons       10 beta electrons
       nuclear repulsion energy        31.6633802111 Hartrees.
 NAtoms=    5 NActive=    5 NUniq=    4 SFac= 1.17D+00 NAtFMM=   80 NAOKFM=F Big=F
 One-electron integrals computed using PRISM.
   2 Symmetry operations used in ECPInt.
 ECPInt:  NShTT=     210 NPrTT=     475 LenC2=     211 LenP2D=     474.
 LDataN:  DoStor=F MaxTD1= 3 Len=   28
 LDataN:  DoStor=T MaxTD1= 3 Len=   28
 NBasis=    40 RedAO= T  NBF=    26    14
 NBsUse=    40 1.00D-06 NBFU=    26    14
 Initial guess read from the read-write file:
 Initial guess orbital symmetries:
 Alpha Orbitals:
       Occupied  (A') (A") (A') (A') (A') (A') (A") (A") (A') (A')
                 (A")
       Virtual   (A') (A') (A') (A') (A') (A") (A") (A") (A') (A')
                 (A') (A") (A") (A") (A') (A') (A') (A") (A') (A')
                 (A') (A') (A") (A") (A') (A') (A') (A") (A')
 Beta  Orbitals:
       Occupied  (A') (A") (A') (A') (A') (A") (A") (A') (A') (A')
       Virtual   (A") (A') (A') (A') (A') (A') (A") (A") (A") (A')
                 (A') (A') (A") (A") (A") (A') (A') (A') (A') (A")
                 (A') (A') (A') (A") (A") (A') (A') (A') (A") (A')
 <S**2> of initial guess= 0.7710
 Requested convergence on RMS density matrix=1.00D-08 within 128 cycles.
 Requested convergence on MAX density matrix=1.00D-06.
 Requested convergence on             energy=1.00D-06.
 No special actions if energy rises.
 Keep R1 and R2 integrals in memory in canonical form, NReq=     2394517.
 SCF Done:  E(UB+HF-LYP) =  -19.3534524670     A.U. after   17 cycles
             Convg  =    0.2627D-08             -V/T =  3.6291
             S**2   =   0.7557
 Annihilation of the first spin contaminant:
 S**2 before annihilation     0.7557,   after     0.7500
 QCSCF skips out because SCF is already converged.
 Range of M.O.s used for correlation:     1    40
 NBasis=    40 NAE=    11 NBE=    10 NFC=     0 NFV=     0
 NROrb=     40 NOA=    11 NOB=    10 NVA=    29 NVB=    30

 **** Warning!!: The smallest beta delta epsilon is  0.81846434D-01

   2 Symmetry operations used in ECPInt.
 ECPInt:  NShTT=     210 NPrTT=     475 LenC2=     211 LenP2D=     474.
 LDataN:  DoStor=F MaxTD1= 4 Len=   56
 LDataN:  DoStor=T MaxTD1= 4 Len=   56
 Symmetrizing basis deriv contribution to polar:
 IMax=3 JMax=2 DiffMx= 0.00D+00
 G2DrvN: will do    6 centers at a time, making    1 passes doing MaxLOS=1.
 FoFDir/FoFCou used for L=0 through L=1.
 DoAtom=TTTTT
          Differentiating once with respect to electric field.
                with respect to dipole field.
          Differentiating once with respect to nuclear coordinates.
          Store integrals in memory, NReq=     1474711.
          There are  15 degrees of freedom in the 1st order CPHF.
    15 vectors were produced by pass  0.
 AX will form  15 AO Fock derivatives at one time.
    15 vectors were produced by pass  1.
    15 vectors were produced by pass  2.
    15 vectors were produced by pass  3.
    15 vectors were produced by pass  4.
    15 vectors were produced by pass  5.
    15 vectors were produced by pass  6.
    15 vectors were produced by pass  7.
     3 vectors were produced by pass  8.
     3 vectors were produced by pass  9.
 Inv2:  IOpt= 1 Iter= 1 AM= 1.36D-15 Conv= 1.00D-12.
 Inverted reduced A of dimension  126 with in-core refinement.
 Isotropic polarizability for W=    0.000000      174.11 Bohr**3.
 End of Minotr Frequency-dependent properties file   721 does not exist.
   2 Symmetry operations used in ECPInt.
 ECPInt:  NShTT=     210 NPrTT=     475 LenC2=     211 LenP2D=     475.
 LDataN:  DoStor=F MaxTD1= 5 Len=  102
 LDataN:  DoStor=T MaxTD1= 5 Len=  102
 ***** Axes restored to original set *****
 -------------------------------------------------------------------
 Center     Atomic                   Forces (Hartrees/Bohr)
 Number     Number              X              Y              Z
 -------------------------------------------------------------------
    1         14          -0.000022473    0.000012106    0.000000000
    2         14           0.000007905   -0.000003222    0.000000000
    3         14           0.000005707    0.000028301    0.000000000
    4         14           0.000004431   -0.000018593    0.000004396
    5         14           0.000004431   -0.000018593   -0.000004396
 -------------------------------------------------------------------
 Cartesian Forces:  Max     0.000028301 RMS     0.000012456

 GradGradGradGradGradGradGradGradGradGradGradGradGradGradGradGradGradGrad
 Berny optimization.
 Internal  Forces:  Max     0.000014498 RMS     0.000009164
 Search for a local minimum.
 Step number   5 out of a maximum of 100
 All quantities printed in internal units (Hartrees-Bohrs-Radians)
 Second derivative matrix not updated -- analytic derivatives used.
 Trust test= 1.00D+00 RLast= 1.26D-02 DXMaxT set to 6.00D-01
 The second derivative matrix:
                          R1        R2        R3        R4        R5
           R1           0.03704
           R2          -0.00240   0.03703
           R3          -0.00506  -0.00506   0.04913
           R4          -0.00506  -0.00506   0.00472   0.04913
           R5          -0.00239  -0.00238  -0.00164  -0.00164   0.03708
           R6          -0.00507  -0.00162   0.00610   0.00291  -0.00509
           R7          -0.00507  -0.00162   0.00291   0.00610  -0.00509
           R8          -0.00162  -0.00506   0.00610   0.00291  -0.00509
           R9          -0.00162  -0.00506   0.00291   0.00610  -0.00509
           A1          -0.00490  -0.00490  -0.00016  -0.00016  -0.00643
           A2          -0.00490  -0.00641   0.00972   0.00972  -0.00491
           A3          -0.00641  -0.00489   0.00972   0.00972  -0.00491
                          R6        R7        R8        R9        A1
           R6           0.04917
           R7           0.00474   0.04917
           R8           0.00610   0.00291   0.04912
           R9           0.00291   0.00610   0.00475   0.04912
           A1           0.00973   0.00973   0.00972   0.00972   0.00751
           A2          -0.00015  -0.00015   0.00972   0.00972   0.00315
           A3           0.00973   0.00973  -0.00015  -0.00015   0.00316
                          A2        A3
           A2           0.00750
           A3           0.00315   0.00750
     Eigenvalues ---    0.02728   0.03726   0.03727   0.04120   0.04123
     Eigenvalues ---    0.05078   0.05139   0.05141   0.090701000.00000
     Eigenvalues --- 1000.000001000.00000
 RFO step:  Lambda=-2.21694737D-08.
 Quintic linear search produced a step of  0.00722.
 Iteration  1 RMS(Cart)=  0.00013712 RMS(Int)=  0.00000001
 Iteration  2 RMS(Cart)=  0.00000001 RMS(Int)=  0.00000000
 Variable       Old X    -DE/DX   Delta X   Delta X   Delta X     New X
                                 (Linear)    (Quad)   (Total)
    R1        5.61938   0.00001   0.00001   0.00022   0.00023   5.61961
    R2        5.61964   0.00000  -0.00002  -0.00001  -0.00003   5.61961
    R3        4.63621   0.00001  -0.00001   0.00031   0.00030   4.63651
    R4        4.63621   0.00001  -0.00001   0.00031   0.00030   4.63651
    R5        5.61960  -0.00001   0.00001  -0.00021  -0.00020   5.61940
    R6        4.63612   0.00000   0.00006   0.00003   0.00008   4.63621
    R7        4.63612   0.00000   0.00006   0.00003   0.00008   4.63621
    R8        4.63652  -0.00001   0.00000  -0.00031  -0.00031   4.63621
    R9        4.63652  -0.00001   0.00000  -0.00031  -0.00031   4.63621
    A1        1.59141   0.00000   0.00002  -0.00013  -0.00011   1.59130
    A2        1.59145   0.00000  -0.00001   0.00000  -0.00002   1.59143
    A3        1.59127   0.00001   0.00002   0.00014   0.00016   1.59143
         Item               Value     Threshold  Converged?
 Maximum Force            0.000014     0.000450     YES
 RMS     Force            0.000009     0.000300     YES
 Maximum Displacement     0.000271     0.001800     YES
 RMS     Displacement     0.000137     0.001200     YES
 Predicted change in Energy=-1.114522D-08
 Optimization completed.
    -- Stationary point found.
                           ----------------------------
                           !   Optimized Parameters   !
                           ! (Angstroms and Degrees)  !
 --------------------------                            --------------------------
 ! Name  Definition              Value          Derivative Info.                !
 --------------------------------------------------------------------------------
 ! R1    R(1,2)                  2.9736         -DE/DX =    0.0                 !
 ! R2    R(1,3)                  2.9738         -DE/DX =    0.0                 !
 ! R3    R(1,4)                  2.4534         -DE/DX =    0.0                 !
 ! R4    R(1,5)                  2.4534         -DE/DX =    0.0                 !
 ! R5    R(2,3)                  2.9738         -DE/DX =    0.0                 !
 ! R6    R(2,4)                  2.4533         -DE/DX =    0.0                 !
 ! R7    R(2,5)                  2.4533         -DE/DX =    0.0                 !
 ! R8    R(3,4)                  2.4535         -DE/DX =    0.0                 !
 ! R9    R(3,5)                  2.4535         -DE/DX =    0.0                 !
 ! A1    A(4,1,5)               91.1809         -DE/DX =    0.0                 !
 ! A2    A(4,2,5)               91.1832         -DE/DX =    0.0                 !
 ! A3    A(4,3,5)               91.1732         -DE/DX =    0.0                 !
 --------------------------------------------------------------------------------
 GradGradGradGradGradGradGradGradGradGradGradGradGradGradGradGradGradGrad

                          Input orientation:                          
 ---------------------------------------------------------------------
 Center     Atomic     Atomic              Coordinates (Angstroms)
 Number     Number      Type              X           Y           Z
 ---------------------------------------------------------------------
    1         14             0       -1.279846    1.062701    0.000000
    2         14             0        1.675549    0.733713    0.000000
    3         14             0       -0.087055   -1.661386    0.000000
    4         14             0        0.102929    0.045133    1.752586
    5         14             0        0.102929    0.045133   -1.752586
 ---------------------------------------------------------------------
                    Distance matrix (angstroms):
                    1          2          3          4          5
     1  Si   0.000000
     2  Si   2.973649   0.000000
     3  Si   2.973785   2.973765   0.000000
     4  Si   2.453378   2.453331   2.453540   0.000000
     5  Si   2.453378   2.453331   2.453540   3.505172   0.000000
 Stoichiometry    Si5(1-,2)
 Framework group  CS[SG(Si3),X(Si2)]
 Deg. of freedom     6
 Full point group                 CS
 Largest Abelian subgroup         CS      NOp   2
 Largest concise Abelian subgroup CS      NOp   2
                         Standard orientation:                         
 ---------------------------------------------------------------------
 Center     Atomic     Atomic              Coordinates (Angstroms)
 Number     Number      Type              X           Y           Z
 ---------------------------------------------------------------------
    1         14             0       -0.000076   -1.716853    0.000000
    2         14             0       -1.486768    0.858480    0.000000
    3         14             0        1.486997    0.858417    0.000000
    4         14             0       -0.000076   -0.000022    1.752586
    5         14             0       -0.000076   -0.000022   -1.752586
 ---------------------------------------------------------------------
 Rotational constants (GHZ):      2.0427405      1.7099052      1.7098238

 **********************************************************************

            Population analysis using the SCF density.

 **********************************************************************

 Orbital symmetries:
 Alpha Orbitals:
       Occupied  (A') (A") (A') (A') (A') (A') (A") (A") (A') (A')
                 (A")
       Virtual   (A') (A') (A') (A') (A') (A") (A") (A") (A') (A')
                 (A') (A") (A") (A") (A') (A') (A') (A") (A') (A')
                 (A') (A') (A") (A") (A') (A') (A') (A") (A')
 Beta  Orbitals:
       Occupied  (A') (A") (A') (A') (A') (A") (A") (A') (A') (A')
       Virtual   (A") (A') (A') (A') (A') (A') (A") (A") (A") (A')
                 (A') (A') (A") (A") (A") (A') (A') (A') (A') (A")
                 (A') (A') (A') (A") (A") (A') (A') (A') (A") (A')
 The electronic state is 2-A".
 Alpha  occ. eigenvalues --   -0.47417  -0.32399  -0.28281  -0.28280  -0.16461
 Alpha  occ. eigenvalues --   -0.10434  -0.09914  -0.09913  -0.06349  -0.06347
 Alpha  occ. eigenvalues --   -0.05207
 Alpha virt. eigenvalues --    0.06658   0.06659   0.10211   0.13462   0.13463
 Alpha virt. eigenvalues --    0.15360   0.17893   0.17896   0.20981   0.44365
 Alpha virt. eigenvalues --    0.44366   0.44532   0.45384   0.45387   0.47029
 Alpha virt. eigenvalues --    0.50879   0.50880   0.51685   0.51736   0.52022
 Alpha virt. eigenvalues --    0.52023   0.54107   0.55692   0.55695   6.80573
 Alpha virt. eigenvalues --    9.80400   9.80434  10.84790  11.16339
  Beta  occ. eigenvalues --   -0.46798  -0.31019  -0.28066  -0.28066  -0.13749
  Beta  occ. eigenvalues --   -0.09339  -0.09338  -0.09049  -0.06265  -0.06263
  Beta virt. eigenvalues --    0.01922   0.06833   0.06833   0.10161   0.13999
  Beta virt. eigenvalues --    0.14000   0.15705   0.18641   0.18643   0.22092
  Beta virt. eigenvalues --    0.44369   0.44370   0.45641   0.45644   0.46780
  Beta virt. eigenvalues --    0.49278   0.50920   0.50921   0.51687   0.52184
  Beta virt. eigenvalues --    0.52338   0.52339   0.54368   0.56052   0.56055
  Beta virt. eigenvalues --    6.80636   9.80520   9.80553  10.84865  11.16422
          Condensed to atoms (all electrons):
              1          2          3          4          5
     1  Si   3.881294  -0.022520  -0.022463   0.178229   0.178229
     2  Si  -0.022520   3.881311  -0.022477   0.178230   0.178230
     3  Si  -0.022463  -0.022477   3.881262   0.178220   0.178220
     4  Si   0.178229   0.178230   0.178220   3.852916  -0.176748
     5  Si   0.178229   0.178230   0.178220  -0.176748   3.852916
 Mulliken atomic charges:
              1
     1  Si  -0.192769
     2  Si  -0.192774
     3  Si  -0.192763
     4  Si  -0.210847
     5  Si  -0.210847
 Sum of Mulliken charges=  -1.00000
 Atomic charges with hydrogens summed into heavy atoms:
              1
     1  Si  -0.192769
     2  Si  -0.192774
     3  Si  -0.192763
     4  Si  -0.210847
     5  Si  -0.210847
 Sum of Mulliken charges=  -1.00000
          Atomic-Atomic Spin Densities.
              1          2          3          4          5
     1  Si  -0.013107  -0.011227  -0.011224   0.016866   0.016866
     2  Si  -0.011227  -0.013117  -0.011224   0.016867   0.016867
     3  Si  -0.011224  -0.011224  -0.013095   0.016859   0.016859
     4  Si   0.016866   0.016867   0.016859   0.539329  -0.087178
     5  Si   0.016866   0.016867   0.016859  -0.087178   0.539329
 Mulliken atomic spin densities:
              1
     1  Si  -0.001826
     2  Si  -0.001836
     3  Si  -0.001825
     4  Si   0.502743
     5  Si   0.502743
 Sum of Mulliken spin densities=   1.00000
 APT atomic charges:
              1
     1  Si  -0.167177
     2  Si  -0.167139
     3  Si  -0.167039
     4  Si  -0.249322
     5  Si  -0.249322
 Sum of APT charges=  -1.00000
 APT Atomic charges with hydrogens summed into heavy atoms:
              1
     1  Si  -0.167177
     2  Si  -0.167139
     3  Si  -0.167039
     4  Si  -0.249322
     5  Si  -0.249322
 Sum of APT charges=  -1.00000
 Electronic spatial extent (au):  <R**2>=   387.5907
 Charge=    -1.0000 electrons
 Dipole moment (field-independent basis, Debye):
    X=     0.0000    Y=     0.0000    Z=     0.0000  Tot=     0.0000
 Quadrupole moment (field-independent basis, Debye-Ang):
   XX=   -76.9910   YY=   -76.9910   ZZ=   -79.4135
   XY=     0.0002   XZ=     0.0000   YZ=     0.0000
 Traceless Quadrupole moment (field-independent basis, Debye-Ang):
   XX=     0.8075   YY=     0.8075   ZZ=    -1.6150
   XY=     0.0002   XZ=     0.0000   YZ=     0.0000
 Octapole moment (field-independent basis, Debye-Ang**2):
  XXX=    -0.0020  YYY=    15.0598  ZZZ=     0.0000  XYY=     0.0022
  XXY=   -15.0597  XXZ=     0.0000  XZZ=    -0.0001  YZZ=    -0.0003
  YYZ=     0.0000  XYZ=     0.0000
 Hexadecapole moment (field-independent basis, Debye-Ang**3):
 XXXX=  -560.2613 YYYY=  -560.2482 ZZZZ=  -730.0053 XXXY=    -0.0067
 XXXZ=     0.0000 YYYX=    -0.0112 YYYZ=     0.0000 ZZZX=     0.0000
 ZZZY=     0.0000 XXYY=  -186.7503 XXZZ=  -192.2087 YYZZ=  -192.2054
 XXYZ=     0.0000 YYXZ=     0.0000 ZZXY=    -0.0042
 N-N= 3.166338021109D+01 E-N=-1.021618951046D+02  KE= 7.361175871850D+00
 Symmetry A'   KE= 4.636240898444D+00
 Symmetry A"   KE= 2.724934973406D+00
  Exact polarizability: 165.750   0.004 165.742   0.000   0.000 190.833
 Approx polarizability: 493.984   0.022 493.965   0.000   0.000 538.203
                          Isotropic Fermi Contact Couplings
        Atom                 a.u.       MegaHertz       Gauss      10(-4) cm-1
     1  Si(29)             0.00000      -0.00004      -0.00001      -0.00001
     2  Si(29)             0.00000      -0.00004      -0.00001      -0.00001
[...]
 Approx polarizability: 481.872   0.000 481.874   0.000   0.000 537.159
                          Isotropic Fermi Contact Couplings
        Atom                 a.u.       MegaHertz       Gauss      10(-4) cm-1
     1  Si(29)            -0.01082       9.61715       3.43164       3.20794
     2  Si(29)            -0.01082       9.61713       3.43163       3.20793
     3  Si(29)            -0.01082       9.61587       3.43118       3.20751
     4  Si(29)             0.07078     -62.89988     -22.44424     -20.98114
     5  Si(29)             0.07078     -62.89988     -22.44424     -20.98114
 --------------------------------------------------------
       Center         ----  Spin Dipole Couplings  ----
                      3XX-RR        3YY-RR        3ZZ-RR
 --------------------------------------------------------
     1   Atom       -0.088543     -0.094841      0.183384
     2   Atom       -0.088543     -0.094841      0.183384
     3   Atom       -0.097983     -0.085389      0.183372
     4   Atom       -0.468551     -0.468551      0.937101
     5   Atom       -0.468551     -0.468551      0.937101
 --------------------------------------------------------
                        XY            XZ            YZ
 --------------------------------------------------------
     1   Atom       -0.005453      0.000000      0.000000
     2   Atom        0.005453      0.000000      0.000000
     3   Atom        0.000000      0.000000      0.000000
     4   Atom        0.000000      0.000000      0.000018
     5   Atom        0.000000      0.000000     -0.000018
 --------------------------------------------------------


 ---------------------------------------------------------------------------------
              Anisotropic Spin Dipole Couplings in Principal Axis System
 ---------------------------------------------------------------------------------

       Atom             a.u.   MegaHertz   Gauss  10(-4) cm-1        Axes

              Baa    -0.0980    10.395     3.709     3.467  0.4999  0.8661  0.0000
     1 Si(29) Bbb    -0.0854     9.059     3.232     3.022  0.8661 -0.4999  0.0000
              Bcc     0.1834   -19.454    -6.942    -6.489  0.0000  0.0000  1.0000
 
              Baa    -0.0980    10.395     3.709     3.467 -0.4999  0.8661  0.0000
     2 Si(29) Bbb    -0.0854     9.059     3.232     3.022  0.8661  0.4999  0.0000
              Bcc     0.1834   -19.454    -6.942    -6.489  0.0000  0.0000  1.0000
 
              Baa    -0.0980    10.394     3.709     3.467  1.0000  0.0000  0.0000
     3 Si(29) Bbb    -0.0854     9.058     3.232     3.022  0.0000  1.0000  0.0000
              Bcc     0.1834   -19.453    -6.941    -6.489  0.0000  0.0000  1.0000
 
              Baa    -0.4686    49.706    17.736    16.580 -0.0092  1.0000  0.0000
     4 Si(29) Bbb    -0.4686    49.706    17.736    16.580  1.0000  0.0092  0.0000
              Bcc     0.9371   -99.412   -35.472   -33.160  0.0000  0.0000  1.0000
 
              Baa    -0.4686    49.706    17.736    16.580 -0.0092  1.0000  0.0000
     5 Si(29) Bbb    -0.4686    49.706    17.736    16.580  1.0000  0.0092  0.0000
              Bcc     0.9371   -99.412   -35.472   -33.160  0.0000  0.0000  1.0000
 

 ---------------------------------------------------------------------------------

 Full mass-weighted force constant matrix:
 Low frequencies ---   -9.3295   -9.1374   -0.0033   -0.0026   -0.0022    3.3312
 Low frequencies ---  191.9992  192.0000  291.7351
 Diagonal vibrational polarizability:
        0.6297804       0.6314063       0.3751607
 Harmonic frequencies (cm**-1), IR intensities (KM/Mole), Raman scattering
 activities (A**4/AMU), depolarization ratios for plane and unpolarized
 incident light, reduced masses (AMU), force constants (mDyne/A),
 and normal coordinates:
                     1                      2                      3
                    A'                     A'                     A'
 Frequencies --   191.9992               192.0000               291.7351
 Red. masses --    27.9769                27.9769                27.9769
 Frc consts  --     0.6076                 0.6076                 1.4029
 IR Inten    --     0.6932                 0.6948                 0.0000
 Atom AN      X      Y      Z        X      Y      Z        X      Y      Z
   1  14    -0.06  -0.36   0.00     0.35   0.45   0.00     0.40  -0.23   0.00
   2  14    -0.05   0.34   0.00    -0.35   0.47   0.00    -0.40  -0.23   0.00
   3  14    -0.67   0.00   0.00    -0.02  -0.15   0.00     0.00   0.46   0.00
   4  14     0.39   0.01   0.00     0.01  -0.39   0.00     0.00   0.00   0.42
   5  14     0.39   0.01   0.00     0.01  -0.39   0.00     0.00   0.00  -0.42
                     4                      5                      6
                    A"                     A"                     A'
 Frequencies --   328.2161               328.2885               359.6327
 Red. masses --    27.9769                27.9769                27.9769
 Frc consts  --     1.7757                 1.7765                 2.1319
 IR Inten    --     0.0000                 0.0000                 0.5969
 Atom AN      X      Y      Z        X      Y      Z        X      Y      Z
   1  14     0.00   0.00  -0.32     0.00   0.00   0.55    -0.36   0.05   0.00
   2  14     0.00   0.00  -0.32     0.00   0.00  -0.55     0.36   0.05   0.00
   3  14     0.00   0.00   0.64     0.00   0.00   0.00     0.00   0.67   0.00
   4  14     0.00  -0.44   0.00    -0.44   0.00   0.00     0.00  -0.39   0.00
   5  14     0.00   0.44   0.00     0.44   0.00   0.00     0.00  -0.39   0.00
                     7                      8                      9
                    A'                     A"                     A'
 Frequencies --   359.9679               428.2242               450.3991
 Red. masses --    27.9769                27.9769                27.9769
 Frc consts  --     2.1359                 3.0227                 3.3438
 IR Inten    --     0.5959                 2.5564                 0.0000
 Atom AN      X      Y      Z        X      Y      Z        X      Y      Z
   1  14     0.46  -0.36   0.00     0.00   0.00   0.37    -0.30   0.17   0.00
   2  14     0.46   0.36   0.00     0.00   0.00   0.37     0.30   0.17   0.00
   3  14    -0.15   0.00   0.00     0.00   0.00   0.36     0.00  -0.34   0.00
   4  14    -0.39   0.00   0.00     0.00   0.00  -0.55     0.00   0.00   0.57
   5  14    -0.39   0.00   0.00     0.00   0.00  -0.55     0.00   0.00  -0.57

 -------------------
 - Thermochemistry -
 -------------------
 Temperature   298.150 Kelvin.  Pressure   1.00000 Atm.
 Atom  1 has atomic number 14 and mass  27.97693
 Atom  2 has atomic number 14 and mass  27.97693
 Atom  3 has atomic number 14 and mass  27.97693
 Atom  4 has atomic number 14 and mass  27.97693
 Atom  5 has atomic number 14 and mass  27.97693
 Molecular mass:   139.88464 amu.
 Principal axes and moments of inertia in atomic units:
                           1         2         3
     EIGENVALUES --   771.01064 980.49909 980.50512
           X            0.00000   0.99998  -0.00683
           Y            0.00000   0.00683   0.99998
           Z            1.00000   0.00000   0.00000
 This molecule is an asymmetric top.
 Rotational symmetry number  1.
 Warning -- assumption of classical behavior for rotation
           may cause significant error
 Rotational temperatures (Kelvin)      0.11234     0.08834     0.08834
 Rotational constants (GHZ):           2.34075     1.84064     1.84062
 Zero-point vibrational energy      17528.1 (Joules/Mol)
                                    4.18931 (Kcal/Mol)
 Warning -- explicit consideration of   9 degrees of freedom as
           vibrations may cause significant error
 Vibrational temperatures:    276.24   276.24   419.74   472.23   472.33
          (Kelvin)            517.43   517.91   616.12   648.02
 
 Zero-point correction=                           0.006676 (Hartree/Particle)
 Thermal correction to Energy=                    0.013106
 Thermal correction to Enthalpy=                  0.014050
 Thermal correction to Gibbs Free Energy=        -0.025156
 Sum of electronic and zero-point Energies=          -1447.575062
 Sum of electronic and thermal Energies=             -1447.568632
 Sum of electronic and thermal Enthalpies=           -1447.567688
 Sum of electronic and thermal Free Energies=        -1447.606894
 
                     E (Thermal)             CV                S
                      KCal/Mol        Cal/Mol-Kelvin    Cal/Mol-Kelvin
 Total                    8.224             20.470             82.515
 Electronic               0.000              0.000              1.377
 Translational            0.889              2.981             40.719
 Rotational               0.889              2.981             28.096
 Vibrational              6.446             14.508             12.323
 Vibration  1             0.634              1.851              2.208
 Vibration  2             0.634              1.851              2.208
 Vibration  3             0.687              1.689              1.464
 Vibration  4             0.711              1.619              1.269
 Vibration  5             0.712              1.619              1.268
 Vibration  6             0.734              1.555              1.124
 Vibration  7             0.734              1.555              1.122
 Vibration  8             0.790              1.409              0.864
 Vibration  9             0.809              1.360              0.795
                       Q            Log10(Q)             Ln(Q)
 Total Bot       0.372296D+12         11.570888         26.642954
 Total V=0       0.438195D+15         14.641667         33.713685
 Vib (Bot)       0.928801D-02         -2.032077         -4.679031
 Vib (Bot)  1    0.104164D+01          0.017718          0.040797
 Vib (Bot)  2    0.104164D+01          0.017716          0.040793
 Vib (Bot)  3    0.654882D+00         -0.183837         -0.423301
 Vib (Bot)  4    0.569902D+00         -0.244200         -0.562292
 Vib (Bot)  5    0.569751D+00         -0.244315         -0.562557
 Vib (Bot)  6    0.509785D+00         -0.292613         -0.673766
 Vib (Bot)  7    0.509197D+00         -0.293114         -0.674920
 Vib (Bot)  8    0.407450D+00         -0.389926         -0.897837
 Vib (Bot)  9    0.380622D+00         -0.419506         -0.965949
 Vib (V=0)       0.109321D+02          1.038702          2.391700
 Vib (V=0)  1    0.165543D+01          0.218910          0.504060
 Vib (V=0)  2    0.165542D+01          0.218909          0.504057
 Vib (V=0)  3    0.132394D+01          0.121867          0.280609
 Vib (V=0)  4    0.125815D+01          0.099732          0.229640
 Vib (V=0)  5    0.125803D+01          0.099692          0.229550
 Vib (V=0)  6    0.121406D+01          0.084240          0.193970
 Vib (V=0)  7    0.121364D+01          0.084090          0.193624
 Vib (V=0)  8    0.114499D+01          0.058803          0.135398
 Vib (V=0)  9    0.112839D+01          0.052459          0.120791
 Electronic      0.200000D+01          0.301030          0.693147
 Translational   0.650295D+08          7.813110         17.990351
 Rotational      0.308195D+06          5.488825         12.638487
 ***** Axes restored to original set *****
 -------------------------------------------------------------------
 Center     Atomic                   Forces (Hartrees/Bohr)
 Number     Number              X              Y              Z
 -------------------------------------------------------------------
    1         14          -0.000010818    0.000007923    0.000000000
    2         14           0.000012212    0.000005306    0.000000000
    3         14          -0.000001452   -0.000013116    0.000000000
    4         14           0.000000029   -0.000000057    0.000007338
    5         14           0.000000029   -0.000000057   -0.000007338
 -------------------------------------------------------------------
 Cartesian Forces:  Max     0.000013116 RMS     0.000006527

 GradGradGradGradGradGradGradGradGradGradGradGradGradGradGradGradGradGrad
 Berny optimization.
 Internal  Forces:  Max     0.000004988 RMS     0.000003455
 Search for a local minimum.
 Step number   1 out of a maximum of   2
 All quantities printed in internal units (Hartrees-Bohrs-Radians)
 Second derivative matrix not updated -- analytic derivatives used.
 The second derivative matrix:
                          R1        R2        R3        R4        R5
           R1           0.03874
           R2          -0.00234   0.03863
           R3          -0.00448  -0.00441   0.06823
           R4          -0.00448  -0.00441   0.00106   0.06823
           R5          -0.00234  -0.00241  -0.00136  -0.00136   0.03863
           R6          -0.00448  -0.00136   0.00565   0.00300  -0.00441
           R7          -0.00448  -0.00136   0.00300   0.00565  -0.00441
           R8          -0.00139  -0.00442   0.00561   0.00300  -0.00442
           R9          -0.00139  -0.00442   0.00300   0.00561  -0.00442
           A1          -0.00496  -0.00493  -0.00254  -0.00254  -0.00640
           A2          -0.00496  -0.00640   0.01212   0.01212  -0.00493
           A3          -0.00646  -0.00492   0.01212   0.01212  -0.00492
                          R6        R7        R8        R9        A1
           R6           0.06823
           R7           0.00106   0.06823
           R8           0.00561   0.00300   0.06810
           R9           0.00300   0.00561   0.00104   0.06810
           A1           0.01212   0.01212   0.01209   0.01209   0.00966
           A2          -0.00254  -0.00254   0.01209   0.01209   0.00257
           A3           0.01212   0.01212  -0.00253  -0.00253   0.00259
                          A2        A3
           A2           0.00966
           A3           0.00259   0.00967
     Eigenvalues ---    0.03202   0.04024   0.04028   0.06450   0.06453
     Eigenvalues ---    0.06844   0.06848   0.07238   0.103251000.00000
     Eigenvalues --- 1000.000001000.00000
 Angle between quadratic step and forces=  16.34 degrees.
 Linear search not attempted -- first point.
 Iteration  1 RMS(Cart)=  0.00004936 RMS(Int)=  0.00000000
 Iteration  2 RMS(Cart)=  0.00000000 RMS(Int)=  0.00000000
 Variable       Old X    -DE/DX   Delta X   Delta X   Delta X     New X
                                 (Linear)    (Quad)   (Total)
    R1        5.24967   0.00000   0.00000   0.00017   0.00017   5.24984
    R2        5.24964   0.00000   0.00000   0.00017   0.00017   5.24981
    R3        4.45193   0.00000   0.00000   0.00007   0.00007   4.45200
    R4        4.45193   0.00000   0.00000   0.00007   0.00007   4.45200
    R5        5.24964   0.00000   0.00000   0.00017   0.00017   5.24981
    R6        4.45193   0.00000   0.00000   0.00007   0.00007   4.45200
    R7        4.45193   0.00000   0.00000   0.00007   0.00007   4.45200
    R8        4.45202   0.00000   0.00000   0.00007   0.00007   4.45209
    R9        4.45202   0.00000   0.00000   0.00007   0.00007   4.45209
    A1        1.64391   0.00000   0.00000  -0.00003  -0.00003   1.64387
    A2        1.64390   0.00000   0.00000  -0.00003  -0.00003   1.64387
    A3        1.64386   0.00000   0.00000  -0.00003  -0.00003   1.64383
         Item               Value     Threshold  Converged?
 Maximum Force            0.000005     0.000450     YES
 RMS     Force            0.000003     0.000300     YES
 Maximum Displacement     0.000097     0.001800     YES
 RMS     Displacement     0.000049     0.001200     YES
 Predicted change in Energy=-1.975724D-09
 Optimization completed.
    -- Stationary point found.
                           ----------------------------
                           !   Optimized Parameters   !
                           ! (Angstroms and Degrees)  !
 --------------------------                            --------------------------
 ! Name  Definition              Value          Derivative Info.                !
 --------------------------------------------------------------------------------
 ! R1    R(1,2)                  2.778          -DE/DX =    0.0                 !
 ! R2    R(1,3)                  2.778          -DE/DX =    0.0                 !
 ! R3    R(1,4)                  2.3559         -DE/DX =    0.0                 !
 ! R4    R(1,5)                  2.3559         -DE/DX =    0.0                 !
 ! R5    R(2,3)                  2.778          -DE/DX =    0.0                 !
 ! R6    R(2,4)                  2.3559         -DE/DX =    0.0                 !
 ! R7    R(2,5)                  2.3559         -DE/DX =    0.0                 !
 ! R8    R(3,4)                  2.3559         -DE/DX =    0.0                 !
 ! R9    R(3,5)                  2.3559         -DE/DX =    0.0                 !
 ! A1    A(4,1,5)               94.1888         -DE/DX =    0.0                 !
 ! A2    A(4,2,5)               94.1888         -DE/DX =    0.0                 !
 ! A3    A(4,3,5)               94.1863         -DE/DX =    0.0                 !
 --------------------------------------------------------------------------------
 GradGradGradGradGradGradGradGradGradGradGradGradGradGradGradGradGradGrad

 1\1\GINC-NODE39\Freq\UB3LYP\6-311+G(d)\Si5(1-,2)\TAM\06-Apr-2011\0\\#N
  Geom=AllCheck Guess=Read SCRF=Check GenChk UB3LYP/6-311+G(d) Freq\\si
 5-n\\-1,2\Si,-1.1888590234,0.9957153394,0.\Si,1.5720934455,0.688384210
 2,0.\Si,-0.0745375277,-1.5489864683,0.\Si,0.1029045527,0.0450904592,1.
 7256130843\Si,0.1029045527,0.0450904592,-1.7256130843\\Version=AM64L-G
 03RevE.01\State=2-A"\HF=-1447.5817378\S2=0.75709\S2-1=0.\S2A=0.750016\
 RMSD=2.555e-09\RMSF=6.527e-06\ZeroPoint=0.0066761\Thermal=0.0131055\Di
 pole=-0.0000003,-0.0000005,0.\DipoleDeriv=-0.2690747,-0.0035904,0.,-0.
 0034462,-0.2713699,0.,0.,0.,-0.1011147,-0.2676757,0.0027578,0.,0.00261
 36,-0.2727683,0.,0.,0.,-0.1011147,-0.2738301,0.0008095,0.,0.0008096,-0
 .2666472,0.,0.,0.,-0.1010636,-0.0947097,0.0000115,0.0000041,0.0000115,
 -0.0946073,0.0000363,0.0000007,0.0000073,-0.3483535,-0.0947097,0.00001
 15,-0.0000041,0.0000115,-0.0946073,-0.0000363,-0.0000007,-0.0000073,-0
 .3483535\Polar=198.2862703,-0.0001887,198.2845707,-0.0000005,0.0000001
 ,224.1804157\PG=CS [SG(Si3),X(Si2)]\NImag=0\\0.07645004,-0.04117879,0.
 05075685,0.,0.,0.07209188,-0.02605551,-0.00350483,0.,0.09287484,0.0088
 2029,-0.00247527,0.,0.03168448,0.03433198,0.,0.,0.00279431,0.,0.,0.072
 09171,-0.00609649,0.01506472,0.,-0.01071099,-0.01770801,0.,0.02156228,
 0.00276271,-0.02243715,0.,-0.00540601,-0.01782262,0.,0.00945442,0.1054
 4511,0.,0.,0.00280582,0.,0.,0.00280581,0.,0.,0.07198230,-0.02214902,0.
 01480945,-0.02590329,-0.02805417,-0.01139838,0.02947261,-0.00237740,-0
 .00340556,-0.00355630,0.04869930,0.01479789,-0.01292222,0.01911507,-0.
 01138682,-0.00701705,0.01295094,-0.00340556,-0.03259267,-0.03194851,-0
 .00000617,0.04864483,-0.01957413,0.01449683,-0.03884600,0.02228281,0.0
 0983755,-0.03884592,-0.00269669,-0.02422610,-0.03879696,-0.00001251,-0
 .00011288,0.14346495,-0.02214902,0.01480945,0.02590329,-0.02805417,-0.
 01139838,-0.02947261,-0.00237740,-0.00340556,0.00355630,0.00388129,0.0
 0000066,0.00000051,0.04869930,0.01479789,-0.01292222,-0.01911507,-0.01
 138682,-0.00701705,-0.01295094,-0.00340556,-0.03259267,0.03194851,0.00
 000066,0.00388711,0.00000462,-0.00000617,0.04864483,0.01957413,-0.0144
 9683,-0.03884600,-0.02228281,-0.00983754,-0.03884592,0.00269669,0.0242
 2610,-0.03879696,-0.00000051,-0.00000462,-0.02697606,0.00001251,0.0001
 1288,0.14346495\\0.00001082,-0.00000792,0.,-0.00001221,-0.00000531,0.,
 0.00000145,0.00001312,0.,-0.00000003,0.00000006,-0.00000734,-0.0000000
 3,0.00000006,0.00000734\\\@


 MISERY NO LONGER LOVES COMPANY.  NOWADAYS IT INSISTS ON IT.

                                              -- BAKER'S LAW
 Job cpu time:  0 days  0 hours  7 minutes 17.3 seconds.
 File lengths (MBytes):  RWF=     58 Int=      0 D2E=      0 Chk=      7 Scr=      1
 Normal termination of Gaussian 03 at Wed Apr  6 17:01:22 2011.
