 Entering Gaussian System, Link 0=g03
 Initial command:
 /usr/local/chem/g03E01/l1.exe /temp0/tam/Gau-31554.inp -scrdir=/temp0/tam/
 Entering Link 1 = /usr/local/chem/g03E01/l1.exe PID=     31555.
  
 Copyright (c) 1988,1990,1992,1993,1995,1998,2003,2004,2007, Gaussian, Inc.
                  All Rights Reserved.
  
 This is the Gaussian(R) 03 program.  It is based on the
 the Gaussian(R) 98 system (copyright 1998, Gaussian, Inc.),
 the Gaussian(R) 94 system (copyright 1995, Gaussian, Inc.),
 the Gaussian 92(TM) system (copyright 1992, Gaussian, Inc.),
 the Gaussian 90(TM) system (copyright 1990, Gaussian, Inc.),
 the Gaussian 88(TM) system (copyright 1988, Gaussian, Inc.),
 the Gaussian 86(TM) system (copyright 1986, Carnegie Mellon
 University), and the Gaussian 82(TM) system (copyright 1983,
 Carnegie Mellon University). Gaussian is a federally registered
 trademark of Gaussian, Inc.
  
 This software contains proprietary and confidential information,
 including trade secrets, belonging to Gaussian, Inc.
  
 This software is provided under written license and may be
 used, copied, transmitted, or stored only in accord with that
 written license.
  
 The following legend is applicable only to US Government
 contracts under FAR:
  
                    RESTRICTED RIGHTS LEGEND
  
 Use, reproduction and disclosure by the US Government is
 subject to restrictions as set forth in subparagraphs (a)
 and (c) of the Commercial Computer Software - Restricted
 Rights clause in FAR 52.227-19.
  
 Gaussian, Inc.
 340 Quinnipiac St., Bldg. 40, Wallingford CT 06492
  
  
 ---------------------------------------------------------------
 Warning -- This program may not be used in any manner that
 competes with the business of Gaussian, Inc. or will provide
 assistance to any competitor of Gaussian, Inc.  The licensee
 of this program is prohibited from giving any competitor of
 Gaussian, Inc. access to this program.  By using this program,
 the user acknowledges that Gaussian, Inc. is engaged in the
 business of creating and licensing software in the field of
 computational chemistry and represents and warrants to the
 licensee that it is not a competitor of Gaussian, Inc. and that
 it will not use this program in any manner prohibited above.
 ---------------------------------------------------------------
  

 Cite this work as:
 Gaussian 03, Revision E.01,
 M. J. Frisch, G. W. Trucks, H. B. Schlegel, G. E. Scuseria, 
 M. A. Robb, J. R. Cheeseman, J. A. Montgomery, Jr., T. Vreven, 
 K. N. Kudin, J. C. Burant, J. M. Millam, S. S. Iyengar, J. Tomasi, 
 V. Barone, B. Mennucci, M. Cossi, G. Scalmani, N. Rega, 
 G. A. Petersson, H. Nakatsuji, M. Hada, M. Ehara, K. Toyota, 
 R. Fukuda, J. Hasegawa, M. Ishida, T. Nakajima, Y. Honda, O. Kitao, 
 H. Nakai, M. Klene, X. Li, J. E. Knox, H. P. Hratchian, J. B. Cross, 
 V. Bakken, C. Adamo, J. Jaramillo, R. Gomperts, R. E. Stratmann, 
 O. Yazyev, A. J. Austin, R. Cammi, C. Pomelli, J. W. Ochterski, 
 P. Y. Ayala, K. Morokuma, G. A. Voth, P. Salvador, J. J. Dannenberg, 
 V. G. Zakrzewski, S. Dapprich, A. D. Daniels, M. C. Strain, 
 O. Farkas, D. K. Malick, A. D. Rabuck, K. Raghavachari, 
 J. B. Foresman, J. V. Ortiz, Q. Cui, A. G. Baboul, S. Clifford, 
 J. Cioslowski, B. B. Stefanov, G. Liu, A. Liashenko, P. Piskorz, 
 I. Komaromi, R. L. Martin, D. J. Fox, T. Keith, M. A. Al-Laham, 
 C. Y. Peng, A. Nanayakkara, M. Challacombe, P. M. W. Gill, 
 B. Johnson, W. Chen, M. W. Wong, C. Gonzalez, and J. A. Pople, 
 Gaussian, Inc., Wallingford CT, 2004.
 
 ******************************************
 Gaussian 03:  AM64L-G03RevE.01 11-Sep-2007
                 4-Apr-2011 
 ******************************************
 %NprocShared=4
 Will use up to    4 processors via shared memory.
 %mem=3750MB
 %chk=S9L-ne-d-01
 ----------------------------------------------------------------------
 # b3lyp/LANL2DZ opt=(calcall,noeigentest,maxcycle=500) scfcyc=500 scf=
 xqc
 ----------------------------------------------------------------------
 1/6=500,10=4,11=1,14=-1,18=20,26=3,38=1/1,3;
 2/9=110,17=6,18=5,40=1/2;
 3/5=6,6=3,11=2,16=1,25=1,30=1,74=-5/1,2,3;
 4//1;
 5/5=2,7=500,8=3,13=1,38=5/2,8;
 8/6=4,10=90,11=11/1;
 11/6=1,8=1,9=11,15=111,16=1/1,2,10;
 10/6=1/2;
 6/7=2,8=2,9=2,10=2,18=1,28=1/1;
 7/10=1,25=1/1,2,3,16;
 1/6=500,10=4,11=1,14=-1,18=20/3(3);
 2/9=110/2;
 7/8=1,9=1,25=1,44=-1/16;
 99//99;
 2/9=110/2;
 3/5=6,6=3,11=2,16=1,25=1,30=1,74=-5/1,2,3;
 4/5=5,16=3/1;
 5/5=2,7=500,8=3,13=1,38=5/2,8;
 8/6=4,10=90,11=11/1;
 11/6=1,8=1,9=11,15=111,16=1/1,2,10;
 10/6=1/2;
 7/10=1,25=1/1,2,3,16;
 1/6=500,10=4,11=1,14=-1,18=20/3(-8);
 2/9=110/2;
 6/7=2,8=2,9=2,10=2,18=1,19=2,28=1/1;
 7/8=1,9=1,25=1,44=-1/16;
 99//99;
 -----
 si6-n
 -----
 Symbolic Z-matrix:
 Charge =  0 Multiplicity = 1
 Si                    0.18196   0.22398  -1.3766 
 Si                   -0.08783   2.12604   0. 
 Si                    0.19093  -1.86963   0. 
 Si                   -1.67088  -0.36137   0. 
 Si                    2.10705  -0.25109   0. 
 Si                    0.18196   0.22398   1.3766 
 

 GradGradGradGradGradGradGradGradGradGradGradGradGradGradGradGradGradGrad
 Berny optimization.
 Initialization pass.
                           ----------------------------
                           !    Initial Parameters    !
                           ! (Angstroms and Degrees)  !
 --------------------------                            --------------------------
 ! Name  Definition              Value          Derivative Info.                !
 --------------------------------------------------------------------------------
 ! R1    R(1,2)                  2.3634         calculate D2E/DX2 analytically  !
 ! R2    R(1,3)                  2.5057         calculate D2E/DX2 analytically  !
 ! R3    R(1,4)                  2.3813         calculate D2E/DX2 analytically  !
 ! R4    R(1,5)                  2.4139         calculate D2E/DX2 analytically  !
 ! R5    R(1,6)                  2.7532         calculate D2E/DX2 analytically  !
 ! R6    R(2,6)                  2.3634         calculate D2E/DX2 analytically  !
 ! R7    R(3,4)                  2.3961         calculate D2E/DX2 analytically  !
 ! R8    R(3,5)                  2.5082         calculate D2E/DX2 analytically  !
 ! R9    R(3,6)                  2.5057         calculate D2E/DX2 analytically  !
 ! R10   R(4,6)                  2.3813         calculate D2E/DX2 analytically  !
 ! R11   R(5,6)                  2.4139         calculate D2E/DX2 analytically  !
 ! A1    A(2,1,3)              110.6622         calculate D2E/DX2 analytically  !
 ! A2    A(2,1,4)               76.838          calculate D2E/DX2 analytically  !
 ! A3    A(2,1,5)               85.2537         calculate D2E/DX2 analytically  !
 ! A4    A(4,1,5)              104.0328         calculate D2E/DX2 analytically  !
 ! A5    A(4,3,5)              100.8013         calculate D2E/DX2 analytically  !
 ! A6    A(2,6,3)              110.6622         calculate D2E/DX2 analytically  !
 ! A7    A(2,6,4)               76.838          calculate D2E/DX2 analytically  !
 ! A8    A(2,6,5)               85.2537         calculate D2E/DX2 analytically  !
 ! A9    A(4,6,5)              104.0328         calculate D2E/DX2 analytically  !
 ! A10   L(2,1,3,-3,-1)        187.8274         calculate D2E/DX2 analytically  !
 ! A11   L(2,6,3,-3,-1)        187.8274         calculate D2E/DX2 analytically  !
 ! A12   L(2,1,3,-1,-2)        249.2206         calculate D2E/DX2 analytically  !
 ! A13   L(2,6,3,-1,-2)        110.7794         calculate D2E/DX2 analytically  !
 --------------------------------------------------------------------------------
 Trust Radius=3.00D-01 FncErr=1.00D-07 GrdErr=1.00D-06
 Number of steps in this run= 100 maximum allowed number of steps= 100.
 GradGradGradGradGradGradGradGradGradGradGradGradGradGradGradGradGradGrad

                          Input orientation:                          
 ---------------------------------------------------------------------
 Center     Atomic     Atomic              Coordinates (Angstroms)
 Number     Number      Type              X           Y           Z
 ---------------------------------------------------------------------
    1         14             0        0.181957    0.223981   -1.376597
    2         14             0       -0.087831    2.126037    0.000000
    3         14             0        0.190931   -1.869632    0.000000
    4         14             0       -1.670883   -0.361371    0.000000
    5         14             0        2.107054   -0.251088    0.000000
    6         14             0        0.181957    0.223981    1.376597
 ---------------------------------------------------------------------
                    Distance matrix (angstroms):
                    1          2          3          4          5
     1  Si   0.000000
     2  Si   2.363392   0.000000
     3  Si   2.505657   4.005381   0.000000
     4  Si   2.381317   2.948432   2.396081   0.000000
     5  Si   2.413857   3.235466   2.508229   3.779546   0.000000
     6  Si   2.753194   2.363392   2.505657   2.381317   2.413857
                    6
     6  Si   0.000000
 Stoichiometry    Si6
 Framework group  CS[SG(Si4),X(Si2)]
 Deg. of freedom     8
 Full point group                 CS
 Largest Abelian subgroup         CS      NOp   2
 Largest concise Abelian subgroup CS      NOp   2
                         Standard orientation:                         
 ---------------------------------------------------------------------
 Center     Atomic     Atomic              Coordinates (Angstroms)
 Number     Number      Type              X           Y           Z
 ---------------------------------------------------------------------
    1         14             0       -0.189503   -0.092825    1.376597
    2         14             0       -2.084474   -0.408556    0.000000
    3         14             0        1.809558    0.529310    0.000000
    4         14             0       -0.189503    1.850279    0.000000
    5         14             0        0.843425   -1.785382    0.000000
    6         14             0       -0.189503   -0.092825   -1.376597
 ---------------------------------------------------------------------
 Rotational constants (GHZ):      1.6625412      1.4771830      1.1643708
 Standard basis: LANL2DZ (5D, 7F)
 There are    32 symmetry adapted basis functions of A'  symmetry.
 There are    16 symmetry adapted basis functions of A"  symmetry.
 Integral buffers will be    131072 words long.
 Raffenetti 2 integral format.
 Two-electron integral symmetry is turned on.
    48 basis functions,    72 primitive gaussians,    48 cartesian basis functions
    12 alpha electrons       12 beta electrons
       nuclear repulsion energy        47.8764854876 Hartrees.
 NAtoms=    6 NActive=    6 NUniq=    5 SFac= 1.08D+00 NAtFMM=   80 NAOKFM=F Big=F
 One-electron integrals computed using PRISM.
   2 Symmetry operations used in ECPInt.
 ECPInt:  NShTT=     300 NPrTT=     678 LenC2=     301 LenP2D=     676.
 LDataN:  DoStor=F MaxTD1= 3 Len=   28
 LDataN:  DoStor=T MaxTD1= 3 Len=   28
 NBasis=    48 RedAO= T  NBF=    32    16
 NBsUse=    48 1.00D-06 NBFU=    32    16
 Harris functional with IExCor=  402 diagonalized for initial guess.
 ExpMin= 8.85D-02 ExpMax= 2.58D+00 ExpMxC= 2.58D+00 IAcc=2 IRadAn=         4 AccDes= 0.00D+00
 HarFok:  IExCor= 402 AccDes= 0.00D+00 IRadAn=         4 IDoV=1
 ScaDFX=  1.000000  1.000000  1.000000  1.000000
 Initial guess orbital symmetries:
       Occupied  (A') (A') (A') (A") (A') (A') (A") (A") (A') (A')
                 (A') (A')
       Virtual   (A") (A') (A") (A') (A") (A') (A') (A') (A") (A')
                 (A') (A") (A") (A') (A") (A') (A") (A') (A') (A')
                 (A') (A') (A') (A") (A") (A') (A') (A") (A') (A")
                 (A') (A') (A') (A') (A") (A')
 The electronic state of the initial guess is 1-A'.
 Requested convergence on RMS density matrix=1.00D-08 within 128 cycles.
 Requested convergence on MAX density matrix=1.00D-06.
 Requested convergence on             energy=1.00D-06.
 No special actions if energy rises.
 Keep R1 integrals in memory in canonical form, NReq=     2432480.
 Integral accuracy reduced to 1.0D-05 until final iterations.
 Initial convergence to 1.0D-05 achieved.  Increase integral accuracy.
 SCF Done:  E(RB+HF-LYP) =  -23.1045913732     A.U. after   16 cycles
             Convg  =    0.5426D-08             -V/T =  3.5695
             S**2   =   0.0000
 QCSCF skips out because SCF is already converged.
 Range of M.O.s used for correlation:     1    48
 NBasis=    48 NAE=    12 NBE=    12 NFC=     0 NFV=     0
 NROrb=     48 NOA=    12 NOB=    12 NVA=    36 NVB=    36

 **** Warning!!: The smallest alpha delta epsilon is  0.96148875D-01

   2 Symmetry operations used in ECPInt.
 ECPInt:  NShTT=     300 NPrTT=     678 LenC2=     301 LenP2D=     676.
 LDataN:  DoStor=F MaxTD1= 4 Len=   56
 LDataN:  DoStor=T MaxTD1= 4 Len=   56
 Symmetrizing basis deriv contribution to polar:
 IMax=3 JMax=2 DiffMx= 0.00D+00
 G2DrvN: will do    7 centers at a time, making    1 passes doing MaxLOS=1.
 FoFDir/FoFCou used for L=0 through L=1.
 DoAtom=TTTTTT
          Differentiating once with respect to electric field.
                with respect to dipole field.
          Differentiating once with respect to nuclear coordinates.
          Store integrals in memory, NReq=     1493841.
          There are  18 degrees of freedom in the 1st order CPHF.
    18 vectors were produced by pass  0.
 AX will form  18 AO Fock derivatives at one time.
    18 vectors were produced by pass  1.
    18 vectors were produced by pass  2.
    18 vectors were produced by pass  3.
    18 vectors were produced by pass  4.
    18 vectors were produced by pass  5.
     9 vectors were produced by pass  6.
     3 vectors were produced by pass  7.
     1 vectors were produced by pass  8.
 Inv2:  IOpt= 1 Iter= 1 AM= 1.41D-15 Conv= 1.00D-12.
 Inverted reduced A of dimension  121 with in-core refinement.
 Isotropic polarizability for W=    0.000000      173.65 Bohr**3.
 End of Minotr Frequency-dependent properties file   721 does not exist.

 **********************************************************************

            Population analysis using the SCF density.

 **********************************************************************

 Orbital symmetries:
       Occupied  (A') (A') (A') (A") (A') (A') (A") (A") (A') (A')
                 (A') (A')
       Virtual   (A') (A") (A') (A") (A") (A') (A') (A') (A") (A')
                 (A") (A') (A") (A") (A') (A") (A') (A') (A') (A')
                 (A') (A') (A") (A') (A") (A') (A') (A") (A') (A")
                 (A') (A') (A') (A') (A") (A')
 The electronic state is 1-A'.
 Alpha  occ. eigenvalues --   -0.73811  -0.55871  -0.54076  -0.49940  -0.38784
 Alpha  occ. eigenvalues --   -0.34235  -0.31103  -0.29585  -0.29520  -0.27974
 Alpha  occ. eigenvalues --   -0.25076  -0.22596
 Alpha virt. eigenvalues --   -0.12981  -0.12965  -0.10358  -0.10278  -0.04407
 Alpha virt. eigenvalues --   -0.02938  -0.01512  -0.00025   0.02610   0.02823
 Alpha virt. eigenvalues --    0.03855   0.03887   0.27009   0.27290   0.27926
 Alpha virt. eigenvalues --    0.28364   0.28518   0.29431   0.30019   0.30610
 Alpha virt. eigenvalues --    0.32862   0.34166   0.34565   0.35116   0.35981
 Alpha virt. eigenvalues --    0.36163   0.37846   0.40115   0.40565   0.41232
 Alpha virt. eigenvalues --    7.59275  10.18365  11.13593  11.34101  11.78521
 Alpha virt. eigenvalues --   13.99248
          Condensed to atoms (all electrons):
              1          2          3          4          5          6
     1  Si   4.202473   0.069149  -0.015543  -0.006129   0.024976  -0.123872
     2  Si   0.069149   3.775585  -0.051203  -0.005779  -0.012714   0.069149
     3  Si  -0.015543  -0.051203   3.932020   0.054312   0.035794  -0.015543
     4  Si  -0.006129  -0.005779   0.054312   4.014145  -0.073868  -0.006129
     5  Si   0.024976  -0.012714   0.035794  -0.073868   3.938155   0.024976
     6  Si  -0.123872   0.069149  -0.015543  -0.006129   0.024976   4.202473
 Mulliken atomic charges:
              1
     1  Si  -0.151053
     2  Si   0.155813
     3  Si   0.060165
     4  Si   0.023446
     5  Si   0.062683
     6  Si  -0.151053
 Sum of Mulliken charges=   0.00000
 Atomic charges with hydrogens summed into heavy atoms:
              1
     1  Si  -0.151053
     2  Si   0.155813
     3  Si   0.060165
     4  Si   0.023446
     5  Si   0.062683
     6  Si  -0.151053
 Sum of Mulliken charges=   0.00000
 APT atomic charges:
              1
     1  Si  -0.241149
     2  Si   0.184231
     3  Si   0.004754
     4  Si   0.114612
     5  Si   0.178702
     6  Si  -0.241149
 Sum of APT charges=   0.00000
 APT Atomic charges with hydrogens summed into heavy atoms:
              1
     1  Si  -0.241149
     2  Si   0.184231
     3  Si   0.004754
     4  Si   0.114612
     5  Si   0.178702
     6  Si  -0.241149
 Sum of APT charges=   0.00000
 Electronic spatial extent (au):  <R**2>=   446.7961
 Charge=     0.0000 electrons
 Dipole moment (field-independent basis, Debye):
    X=    -0.1275    Y=    -0.2733    Z=     0.0000  Tot=     0.3015
 Quadrupole moment (field-independent basis, Debye-Ang):
   XX=   -75.4285   YY=   -81.1454   ZZ=   -73.4956
   XY=     1.9430   XZ=     0.0000   YZ=     0.0000
 Traceless Quadrupole moment (field-independent basis, Debye-Ang):
   XX=     1.2613   YY=    -4.4556   ZZ=     3.1942
   XY=     1.9430   XZ=     0.0000   YZ=     0.0000
 Octapole moment (field-independent basis, Debye-Ang**2):
  XXX=     2.5803  YYY=    -3.3949  ZZZ=     0.0000  XYY=    -2.8419
  XXY=     1.7691  XXZ=     0.0000  XZZ=     2.3790  YZZ=     1.4745
  YYZ=     0.0000  XYZ=     0.0000
 Hexadecapole moment (field-independent basis, Debye-Ang**3):
 XXXX=  -824.1296 YYYY=  -768.3270 ZZZZ=  -432.4239 XXXY=   -15.2340
 XXXZ=     0.0000 YYYX=    35.3828 YYYZ=     0.0000 ZZZX=     0.0000
 ZZZY=     0.0000 XXYY=  -243.4384 XXZZ=  -188.3654 YYZZ=  -178.6766
 XXYZ=     0.0000 YYXZ=     0.0000 ZZXY=     1.7205
 N-N= 4.787648548758D+01 E-N=-1.375644982341D+02  KE= 8.991707075274D+00
 Symmetry A'   KE= 6.579145053152D+00
 Symmetry A"   KE= 2.412562022122D+00
  Exact polarizability: 194.872   0.073 177.483   0.000   0.000 148.602
 Approx polarizability: 604.120  10.825 465.950   0.000   0.000 499.907
   2 Symmetry operations used in ECPInt.
 ECPInt:  NShTT=     300 NPrTT=     678 LenC2=     301 LenP2D=     678.
 LDataN:  DoStor=F MaxTD1= 5 Len=  102
 LDataN:  DoStor=T MaxTD1= 5 Len=  102
 ***** Axes restored to original set *****
 -------------------------------------------------------------------
 Center     Atomic                   Forces (Hartrees/Bohr)
 Number     Number              X              Y              Z
 -------------------------------------------------------------------
    1         14           0.007918986    0.005510522   -0.024440517
    2         14           0.000127049    0.018720597    0.000000000
    3         14           0.003428380   -0.019263729    0.000000000
    4         14          -0.053019305   -0.008882560    0.000000000
    5         14           0.033625905   -0.001595352    0.000000000
    6         14           0.007918986    0.005510522    0.024440517
 -------------------------------------------------------------------
 Cartesian Forces:  Max     0.053019305 RMS     0.018465200

 GradGradGradGradGradGradGradGradGradGradGradGradGradGradGradGradGradGrad
 Berny optimization.
 Internal  Forces:  Max     0.026164695 RMS     0.010304005
 Search for a local minimum.
 Step number   1 out of a maximum of 100
 All quantities printed in internal units (Hartrees-Bohrs-Radians)
 Second derivative matrix not updated -- analytic derivatives used.
     Eigenvalues ---    0.00127   0.00751   0.02783   0.03660   0.04208
     Eigenvalues ---    0.06252   0.06615   0.07317   0.07327   0.09452
     Eigenvalues ---    0.10080   0.103161000.000001000.000001000.00000
     Eigenvalues --- 1000.000001000.000001000.000001000.000001000.00000
     Eigenvalues --- 1000.000001000.000001000.000001000.00000
 RFO step:  Lambda=-2.36170080D-02.
 Linear search not attempted -- first point.
 Maximum step size (   0.300) exceeded in Quadratic search.
    -- Step size scaled by   0.603
 Iteration  1 RMS(Cart)=  0.04817212 RMS(Int)=  0.00083924
 Iteration  2 RMS(Cart)=  0.00075755 RMS(Int)=  0.00042451
 Iteration  3 RMS(Cart)=  0.00000047 RMS(Int)=  0.00042451
 Variable       Old X    -DE/DX   Delta X   Delta X   Delta X     New X
                                 (Linear)    (Quad)   (Total)
    R1        4.46616   0.00962   0.00000   0.04812   0.04825   4.51441
    R2        4.73501   0.00434   0.00000   0.05869   0.05860   4.79361
    R3        4.50004   0.02616   0.00000   0.13871   0.13891   4.63895
    R4        4.56153   0.01485   0.00000   0.10465   0.10488   4.66641
    R5        5.20278  -0.00172   0.00000   0.04312   0.04223   5.24501
    R6        4.46616   0.00962   0.00000   0.04812   0.04825   4.51441
    R7        4.52794   0.01231   0.00000   0.07667   0.07672   4.60466
    R8        4.73987   0.00951   0.00000   0.01985   0.01986   4.75973
    R9        4.73501   0.00434   0.00000   0.05869   0.05860   4.79361
   R10        4.50004   0.02616   0.00000   0.13871   0.13891   4.63895
   R11        4.56153   0.01485   0.00000   0.10465   0.10488   4.66641
    A1        1.93142   0.00276   0.00000   0.00832   0.00796   1.93938
    A2        1.34108   0.00672   0.00000   0.04602   0.04573   1.38681
    A3        1.48796   0.00272   0.00000   0.00032  -0.00010   1.48786
    A4        1.81571   0.00444   0.00000   0.00855   0.00749   1.82321
    A5        1.75931   0.00944   0.00000   0.04806   0.04750   1.80681
    A6        1.93142   0.00276   0.00000   0.00832   0.00796   1.93938
    A7        1.34108   0.00672   0.00000   0.04602   0.04573   1.38681
    A8        1.48796   0.00272   0.00000   0.00032  -0.00010   1.48786
    A9        1.81571   0.00444   0.00000   0.00855   0.00749   1.82321
   A10        3.27821  -0.00178   0.00000  -0.03912  -0.03908   3.23913
   A11        3.27821  -0.00178   0.00000  -0.03912  -0.03908   3.23913
   A12        4.34972  -0.00272   0.00000  -0.00619  -0.00618   4.34354
   A13        1.93346   0.00272   0.00000   0.00619   0.00618   1.93964
         Item               Value     Threshold  Converged?
 Maximum Force            0.026165     0.000450     NO 
 RMS     Force            0.010304     0.000300     NO 
 Maximum Displacement     0.135004     0.001800     NO 
 RMS     Displacement     0.048567     0.001200     NO 
 Predicted change in Energy=-1.100466D-02
 GradGradGradGradGradGradGradGradGradGradGradGradGradGradGradGradGradGrad

                          Input orientation:                          
 ---------------------------------------------------------------------
 Center     Atomic     Atomic              Coordinates (Angstroms)
 Number     Number      Type              X           Y           Z
 ---------------------------------------------------------------------
    1         14             0        0.171033    0.243618   -1.387771
    2         14             0       -0.052304    2.175239    0.000000
    3         14             0        0.208347   -1.879441    0.000000
    4         14             0       -1.742324   -0.419202    0.000000
    5         14             0        2.147401   -0.271923    0.000000
    6         14             0        0.171033    0.243618    1.387771
 ---------------------------------------------------------------------
                    Distance matrix (angstroms):
                    1          2          3          4          5
     1  Si   0.000000
     2  Si   2.388922   0.000000
     3  Si   2.536667   4.063049   0.000000
     4  Si   2.454827   3.096336   2.436681   0.000000
     5  Si   2.469356   3.290487   2.518739   3.892512   0.000000
     6  Si   2.775542   2.388922   2.536667   2.454827   2.469356
                    6
     6  Si   0.000000
 Stoichiometry    Si6
 Framework group  CS[SG(Si4),X(Si2)]
 Deg. of freedom     8
 Full point group                 CS
 Largest Abelian subgroup         CS      NOp   2
 Largest concise Abelian subgroup CS      NOp   2
                         Standard orientation:                         
 ---------------------------------------------------------------------
 Center     Atomic     Atomic              Coordinates (Angstroms)
 Number     Number      Type              X           Y           Z
 ---------------------------------------------------------------------
    1         14             0        0.024511   -0.227904    1.387771
    2         14             0       -0.164848   -2.163152    0.000000
    3         14             0        0.024511    1.895483    0.000000
    4         14             0       -1.900198    0.401191    0.000000
    5         14             0        1.991514    0.322287    0.000000
    6         14             0        0.024511   -0.227904   -1.387771
 ---------------------------------------------------------------------
 Rotational constants (GHZ):      1.5858487      1.4382912      1.1118688
 Standard basis: LANL2DZ (5D, 7F)
 There are    32 symmetry adapted basis functions of A'  symmetry.
 There are    16 symmetry adapted basis functions of A"  symmetry.
 Integral buffers will be    131072 words long.
 Raffenetti 2 integral format.
 Two-electron integral symmetry is turned on.
    48 basis functions,    72 primitive gaussians,    48 cartesian basis functions
    12 alpha electrons       12 beta electrons
       nuclear repulsion energy        46.9730246919 Hartrees.
 NAtoms=    6 NActive=    6 NUniq=    5 SFac= 1.08D+00 NAtFMM=   80 NAOKFM=F Big=F
 One-electron integrals computed using PRISM.
   2 Symmetry operations used in ECPInt.
 ECPInt:  NShTT=     300 NPrTT=     678 LenC2=     301 LenP2D=     673.
 LDataN:  DoStor=F MaxTD1= 3 Len=   28
 LDataN:  DoStor=T MaxTD1= 3 Len=   28
 NBasis=    48 RedAO= T  NBF=    32    16
 NBsUse=    48 1.00D-06 NBFU=    32    16
 Initial guess read from the read-write file:
 Initial guess orbital symmetries:
       Occupied  (A') (A') (A') (A") (A') (A') (A") (A") (A') (A')
                 (A') (A')
       Virtual   (A') (A") (A') (A") (A") (A') (A') (A') (A") (A')
                 (A") (A') (A") (A") (A') (A") (A') (A') (A') (A')
                 (A') (A') (A") (A') (A") (A') (A') (A") (A') (A")
                 (A') (A') (A') (A') (A") (A')
 Harris functional with IExCor=  402 diagonalized for initial guess.
 ExpMin= 8.85D-02 ExpMax= 2.58D+00 ExpMxC= 2.58D+00 IAcc=2 IRadAn=         4 AccDes= 0.00D+00
 HarFok:  IExCor= 402 AccDes= 0.00D+00 IRadAn=         4 IDoV=1
 ScaDFX=  1.000000  1.000000  1.000000  1.000000
 Requested convergence on RMS density matrix=1.00D-08 within 128 cycles.
 Requested convergence on MAX density matrix=1.00D-06.
 Requested convergence on             energy=1.00D-06.
 No special actions if energy rises.
 Keep R1 integrals in memory in canonical form, NReq=     2432772.
 Integral accuracy reduced to 1.0D-05 until final iterations.
 Initial convergence to 1.0D-05 achieved.  Increase integral accuracy.
 SCF Done:  E(RB+HF-LYP) =  -23.1157796627     A.U. after   18 cycles
             Convg  =    0.5274D-08             -V/T =  3.6094
             S**2   =   0.0000
 QCSCF skips out because SCF is already converged.
 Range of M.O.s used for correlation:     1    48
 NBasis=    48 NAE=    12 NBE=    12 NFC=     0 NFV=     0
 NROrb=     48 NOA=    12 NOB=    12 NVA=    36 NVB=    36
   2 Symmetry operations used in ECPInt.
 ECPInt:  NShTT=     300 NPrTT=     678 LenC2=     301 LenP2D=     673.
 LDataN:  DoStor=F MaxTD1= 4 Len=   56
 LDataN:  DoStor=T MaxTD1= 4 Len=   56
 Symmetrizing basis deriv contribution to polar:
 IMax=3 JMax=2 DiffMx= 0.00D+00
 G2DrvN: will do    7 centers at a time, making    1 passes doing MaxLOS=1.
 FoFDir/FoFCou used for L=0 through L=1.
 DoAtom=TTTTTT
          Differentiating once with respect to electric field.
                with respect to dipole field.
          Differentiating once with respect to nuclear coordinates.
          Store integrals in memory, NReq=     1493841.
          There are  18 degrees of freedom in the 1st order CPHF.
    18 vectors were produced by pass  0.
 AX will form  18 AO Fock derivatives at one time.
    18 vectors were produced by pass  1.
    18 vectors were produced by pass  2.
    18 vectors were produced by pass  3.
    18 vectors were produced by pass  4.
    18 vectors were produced by pass  5.
    13 vectors were produced by pass  6.
     3 vectors were produced by pass  7.
     1 vectors were produced by pass  8.
 Inv2:  IOpt= 1 Iter= 1 AM= 2.04D-15 Conv= 1.00D-12.
 Inverted reduced A of dimension  125 with in-core refinement.
 Isotropic polarizability for W=    0.000000      178.60 Bohr**3.
 End of Minotr Frequency-dependent properties file   721 does not exist.
   2 Symmetry operations used in ECPInt.
 ECPInt:  NShTT=     300 NPrTT=     678 LenC2=     301 LenP2D=     678.
 LDataN:  DoStor=F MaxTD1= 5 Len=  102
 LDataN:  DoStor=T MaxTD1= 5 Len=  102
 ***** Axes restored to original set *****
 -------------------------------------------------------------------
 Center     Atomic                   Forces (Hartrees/Bohr)
 Number     Number              X              Y              Z
 -------------------------------------------------------------------
    1         14           0.003809745    0.004485113   -0.015668504
    2         14           0.000589234    0.010123091    0.000000000
    3         14           0.002785542   -0.011162170    0.000000000
    4         14          -0.030297406   -0.006093533    0.000000000
    5         14           0.019303139   -0.001837614    0.000000000
    6         14           0.003809745    0.004485113    0.015668504
 -------------------------------------------------------------------
 Cartesian Forces:  Max     0.030297406 RMS     0.010869157

 GradGradGradGradGradGradGradGradGradGradGradGradGradGradGradGradGradGrad
 Berny optimization.
 Internal  Forces:  Max     0.015036339 RMS     0.005909189
 Search for a local minimum.
 Step number   2 out of a maximum of 100
 All quantities printed in internal units (Hartrees-Bohrs-Radians)
 Second derivative matrix not updated -- analytic derivatives used.
 Trust test= 1.02D+00 RLast= 3.00D-01 DXMaxT set to 4.24D-01
 Maximum step size (   0.424) exceeded in linear search.
    -- Step size scaled by   0.998
 Quintic linear search produced a step of  1.41431.
 Iteration  1 RMS(Cart)=  0.06782018 RMS(Int)=  0.00194603
 Iteration  2 RMS(Cart)=  0.00143820 RMS(Int)=  0.00139025
 Iteration  3 RMS(Cart)=  0.00000212 RMS(Int)=  0.00139025
 Iteration  4 RMS(Cart)=  0.00000000 RMS(Int)=  0.00139025
 Variable       Old X    -DE/DX   Delta X   Delta X   Delta X     New X
                                 (Linear)    (Quad)   (Total)
    R1        4.51441   0.00523   0.06823   0.00000   0.06868   4.58309
    R2        4.79361   0.00311   0.08288   0.00000   0.08260   4.87621
    R3        4.63895   0.01504   0.19647   0.00000   0.19708   4.83603
    R4        4.66641   0.00901   0.14833   0.00000   0.14902   4.81543
    R5        5.24501   0.00001   0.05973   0.00000   0.05688   5.30189
    R6        4.51441   0.00523   0.06823   0.00000   0.06868   4.58309
    R7        4.60466   0.00695   0.10851   0.00000   0.10868   4.71334
    R8        4.75973   0.00466   0.02809   0.00000   0.02814   4.78787
    R9        4.79361   0.00311   0.08288   0.00000   0.08260   4.87621
   R10        4.63895   0.01504   0.19647   0.00000   0.19708   4.83603
   R11        4.66641   0.00901   0.14833   0.00000   0.14902   4.81543
    A1        1.93938   0.00134   0.01126   0.00000   0.00998   1.94936
    A2        1.38681   0.00384   0.06468   0.00000   0.06360   1.45040
    A3        1.48786   0.00133  -0.00014   0.00000  -0.00156   1.48630
    A4        1.82321   0.00192   0.01060   0.00000   0.00723   1.83044
    A5        1.80681   0.00531   0.06718   0.00000   0.06529   1.87210
    A6        1.93938   0.00134   0.01126   0.00000   0.00998   1.94936
    A7        1.38681   0.00384   0.06468   0.00000   0.06360   1.45040
    A8        1.48786   0.00133  -0.00014   0.00000  -0.00156   1.48630
    A9        1.82321   0.00192   0.01060   0.00000   0.00723   1.83044
   A10        3.23913  -0.00134  -0.05527   0.00000  -0.05510   3.18403
   A11        3.23913  -0.00134  -0.05527   0.00000  -0.05510   3.18403
   A12        4.34354  -0.00131  -0.00874   0.00000  -0.00865   4.33489
   A13        1.93964   0.00131   0.00874   0.00000   0.00865   1.94830
         Item               Value     Threshold  Converged?
 Maximum Force            0.015036     0.000450     NO 
 RMS     Force            0.005909     0.000300     NO 
 Maximum Displacement     0.185357     0.001800     NO 
 RMS     Displacement     0.068551     0.001200     NO 
 Predicted change in Energy=-6.425980D-03
 GradGradGradGradGradGradGradGradGradGradGradGradGradGradGradGradGradGrad

                          Input orientation:                          
 ---------------------------------------------------------------------
 Center     Atomic     Atomic              Coordinates (Angstroms)
 Number     Number      Type              X           Y           Z
 ---------------------------------------------------------------------
    1         14             0        0.154412    0.272134   -1.402821
    2         14             0        0.000174    2.244499    0.000000
    3         14             0        0.231512   -1.892237    0.000000
    4         14             0       -1.840411   -0.503667    0.000000
    5         14             0        2.203086   -0.300955    0.000000
    6         14             0        0.154412    0.272134    1.402821
 ---------------------------------------------------------------------
                    Distance matrix (angstroms):
                    1          2          3          4          5
     1  Si   0.000000
     2  Si   2.425267   0.000000
     3  Si   2.580378   4.143199   0.000000
     4  Si   2.559119   3.307593   2.494191   0.000000
     5  Si   2.548216   3.366326   2.533630   4.048575   0.000000
     6  Si   2.805641   2.425267   2.580378   2.559119   2.548216
                    6
     6  Si   0.000000
 Stoichiometry    Si6
 Framework group  CS[SG(Si4),X(Si2)]
 Deg. of freedom     8
 Full point group                 CS
 Largest Abelian subgroup         CS      NOp   2
 Largest concise Abelian subgroup CS      NOp   2
                         Standard orientation:                         
 ---------------------------------------------------------------------
 Center     Atomic     Atomic              Coordinates (Angstroms)
 Number     Number      Type              X           Y           Z
 ---------------------------------------------------------------------
    1         14             0        0.013021   -0.256515    1.402821
    2         14             0       -0.070902   -2.233121    0.000000
    3         14             0        0.013021    1.909229    0.000000
    4         14             0       -2.008155    0.447778    0.000000
    5         14             0        2.039995    0.389143    0.000000
    6         14             0        0.013021   -0.256515   -1.402821
 ---------------------------------------------------------------------
 Rotational constants (GHZ):      1.4891969      1.3835011      1.0432457
 Standard basis: LANL2DZ (5D, 7F)
 There are    32 symmetry adapted basis functions of A'  symmetry.
 There are    16 symmetry adapted basis functions of A"  symmetry.
 Integral buffers will be    131072 words long.
 Raffenetti 2 integral format.
 Two-electron integral symmetry is turned on.
    48 basis functions,    72 primitive gaussians,    48 cartesian basis functions
    12 alpha electrons       12 beta electrons
       nuclear repulsion energy        45.7709913660 Hartrees.
 NAtoms=    6 NActive=    6 NUniq=    5 SFac= 1.08D+00 NAtFMM=   80 NAOKFM=F Big=F
 One-electron integrals computed using PRISM.
   2 Symmetry operations used in ECPInt.
 ECPInt:  NShTT=     300 NPrTT=     678 LenC2=     301 LenP2D=     672.
 LDataN:  DoStor=F MaxTD1= 3 Len=   28
 LDataN:  DoStor=T MaxTD1= 3 Len=   28
 NBasis=    48 RedAO= T  NBF=    32    16
 NBsUse=    48 1.00D-06 NBFU=    32    16
 Initial guess read from the read-write file:
 Initial guess orbital symmetries:
       Occupied  (A') (A') (A') (A") (A') (A') (A") (A') (A") (A')
                 (A') (A')
       Virtual   (A') (A") (A') (A") (A") (A') (A') (A') (A") (A')
                 (A') (A") (A") (A') (A") (A") (A') (A') (A') (A')
                 (A') (A') (A") (A') (A") (A') (A') (A") (A') (A")
                 (A') (A') (A') (A') (A") (A')
 Harris functional with IExCor=  402 diagonalized for initial guess.
 ExpMin= 8.85D-02 ExpMax= 2.58D+00 ExpMxC= 2.58D+00 IAcc=2 IRadAn=         4 AccDes= 0.00D+00
 HarFok:  IExCor= 402 AccDes= 0.00D+00 IRadAn=         4 IDoV=1
 ScaDFX=  1.000000  1.000000  1.000000  1.000000
 Requested convergence on RMS density matrix=1.00D-08 within 128 cycles.
 Requested convergence on MAX density matrix=1.00D-06.
 Requested convergence on             energy=1.00D-06.
 No special actions if energy rises.
 Keep R1 integrals in memory in canonical form, NReq=     2432772.
 Integral accuracy reduced to 1.0D-05 until final iterations.
 Initial convergence to 1.0D-05 achieved.  Increase integral accuracy.
 SCF Done:  E(RB+HF-LYP) =  -23.1226592801     A.U. after   17 cycles
             Convg  =    0.6318D-08             -V/T =  3.6609
             S**2   =   0.0000
 QCSCF skips out because SCF is already converged.
 Range of M.O.s used for correlation:     1    48
 NBasis=    48 NAE=    12 NBE=    12 NFC=     0 NFV=     0
 NROrb=     48 NOA=    12 NOB=    12 NVA=    36 NVB=    36
   2 Symmetry operations used in ECPInt.
 ECPInt:  NShTT=     300 NPrTT=     678 LenC2=     301 LenP2D=     672.
 LDataN:  DoStor=F MaxTD1= 4 Len=   56
 LDataN:  DoStor=T MaxTD1= 4 Len=   56
 Symmetrizing basis deriv contribution to polar:
 IMax=3 JMax=2 DiffMx= 0.00D+00
 G2DrvN: will do    7 centers at a time, making    1 passes doing MaxLOS=1.
 FoFDir/FoFCou used for L=0 through L=1.
 DoAtom=TTTTTT
          Differentiating once with respect to electric field.
                with respect to dipole field.
          Differentiating once with respect to nuclear coordinates.
          Store integrals in memory, NReq=     1493841.
          There are  18 degrees of freedom in the 1st order CPHF.
    18 vectors were produced by pass  0.
 AX will form  18 AO Fock derivatives at one time.
    18 vectors were produced by pass  1.
    18 vectors were produced by pass  2.
    18 vectors were produced by pass  3.
    18 vectors were produced by pass  4.
    18 vectors were produced by pass  5.
    13 vectors were produced by pass  6.
     3 vectors were produced by pass  7.
     2 vectors were produced by pass  8.
 Inv2:  IOpt= 1 Iter= 1 AM= 1.49D-15 Conv= 1.00D-12.
 Inverted reduced A of dimension  126 with in-core refinement.
 Isotropic polarizability for W=    0.000000      185.35 Bohr**3.
 End of Minotr Frequency-dependent properties file   721 does not exist.
   2 Symmetry operations used in ECPInt.
 ECPInt:  NShTT=     300 NPrTT=     678 LenC2=     301 LenP2D=     678.
 LDataN:  DoStor=F MaxTD1= 5 Len=  102
 LDataN:  DoStor=T MaxTD1= 5 Len=  102
 ***** Axes restored to original set *****
 -------------------------------------------------------------------
 Center     Atomic                   Forces (Hartrees/Bohr)
 Number     Number              X              Y              Z
 -------------------------------------------------------------------
    1         14           0.000243919    0.003051477   -0.006212914
    2         14           0.000242360   -0.000592715    0.000000000
    3         14           0.001128239   -0.001271880    0.000000000
    4         14          -0.005043377   -0.002177552    0.000000000
    5         14           0.003184941   -0.002060806    0.000000000
    6         14           0.000243919    0.003051477    0.006212914
 -------------------------------------------------------------------
 Cartesian Forces:  Max     0.006212914 RMS     0.002826574

 GradGradGradGradGradGradGradGradGradGradGradGradGradGradGradGradGradGrad
 Berny optimization.
 Internal  Forces:  Max     0.003089318 RMS     0.001363490
 Search for a local minimum.
 Step number   3 out of a maximum of 100
 All quantities printed in internal units (Hartrees-Bohrs-Radians)
 Second derivative matrix not updated -- analytic derivatives used.
     Eigenvalues ---   -0.00374   0.00450   0.01683   0.01850   0.03144
     Eigenvalues ---    0.03414   0.04953   0.05107   0.05440   0.06481
     Eigenvalues ---    0.06623   0.080861000.000001000.000001000.00000
     Eigenvalues --- 1000.000001000.000001000.000001000.000001000.00000
     Eigenvalues --- 1000.000001000.000001000.000001000.00000
 RFO step:  Lambda=-3.74086471D-03.
 Quintic linear search produced a step of  0.30885.
 Iteration  1 RMS(Cart)=  0.04712424 RMS(Int)=  0.00147584
 Iteration  2 RMS(Cart)=  0.00089720 RMS(Int)=  0.00077830
 Iteration  3 RMS(Cart)=  0.00000064 RMS(Int)=  0.00077830
 Variable       Old X    -DE/DX   Delta X   Delta X   Delta X     New X
                                 (Linear)    (Quad)   (Total)
    R1        4.58309  -0.00030   0.02121  -0.01187  -0.00096   4.58213
    R2        4.87621   0.00142   0.02551   0.03857   0.04837   4.92458
    R3        4.83603   0.00309   0.06087  -0.00388   0.07064   4.90667
    R4        4.81543   0.00242   0.04603   0.04431   0.10346   4.91889
    R5        5.30189   0.00228   0.01757   0.06003   0.07477   5.37667
    R6        4.58309  -0.00030   0.02121  -0.03616  -0.00096   4.58213
    R7        4.71334   0.00023   0.03357  -0.03756  -0.00435   4.70899
    R8        4.78787  -0.00098   0.00869  -0.11682  -0.10843   4.67944
    R9        4.87621   0.00142   0.02551   0.01138   0.04837   4.92458
   R10        4.83603   0.00309   0.06087   0.02486   0.07064   4.90667
   R11        4.81543   0.00242   0.04603   0.07179   0.10346   4.91889
    A1        1.94936  -0.00043   0.00308  -0.02246  -0.01232   1.93704
    A2        1.45040   0.00043   0.01964   0.02570   0.04367   1.49407
    A3        1.48630   0.00021  -0.00048  -0.00394  -0.00585   1.48045
    A4        1.83044  -0.00048   0.00223  -0.02242  -0.02871   1.80174
    A5        1.87210   0.00127   0.02016   0.03217   0.05199   1.92409
    A6        1.94936  -0.00043   0.00308  -0.00639  -0.01232   1.93704
    A7        1.45040   0.00043   0.01964   0.02452   0.04367   1.49407
    A8        1.48630   0.00021  -0.00048  -0.00486  -0.00585   1.48045
    A9        1.83044  -0.00048   0.00223  -0.03757  -0.02871   1.80174
   A10        3.18403  -0.00024  -0.01702  -0.04251  -0.05954   3.12448
   A11        3.18403  -0.00024  -0.01702  -0.04233  -0.05954   3.12448
   A12        4.33489   0.00044  -0.00267   0.02332   0.01244   4.34733
   A13        1.94830  -0.00044   0.00267  -0.00723  -0.01244   1.93585
         Item               Value     Threshold  Converged?
 Maximum Force            0.003089     0.000450     NO 
 RMS     Force            0.001363     0.000300     NO 
 Maximum Displacement     0.120574     0.001800     NO 
 RMS     Displacement     0.046118     0.001200     NO 
 Predicted change in Energy=-8.073268D-04
 GradGradGradGradGradGradGradGradGradGradGradGradGradGradGradGradGradGrad

                          Input orientation:                          
 ---------------------------------------------------------------------
 Center     Atomic     Atomic              Coordinates (Angstroms)
 Number     Number      Type              X           Y           Z
 ---------------------------------------------------------------------
    1         14             0        0.127499    0.305051   -1.422605
    2         14             0        0.041839    2.266760    0.000000
    3         14             0        0.260056   -1.874334    0.000000
    4         14             0       -1.861649   -0.567472    0.000000
    5         14             0        2.207985   -0.345479    0.000000
    6         14             0        0.127499    0.305051    1.422605
 ---------------------------------------------------------------------
                    Distance matrix (angstroms):
                    1          2          3          4          5
     1  Si   0.000000
     2  Si   2.424757   0.000000
     3  Si   2.605973   4.146840   0.000000
     4  Si   2.596500   3.414109   2.491892   0.000000
     5  Si   2.602963   3.393521   2.476252   4.075685   0.000000
     6  Si   2.845210   2.424757   2.605973   2.596500   2.602963
                    6
     6  Si   0.000000
 Stoichiometry    Si6
 Framework group  CS[SG(Si4),X(Si2)]
 Deg. of freedom     8
 Full point group                 CS
 Largest Abelian subgroup         CS      NOp   2
 Largest concise Abelian subgroup CS      NOp   2
                         Standard orientation:                         
 ---------------------------------------------------------------------
 Center     Atomic     Atomic              Coordinates (Angstroms)
 Number     Number      Type              X           Y           Z
 ---------------------------------------------------------------------
    1         14             0       -0.005383   -0.290985    1.422605
    2         14             0        0.028212   -2.254276    0.000000
    3         14             0       -0.005383    1.892428    0.000000
    4         14             0       -2.043834    0.459165    0.000000
    5         14             0        2.031771    0.484654    0.000000
    6         14             0       -0.005383   -0.290985   -1.422605
 ---------------------------------------------------------------------
 Rotational constants (GHZ):      1.4623003      1.3555218      1.0272852
 Standard basis: LANL2DZ (5D, 7F)
 There are    32 symmetry adapted basis functions of A'  symmetry.
 There are    16 symmetry adapted basis functions of A"  symmetry.
 Integral buffers will be    131072 words long.
 Raffenetti 2 integral format.
 Two-electron integral symmetry is turned on.
    48 basis functions,    72 primitive gaussians,    48 cartesian basis functions
    12 alpha electrons       12 beta electrons
       nuclear repulsion energy        45.3958458928 Hartrees.
 NAtoms=    6 NActive=    6 NUniq=    5 SFac= 1.08D+00 NAtFMM=   80 NAOKFM=F Big=F
 One-electron integrals computed using PRISM.
   2 Symmetry operations used in ECPInt.
 ECPInt:  NShTT=     300 NPrTT=     678 LenC2=     301 LenP2D=     670.
 LDataN:  DoStor=F MaxTD1= 3 Len=   28
 LDataN:  DoStor=T MaxTD1= 3 Len=   28
 NBasis=    48 RedAO= T  NBF=    32    16
 NBsUse=    48 1.00D-06 NBFU=    32    16
 Initial guess read from the read-write file:
 Initial guess orbital symmetries:
       Occupied  (A') (A') (A') (A") (A') (A') (A") (A') (A") (A')
                 (A') (A')
       Virtual   (A') (A") (A') (A") (A") (A') (A') (A') (A") (A')
                 (A') (A") (A") (A') (A") (A') (A') (A") (A') (A')
                 (A') (A') (A') (A") (A") (A') (A') (A") (A') (A")
                 (A') (A') (A') (A') (A") (A')
 Harris functional with IExCor=  402 diagonalized for initial guess.
 ExpMin= 8.85D-02 ExpMax= 2.58D+00 ExpMxC= 2.58D+00 IAcc=2 IRadAn=         4 AccDes= 0.00D+00
 HarFok:  IExCor= 402 AccDes= 0.00D+00 IRadAn=         4 IDoV=1
 ScaDFX=  1.000000  1.000000  1.000000  1.000000
 Requested convergence on RMS density matrix=1.00D-08 within 128 cycles.
 Requested convergence on MAX density matrix=1.00D-06.
 Requested convergence on             energy=1.00D-06.
 No special actions if energy rises.
 Keep R1 integrals in memory in canonical form, NReq=     2432772.
 Integral accuracy reduced to 1.0D-05 until final iterations.
 Initial convergence to 1.0D-05 achieved.  Increase integral accuracy.
 SCF Done:  E(RB+HF-LYP) =  -23.1234647654     A.U. after   15 cycles
             Convg  =    0.4348D-08             -V/T =  3.6740
             S**2   =   0.0000
 QCSCF skips out because SCF is already converged.
 Range of M.O.s used for correlation:     1    48
 NBasis=    48 NAE=    12 NBE=    12 NFC=     0 NFV=     0
 NROrb=     48 NOA=    12 NOB=    12 NVA=    36 NVB=    36
   2 Symmetry operations used in ECPInt.
 ECPInt:  NShTT=     300 NPrTT=     678 LenC2=     301 LenP2D=     670.
 LDataN:  DoStor=F MaxTD1= 4 Len=   56
 LDataN:  DoStor=T MaxTD1= 4 Len=   56
 Symmetrizing basis deriv contribution to polar:
 IMax=3 JMax=2 DiffMx= 0.00D+00
 G2DrvN: will do    7 centers at a time, making    1 passes doing MaxLOS=1.
 FoFDir/FoFCou used for L=0 through L=1.
 DoAtom=TTTTTT
          Differentiating once with respect to electric field.
                with respect to dipole field.
          Differentiating once with respect to nuclear coordinates.
          Store integrals in memory, NReq=     1493841.
          There are  18 degrees of freedom in the 1st order CPHF.
    18 vectors were produced by pass  0.
 AX will form  18 AO Fock derivatives at one time.
    18 vectors were produced by pass  1.
    18 vectors were produced by pass  2.
    18 vectors were produced by pass  3.
    18 vectors were produced by pass  4.
    18 vectors were produced by pass  5.
    13 vectors were produced by pass  6.
     3 vectors were produced by pass  7.
     3 vectors were produced by pass  8.
 Inv2:  IOpt= 1 Iter= 1 AM= 1.47D-15 Conv= 1.00D-12.
 Inverted reduced A of dimension  127 with in-core refinement.
 Isotropic polarizability for W=    0.000000      186.93 Bohr**3.
 End of Minotr Frequency-dependent properties file   721 does not exist.
   2 Symmetry operations used in ECPInt.
 ECPInt:  NShTT=     300 NPrTT=     678 LenC2=     301 LenP2D=     678.
 LDataN:  DoStor=F MaxTD1= 5 Len=  102
 LDataN:  DoStor=T MaxTD1= 5 Len=  102
 ***** Axes restored to original set *****
 -------------------------------------------------------------------
 Center     Atomic                   Forces (Hartrees/Bohr)
 Number     Number              X              Y              Z
 -------------------------------------------------------------------
    1         14          -0.000084983    0.000228032   -0.000323695
    2         14          -0.000021133   -0.000352039    0.000000000
    3         14          -0.000598455    0.000224127    0.000000000
    4         14          -0.000262202   -0.000352723    0.000000000
    5         14           0.001051757    0.000024571    0.000000000
    6         14          -0.000084983    0.000228032    0.000323695
 -------------------------------------------------------------------
 Cartesian Forces:  Max     0.001051757 RMS     0.000346468

 GradGradGradGradGradGradGradGradGradGradGradGradGradGradGradGradGradGrad
 Berny optimization.
 Internal  Forces:  Max     0.000423932 RMS     0.000201340
 Search for a local minimum.
 Step number   4 out of a maximum of 100
 All quantities printed in internal units (Hartrees-Bohrs-Radians)
 Second derivative matrix not updated -- analytic derivatives used.
 Trust test= 9.98D-01 RLast= 2.63D-01 DXMaxT set to 6.00D-01
     Eigenvalues ---   -0.00256   0.00485   0.01577   0.01917   0.02746
     Eigenvalues ---    0.02861   0.04769   0.04992   0.05230   0.06073
     Eigenvalues ---    0.06314   0.080431000.000001000.000001000.00000
     Eigenvalues --- 1000.000001000.000001000.000001000.000001000.00000
     Eigenvalues --- 1000.000001000.000001000.000001000.00000
 RFO step:  Lambda=-2.55827505D-03.
 Quintic linear search produced a step of  0.05448.
 Iteration  1 RMS(Cart)=  0.00587957 RMS(Int)=  0.00004577
 Iteration  2 RMS(Cart)=  0.00001502 RMS(Int)=  0.00003897
 Iteration  3 RMS(Cart)=  0.00000000 RMS(Int)=  0.00003897
 Variable       Old X    -DE/DX   Delta X   Delta X   Delta X     New X
                                 (Linear)    (Quad)   (Total)
    R1        4.58213  -0.00019  -0.00005  -0.00273  -0.00262   4.57950
    R2        4.92458  -0.00015   0.00264  -0.00471  -0.00186   4.92272
    R3        4.90667   0.00028   0.00385   0.00923   0.01291   4.91959
    R4        4.91889   0.00042   0.00564   0.00204   0.00751   4.92640
    R5        5.37667   0.00010   0.00407  -0.00069   0.00333   5.38000
    R6        4.58213  -0.00019  -0.00005  -0.00242  -0.00262   4.57950
    R7        4.70899  -0.00025  -0.00024  -0.01553  -0.01577   4.69322
    R8        4.67944   0.00042  -0.00591   0.01096   0.00506   4.68449
    R9        4.92458  -0.00015   0.00264  -0.00438  -0.00186   4.92272
   R10        4.90667   0.00028   0.00385   0.00884   0.01291   4.91959
   R11        4.91889   0.00042   0.00564   0.00164   0.00751   4.92640
    A1        1.93704  -0.00007  -0.00067  -0.00057  -0.00143   1.93562
    A2        1.49407   0.00000   0.00238  -0.00420  -0.00186   1.49222
    A3        1.48045   0.00000  -0.00032   0.00610   0.00575   1.48620
    A4        1.80174   0.00005  -0.00156   0.00034  -0.00118   1.80056
    A5        1.92409   0.00021   0.00283   0.00509   0.00793   1.93202
    A6        1.93704  -0.00007  -0.00067  -0.00077  -0.00143   1.93562
    A7        1.49407   0.00000   0.00238  -0.00418  -0.00186   1.49222
    A8        1.48045   0.00000  -0.00032   0.00612   0.00575   1.48620
    A9        1.80174   0.00005  -0.00156   0.00055  -0.00118   1.80056
   A10        3.12448   0.00007  -0.00324   0.01320   0.00995   3.13444
   A11        3.12448   0.00007  -0.00324   0.01321   0.00995   3.13444
   A12        4.34733   0.00007   0.00068   0.00073   0.00152   4.34885
   A13        1.93585  -0.00007  -0.00068  -0.00092  -0.00152   1.93433
         Item               Value     Threshold  Converged?
 Maximum Force            0.000424     0.000450     YES
 RMS     Force            0.000201     0.000300     YES
 Maximum Displacement     0.012731     0.001800     NO 
 RMS     Displacement     0.005884     0.001200     NO 
 Predicted change in Energy=-1.406770D-05
 GradGradGradGradGradGradGradGradGradGradGradGradGradGradGradGradGradGrad

                          Input orientation:                          
 ---------------------------------------------------------------------
 Center     Atomic     Atomic              Coordinates (Angstroms)
 Number     Number      Type              X           Y           Z
 ---------------------------------------------------------------------
    1         14             0        0.131502    0.308034   -1.423486
    2         14             0        0.035102    2.266887    0.000000
    3         14             0        0.254329   -1.870172    0.000000
    4         14             0       -1.862754   -0.571729    0.000000
    5         14             0        2.213544   -0.351437    0.000000
    6         14             0        0.131502    0.308034    1.423486
 ---------------------------------------------------------------------
                    Distance matrix (angstroms):
                    1          2          3          4          5
     1  Si   0.000000
     2  Si   2.423368   0.000000
     3  Si   2.604992   4.142864   0.000000
     4  Si   2.603335   3.414615   2.483545   0.000000
     5  Si   2.606936   3.406058   2.478927   4.082246   0.000000
     6  Si   2.846973   2.423368   2.604992   2.603335   2.606936
                    6
     6  Si   0.000000
 Stoichiometry    Si6
 Framework group  CS[SG(Si4),X(Si2)]
 Deg. of freedom     8
 Full point group                 CS
 Largest Abelian subgroup         CS      NOp   2
 Largest concise Abelian subgroup CS      NOp   2
                         Standard orientation:                         
 ---------------------------------------------------------------------
 Center     Atomic     Atomic              Coordinates (Angstroms)
 Number     Number      Type              X           Y           Z
 ---------------------------------------------------------------------
    1         14             0       -0.002504   -0.293705    1.423486
    2         14             0        0.011532   -2.254878    0.000000
    3         14             0       -0.002504    1.887962    0.000000
    4         14             0       -2.043127    0.472387    0.000000
    5         14             0        2.039108    0.481939    0.000000
    6         14             0       -0.002504   -0.293705   -1.423486
 ---------------------------------------------------------------------
 Rotational constants (GHZ):      1.4585536      1.3551910      1.0258295
 Standard basis: LANL2DZ (5D, 7F)
 There are    32 symmetry adapted basis functions of A'  symmetry.
 There are    16 symmetry adapted basis functions of A"  symmetry.
 Integral buffers will be    131072 words long.
 Raffenetti 2 integral format.
 Two-electron integral symmetry is turned on.
    48 basis functions,    72 primitive gaussians,    48 cartesian basis functions
    12 alpha electrons       12 beta electrons
       nuclear repulsion energy        45.3702163208 Hartrees.
 NAtoms=    6 NActive=    6 NUniq=    5 SFac= 1.08D+00 NAtFMM=   80 NAOKFM=F Big=F
 One-electron integrals computed using PRISM.
   2 Symmetry operations used in ECPInt.
 ECPInt:  NShTT=     300 NPrTT=     678 LenC2=     301 LenP2D=     670.
 LDataN:  DoStor=F MaxTD1= 3 Len=   28
 LDataN:  DoStor=T MaxTD1= 3 Len=   28
 NBasis=    48 RedAO= T  NBF=    32    16
 NBsUse=    48 1.00D-06 NBFU=    32    16
 Initial guess read from the read-write file:
 Initial guess orbital symmetries:
       Occupied  (A') (A') (A') (A") (A') (A') (A") (A') (A") (A')
                 (A') (A')
       Virtual   (A") (A') (A') (A") (A") (A') (A') (A') (A") (A')
                 (A") (A') (A") (A') (A") (A') (A') (A") (A') (A')
                 (A') (A') (A') (A") (A") (A') (A") (A') (A') (A")
                 (A') (A') (A') (A') (A") (A')
 Requested convergence on RMS density matrix=1.00D-08 within 128 cycles.
 Requested convergence on MAX density matrix=1.00D-06.
 Requested convergence on             energy=1.00D-06.
 No special actions if energy rises.
 Keep R1 integrals in memory in canonical form, NReq=     2432772.
 SCF Done:  E(RB+HF-LYP) =  -23.1234788391     A.U. after   11 cycles
             Convg  =    0.2671D-08             -V/T =  3.6749
             S**2   =   0.0000
 QCSCF skips out because SCF is already converged.
 Range of M.O.s used for correlation:     1    48
 NBasis=    48 NAE=    12 NBE=    12 NFC=     0 NFV=     0
 NROrb=     48 NOA=    12 NOB=    12 NVA=    36 NVB=    36
   2 Symmetry operations used in ECPInt.
 ECPInt:  NShTT=     300 NPrTT=     678 LenC2=     301 LenP2D=     670.
 LDataN:  DoStor=F MaxTD1= 4 Len=   56
 LDataN:  DoStor=T MaxTD1= 4 Len=   56
 Symmetrizing basis deriv contribution to polar:
 IMax=3 JMax=2 DiffMx= 0.00D+00
 G2DrvN: will do    7 centers at a time, making    1 passes doing MaxLOS=1.
 FoFDir/FoFCou used for L=0 through L=1.
 DoAtom=TTTTTT
          Differentiating once with respect to electric field.
                with respect to dipole field.
          Differentiating once with respect to nuclear coordinates.
          Store integrals in memory, NReq=     1493841.
          There are  18 degrees of freedom in the 1st order CPHF.
    18 vectors were produced by pass  0.
 AX will form  18 AO Fock derivatives at one time.
    18 vectors were produced by pass  1.
    18 vectors were produced by pass  2.
    18 vectors were produced by pass  3.
    18 vectors were produced by pass  4.
    18 vectors were produced by pass  5.
    12 vectors were produced by pass  6.
     3 vectors were produced by pass  7.
     3 vectors were produced by pass  8.
 Inv2:  IOpt= 1 Iter= 1 AM= 1.95D-15 Conv= 1.00D-12.
 Inverted reduced A of dimension  126 with in-core refinement.
 Isotropic polarizability for W=    0.000000      187.02 Bohr**3.
 End of Minotr Frequency-dependent properties file   721 does not exist.
   2 Symmetry operations used in ECPInt.
 ECPInt:  NShTT=     300 NPrTT=     678 LenC2=     301 LenP2D=     678.
 LDataN:  DoStor=F MaxTD1= 5 Len=  102
 LDataN:  DoStor=T MaxTD1= 5 Len=  102
 ***** Axes restored to original set *****
 -------------------------------------------------------------------
 Center     Atomic                   Forces (Hartrees/Bohr)
 Number     Number              X              Y              Z
 -------------------------------------------------------------------
    1         14           0.000031505    0.000002237   -0.000023609
    2         14          -0.000026059   -0.000002004    0.000000000
    3         14          -0.000093230    0.000008414    0.000000000
    4         14          -0.000040702   -0.000036188    0.000000000
    5         14           0.000096982    0.000025304    0.000000000
    6         14           0.000031505    0.000002237    0.000023609
 -------------------------------------------------------------------
 Cartesian Forces:  Max     0.000096982 RMS     0.000037688

 GradGradGradGradGradGradGradGradGradGradGradGradGradGradGradGradGradGrad
 Berny optimization.
 Internal  Forces:  Max     0.000068288 RMS     0.000023437
 Search for a local minimum.
 Step number   5 out of a maximum of 100
 All quantities printed in internal units (Hartrees-Bohrs-Radians)
 Second derivative matrix not updated -- analytic derivatives used.
 Trust test= 1.00D+00 RLast= 3.31D-02 DXMaxT set to 6.00D-01
     Eigenvalues ---   -0.00255   0.00479   0.01563   0.01919   0.02682
     Eigenvalues ---    0.02849   0.04728   0.05007   0.05244   0.06042
     Eigenvalues ---    0.06270   0.080781000.000001000.000001000.00000
     Eigenvalues --- 1000.000001000.000001000.000001000.000001000.00000
     Eigenvalues --- 1000.000001000.000001000.000001000.00000
 RFO step:  Lambda=-2.55174444D-03.
 Quintic linear search produced a step of  0.14226.
 Iteration  1 RMS(Cart)=  0.00220802 RMS(Int)=  0.00000617
 Iteration  2 RMS(Cart)=  0.00000308 RMS(Int)=  0.00000428
 Iteration  3 RMS(Cart)=  0.00000000 RMS(Int)=  0.00000428
 Variable       Old X    -DE/DX   Delta X   Delta X   Delta X     New X
                                 (Linear)    (Quad)   (Total)
    R1        4.57950   0.00000  -0.00037   0.00024  -0.00001   4.57949
    R2        4.92272  -0.00002  -0.00026  -0.00016  -0.00023   4.92249
    R3        4.91959   0.00004   0.00184   0.00161   0.00329   4.92288
    R4        4.92640   0.00002   0.00107  -0.00244  -0.00154   4.92486
    R5        5.38000   0.00000   0.00047  -0.00023   0.00027   5.38027
    R6        4.57950   0.00000  -0.00037   0.00051  -0.00001   4.57949
    R7        4.69322  -0.00002  -0.00224  -0.00124  -0.00348   4.68974
    R8        4.68449   0.00007   0.00072   0.00253   0.00325   4.68774
    R9        4.92272  -0.00002  -0.00026   0.00014  -0.00023   4.92249
   R10        4.91959   0.00004   0.00184   0.00125   0.00329   4.92288
   R11        4.92640   0.00002   0.00107  -0.00281  -0.00154   4.92486
    A1        1.93562   0.00000  -0.00020   0.00022  -0.00009   1.93553
    A2        1.49222  -0.00001  -0.00026  -0.00181  -0.00207   1.49015
    A3        1.48620   0.00001   0.00082   0.00148   0.00231   1.48851
    A4        1.80056   0.00001  -0.00017   0.00010   0.00001   1.80056
    A5        1.93202   0.00002   0.00113  -0.00053   0.00060   1.93262
    A6        1.93562   0.00000  -0.00020   0.00005  -0.00009   1.93553
    A7        1.49222  -0.00001  -0.00026  -0.00179  -0.00207   1.49015
    A8        1.48620   0.00001   0.00082   0.00151   0.00231   1.48851
    A9        1.80056   0.00001  -0.00017   0.00028   0.00001   1.80056
   A10        3.13444   0.00003   0.00142   0.00383   0.00525   3.13968
   A11        3.13444   0.00003   0.00142   0.00383   0.00525   3.13968
   A12        4.34885   0.00000   0.00022  -0.00019   0.00012   4.34898
   A13        1.93433   0.00000  -0.00022   0.00002  -0.00012   1.93421
         Item               Value     Threshold  Converged?
 Maximum Force            0.000068     0.000450     YES
 RMS     Force            0.000023     0.000300     YES
 Maximum Displacement     0.006966     0.001800     NO 
 RMS     Displacement     0.002205     0.001200     NO 
 Predicted change in Energy=-5.793575D-07
 GradGradGradGradGradGradGradGradGradGradGradGradGradGradGradGradGradGrad

                          Input orientation:                          
 ---------------------------------------------------------------------
 Center     Atomic     Atomic              Coordinates (Angstroms)
 Number     Number      Type              X           Y           Z
 ---------------------------------------------------------------------
    1         14             0        0.133926    0.308299   -1.423558
    2         14             0        0.031416    2.266780    0.000000
    3         14             0        0.252114   -1.869971    0.000000
    4         14             0       -1.862640   -0.571256    0.000000
    5         14             0        2.214481   -0.352497    0.000000
    6         14             0        0.133926    0.308299    1.423558
 ---------------------------------------------------------------------
                    Distance matrix (angstroms):
                    1          2          3          4          5
     1  Si   0.000000
     2  Si   2.423360   0.000000
     3  Si   2.604870   4.142634   0.000000
     4  Si   2.605074   3.412022   2.481702   0.000000
     5  Si   2.606124   3.409749   2.480648   4.082985   0.000000
     6  Si   2.847117   2.423360   2.604870   2.605074   2.606124
                    6
     6  Si   0.000000
 Stoichiometry    Si6
 Framework group  CS[SG(Si4),X(Si2)]
 Deg. of freedom     8
 Full point group                 CS
 Largest Abelian subgroup         CS      NOp   2
 Largest concise Abelian subgroup CS      NOp   2
                         Standard orientation:                         
 ---------------------------------------------------------------------
 Center     Atomic     Atomic              Coordinates (Angstroms)
 Number     Number      Type              X           Y           Z
 ---------------------------------------------------------------------
    1         14             0       -0.000694   -0.293826    1.423558
    2         14             0        0.003054   -2.254984    0.000000
    3         14             0       -0.000694    1.887648    0.000000
    4         14             0       -2.041979    0.476267    0.000000
    5         14             0        2.041006    0.478720    0.000000
    6         14             0       -0.000694   -0.293826   -1.423558
 ---------------------------------------------------------------------
 Rotational constants (GHZ):      1.4581469      1.3551603      1.0256584
 Standard basis: LANL2DZ (5D, 7F)
 There are    32 symmetry adapted basis functions of A'  symmetry.
 There are    16 symmetry adapted basis functions of A"  symmetry.
 Integral buffers will be    131072 words long.
 Raffenetti 2 integral format.
 Two-electron integral symmetry is turned on.
    48 basis functions,    72 primitive gaussians,    48 cartesian basis functions
    12 alpha electrons       12 beta electrons
       nuclear repulsion energy        45.3671703473 Hartrees.
 NAtoms=    6 NActive=    6 NUniq=    5 SFac= 1.08D+00 NAtFMM=   80 NAOKFM=F Big=F
 One-electron integrals computed using PRISM.
   2 Symmetry operations used in ECPInt.
 ECPInt:  NShTT=     300 NPrTT=     678 LenC2=     301 LenP2D=     670.
 LDataN:  DoStor=F MaxTD1= 3 Len=   28
 LDataN:  DoStor=T MaxTD1= 3 Len=   28
 NBasis=    48 RedAO= T  NBF=    32    16
 NBsUse=    48 1.00D-06 NBFU=    32    16
 Initial guess read from the read-write file:
 Initial guess orbital symmetries:
       Occupied  (A') (A') (A') (A") (A') (A') (A") (A') (A") (A')
                 (A') (A')
       Virtual   (A") (A') (A') (A") (A") (A') (A') (A') (A") (A')
                 (A") (A') (A") (A') (A") (A') (A') (A') (A") (A')
                 (A') (A') (A') (A") (A") (A') (A") (A') (A') (A")
                 (A') (A') (A') (A') (A") (A')
 Requested convergence on RMS density matrix=1.00D-08 within 128 cycles.
 Requested convergence on MAX density matrix=1.00D-06.
 Requested convergence on             energy=1.00D-06.
 No special actions if energy rises.
 Keep R1 integrals in memory in canonical form, NReq=     2432772.
 SCF Done:  E(RB+HF-LYP) =  -23.1234794211     A.U. after   10 cycles
             Convg  =    0.4651D-08             -V/T =  3.6750
             S**2   =   0.0000
 QCSCF skips out because SCF is already converged.
 Range of M.O.s used for correlation:     1    48
 NBasis=    48 NAE=    12 NBE=    12 NFC=     0 NFV=     0
 NROrb=     48 NOA=    12 NOB=    12 NVA=    36 NVB=    36
   2 Symmetry operations used in ECPInt.
 ECPInt:  NShTT=     300 NPrTT=     678 LenC2=     301 LenP2D=     670.
 LDataN:  DoStor=F MaxTD1= 4 Len=   56
 LDataN:  DoStor=T MaxTD1= 4 Len=   56
 Symmetrizing basis deriv contribution to polar:
 IMax=3 JMax=2 DiffMx= 0.00D+00
 G2DrvN: will do    7 centers at a time, making    1 passes doing MaxLOS=1.
 FoFDir/FoFCou used for L=0 through L=1.
 DoAtom=TTTTTT
          Differentiating once with respect to electric field.
                with respect to dipole field.
          Differentiating once with respect to nuclear coordinates.
          Store integrals in memory, NReq=     1493841.
          There are  18 degrees of freedom in the 1st order CPHF.
    18 vectors were produced by pass  0.
 AX will form  18 AO Fock derivatives at one time.
    18 vectors were produced by pass  1.
    18 vectors were produced by pass  2.
    18 vectors were produced by pass  3.
    18 vectors were produced by pass  4.
    18 vectors were produced by pass  5.
    12 vectors were produced by pass  6.
     3 vectors were produced by pass  7.
     3 vectors were produced by pass  8.
 Inv2:  IOpt= 1 Iter= 1 AM= 1.33D-15 Conv= 1.00D-12.
 Inverted reduced A of dimension  126 with in-core refinement.
 Isotropic polarizability for W=    0.000000      187.04 Bohr**3.
 End of Minotr Frequency-dependent properties file   721 does not exist.
   2 Symmetry operations used in ECPInt.
 ECPInt:  NShTT=     300 NPrTT=     678 LenC2=     301 LenP2D=     678.
 LDataN:  DoStor=F MaxTD1= 5 Len=  102
 LDataN:  DoStor=T MaxTD1= 5 Len=  102
 ***** Axes restored to original set *****
 -------------------------------------------------------------------
 Center     Atomic                   Forces (Hartrees/Bohr)
 Number     Number              X              Y              Z
 -------------------------------------------------------------------
    1         14           0.000014800   -0.000003966    0.000003728
    2         14          -0.000008128    0.000004335    0.000000000
    3         14          -0.000009719   -0.000002356    0.000000000
    4         14          -0.000006331   -0.000000812    0.000000000
    5         14          -0.000005422    0.000006765    0.000000000
    6         14           0.000014800   -0.000003966   -0.000003728
 -------------------------------------------------------------------
 Cartesian Forces:  Max     0.000014800 RMS     0.000006659

 GradGradGradGradGradGradGradGradGradGradGradGradGradGradGradGradGradGrad
 Berny optimization.
 Internal  Forces:  Max     0.000009260 RMS     0.000004295
 Search for a local minimum.
 Step number   6 out of a maximum of 100
 All quantities printed in internal units (Hartrees-Bohrs-Radians)
 Second derivative matrix not updated -- analytic derivatives used.
 Trust test= 1.00D+00 RLast= 1.11D-02 DXMaxT set to 6.00D-01
     Eigenvalues ---   -0.00256   0.00478   0.01562   0.01917   0.02676
     Eigenvalues ---    0.02848   0.04723   0.05007   0.05244   0.06038
     Eigenvalues ---    0.06265   0.080791000.000001000.000001000.00000
     Eigenvalues --- 1000.000001000.000001000.000001000.000001000.00000
     Eigenvalues --- 1000.000001000.000001000.000001000.00000
 RFO step:  Lambda=-2.56488035D-03.
 Quintic linear search produced a step of  0.31058.
 Iteration  1 RMS(Cart)=  0.00083539 RMS(Int)=  0.00000142
 Iteration  2 RMS(Cart)=  0.00000046 RMS(Int)=  0.00000127
 Variable       Old X    -DE/DX   Delta X   Delta X   Delta X     New X
                                 (Linear)    (Quad)   (Total)
    R1        4.57949   0.00000   0.00000   0.00001   0.00003   4.57952
    R2        4.92249   0.00000  -0.00007   0.00000  -0.00002   4.92247
    R3        4.92288   0.00000   0.00102   0.00000   0.00098   4.92386
    R4        4.92486  -0.00001  -0.00048  -0.00056  -0.00108   4.92378
    R5        5.38027   0.00000   0.00008  -0.00012  -0.00003   5.38024
    R6        4.57949   0.00000   0.00000   0.00007   0.00003   4.57952
    R7        4.68974   0.00000  -0.00108   0.00012  -0.00096   4.68878
    R8        4.68774   0.00001   0.00101   0.00014   0.00115   4.68890
    R9        4.92249   0.00000  -0.00007   0.00007  -0.00002   4.92247
   R10        4.92288   0.00000   0.00102  -0.00008   0.00098   4.92386
   R11        4.92486  -0.00001  -0.00048  -0.00065  -0.00108   4.92378
    A1        1.93553   0.00000  -0.00003   0.00006   0.00001   1.93554
    A2        1.49015   0.00000  -0.00064  -0.00023  -0.00087   1.48927
    A3        1.48851   0.00000   0.00072   0.00011   0.00083   1.48935
    A4        1.80056   0.00000   0.00000   0.00001   0.00003   1.80060
    A5        1.93262   0.00000   0.00019  -0.00023  -0.00005   1.93257
    A6        1.93553   0.00000  -0.00003   0.00002   0.00001   1.93554
    A7        1.49015   0.00000  -0.00064  -0.00023  -0.00087   1.48927
    A8        1.48851   0.00000   0.00072   0.00012   0.00083   1.48935
    A9        1.80056   0.00000   0.00000   0.00005   0.00003   1.80060
   A10        3.13968   0.00001   0.00163   0.00037   0.00200   3.14168
   A11        3.13968   0.00001   0.00163   0.00037   0.00200   3.14168
   A12        4.34898   0.00000   0.00004  -0.00006   0.00000   4.34898
   A13        1.93421   0.00000  -0.00004   0.00002   0.00000   1.93421
         Item               Value     Threshold  Converged?
 Maximum Force            0.000009     0.000450     YES
 RMS     Force            0.000004     0.000300     YES
 Maximum Displacement     0.002678     0.001800     NO 
 RMS     Displacement     0.000835     0.001200     YES
 Predicted change in Energy=-3.977384D-08
 GradGradGradGradGradGradGradGradGradGradGradGradGradGradGradGradGradGrad

                          Input orientation:                          
 ---------------------------------------------------------------------
 Center     Atomic     Atomic              Coordinates (Angstroms)
 Number     Number      Type              X           Y           Z
 ---------------------------------------------------------------------
    1         14             0        0.134882    0.308316   -1.423551
    2         14             0        0.029999    2.266699    0.000000
    3         14             0        0.251351   -1.870037    0.000000
    4         14             0       -1.862530   -0.570872    0.000000
    5         14             0        2.214640   -0.352760    0.000000
    6         14             0        0.134882    0.308316    1.423551
 ---------------------------------------------------------------------
                    Distance matrix (angstroms):
                    1          2          3          4          5
     1  Si   0.000000
     2  Si   2.423378   0.000000
     3  Si   2.604858   4.142654   0.000000
     4  Si   2.605594   3.410788   2.481193   0.000000
     5  Si   2.605555   3.410898   2.481257   4.083000   0.000000
     6  Si   2.847102   2.423378   2.604858   2.605594   2.605555
                    6
     6  Si   0.000000
 Stoichiometry    Si6
 Framework group  CS[SG(Si4),X(Si2)]
 Deg. of freedom     8
 Full point group                 CS
 Largest Abelian subgroup         CS      NOp   2
 Largest concise Abelian subgroup CS      NOp   2
                         Standard orientation:                         
 ---------------------------------------------------------------------
 Center     Atomic     Atomic              Coordinates (Angstroms)
 Number     Number      Type              X           Y           Z
 ---------------------------------------------------------------------
    1         14             0        0.000030   -0.293790    1.423551
    2         14             0       -0.000145   -2.254979    0.000000
    3         14             0        0.000030    1.887674    0.000000
    4         14             0       -2.041473    0.477502    0.000000
    5         14             0        2.041527    0.477382    0.000000
    6         14             0        0.000030   -0.293790   -1.423551
 ---------------------------------------------------------------------
 Rotational constants (GHZ):      1.4581443      1.3551724      1.0256593
 Standard basis: LANL2DZ (5D, 7F)
 There are    32 symmetry adapted basis functions of A'  symmetry.
 There are    16 symmetry adapted basis functions of A"  symmetry.
 Integral buffers will be    131072 words long.
 Raffenetti 2 integral format.
 Two-electron integral symmetry is turned on.
    48 basis functions,    72 primitive gaussians,    48 cartesian basis functions
    12 alpha electrons       12 beta electrons
       nuclear repulsion energy        45.3671888274 Hartrees.
 NAtoms=    6 NActive=    6 NUniq=    5 SFac= 1.08D+00 NAtFMM=   80 NAOKFM=F Big=F
 One-electron integrals computed using PRISM.
   2 Symmetry operations used in ECPInt.
 ECPInt:  NShTT=     300 NPrTT=     678 LenC2=     301 LenP2D=     670.
 LDataN:  DoStor=F MaxTD1= 3 Len=   28
 LDataN:  DoStor=T MaxTD1= 3 Len=   28
 NBasis=    48 RedAO= T  NBF=    32    16
 NBsUse=    48 1.00D-06 NBFU=    32    16
 Initial guess read from the read-write file:
 Initial guess orbital symmetries:
       Occupied  (A') (A') (A') (A") (A') (A') (A") (A') (A") (A')
                 (A') (A')
       Virtual   (A") (A') (A') (A") (A") (A') (A') (A') (A") (A')
                 (A") (A') (A") (A') (A") (A') (A') (A') (A") (A')
                 (A') (A') (A') (A") (A") (A') (A") (A') (A') (A")
                 (A') (A') (A') (A') (A") (A')
 Requested convergence on RMS density matrix=1.00D-08 within 128 cycles.
 Requested convergence on MAX density matrix=1.00D-06.
 Requested convergence on             energy=1.00D-06.
 No special actions if energy rises.
 Keep R1 integrals in memory in canonical form, NReq=     2432772.
 SCF Done:  E(RB+HF-LYP) =  -23.1234794608     A.U. after    9 cycles
             Convg  =    0.5343D-08             -V/T =  3.6750
             S**2   =   0.0000
 QCSCF skips out because SCF is already converged.
 Range of M.O.s used for correlation:     1    48
 NBasis=    48 NAE=    12 NBE=    12 NFC=     0 NFV=     0
 NROrb=     48 NOA=    12 NOB=    12 NVA=    36 NVB=    36
   2 Symmetry operations used in ECPInt.
 ECPInt:  NShTT=     300 NPrTT=     678 LenC2=     301 LenP2D=     670.
 LDataN:  DoStor=F MaxTD1= 4 Len=   56
 LDataN:  DoStor=T MaxTD1= 4 Len=   56
 Symmetrizing basis deriv contribution to polar:
 IMax=3 JMax=2 DiffMx= 0.00D+00
 G2DrvN: will do    7 centers at a time, making    1 passes doing MaxLOS=1.
 FoFDir/FoFCou used for L=0 through L=1.
 DoAtom=TTTTTT
          Differentiating once with respect to electric field.
                with respect to dipole field.
          Differentiating once with respect to nuclear coordinates.
          Store integrals in memory, NReq=     1493841.
          There are  18 degrees of freedom in the 1st order CPHF.
    18 vectors were produced by pass  0.
 AX will form  18 AO Fock derivatives at one time.
    18 vectors were produced by pass  1.
    18 vectors were produced by pass  2.
    18 vectors were produced by pass  3.
    18 vectors were produced by pass  4.
    18 vectors were produced by pass  5.
    12 vectors were produced by pass  6.
     3 vectors were produced by pass  7.
     3 vectors were produced by pass  8.
 Inv2:  IOpt= 1 Iter= 1 AM= 1.34D-15 Conv= 1.00D-12.
 Inverted reduced A of dimension  126 with in-core refinement.
 Isotropic polarizability for W=    0.000000      187.04 Bohr**3.
[...]
 Symmetry A"   KE= 3.889333285773D+02
  Exact polarizability: 198.771   0.002 202.738   0.000   0.000 153.990
 Approx polarizability: 527.289   0.010 563.494   0.000   0.000 448.707
 Full mass-weighted force constant matrix:
 Low frequencies ---   -6.0718    0.0016    0.0021    0.0022    3.9574    5.7753
 Low frequencies ---    6.1400   96.8973  112.8804
 Diagonal vibrational polarizability:
      322.5057590       3.0170770       0.3275179
 Harmonic frequencies (cm**-1), IR intensities (KM/Mole), Raman scattering
 activities (A**4/AMU), depolarization ratios for plane and unpolarized
 incident light, reduced masses (AMU), force constants (mDyne/A),
 and normal coordinates:
                     1                      2                      3
                    A'                     A'                     A"
 Frequencies --     5.1581                96.8973               112.8797
 Red. masses --    27.9769                27.9769                27.9769
 Frc consts  --     0.0004                 0.1548                 0.2100
 IR Inten    --     0.3153                 0.0301                 0.0083
 Atom AN      X      Y      Z        X      Y      Z        X      Y      Z
   1  14    -0.35   0.00   0.00     0.00  -0.31  -0.08     0.00  -0.02   0.01
   2  14     0.70   0.00   0.00     0.00  -0.33   0.00     0.00   0.00   0.40
   3  14     0.35   0.00   0.00     0.00  -0.18   0.00     0.00   0.00   0.58
   4  14    -0.18   0.20   0.00    -0.01   0.57   0.00     0.00   0.00  -0.50
   5  14    -0.18  -0.20   0.00     0.01   0.57   0.00     0.00   0.00  -0.50
   6  14    -0.35   0.00   0.00     0.00  -0.31   0.08     0.00   0.02   0.01
                     4                      5                      6
                    A'                     A"                     A'
 Frequencies --   267.1501               291.7810               323.6698
 Red. masses --    27.9769                27.9769                27.9769
 Frc consts  --     1.1764                 1.4033                 1.7268
 IR Inten    --     0.8983                 0.7496                 0.0239
 Atom AN      X      Y      Z        X      Y      Z        X      Y      Z
   1  14    -0.22   0.00   0.00     0.00  -0.11   0.57     0.00  -0.10   0.47
   2  14    -0.26   0.00   0.00     0.00   0.00  -0.30     0.00   0.38   0.00
   3  14     0.64   0.00   0.00     0.00   0.00  -0.30     0.00  -0.33   0.00
   4  14     0.03  -0.46   0.00     0.00   0.00  -0.27     0.37   0.07   0.00
   5  14     0.03   0.46   0.00     0.00   0.00  -0.27    -0.37   0.07   0.00
   6  14    -0.22   0.00   0.00     0.00   0.11   0.57     0.00  -0.10  -0.47
                     7                      8                      9
                    A"                     A'                     A"
 Frequencies --   347.5126               357.9123               389.0518
 Red. masses --    27.9769                27.9769                27.9769
 Frc consts  --     1.9906                 2.1116                 2.4950
 IR Inten    --     0.0000                 0.5939                 0.4108
 Atom AN      X      Y      Z        X      Y      Z        X      Y      Z
   1  14     0.58   0.00   0.00     0.00  -0.12   0.00     0.00   0.58   0.07
   2  14     0.00   0.00   0.00     0.00  -0.33   0.00     0.00   0.00  -0.46
   3  14     0.00   0.00   0.00     0.00   0.67   0.00     0.00   0.00   0.34
   4  14     0.00   0.00  -0.40     0.45  -0.05   0.00     0.00   0.00  -0.01
   5  14     0.00   0.00   0.40    -0.45  -0.05   0.00     0.00   0.00  -0.01
   6  14    -0.58   0.00   0.00     0.00  -0.12   0.00     0.00  -0.58   0.07
                    10                     11                     12
                    A'                     A'                     A'
 Frequencies --   431.5651               434.0325               456.5876
 Red. masses --    27.9769                27.9769                27.9769
 Frc consts  --     3.0700                 3.1052                 3.4364
 IR Inten    --    22.7023                 2.2688                19.1796
 Atom AN      X      Y      Z        X      Y      Z        X      Y      Z
   1  14    -0.40   0.00   0.00     0.00   0.21  -0.44     0.00  -0.41  -0.28
   2  14     0.00   0.00   0.00     0.00   0.03   0.00     0.00   0.68   0.00
   3  14    -0.29   0.00   0.00     0.00  -0.45   0.00     0.00   0.20   0.00
   4  14     0.54   0.02   0.00     0.40   0.00   0.00    -0.01  -0.03   0.00
   5  14     0.54  -0.02   0.00    -0.40   0.00   0.00     0.01  -0.03   0.00
   6  14    -0.40   0.00   0.00     0.00   0.21   0.44     0.00  -0.41   0.28

 -------------------
 - Thermochemistry -
 -------------------
 Temperature   298.150 Kelvin.  Pressure   1.00000 Atm.
 Atom  1 has atomic number 14 and mass  27.97693
 Atom  2 has atomic number 14 and mass  27.97693
 Atom  3 has atomic number 14 and mass  27.97693
 Atom  4 has atomic number 14 and mass  27.97693
 Atom  5 has atomic number 14 and mass  27.97693
 Atom  6 has atomic number 14 and mass  27.97693
 Molecular mass:   167.86157 amu.
 Principal axes and moments of inertia in atomic units:
                           1         2         3
     EIGENVALUES --  1124.468131167.445941562.28842
           X            0.00032   1.00000   0.00000
           Y            1.00000  -0.00032   0.00000
           Z            0.00000   0.00000   1.00000
 This molecule is an asymmetric top.
 Rotational symmetry number  1.
 Warning -- assumption of classical behavior for rotation
           may cause significant error
 Rotational temperatures (Kelvin)      0.07703     0.07419     0.05544
 Rotational constants (GHZ):           1.60497     1.54589     1.15519
 Zero-point vibrational energy      21019.6 (Joules/Mol)
                                    5.02380 (Kcal/Mol)
 Warning -- explicit consideration of  12 degrees of freedom as
           vibrations may cause significant error
 Vibrational temperatures:      7.42   139.41   162.41   384.37   419.81
          (Kelvin)            465.69   499.99   514.96   559.76   620.93
                              624.48   656.93
 
 Zero-point correction=                           0.008006 (Hartree/Particle)
 Thermal correction to Energy=                    0.016359
 Thermal correction to Enthalpy=                  0.017303
 Thermal correction to Gibbs Free Energy=        -0.028588
 Sum of electronic and zero-point Energies=          -1737.018407
 Sum of electronic and thermal Energies=             -1737.010054
 Sum of electronic and thermal Enthalpies=           -1737.009110
 Sum of electronic and thermal Free Energies=        -1737.055002
 
                     E (Thermal)             CV                S
                      KCal/Mol        Cal/Mol-Kelvin    Cal/Mol-Kelvin
 Total                   10.266             25.666             96.588
 Electronic               0.000              0.000              0.000
 Translational            0.889              2.981             41.262
 Rotational               0.889              2.981             29.107
 Vibrational              8.488             19.705             26.218
 Vibration  1             0.593              1.987              9.326
 Vibration  2             0.603              1.951              3.516
 Vibration  3             0.607              1.939              3.219
 Vibration  4             0.672              1.733              1.615
 Vibration  5             0.687              1.689              1.464
 Vibration  6             0.708              1.628              1.292
 Vibration  7             0.725              1.580              1.177
 Vibration  8             0.733              1.559              1.131
 Vibration  9             0.757              1.494              1.004
 Vibration 10             0.793              1.401              0.854
 Vibration 11             0.795              1.396              0.846
 Vibration 12             0.815              1.346              0.776
                       Q            Log10(Q)             Ln(Q)
 Total Bot       0.141174D+14         13.149756         30.278431
 Total V=0       0.679549D+17         16.832221         38.757621
 Vib (Bot)       0.322147D+00         -0.491946         -1.132746
 Vib (Bot)  1    0.401734D+02          1.603939          3.693206
 Vib (Bot)  2    0.211924D+01          0.326181          0.751059
 Vib (Bot)  3    0.181330D+01          0.258470          0.595149
 Vib (Bot)  4    0.724465D+00         -0.139982         -0.322321
 Vib (Bot)  5    0.654762D+00         -0.183916         -0.423483
 Vib (Bot)  6    0.579506D+00         -0.236942         -0.545580
 Vib (Bot)  7    0.531770D+00         -0.274276         -0.631545
 Vib (Bot)  8    0.512821D+00         -0.290034         -0.667828
 Vib (Bot)  9    0.461771D+00         -0.335573         -0.772686
 Vib (Bot) 10    0.403244D+00         -0.394433         -0.908215
 Vib (Bot) 11    0.400176D+00         -0.397749         -0.915851
 Vib (Bot) 12    0.373569D+00         -0.427629         -0.984651
 Vib (V=0)       0.155067D+04          3.190520          7.346443
 Vib (V=0)  1    0.406765D+02          1.609344          3.705651
 Vib (V=0)  2    0.267743D+01          0.427718          0.984857
 Vib (V=0)  3    0.238097D+01          0.376755          0.867510
 Vib (V=0)  4    0.138026D+01          0.139960          0.322269
 Vib (V=0)  5    0.132384D+01          0.121836          0.280537
 Vib (V=0)  6    0.126539D+01          0.102226          0.235383
 Vib (V=0)  7    0.122992D+01          0.089876          0.206947
 Vib (V=0)  8    0.121623D+01          0.085016          0.195756
 Vib (V=0)  9    0.118061D+01          0.072107          0.166033
 Vib (V=0) 10    0.114234D+01          0.057797          0.133082
 Vib (V=0) 11    0.114042D+01          0.057066          0.131399
 Vib (V=0) 12    0.112414D+01          0.050821          0.117021
 Electronic      0.100000D+01          0.000000          0.000000
 Translational   0.854835D+08          7.931882         18.263833
 Rotational      0.512648D+06          5.709819         13.147344
 ***** Axes restored to original set *****
 -------------------------------------------------------------------
 Center     Atomic                   Forces (Hartrees/Bohr)
 Number     Number              X              Y              Z
 -------------------------------------------------------------------
    1         14           0.000000544   -0.000010108   -0.000004053
    2         14           0.000000434   -0.000008246    0.000000000
    3         14          -0.000000644    0.000012250    0.000000000
    4         14          -0.000010623    0.000007560    0.000000000
    5         14           0.000009745    0.000008652    0.000000000
    6         14           0.000000544   -0.000010108    0.000004053
 -------------------------------------------------------------------
 Cartesian Forces:  Max     0.000012250 RMS     0.000006651

 GradGradGradGradGradGradGradGradGradGradGradGradGradGradGradGradGradGrad
 Berny optimization.
 Internal  Forces:  Max     0.000013446 RMS     0.000005938
 Search for a local minimum.
 Step number   1 out of a maximum of   2
 All quantities printed in internal units (Hartrees-Bohrs-Radians)
 Second derivative matrix not updated -- analytic derivatives used.
     Eigenvalues ---    0.00003   0.01270   0.01648   0.03409   0.04212
     Eigenvalues ---    0.05760   0.05789   0.06128   0.07183   0.07779
     Eigenvalues ---    0.08359   0.099991000.000001000.000001000.00000
     Eigenvalues --- 1000.000001000.000001000.000001000.000001000.00000
     Eigenvalues --- 1000.000001000.000001000.000001000.00000
 Angle between quadratic step and forces=  41.30 degrees.
 Linear search not attempted -- first point.
 Iteration  1 RMS(Cart)=  0.00033925 RMS(Int)=  0.00000011
 Iteration  2 RMS(Cart)=  0.00000007 RMS(Int)=  0.00000005
 Variable       Old X    -DE/DX   Delta X   Delta X   Delta X     New X
                                 (Linear)    (Quad)   (Total)
    R1        4.42596   0.00000   0.00000   0.00006   0.00006   4.42602
    R2        4.60638  -0.00001   0.00000  -0.00022  -0.00022   4.60616
    R3        4.57064   0.00000   0.00000  -0.00016  -0.00016   4.57048
    R4        4.57061   0.00000   0.00000  -0.00018  -0.00018   4.57044
    R5        5.10681   0.00001   0.00000   0.00028   0.00028   5.10709
    R6        4.42596   0.00000   0.00000   0.00006   0.00006   4.42602
    R7        4.71545   0.00001   0.00000   0.00072   0.00072   4.71617
    R8        4.71554   0.00001   0.00000   0.00077   0.00077   4.71630
    R9        4.60638  -0.00001   0.00000  -0.00022  -0.00022   4.60616
   R10        4.57064   0.00000   0.00000  -0.00016  -0.00016   4.57048
   R11        4.57061   0.00000   0.00000  -0.00018  -0.00018   4.57044
    A1        1.93910   0.00000   0.00000  -0.00010  -0.00010   1.93900
    A2        1.40700  -0.00001   0.00000  -0.00033  -0.00033   1.40667
    A3        1.40707  -0.00001   0.00000  -0.00029  -0.00029   1.40678
    A4        1.87524   0.00000   0.00000   0.00014   0.00014   1.87538
    A5        1.79377   0.00000   0.00000  -0.00036  -0.00036   1.79341
    A6        1.93910   0.00000   0.00000  -0.00010  -0.00010   1.93900
    A7        1.40700  -0.00001   0.00000  -0.00033  -0.00033   1.40667
    A8        1.40707  -0.00001   0.00000  -0.00029  -0.00029   1.40678
    A9        1.87524   0.00000   0.00000   0.00014   0.00014   1.87538
   A10        3.14166   0.00000   0.00000   0.00004   0.00004   3.14170
   A11        3.14166   0.00000   0.00000   0.00004   0.00004   3.14170
   A12        4.34542   0.00000   0.00000   0.00010   0.00010   4.34552
   A13        1.93777   0.00000   0.00000  -0.00010  -0.00010   1.93767
         Item               Value     Threshold  Converged?
 Maximum Force            0.000013     0.000450     YES
 RMS     Force            0.000006     0.000300     YES
 Maximum Displacement     0.000945     0.001800     YES
 RMS     Displacement     0.000339     0.001200     YES
 Predicted change in Energy=-1.544510D-08
 Optimization completed.
    -- Stationary point found.
                           ----------------------------
                           !   Optimized Parameters   !
                           ! (Angstroms and Degrees)  !
 --------------------------                            --------------------------
 ! Name  Definition              Value          Derivative Info.                !
 --------------------------------------------------------------------------------
 ! R1    R(1,2)                  2.3421         -DE/DX =    0.0                 !
 ! R2    R(1,3)                  2.4376         -DE/DX =    0.0                 !
 ! R3    R(1,4)                  2.4187         -DE/DX =    0.0                 !
 ! R4    R(1,5)                  2.4187         -DE/DX =    0.0                 !
 ! R5    R(1,6)                  2.7024         -DE/DX =    0.0                 !
 ! R6    R(2,6)                  2.3421         -DE/DX =    0.0                 !
 ! R7    R(3,4)                  2.4953         -DE/DX =    0.0                 !
 ! R8    R(3,5)                  2.4954         -DE/DX =    0.0                 !
 ! R9    R(3,6)                  2.4376         -DE/DX =    0.0                 !
 ! R10   R(4,6)                  2.4187         -DE/DX =    0.0                 !
 ! R11   R(5,6)                  2.4187         -DE/DX =    0.0                 !
 ! A1    A(2,1,3)              111.1022         -DE/DX =    0.0                 !
 ! A2    A(2,1,4)               80.6152         -DE/DX =    0.0                 !
 ! A3    A(2,1,5)               80.6191         -DE/DX =    0.0                 !
 ! A4    A(4,1,5)              107.4436         -DE/DX =    0.0                 !
 ! A5    A(4,3,5)              102.7755         -DE/DX =    0.0                 !
 ! A6    A(2,6,3)              111.1022         -DE/DX =    0.0                 !
 ! A7    A(2,6,4)               80.6152         -DE/DX =    0.0                 !
 ! A8    A(2,6,5)               80.6191         -DE/DX =    0.0                 !
 ! A9    A(4,6,5)              107.4436         -DE/DX =    0.0                 !
 ! A10   L(2,1,3,-3,-1)        180.0041         -DE/DX =    0.0                 !
 ! A11   L(2,6,3,-3,-1)        180.0041         -DE/DX =    0.0                 !
 ! A12   L(2,1,3,-1,-2)        248.9742         -DE/DX =    0.0                 !
 ! A13   L(2,6,3,-1,-2)        111.0258         -DE/DX =    0.0                 !
 --------------------------------------------------------------------------------
 GradGradGradGradGradGradGradGradGradGradGradGradGradGradGradGradGradGrad

 1\1\GINC-NODE37\Freq\RB3LYP\6-311+G(d)\Si6\TAM\04-Apr-2011\0\\#N Geom=
 AllCheck Guess=Read SCRF=Check GenChk RB3LYP/6-311+G(d) Freq\\si6-n\\0
 ,1\Si,0.1411049822,0.1917589543,-1.3512047607\Si,0.0388155022,2.102068
 7347,0.\Si,0.2494409359,-1.8341630673,0.\Si,-1.7807479491,-0.383335824
 3,0.\Si,2.1133233084,-0.1750258426,0.\Si,0.1411049822,0.1917589543,1.3
 512047607\\Version=AM64L-G03RevE.01\State=1-A'\HF=-1737.0264134\RMSD=2
 .808e-09\RMSF=6.651e-06\ZeroPoint=0.0080059\Thermal=0.0163593\Dipole=-
 0.002906,0.0545902,0.\DipoleDeriv=-0.3267488,0.0013488,0.0022832,0.001
 3541,-0.3516872,-0.0428305,0.0043695,-0.0819508,-0.0912551,-0.0983077,
 -0.034276,0.,-0.0342994,0.5403091,0.,0.,0.,0.0922363,-0.1645352,-0.017
 5977,0.,-0.0175747,0.163338,0.,0.,0.,-0.0068891,0.4451824,0.18554,0.,0
 .1053969,0.0128204,0.,0.,0.,0.0485715,0.4711581,-0.1363638,0.,-0.05623
 09,-0.013093,0.,0.,0.,0.0485914,-0.3267488,0.0013488,-0.0022832,0.0013
 541,-0.3516872,0.0428305,-0.0043695,0.0819508,-0.0912551\Polar=198.782
 0451,-0.2132018,202.726256,0.,0.0000002,153.9902156\PG=CS [SG(Si4),X(S
 i2)]\NImag=0\\0.07883101,-0.00132492,0.10349689,-0.00016594,0.00309115
 ,0.11104262,0.00365565,0.00329457,0.00131978,0.00531123,0.00329484,-0.
 05771367,-0.02463708,-0.00698746,0.13547065,0.00211572,-0.03952762,-0.
 02049468,0.,0.,0.04384433,0.01212692,0.00298439,-0.00053263,-0.0126096
 4,0.00018939,0.,0.04732814,0.00298462,-0.04351734,0.00996906,0.0001906
 2,-0.01614361,0.,-0.00402128,0.12222063,-0.00182096,0.03404951,-0.0112
 5422,0.,0.,-0.01400511,0.,0.,0.03112725,-0.04287836,-0.00850474,0.0150
 7749,0.00026226,0.00407500,0.,-0.03121662,0.00773877,0.,0.13280687,-0.
 00841822,0.00058022,0.00618320,-0.00887960,-0.00221996,0.,0.02234849,-
 0.00779500,0.,0.00450259,0.02083513,0.02980699,0.00321982,-0.01429538,
 0.,0.,0.00557484,0.,0.,0.00269352,0.,0.,0.03093730,-0.04418072,0.00370
 280,-0.01565323,-0.00027516,-0.00386661,0.,-0.02775574,-0.00987735,0.,
 -0.01609580,-0.00113505,0.,0.13248812,0.00361579,0.00187970,0.00453982
 ,0.00908729,-0.00167974,0.,-0.02448538,-0.01124734,0.,0.00069311,-0.01
 198062,0.,0.00747341,0.02114829,-0.02998128,0.00002099,-0.01429629,0.,
 0.,0.00557530,0.,0.,0.00269278,0.,0.,-0.01061490,0.,0.,0.03093941,-0.0
 0755452,-0.00015211,-0.00004548,0.00365565,0.00329484,-0.00211572,0.01
 212692,0.00298462,0.00182096,-0.04287836,-0.00841822,-0.02980699,-0.04
 418072,0.00361579,0.02998128,0.07883101,-0.00015211,-0.00472580,0.0008
 5385,0.00329457,-0.05771367,0.03952762,0.00298439,-0.04351734,-0.03404
 951,-0.00850474,0.00058022,-0.00321982,0.00370280,0.00187970,-0.000020
 99,-0.00132492,0.10349689,0.00004548,-0.00085385,-0.05070205,-0.001319
 78,0.02463708,-0.02049468,0.00053263,-0.00996906,-0.01125422,-0.015077
 49,-0.00618320,-0.01429538,0.01565323,-0.00453982,-0.01429629,0.000165
 94,-0.00309115,0.11104262\\-0.00000054,0.00001011,0.00000405,-0.000000
 43,0.00000825,0.,0.00000064,-0.00001225,0.,0.00001062,-0.00000756,0.,-
 0.00000975,-0.00000865,0.,-0.00000054,0.00001011,-0.00000405\\\@


 The number of Unix installations has grown to 10,
  with more expected.
                  -- The Unix Programmer's Manual,
                     2nd Edition, June, 1972.
 Job cpu time:  0 days  0 hours  8 minutes 50.9 seconds.
 File lengths (MBytes):  RWF=     47 Int=      0 D2E=      0 Chk=      8 Scr=      1
 Normal termination of Gaussian 03 at Mon Apr  4 16:07:55 2011.
